  29  29   0   0
  0.1632129E+02  0.5473281E-09  0.8209921E-09  0.1128346E-08  0.5000000E-15
  1.000000000000000E-004
  CAR 
 Nb - Mo - Ta - Ti - V SQS               
     11.63036498    -50.37156538  301      6.58517157      1.00000000
    -50.372  0.0000E+00  0.0000E+00
    -50.165  0.0000E+00  0.0000E+00
    -49.958  0.0000E+00  0.0000E+00
    -49.752  0.0000E+00  0.0000E+00
    -49.545  0.0000E+00  0.0000E+00
    -49.338 -0.6189E-35 -0.1279E-35
    -49.132 -0.2053E-27 -0.4243E-28
    -48.925 -0.7947E-21 -0.1642E-21
    -48.718 -0.3479E-15 -0.7190E-16
    -48.512 -0.1771E-10 -0.3660E-11
    -48.305 -0.1017E-06 -0.2101E-07
    -48.098 -0.6319E-04 -0.1308E-04
    -47.891 -0.3791E-02 -0.7966E-03
    -47.685 -0.2414E-02 -0.1296E-02
    -47.478  0.2144E+00  0.4302E-01
    -47.271  0.5242E+00  0.1514E+00
    -47.065  0.4060E+00  0.2353E+00
    -46.858  0.3253E-01  0.2420E+00
    -46.651 -0.9369E-02  0.2401E+00
    -46.445 -0.2937E-03  0.2400E+00
    -46.238 -0.8590E-06  0.2400E+00
    -46.031 -0.2760E-09  0.2400E+00
    -45.825 -0.1006E-13  0.2400E+00
    -45.618  0.0000E+00  0.2400E+00
    -45.411  0.0000E+00  0.2400E+00
    -45.205  0.0000E+00  0.2400E+00
    -44.998  0.0000E+00  0.2400E+00
    -44.791  0.0000E+00  0.2400E+00
    -44.585  0.0000E+00  0.2400E+00
    -44.378  0.0000E+00  0.2400E+00
    -44.171  0.0000E+00  0.2400E+00
    -43.965  0.0000E+00  0.2400E+00
    -43.758  0.0000E+00  0.2400E+00
    -43.551  0.0000E+00  0.2400E+00
    -43.345  0.0000E+00  0.2400E+00
    -43.138  0.0000E+00  0.2400E+00
    -42.931  0.0000E+00  0.2400E+00
    -42.725  0.0000E+00  0.2400E+00
    -42.518  0.0000E+00  0.2400E+00
    -42.311  0.0000E+00  0.2400E+00
    -42.105  0.0000E+00  0.2400E+00
    -41.898  0.0000E+00  0.2400E+00
    -41.691  0.0000E+00  0.2400E+00
    -41.485  0.0000E+00  0.2400E+00
    -41.278  0.0000E+00  0.2400E+00
    -41.071  0.0000E+00  0.2400E+00
    -40.865  0.0000E+00  0.2400E+00
    -40.658  0.0000E+00  0.2400E+00
    -40.451  0.0000E+00  0.2400E+00
    -40.245  0.0000E+00  0.2400E+00
    -40.038  0.0000E+00  0.2400E+00
    -39.831  0.0000E+00  0.2400E+00
    -39.625  0.0000E+00  0.2400E+00
    -39.418  0.0000E+00  0.2400E+00
    -39.211  0.0000E+00  0.2400E+00
    -39.005  0.0000E+00  0.2400E+00
    -38.798  0.0000E+00  0.2400E+00
    -38.591  0.0000E+00  0.2400E+00
    -38.385  0.0000E+00  0.2400E+00
    -38.178  0.0000E+00  0.2400E+00
    -37.971  0.0000E+00  0.2400E+00
    -37.765  0.0000E+00  0.2400E+00
    -37.558  0.0000E+00  0.2400E+00
    -37.351  0.0000E+00  0.2400E+00
    -37.144  0.0000E+00  0.2400E+00
    -36.938  0.0000E+00  0.2400E+00
    -36.731  0.0000E+00  0.2400E+00
    -36.524  0.0000E+00  0.2400E+00
    -36.318  0.0000E+00  0.2400E+00
    -36.111  0.0000E+00  0.2400E+00
    -35.904  0.0000E+00  0.2400E+00
    -35.698  0.0000E+00  0.2400E+00
    -35.491  0.0000E+00  0.2400E+00
    -35.284  0.0000E+00  0.2400E+00
    -35.078  0.0000E+00  0.2400E+00
    -34.871  0.0000E+00  0.2400E+00
    -34.664  0.0000E+00  0.2400E+00
    -34.458  0.0000E+00  0.2400E+00
    -34.251  0.0000E+00  0.2400E+00
    -34.044  0.0000E+00  0.2400E+00
    -33.838  0.0000E+00  0.2400E+00
    -33.631  0.0000E+00  0.2400E+00
    -33.424  0.0000E+00  0.2400E+00
    -33.218  0.0000E+00  0.2400E+00
    -33.011  0.0000E+00  0.2400E+00
    -32.804  0.0000E+00  0.2400E+00
    -32.598  0.0000E+00  0.2400E+00
    -32.391  0.0000E+00  0.2400E+00
    -32.184  0.0000E+00  0.2400E+00
    -31.978  0.0000E+00  0.2400E+00
    -31.771  0.0000E+00  0.2400E+00
    -31.564  0.0000E+00  0.2400E+00
    -31.358  0.0000E+00  0.2400E+00
    -31.151  0.0000E+00  0.2400E+00
    -30.944  0.0000E+00  0.2400E+00
    -30.738  0.0000E+00  0.2400E+00
    -30.531  0.0000E+00  0.2400E+00
    -30.324  0.0000E+00  0.2400E+00
    -30.118  0.0000E+00  0.2400E+00
    -29.911  0.0000E+00  0.2400E+00
    -29.704  0.0000E+00  0.2400E+00
    -29.498  0.0000E+00  0.2400E+00
    -29.291  0.0000E+00  0.2400E+00
    -29.084  0.0000E+00  0.2400E+00
    -28.878  0.0000E+00  0.2400E+00
    -28.671  0.0000E+00  0.2400E+00
    -28.464  0.0000E+00  0.2400E+00
    -28.258  0.0000E+00  0.2400E+00
    -28.051  0.0000E+00  0.2400E+00
    -27.844  0.0000E+00  0.2400E+00
    -27.638  0.0000E+00  0.2400E+00
    -27.431  0.0000E+00  0.2400E+00
    -27.224  0.0000E+00  0.2400E+00
    -27.018  0.0000E+00  0.2400E+00
    -26.811  0.0000E+00  0.2400E+00
    -26.604  0.0000E+00  0.2400E+00
    -26.397  0.0000E+00  0.2400E+00
    -26.191  0.0000E+00  0.2400E+00
    -25.984 -0.1086E-32  0.2400E+00
    -25.777 -0.1585E-25  0.2400E+00
    -25.571 -0.2704E-19  0.2400E+00
    -25.364 -0.5213E-14  0.2400E+00
    -25.157 -0.1195E-09  0.2400E+00
    -24.951 -0.3145E-06  0.2400E+00
    -24.744 -0.9106E-04  0.2400E+00
    -24.537 -0.2333E-02  0.2395E+00
    -24.331  0.7107E-02  0.2410E+00
    -24.124  0.9053E-01  0.2597E+00
    -23.917  0.2803E+00  0.3176E+00
    -23.711  0.4702E+00  0.4148E+00
    -23.504  0.8359E+00  0.5875E+00
    -23.297  0.1021E+01  0.7985E+00
    -23.091  0.5079E+00  0.9034E+00
    -22.884  0.2203E+00  0.9490E+00
    -22.677  0.5772E-01  0.9609E+00
    -22.471 -0.3247E-02  0.9602E+00
    -22.264 -0.1005E-02  0.9600E+00
    -22.057 -0.1529E-04  0.9600E+00
    -21.851 -0.2459E-07  0.9600E+00
    -21.644 -0.4479E-11  0.9600E+00
    -21.437 -0.9209E-16  0.9600E+00
    -21.231  0.0000E+00  0.9600E+00
    -21.024  0.0000E+00  0.9600E+00
    -20.817  0.0000E+00  0.9600E+00
    -20.611  0.0000E+00  0.9600E+00
    -20.404  0.0000E+00  0.9600E+00
    -20.197  0.0000E+00  0.9600E+00
    -19.991  0.0000E+00  0.9600E+00
    -19.784  0.0000E+00  0.9600E+00
    -19.577  0.0000E+00  0.9600E+00
    -19.371  0.0000E+00  0.9600E+00
    -19.164  0.0000E+00  0.9600E+00
    -18.957  0.0000E+00  0.9600E+00
    -18.751  0.0000E+00  0.9600E+00
    -18.544  0.0000E+00  0.9600E+00
    -18.337  0.0000E+00  0.9600E+00
    -18.131  0.0000E+00  0.9600E+00
    -17.924  0.0000E+00  0.9600E+00
    -17.717  0.0000E+00  0.9600E+00
    -17.511  0.0000E+00  0.9600E+00
    -17.304  0.0000E+00  0.9600E+00
    -17.097  0.0000E+00  0.9600E+00
    -16.891  0.0000E+00  0.9600E+00
    -16.684  0.0000E+00  0.9600E+00
    -16.477  0.0000E+00  0.9600E+00
    -16.271  0.0000E+00  0.9600E+00
    -16.064  0.0000E+00  0.9600E+00
    -15.857  0.0000E+00  0.9600E+00
    -15.650  0.0000E+00  0.9600E+00
    -15.444  0.0000E+00  0.9600E+00
    -15.237  0.0000E+00  0.9600E+00
    -15.030  0.0000E+00  0.9600E+00
    -14.824  0.0000E+00  0.9600E+00
    -14.617  0.0000E+00  0.9600E+00
    -14.410  0.0000E+00  0.9600E+00
    -14.204  0.0000E+00  0.9600E+00
    -13.997  0.0000E+00  0.9600E+00
    -13.790  0.0000E+00  0.9600E+00
    -13.584  0.0000E+00  0.9600E+00
    -13.377  0.0000E+00  0.9600E+00
    -13.170  0.0000E+00  0.9600E+00
    -12.964  0.0000E+00  0.9600E+00
    -12.757  0.0000E+00  0.9600E+00
    -12.550  0.0000E+00  0.9600E+00
    -12.344  0.0000E+00  0.9600E+00
    -12.137  0.0000E+00  0.9600E+00
    -11.930  0.0000E+00  0.9600E+00
    -11.724  0.0000E+00  0.9600E+00
    -11.517  0.0000E+00  0.9600E+00
    -11.310  0.0000E+00  0.9600E+00
    -11.104  0.0000E+00  0.9600E+00
    -10.897  0.0000E+00  0.9600E+00
    -10.690  0.0000E+00  0.9600E+00
    -10.484  0.0000E+00  0.9600E+00
    -10.277  0.0000E+00  0.9600E+00
    -10.070  0.0000E+00  0.9600E+00
     -9.864  0.0000E+00  0.9600E+00
     -9.657  0.0000E+00  0.9600E+00
     -9.450  0.0000E+00  0.9600E+00
     -9.244  0.0000E+00  0.9600E+00
     -9.037  0.0000E+00  0.9600E+00
     -8.830  0.0000E+00  0.9600E+00
     -8.624  0.0000E+00  0.9600E+00
     -8.417  0.0000E+00  0.9600E+00
     -8.210  0.0000E+00  0.9600E+00
     -8.004  0.0000E+00  0.9600E+00
     -7.797  0.0000E+00  0.9600E+00
     -7.590  0.0000E+00  0.9600E+00
     -7.384  0.0000E+00  0.9600E+00
     -7.177  0.0000E+00  0.9600E+00
     -6.970  0.0000E+00  0.9600E+00
     -6.764  0.0000E+00  0.9600E+00
     -6.557  0.0000E+00  0.9600E+00
     -6.350  0.0000E+00  0.9600E+00
     -6.144  0.0000E+00  0.9600E+00
     -5.937  0.0000E+00  0.9600E+00
     -5.730  0.0000E+00  0.9600E+00
     -5.524  0.0000E+00  0.9600E+00
     -5.317  0.0000E+00  0.9600E+00
     -5.110  0.0000E+00  0.9600E+00
     -4.903  0.0000E+00  0.9600E+00
     -4.697  0.0000E+00  0.9600E+00
     -4.490  0.0000E+00  0.9600E+00
     -4.283  0.0000E+00  0.9600E+00
     -4.077  0.0000E+00  0.9600E+00
     -3.870  0.0000E+00  0.9600E+00
     -3.663  0.0000E+00  0.9600E+00
     -3.457  0.0000E+00  0.9600E+00
     -3.250  0.0000E+00  0.9600E+00
     -3.043  0.0000E+00  0.9600E+00
     -2.837  0.0000E+00  0.9600E+00
     -2.630  0.0000E+00  0.9600E+00
     -2.423  0.0000E+00  0.9600E+00
     -2.217  0.0000E+00  0.9600E+00
     -2.010  0.0000E+00  0.9600E+00
     -1.803 -0.8543E-31  0.9600E+00
     -1.597 -0.4665E-24  0.9600E+00
     -1.390 -0.3018E-18  0.9600E+00
     -1.183 -0.2233E-13  0.9600E+00
     -0.977 -0.2016E-09  0.9600E+00
     -0.770 -0.2167E-06  0.9600E+00
     -0.563 -0.2736E-04  0.9600E+00
     -0.357 -0.3228E-03  0.9599E+00
     -0.150  0.2023E-02  0.9603E+00
      0.057  0.1479E-01  0.9634E+00
      0.263  0.2415E-01  0.9684E+00
      0.470  0.3391E-01  0.9754E+00
      0.677  0.4346E-01  0.9844E+00
      0.883  0.4045E-01  0.9927E+00
      1.090  0.5581E-01  0.1004E+01
      1.297  0.6254E-01  0.1017E+01
      1.503  0.6722E-01  0.1031E+01
      1.710  0.7316E-01  0.1046E+01
      1.917  0.8506E-01  0.1064E+01
      2.123  0.1003E+00  0.1085E+01
      2.330  0.1368E+00  0.1113E+01
      2.537  0.1993E+00  0.1154E+01
      2.743  0.3318E+00  0.1223E+01
      2.950  0.4327E+00  0.1312E+01
      3.157  0.5013E+00  0.1416E+01
      3.363  0.5704E+00  0.1533E+01
      3.570  0.6056E+00  0.1659E+01
      3.777  0.6200E+00  0.1787E+01
      3.983  0.6166E+00  0.1914E+01
      4.190  0.6253E+00  0.2043E+01
      4.397  0.5658E+00  0.2160E+01
      4.603  0.5322E+00  0.2270E+01
      4.810  0.6070E+00  0.2396E+01
      5.017  0.7511E+00  0.2551E+01
      5.223  0.8406E+00  0.2725E+01
      5.430  0.8084E+00  0.2892E+01
      5.637  0.8022E+00  0.3058E+01
      5.844  0.8030E+00  0.3224E+01
      6.050  0.8434E+00  0.3398E+01
      6.257  0.8844E+00  0.3581E+01
      6.464  0.8760E+00  0.3762E+01
      6.670  0.7753E+00  0.3922E+01
      6.877  0.6321E+00  0.4053E+01
      7.084  0.5197E+00  0.4160E+01
      7.290  0.4166E+00  0.4246E+01
      7.497  0.3715E+00  0.4323E+01
      7.704  0.3616E+00  0.4398E+01
      7.910  0.3855E+00  0.4477E+01
      8.117  0.4726E+00  0.4575E+01
      8.324  0.4972E+00  0.4678E+01
      8.530  0.3789E+00  0.4756E+01
      8.737  0.1936E+00  0.4796E+01
      8.944  0.2343E-01  0.4801E+01
      9.150 -0.4263E-02  0.4800E+01
      9.357 -0.3223E-03  0.4800E+01
      9.564 -0.2783E-05  0.4800E+01
      9.770 -0.3249E-08  0.4800E+01
      9.977 -0.4896E-12  0.4800E+01
     10.184 -0.8896E-17  0.4800E+01
     10.390  0.0000E+00  0.4800E+01
     10.597  0.0000E+00  0.4800E+01
     10.804  0.0000E+00  0.4800E+01
     11.010  0.0000E+00  0.4800E+01
     11.217  0.0000E+00  0.4800E+01
     11.424  0.0000E+00  0.4800E+01
     11.630  0.0000E+00  0.4800E+01
