   29   29   50    1
  0.1632129E+02  0.5473281E-09  0.8209921E-09  0.1128346E-08  0.5000000E-15
  1.000000000000000E-004
  CAR 
 Nb - Mo - Ta - Ti - V SQS               
    193    172    120
 
  0.0000000E+00  0.0000000E+00  0.0000000E+00  0.2915452E-02
    1      -47.553296   1.000000
    2      -47.421154   1.000000
    3      -47.381550   1.000000
    4      -47.264784   1.000000
    5      -47.232737   1.000000
    6      -47.136121   1.000000
    7      -24.272972   1.000000
    8      -24.020729   1.000000
    9      -23.876133   1.000000
   10      -23.820496   1.000000
   11      -23.703096   1.000000
   12      -23.607361   1.000000
   13      -23.592457   1.000000
   14      -23.551704   1.000000
   15      -23.496545   1.000000
   16      -23.460942   1.000000
   17      -23.421235   1.000000
   18      -23.410702   1.000000
   19      -23.345286   1.000000
   20      -23.320475   1.000000
   21      -23.275221   1.000000
   22      -23.171427   1.000000
   23      -23.013918   1.000000
   24      -22.806950   1.000000
   25       -0.190843   1.000000
   26        1.079750   1.000000
   27        1.489512   1.000000
   28        2.237348   1.000000
   29        2.358000   1.000000
   30        2.423716   1.000000
   31        2.563028   1.000000
   32        2.670127   1.000000
   33        2.716472   1.000000
   34        2.817522   1.000000
   35        2.834790   1.000000
   36        2.931735   1.000000
   37        2.968989   1.000000
   38        3.030268   1.000000
   39        3.129462   1.000000
   40        3.197643   1.000000
   41        3.235758   1.000000
   42        3.397765   1.000000
   43        3.484114   1.000000
   44        3.538624   1.000000
   45        3.613200   1.000000
   46        3.635191   1.000000
   47        3.695033   1.000000
   48        3.734655   1.000000
   49        3.835773   1.000000
   50        3.892444   1.000000
   51        4.020668   1.000000
   52        4.089025   1.000000
   53        4.185158   1.000000
   54        4.212592   1.000000
   55        4.281172   1.000000
   56        4.399376   1.000000
   57        4.461392   1.000000
   58        4.576013   1.000000
   59        4.586931   1.000000
   60        4.671589   1.000000
   61        4.754452   1.000000
   62        4.803942   1.000000
   63        4.824419   1.000000
   64        4.921863   1.000000
   65        4.942605   1.000000
   66        5.019651   1.000000
   67        5.080628   1.000000
   68        5.087802   1.000000
   69        5.119863   1.000000
   70        5.206329   1.000000
   71        5.226410   1.000000
   72        5.262993   1.000000
   73        5.353303   1.000000
   74        5.403513   1.000000
   75        5.451496   1.000000
   76        5.502183   1.000000
   77        5.564646   1.000000
   78        5.695911   1.000000
   79        5.747030   1.000000
   80        5.813156   1.000000
   81        5.920200   1.000014
   82        5.971991   1.000064
   83        6.006492   1.000167
   84        6.039046   1.000389
   85        6.100885   1.001633
   86        6.111107   1.002027
   87        6.205495   1.010947
   88        6.277118   1.025826
   89        6.293123   1.029382
   90        6.340471   1.035458
   91        6.396559   1.018165
   92        6.428105   0.986199
   93        6.519453   0.762134
   94        6.579188   0.525307
   95        6.617916   0.363486
   96        6.717548   0.054145
   97        6.854040  -0.033595
   98        6.878792  -0.029048
   99        6.932046  -0.017075
  100        7.049394  -0.002480
  101        7.124708  -0.000458
  102        7.181042  -0.000105
  103        7.219276  -0.000035
  104        7.444757  -0.000000
  105        7.493595  -0.000000
  106        7.697950  -0.000000
  107        7.737120  -0.000000
  108        7.746048  -0.000000
  109        7.929236  -0.000000
  110        8.181623  -0.000000
  111        8.242396  -0.000000
  112        8.387118  -0.000000
  113        8.434250  -0.000000
  114        8.515010  -0.000000
  115        8.531987  -0.000000
  116        8.604290  -0.000000
  117        8.632721  -0.000000
  118        8.662945  -0.000000
  119        8.725497  -0.000000
  120        8.765591  -0.000000
 
  0.1428571E+00  0.0000000E+00 -0.1561251E-16  0.5830904E-02
    1      -47.549600   1.000000
    2      -47.420674   1.000000
    3      -47.381406   1.000000
    4      -47.264776   1.000000
    5      -47.232707   1.000000
    6      -47.140050   1.000000
    7      -24.213069   1.000000
    8      -24.019418   1.000000
    9      -23.872818   1.000000
   10      -23.818812   1.000000
   11      -23.699044   1.000000
   12      -23.609612   1.000000
   13      -23.595927   1.000000
   14      -23.552819   1.000000
   15      -23.497468   1.000000
   16      -23.464259   1.000000
   17      -23.421921   1.000000
   18      -23.413186   1.000000
   19      -23.349649   1.000000
   20      -23.321395   1.000000
   21      -23.277127   1.000000
   22      -23.175517   1.000000
   23      -23.014613   1.000000
   24      -22.877640   1.000000
   25       -0.025392   1.000000
   26        1.229516   1.000000
   27        1.626542   1.000000
   28        2.258583   1.000000
   29        2.474202   1.000000
   30        2.546943   1.000000
   31        2.648684   1.000000
   32        2.763904   1.000000
   33        2.802600   1.000000
   34        2.896247   1.000000
   35        2.954100   1.000000
   36        3.029909   1.000000
   37        3.076720   1.000000
   38        3.140277   1.000000
   39        3.213968   1.000000
   40        3.281024   1.000000
   41        3.315092   1.000000
   42        3.435524   1.000000
   43        3.534805   1.000000
   44        3.567668   1.000000
   45        3.609022   1.000000
   46        3.693063   1.000000
   47        3.762292   1.000000
   48        3.825507   1.000000
   49        3.909329   1.000000
   50        3.983398   1.000000
   51        4.062913   1.000000
   52        4.119788   1.000000
   53        4.202534   1.000000
   54        4.265322   1.000000
   55        4.291768   1.000000
   56        4.415934   1.000000
   57        4.461617   1.000000
   58        4.622599   1.000000
   59        4.632230   1.000000
   60        4.707369   1.000000
   61        4.789163   1.000000
   62        4.828153   1.000000
   63        4.890697   1.000000
   64        4.968635   1.000000
   65        5.018128   1.000000
   66        5.052088   1.000000
   67        5.089852   1.000000
   68        5.133923   1.000000
   69        5.178256   1.000000
   70        5.219196   1.000000
   71        5.265199   1.000000
   72        5.320974   1.000000
   73        5.417809   1.000000
   74        5.456562   1.000000
   75        5.499593   1.000000
   76        5.550563   1.000000
   77        5.588326   1.000000
   78        5.671455   1.000000
   79        5.708961   1.000000
   80        5.760214   1.000000
   81        5.834809   1.000001
   82        5.916944   1.000012
   83        6.009344   1.000181
   84        6.048947   1.000496
   85        6.071618   1.000851
   86        6.085930   1.001178
   87        6.211265   1.011905
   88        6.228073   1.014995
   89        6.266307   1.023329
   90        6.317248   1.033727
   91        6.374704   1.029741
   92        6.419591   0.996846
   93        6.463615   0.923476
   94        6.486554   0.866277
   95        6.542515   0.676022
   96        6.597224   0.449104
   97        6.688780   0.120154
   98        6.822342  -0.035212
   99        6.900405  -0.024169
  100        6.950459  -0.013436
  101        7.010317  -0.005216
  102        7.081843  -0.001247
  103        7.202783  -0.000057
  104        7.312112  -0.000002
  105        7.353367  -0.000000
  106        7.399619  -0.000000
  107        7.475195  -0.000000
  108        7.655647  -0.000000
  109        7.788924  -0.000000
  110        8.014083  -0.000000
  111        8.065341  -0.000000
  112        8.138817  -0.000000
  113        8.218511  -0.000000
  114        8.236836  -0.000000
  115        8.315761  -0.000000
  116        8.360873  -0.000000
  117        8.402424  -0.000000
  118        8.489596  -0.000000
  119        8.563893  -0.000000
  120        8.607285  -0.000000
 
  0.2857143E+00  0.1387779E-16  0.3469447E-17  0.5830904E-02
    1      -47.541012   1.000000
    2      -47.419589   1.000000
    3      -47.381088   1.000000
    4      -47.264798   1.000000
    5      -47.232658   1.000000
    6      -47.149102   1.000000
    7      -24.064023   1.000000
    8      -24.001581   1.000000
    9      -23.862091   1.000000
   10      -23.814865   1.000000
   11      -23.689524   1.000000
   12      -23.616178   1.000000
   13      -23.602437   1.000000
   14      -23.555184   1.000000
   15      -23.499532   1.000000
   16      -23.472068   1.000000
   17      -23.424166   1.000000
   18      -23.417838   1.000000
   19      -23.359695   1.000000
   20      -23.325326   1.000000
   21      -23.282775   1.000000
   22      -23.185084   1.000000
   23      -23.073365   1.000000
   24      -23.008356   1.000000
   25        0.443438   1.000000
   26        1.630322   1.000000
   27        1.980597   1.000000
   28        2.370682   1.000000
   29        2.672283   1.000000
   30        2.733325   1.000000
   31        2.818376   1.000000
   32        2.969632   1.000000
   33        3.033533   1.000000
   34        3.068417   1.000000
   35        3.172044   1.000000
   36        3.249585   1.000000
   37        3.295668   1.000000
   38        3.350998   1.000000
   39        3.401225   1.000000
   40        3.450876   1.000000
   41        3.524161   1.000000
   42        3.552177   1.000000
   43        3.607268   1.000000
   44        3.688282   1.000000
   45        3.796797   1.000000
   46        3.820811   1.000000
   47        3.902269   1.000000
   48        3.960061   1.000000
   49        4.032968   1.000000
   50        4.131696   1.000000
   51        4.159787   1.000000
   52        4.248805   1.000000
   53        4.318547   1.000000
   54        4.402556   1.000000
   55        4.469577   1.000000
   56        4.517115   1.000000
   57        4.594007   1.000000
   58        4.660751   1.000000
   59        4.703198   1.000000
   60        4.744928   1.000000
   61        4.859876   1.000000
   62        4.921415   1.000000
   63        4.955689   1.000000
   64        4.997710   1.000000
   65        5.026068   1.000000
   66        5.122668   1.000000
   67        5.166788   1.000000
   68        5.196291   1.000000
   69        5.233720   1.000000
   70        5.281313   1.000000
   71        5.375071   1.000000
   72        5.423629   1.000000
   73        5.450144   1.000000
   74        5.526695   1.000000
   75        5.566257   1.000000
   76        5.594482   1.000000
   77        5.625847   1.000000
   78        5.681898   1.000000
   79        5.707970   1.000000
   80        5.766141   1.000000
   81        5.831628   1.000001
   82        5.864540   1.000002
   83        5.917972   1.000013
   84        5.938656   1.000024
   85        6.027918   1.000293
   86        6.045571   1.000457
   87        6.146678   1.004089
   88        6.155230   1.004785
   89        6.194206   1.009226
   90        6.249615   1.019525
   91        6.341844   1.035448
   92        6.368617   1.031722
   93        6.394216   1.019775
   94        6.456492   0.938540
   95        6.493580   0.846140
   96        6.526222   0.737829
   97        6.607495   0.406189
   98        6.635008   0.296209
   99        6.705482   0.079289
  100        6.747175   0.007433
  101        6.833147  -0.035423
  102        6.896080  -0.025169
  103        6.924959  -0.018594
  104        6.996758  -0.006600
  105        7.060655  -0.001967
  106        7.199370  -0.000062
  107        7.267335  -0.000008
  108        7.320456  -0.000001
  109        7.445516  -0.000000
  110        7.494604  -0.000000
  111        7.578033  -0.000000
  112        7.681390  -0.000000
  113        7.785674  -0.000000
  114        7.842140  -0.000000
  115        7.945559  -0.000000
  116        8.031646  -0.000000
  117        8.093678  -0.000000
  118        8.157706  -0.000000
  119        8.283897  -0.000000
  120        8.368353  -0.000000
 
  0.4285714E+00  0.5551115E-16 -0.4163336E-16  0.5830904E-02
    1      -47.533809   1.000000
    2      -47.418714   1.000000
    3      -47.380837   1.000000
    4      -47.264871   1.000000
    5      -47.232643   1.000000
    6      -47.156599   1.000000
    7      -24.028872   1.000000
    8      -23.888077   1.000000
    9      -23.813501   1.000000
   10      -23.781072   1.000000
   11      -23.681406   1.000000
   12      -23.622839   1.000000
   13      -23.606795   1.000000
   14      -23.557106   1.000000
   15      -23.502733   1.000000
   16      -23.481869   1.000000
   17      -23.427506   1.000000
   18      -23.420579   1.000000
   19      -23.368537   1.000000
   20      -23.344130   1.000000
   21      -23.326130   1.000000
   22      -23.248097   1.000000
   23      -23.190926   1.000000
   24      -23.011699   1.000000
   25        1.122078   1.000000
   26        1.857511   1.000000
   27        2.286165   1.000000
   28        2.506948   1.000000
   29        2.586191   1.000000
   30        2.823499   1.000000
   31        2.965096   1.000000
   32        3.068811   1.000000
   33        3.214609   1.000000
   34        3.262564   1.000000
   35        3.306294   1.000000
   36        3.364701   1.000000
   37        3.437066   1.000000
   38        3.465602   1.000000
   39        3.539864   1.000000
   40        3.625142   1.000000
   41        3.703908   1.000000
   42        3.758779   1.000000
   43        3.826066   1.000000
   44        3.886544   1.000000
   45        3.948200   1.000000
   46        4.026082   1.000000
   47        4.073649   1.000000
   48        4.125696   1.000000
   49        4.155823   1.000000
   50        4.170762   1.000000
   51        4.311300   1.000000
   52        4.370507   1.000000
   53        4.418256   1.000000
   54        4.484260   1.000000
   55        4.554713   1.000000
   56        4.600652   1.000000
   57        4.690417   1.000000
   58        4.742295   1.000000
   59        4.776267   1.000000
   60        4.833609   1.000000
   61        4.897179   1.000000
   62        4.931409   1.000000
   63        4.999101   1.000000
   64        5.025038   1.000000
   65        5.057543   1.000000
   66        5.096154   1.000000
   67        5.134871   1.000000
   68        5.178446   1.000000
   69        5.263036   1.000000
   70        5.315507   1.000000
   71        5.375484   1.000000
   72        5.425918   1.000000
   73        5.503303   1.000000
   74        5.515453   1.000000
   75        5.554787   1.000000
   76        5.583158   1.000000
   77        5.629647   1.000000
   78        5.697775   1.000000
   79        5.713900   1.000000
   80        5.789744   1.000000
   81        5.824827   1.000001
   82        5.872757   1.000003
   83        5.928830   1.000018
   84        5.960705   1.000046
   85        5.977781   1.000076
   86        6.052290   1.000538
   87        6.122166   1.002542
   88        6.159622   1.005178
   89        6.202916   1.010535
   90        6.238814   1.017184
   91        6.291559   1.029049
   92        6.311946   1.032936
   93        6.338964   1.035452
   94        6.398697   1.016611
   95        6.444399   0.961215
   96        6.503325   0.816261
   97        6.545986   0.662332
   98        6.592733   0.468030
   99        6.609803   0.396646
  100        6.671425   0.169953
  101        6.739388   0.017725
  102        6.773311  -0.017828
  103        6.839447  -0.035144
  104        6.868255  -0.031195
  105        6.956857  -0.012289
  106        7.024735  -0.004008
  107        7.071658  -0.001558
  108        7.140141  -0.000311
  109        7.211926  -0.000043
  110        7.360215  -0.000000
  111        7.423513  -0.000000
  112        7.520919  -0.000000
  113        7.575529  -0.000000
  114        7.633772  -0.000000
  115        7.693031  -0.000000
  116        7.781675  -0.000000
  117        7.888006  -0.000000
  118        8.054291  -0.000000
  119        8.107905  -0.000000
  120        8.199107  -0.000000
 
 -0.6938894E-17  0.1428571E+00  0.1040834E-16  0.5830904E-02
    1      -47.553295   1.000000
    2      -47.421017   1.000000
    3      -47.381563   1.000000
    4      -47.264827   1.000000
    5      -47.232820   1.000000
    6      -47.136119   1.000000
    7      -24.272977   1.000000
    8      -24.020183   1.000000
    9      -23.875391   1.000000
   10      -23.818328   1.000000
   11      -23.703113   1.000000
   12      -23.607333   1.000000
   13      -23.592550   1.000000
   14      -23.551698   1.000000
   15      -23.496609   1.000000
   16      -23.460905   1.000000
   17      -23.421178   1.000000
   18      -23.410637   1.000000
   19      -23.345339   1.000000
   20      -23.320499   1.000000
   21      -23.275228   1.000000
   22      -23.175292   1.000000
   23      -23.014085   1.000000
   24      -22.806956   1.000000
   25       -0.121079   1.000000
   26        1.117220   1.000000
   27        1.547389   1.000000
   28        1.987537   1.000000
   29        2.358493   1.000000
   30        2.438212   1.000000
   31        2.587308   1.000000
   32        2.650941   1.000000
   33        2.704185   1.000000
   34        2.816263   1.000000
   35        2.864195   1.000000
   36        2.919793   1.000000
   37        2.966224   1.000000
   38        3.016224   1.000000
   39        3.104422   1.000000
   40        3.171322   1.000000
   41        3.315116   1.000000
   42        3.362261   1.000000
   43        3.453732   1.000000
   44        3.546539   1.000000
   45        3.580134   1.000000
   46        3.685294   1.000000
   47        3.763862   1.000000
   48        3.820951   1.000000
   49        3.861155   1.000000
   50        3.886373   1.000000
   51        4.012465   1.000000
   52        4.076002   1.000000
   53        4.132794   1.000000
   54        4.231587   1.000000
   55        4.302292   1.000000
   56        4.367195   1.000000
   57        4.452619   1.000000
   58        4.558456   1.000000
   59        4.598996   1.000000
   60        4.692870   1.000000
   61        4.740467   1.000000
   62        4.859352   1.000000
   63        4.881654   1.000000
   64        4.913557   1.000000
   65        5.026451   1.000000
   66        5.035070   1.000000
   67        5.069028   1.000000
   68        5.094474   1.000000
   69        5.169079   1.000000
   70        5.196250   1.000000
   71        5.269324   1.000000
   72        5.326496   1.000000
   73        5.389222   1.000000
   74        5.397430   1.000000
   75        5.453746   1.000000
   76        5.512109   1.000000
   77        5.607105   1.000000
   78        5.699092   1.000000
   79        5.745522   1.000000
   80        5.808668   1.000000
   81        5.893767   1.000006
   82        5.960478   1.000046
   83        6.005610   1.000163
   84        6.049342   1.000501
   85        6.092894   1.001374
   86        6.131288   1.003047
   87        6.174423   1.006694
   88        6.193773   1.009164
   89        6.271288   1.024481
   90        6.318681   1.033920
   91        6.356573   1.034310
   92        6.381476   1.026940
   93        6.473012   0.901647
   94        6.501665   0.821506
   95        6.551314   0.641010
   96        6.653149   0.229954
   97        6.769940  -0.015312
   98        6.888736  -0.026850
   99        6.947309  -0.014024
  100        7.028495  -0.003734
  101        7.163211  -0.000170
  102        7.316685  -0.000001
  103        7.369668  -0.000000
  104        7.437473  -0.000000
  105        7.496767  -0.000000
  106        7.637063  -0.000000
  107        7.719134  -0.000000
  108        7.772619  -0.000000
  109        7.912578  -0.000000
  110        8.076107  -0.000000
  111        8.197366  -0.000000
  112        8.244993  -0.000000
  113        8.282188  -0.000000
  114        8.337335  -0.000000
  115        8.445141  -0.000000
  116        8.480393  -0.000000
  117        8.595899  -0.000000
  118        8.630871  -0.000000
  119        8.691776  -0.000000
  120        8.695861  -0.000000
 
  0.1428571E+00  0.1428571E+00 -0.1387779E-16  0.5830904E-02
    1      -47.549600   1.000000
    2      -47.420804   1.000000
    3      -47.381394   1.000000
    4      -47.264736   1.000000
    5      -47.232627   1.000000
    6      -47.140051   1.000000
    7      -24.213064   1.000000
    8      -24.019951   1.000000
    9      -23.873595   1.000000
   10      -23.820873   1.000000
   11      -23.699047   1.000000
   12      -23.609647   1.000000
   13      -23.595922   1.000000
   14      -23.552832   1.000000
   15      -23.497424   1.000000
   16      -23.464254   1.000000
   17      -23.421951   1.000000
   18      -23.413180   1.000000
   19      -23.349597   1.000000
   20      -23.321371   1.000000
   21      -23.277121   1.000000
   22      -23.171790   1.000000
   23      -23.014465   1.000000
   24      -22.877637   1.000000
   25       -0.023764   1.000000
   26        1.213697   1.000000
   27        1.635655   1.000000
   28        2.269722   1.000000
   29        2.461548   1.000000
   30        2.536678   1.000000
   31        2.622453   1.000000
   32        2.748544   1.000000
   33        2.793041   1.000000
   34        2.869775   1.000000
   35        2.899122   1.000000
   36        2.942693   1.000000
   37        3.039154   1.000000
   38        3.124578   1.000000
   39        3.216538   1.000000
   40        3.240529   1.000000
   41        3.370714   1.000000
   42        3.499566   1.000000
   43        3.547664   1.000000
   44        3.577842   1.000000
   45        3.628369   1.000000
   46        3.665946   1.000000
   47        3.733991   1.000000
   48        3.828162   1.000000
   49        3.924637   1.000000
   50        3.988639   1.000000
   51        4.044424   1.000000
   52        4.109032   1.000000
   53        4.212930   1.000000
   54        4.278286   1.000000
   55        4.348626   1.000000
   56        4.467152   1.000000
   57        4.515894   1.000000
   58        4.592092   1.000000
   59        4.647313   1.000000
   60        4.721105   1.000000
   61        4.765736   1.000000
   62        4.840964   1.000000
   63        4.876754   1.000000
   64        4.937909   1.000000
   65        4.977418   1.000000
   66        5.050802   1.000000
   67        5.095125   1.000000
   68        5.139287   1.000000
   69        5.156587   1.000000
   70        5.171566   1.000000
   71        5.271199   1.000000
   72        5.328371   1.000000
   73        5.376279   1.000000
   74        5.457896   1.000000
   75        5.493938   1.000000
   76        5.518012   1.000000
   77        5.607272   1.000000
   78        5.659123   1.000000
   79        5.700312   1.000000
   80        5.763705   1.000000
   81        5.835281   1.000001
   82        5.887589   1.000005
   83        5.931438   1.000019
   84        6.004576   1.000159
   85        6.065741   1.000742
   86        6.111568   1.002046
   87        6.195840   1.009462
   88        6.234636   1.016315
   89        6.279178   1.026298
   90        6.312228   1.032981
   91        6.374705   1.029740
   92        6.423617   0.992009
   93        6.455093   0.941347
   94        6.554159   0.629493
   95        6.641323   0.272468
   96        6.699963   0.092014
   97        6.805966  -0.032825
   98        6.830071  -0.035458
   99        6.866247  -0.031574
  100        6.949445  -0.013624
  101        7.025152  -0.003977
  102        7.116893  -0.000554
  103        7.190856  -0.000080
  104        7.257958  -0.000011
  105        7.360370  -0.000000
  106        7.440800  -0.000000
  107        7.512219  -0.000000
  108        7.574612  -0.000000
  109        7.823184  -0.000000
  110        7.933207  -0.000000
  111        8.044093  -0.000000
  112        8.155817  -0.000000
  113        8.246608  -0.000000
  114        8.378795  -0.000000
  115        8.472880  -0.000000
  116        8.504382  -0.000000
  117        8.571095  -0.000000
  118        8.620862  -0.000000
  119        8.660418  -0.000000
  120        8.726904  -0.000000
 
  0.2857143E+00  0.1428571E+00  0.2775558E-16  0.5830904E-02
    1      -47.541013   1.000000
    2      -47.419888   1.000000
    3      -47.381058   1.000000
    4      -47.264708   1.000000
    5      -47.232475   1.000000
    6      -47.149106   1.000000
    7      -24.064250   1.000000
    8      -24.002627   1.000000
    9      -23.863865   1.000000
   10      -23.819532   1.000000
   11      -23.689523   1.000000
   12      -23.616291   1.000000
   13      -23.602377   1.000000
   14      -23.555202   1.000000
   15      -23.499417   1.000000
   16      -23.472062   1.000000
   17      -23.424217   1.000000
   18      -23.417911   1.000000
   19      -23.359573   1.000000
   20      -23.325295   1.000000
   21      -23.282726   1.000000
   22      -23.176522   1.000000
   23      -23.073251   1.000000
   24      -23.008090   1.000000
   25        0.382921   1.000000
   26        1.555083   1.000000
   27        1.935825   1.000000
   28        2.492664   1.000000
   29        2.607986   1.000000
   30        2.706975   1.000000
   31        2.866085   1.000000
   32        2.924482   1.000000
   33        2.999422   1.000000
   34        3.050186   1.000000
   35        3.129164   1.000000
   36        3.194343   1.000000
   37        3.278132   1.000000
   38        3.314718   1.000000
   39        3.431635   1.000000
   40        3.452974   1.000000
   41        3.546264   1.000000
   42        3.582448   1.000000
   43        3.654321   1.000000
   44        3.717231   1.000000
   45        3.786557   1.000000
   46        3.840841   1.000000
   47        3.886673   1.000000
   48        3.962301   1.000000
   49        4.016498   1.000000
   50        4.100846   1.000000
   51        4.135764   1.000000
   52        4.196424   1.000000
   53        4.322064   1.000000
   54        4.407642   1.000000
   55        4.440187   1.000000
   56        4.508445   1.000000
   57        4.605881   1.000000
   58        4.663796   1.000000
   59        4.719200   1.000000
   60        4.802650   1.000000
   61        4.878531   1.000000
   62        4.925046   1.000000
   63        4.952007   1.000000
   64        4.994084   1.000000
   65        5.026779   1.000000
   66        5.086871   1.000000
   67        5.134717   1.000000
   68        5.176372   1.000000
   69        5.223976   1.000000
   70        5.278403   1.000000
   71        5.298223   1.000000
   72        5.404621   1.000000
   73        5.443921   1.000000
   74        5.496489   1.000000
   75        5.527537   1.000000
   76        5.560037   1.000000
   77        5.596171   1.000000
   78        5.680984   1.000000
   79        5.735434   1.000000
   80        5.764194   1.000000
   81        5.847363   1.000001
   82        5.889151   1.000005
   83        5.938349   1.000024
   84        5.995638   1.000125
   85        6.035223   1.000353
   86        6.060171   1.000651
   87        6.154743   1.004743
   88        6.180050   1.007353
   89        6.221681   1.013770
   90        6.253569   1.020411
   91        6.274602   1.025247
   92        6.302847   1.031339
   93        6.378638   1.028193
   94        6.430561   0.982828
   95        6.461583   0.927903
   96        6.520078   0.759929
   97        6.553444   0.632395
   98        6.648515   0.246294
   99        6.747742   0.006737
  100        6.779285  -0.021797
  101        6.815106  -0.034498
  102        6.862969  -0.032167
  103        6.956312  -0.012384
  104        6.996086  -0.006676
  105        7.094139  -0.000946
  106        7.142653  -0.000292
  107        7.261633  -0.000009
  108        7.382059  -0.000000
  109        7.507749  -0.000000
  110        7.574567  -0.000000
  111        7.716906  -0.000000
  112        7.895521  -0.000000
  113        7.999118  -0.000000
  114        8.080744  -0.000000
  115        8.164283  -0.000000
  116        8.225993  -0.000000
  117        8.270291  -0.000000
  118        8.310937  -0.000000
  119        8.416000  -0.000000
  120        8.438053  -0.000000
 
  0.4285714E+00  0.1428571E+00 -0.2081668E-16  0.5830904E-02
    1      -47.533810   1.000000
    2      -47.418956   1.000000
    3      -47.380812   1.000000
    4      -47.264798   1.000000
    5      -47.232495   1.000000
    6      -47.156602   1.000000
    7      -24.029672   1.000000
    8      -23.889133   1.000000
    9      -23.817932   1.000000
   10      -23.781070   1.000000
   11      -23.681409   1.000000
   12      -23.622962   1.000000
   13      -23.606765   1.000000
   14      -23.557114   1.000000
   15      -23.502640   1.000000
   16      -23.481844   1.000000
   17      -23.427506   1.000000
   18      -23.420683   1.000000
   19      -23.368444   1.000000
   20      -23.344128   1.000000
   21      -23.326116   1.000000
   22      -23.247865   1.000000
   23      -23.184030   1.000000
   24      -23.011473   1.000000
   25        1.029066   1.000000
   26        1.872348   1.000000
   27        2.219132   1.000000
   28        2.427475   1.000000
   29        2.621487   1.000000
   30        2.699610   1.000000
   31        2.943317   1.000000
   32        3.170923   1.000000
   33        3.232387   1.000000
   34        3.298745   1.000000
   35        3.331576   1.000000
   36        3.392823   1.000000
   37        3.439638   1.000000
   38        3.514746   1.000000
   39        3.586689   1.000000
   40        3.624014   1.000000
   41        3.682502   1.000000
   42        3.721661   1.000000
   43        3.853041   1.000000
   44        3.892137   1.000000
   45        3.973723   1.000000
   46        3.991656   1.000000
   47        4.051231   1.000000