       N       E                     dE             d eps       ncg     rms          rms(c)
DAV:   1    -0.453800587586E+04   -0.45380E+04   -0.17018E+05 63252   0.199E+03
DAV:   2    -0.976012235657E+04   -0.52221E+04   -0.49564E+04 70944   0.118E+03
DAV:   3    -0.106498821486E+05   -0.88976E+03   -0.85230E+03 82548   0.502E+02
DAV:   4    -0.109131501043E+05   -0.26327E+03   -0.24067E+03 82560   0.210E+02
DAV:   5    -0.110926614454E+05   -0.17951E+03   -0.16248E+03 82560   0.166E+02    0.592E+03
DAV:   6    -0.116113937499E+04    0.99315E+04   -0.25530E+04 63444   0.629E+02    0.273E+03
DAV:   7    -0.907485770141E+03    0.25365E+03   -0.17260E+04 73416   0.535E+02    0.208E+03
DAV:   8    -0.648061176616E+03    0.25942E+03   -0.44242E+03 71940   0.337E+02    0.186E+03
DAV:   9    -0.566873772117E+03    0.81187E+02   -0.80469E+02 75252   0.903E+01    0.175E+03
DAV:  10    -0.700754647276E+03   -0.13388E+03   -0.33640E+02 77028   0.638E+01    0.183E+03
DAV:  11    -0.862420293324E+03   -0.16167E+03   -0.16276E+03 70920   0.354E+02    0.158E+03
DAV:  12    -0.107614663745E+04   -0.21373E+03   -0.13749E+03 70224   0.167E+02    0.119E+03
DAV:  13    -0.932008610438E+03    0.14414E+03   -0.22119E+03 65268   0.203E+02    0.928E+02
DAV:  14    -0.824065374669E+03    0.10794E+03   -0.21175E+03 77244   0.143E+02    0.440E+02
DAV:  15    -0.665575981431E+03    0.15849E+03   -0.95165E+02 64908   0.979E+01    0.294E+02
DAV:  16    -0.507361236622E+03    0.15821E+03   -0.30142E+02 66804   0.700E+01    0.248E+02
DAV:  17    -0.493537146162E+03    0.13824E+02   -0.24118E+02 74040   0.941E+01    0.208E+02
DAV:  18    -0.473325363822E+03    0.20212E+02   -0.28434E+02 69900   0.755E+01    0.220E+02
DAV:  19    -0.461858110538E+03    0.11467E+02   -0.67381E+01 70464   0.227E+01    0.206E+02
DAV:  20    -0.454035967062E+03    0.78221E+01   -0.63768E+01 63984   0.424E+01    0.222E+02
DAV:  21    -0.463443326491E+03   -0.94074E+01   -0.66040E+01 66912   0.403E+01    0.215E+02
DAV:  22    -0.431575389285E+03    0.31868E+02   -0.13724E+02 74052   0.977E+01    0.222E+02
DAV:  23    -0.388466916128E+03    0.43108E+02   -0.13297E+02 76104   0.562E+01    0.176E+02
DAV:  24    -0.384029600525E+03    0.44373E+01   -0.11970E+02 74100   0.494E+01    0.168E+02
DAV:  25    -0.344264264803E+03    0.39765E+02   -0.11864E+02 73116   0.446E+01    0.142E+02
DAV:  26    -0.334168699525E+03    0.10096E+02   -0.34680E+01 73416   0.346E+01    0.132E+02
DAV:  27    -0.328157026399E+03    0.60117E+01   -0.16084E+01 74772   0.175E+01    0.120E+02
DAV:  28    -0.319216423359E+03    0.89406E+01   -0.30568E+01 70344   0.226E+01    0.971E+01
DAV:  29    -0.311797092021E+03    0.74193E+01   -0.19029E+01 64656   0.191E+01    0.809E+01
DAV:  30    -0.311683560412E+03    0.11353E+00   -0.18590E+01 71400   0.163E+01    0.647E+01
DAV:  31    -0.308194796679E+03    0.34888E+01   -0.10790E+01 70080   0.153E+01    0.544E+01
DAV:  32    -0.308584875833E+03   -0.39008E+00   -0.28906E+00 73032   0.577E+00    0.496E+01
DAV:  33    -0.307994865875E+03    0.59001E+00   -0.64052E+00 70548   0.969E+00    0.346E+01
DAV:  34    -0.308183274463E+03   -0.18841E+00   -0.50397E+00 71988   0.864E+00    0.255E+01
DAV:  35    -0.307445156529E+03    0.73812E+00   -0.88286E+00 75624   0.123E+01    0.208E+01
DAV:  36    -0.307245098896E+03    0.20006E+00   -0.17043E+00 76368   0.436E+00    0.195E+01
DAV:  37    -0.307131576425E+03    0.11352E+00   -0.22227E-01 78516   0.148E+00    0.190E+01
DAV:  38    -0.307432100238E+03   -0.30052E+00   -0.46378E-01 70548   0.273E+00    0.190E+01
DAV:  39    -0.307305538616E+03    0.12656E+00   -0.58292E-02 71412   0.897E-01    0.177E+01
DAV:  40    -0.306925651519E+03    0.37989E+00   -0.83043E-01 66540   0.315E+00    0.134E+01
DAV:  41    -0.306982527856E+03   -0.56876E-01   -0.28175E-01 72972   0.196E+00    0.125E+01
DAV:  42    -0.306669759167E+03    0.31277E+00   -0.53453E-01 73932   0.255E+00    0.999E+00
DAV:  43    -0.306642412456E+03    0.27347E-01   -0.73377E-02 73968   0.922E-01    0.958E+00
DAV:  44    -0.306599344758E+03    0.43068E-01   -0.12381E-01 73416   0.132E+00    0.969E+00
DAV:  45    -0.306520905758E+03    0.78439E-01   -0.84871E-02 73308   0.117E+00    0.858E+00
DAV:  46    -0.306463513503E+03    0.57392E-01   -0.84813E-02 74076   0.114E+00    0.696E+00
DAV:  47    -0.306448421038E+03    0.15092E-01   -0.35626E-02 69228   0.747E-01    0.602E+00
DAV:  48    -0.306400986076E+03    0.47435E-01   -0.76457E-02 63420   0.126E+00    0.418E+00
DAV:  49    -0.306389282854E+03    0.11703E-01   -0.27949E-02 70344   0.622E-01    0.333E+00
DAV:  50    -0.306387295101E+03    0.19878E-02   -0.39392E-03 60192   0.286E-01    0.302E+00
DAV:  51    -0.306377462356E+03    0.98327E-02   -0.17936E-02 62412   0.538E-01    0.132E+00
DAV:  52    -0.306373456804E+03    0.40056E-02   -0.11003E-02 68412   0.411E-01    0.848E-01
DAV:  53    -0.306372506609E+03    0.95020E-03   -0.40416E-03 69780   0.236E-01    0.488E-01
DAV:  54    -0.306371749676E+03    0.75693E-03   -0.39444E-03 61020   0.254E-01    0.291E-01
DAV:  55    -0.306371771030E+03   -0.21354E-04   -0.55073E-04 45516   0.989E-02
   1 F= -.30637177E+03 E0= -.30636786E+03  d E =-.306372E+03
       N       E                     dE             d eps       ncg     rms          rms(c)
DAV:   1    -0.306748448395E+03   -0.37670E+00   -0.84350E+01 41280   0.308E+01    0.462E+00
DAV:   2    -0.308256968637E+03   -0.15085E+01   -0.13986E+01 72888   0.212E+01    0.936E+00
DAV:   3    -0.307087972799E+03    0.11690E+01   -0.72396E+00 73056   0.112E+01    0.332E+00
DAV:   4    -0.307064027761E+03    0.23945E-01   -0.19727E+00 72024   0.576E+00    0.343E+00
DAV:   5    -0.307019085831E+03    0.44942E-01   -0.13334E+00 68400   0.541E+00    0.276E+00
DAV:   6    -0.306957543014E+03    0.61543E-01   -0.70935E-01 69456   0.374E+00    0.153E+00
DAV:   7    -0.306943260162E+03    0.14283E-01   -0.33679E-01 75972   0.225E+00    0.116E+00
DAV:   8    -0.306939308187E+03    0.39520E-02   -0.17133E-01 79152   0.175E+00    0.102E+00
DAV:   9    -0.306931641822E+03    0.76664E-02   -0.88112E-02 74436   0.133E+00    0.663E-01
DAV:  10    -0.306928627675E+03    0.30141E-02   -0.26425E-02 68868   0.689E-01    0.398E-01
DAV:  11    -0.306928958867E+03   -0.33119E-03   -0.10266E-02 62160   0.447E-01    0.372E-01
DAV:  12    -0.306929190179E+03   -0.23131E-03   -0.84604E-03 61068   0.402E-01    0.247E-01
DAV:  13    -0.306929636047E+03   -0.44587E-03   -0.85661E-03 69024   0.385E-01    0.235E-01
DAV:  14    -0.306929598508E+03    0.37539E-04   -0.83798E-03 61788   0.414E-01    0.220E-01
DAV:  15    -0.306929191811E+03    0.40670E-03   -0.35953E-03 61572   0.270E-01    0.752E-02
DAV:  16    -0.306929107312E+03    0.84500E-04   -0.81789E-04 50760   0.103E-01
   2 F= -.30692911E+03 E0= -.30692571E+03  d E =-.557336E+00
       N       E                     dE             d eps       ncg     rms          rms(c)
DAV:   1    -0.306929302693E+03   -0.11088E-03   -0.45201E+01 41280   0.226E+01    0.346E+00
DAV:   2    -0.307699061617E+03   -0.76976E+00   -0.72999E+00 72144   0.155E+01    0.674E+00
DAV:   3    -0.307116267935E+03    0.58279E+00   -0.37402E+00 72492   0.847E+00    0.235E+00
DAV:   4    -0.307105335601E+03    0.10932E-01   -0.98581E-01 71676   0.404E+00    0.238E+00
DAV:   5    -0.307082702183E+03    0.22633E-01   -0.66659E-01 68796   0.385E+00    0.199E+00
DAV:   6    -0.307052193167E+03    0.30509E-01   -0.37833E-01 70068   0.283E+00    0.111E+00
DAV:   7    -0.307044640784E+03    0.75524E-02   -0.17481E-01 77388   0.163E+00    0.819E-01
DAV:   8    -0.307041817731E+03    0.28231E-02   -0.80583E-02 76920   0.119E+00    0.679E-01
DAV:   9    -0.307038413054E+03    0.34047E-02   -0.37551E-02 69684   0.895E-01    0.462E-01
DAV:  10    -0.307037156858E+03    0.12562E-02   -0.11771E-02 63492   0.468E-01    0.293E-01
DAV:  11    -0.307037445115E+03   -0.28826E-03   -0.50595E-03 59724   0.327E-01    0.276E-01
DAV:  12    -0.307037586085E+03   -0.14097E-03   -0.50428E-03 61860   0.324E-01    0.177E-01
DAV:  13    -0.307037660394E+03   -0.74309E-04   -0.40334E-03 61836   0.268E-01    0.133E-01
DAV:  14    -0.307037697227E+03   -0.36833E-04   -0.35780E-03 59256   0.280E-01    0.148E-01
DAV:  15    -0.307037506172E+03    0.19106E-03   -0.15679E-03 55992   0.202E-01    0.489E-02
DAV:  16    -0.307037463909E+03    0.42263E-04   -0.22617E-04 31968   0.810E-02
   3 F= -.30703746E+03 E0= -.30703424E+03  d E =-.665693E+00
       N       E                     dE             d eps       ncg     rms          rms(c)
DAV:   1    -0.307607564851E+03   -0.57006E+00   -0.64156E+01 49356   0.322E+01    0.735E+00
DAV:   2    -0.308282163554E+03   -0.67460E+00   -0.12352E+01 71820   0.169E+01    0.874E+00
DAV:   3    -0.307716402541E+03    0.56576E+00   -0.12083E+01 72276   0.141E+01    0.652E+00
DAV:   4    -0.307439292005E+03    0.27711E+00   -0.43159E+00 71748   0.102E+01    0.372E+00
DAV:   5    -0.307352104831E+03    0.87187E-01   -0.22490E+00 70008   0.645E+00    0.351E+00
DAV:   6    -0.307247258749E+03    0.10485E+00   -0.13266E+00 69480   0.508E+00    0.213E+00
DAV:   7    -0.307208277934E+03    0.38981E-01   -0.40530E-01 71580   0.280E+00    0.107E+00
DAV:   8    -0.307212930684E+03   -0.46527E-02   -0.19199E-01 76920   0.188E+00    0.118E+00
DAV:   9    -0.307203598909E+03    0.93318E-02   -0.81302E-02 69252   0.134E+00    0.696E-01
DAV:  10    -0.307202545275E+03    0.10536E-02   -0.21845E-02 69096   0.646E-01    0.558E-01
DAV:  11    -0.307204083375E+03   -0.15381E-02   -0.13640E-02 69720   0.488E-01    0.506E-01
DAV:  12    -0.307206380127E+03   -0.22968E-02   -0.23094E-02 68352   0.669E-01    0.474E-01
DAV:  13    -0.307205684337E+03    0.69579E-03   -0.17588E-02 73140   0.538E-01    0.187E-01
DAV:  14    -0.307205517115E+03    0.16722E-03   -0.87767E-03 70524   0.326E-01    0.137E-01
DAV:  15    -0.307205352823E+03    0.16429E-03   -0.30435E-03 63216   0.211E-01    0.859E-02
DAV:  16    -0.307205322608E+03    0.30215E-04   -0.87219E-04 51072   0.155E-01
   4 F= -.30720532E+03 E0= -.30720240E+03  d E =-.167859E+00
       N       E                     dE             d eps       ncg     rms          rms(c)
DAV:   1    -0.307229378580E+03   -0.24026E-01   -0.21945E+00 46692   0.591E+00    0.142E+00
DAV:   2    -0.307252463636E+03   -0.23085E-01   -0.43968E-01 71424   0.313E+00    0.161E+00
DAV:   3    -0.307236479860E+03    0.15984E-01   -0.43879E-01 70248   0.302E+00    0.130E+00
DAV:   4    -0.307222306851E+03    0.14173E-01   -0.13016E-01 70524   0.171E+00    0.698E-01
DAV:   5    -0.307220136949E+03    0.21699E-02   -0.84538E-02 72108   0.123E+00    0.719E-01
DAV:   6    -0.307216058157E+03    0.40788E-02   -0.48861E-02 69168   0.104E+00    0.376E-01
DAV:   7    -0.307214717369E+03    0.13408E-02   -0.13196E-02 72924   0.474E-01    0.218E-01
DAV:   8    -0.307214787076E+03   -0.69707E-04   -0.68255E-03 65952   0.350E-01    0.222E-01
DAV:   9    -0.307214528421E+03    0.25866E-03   -0.31683E-03 59820   0.271E-01    0.137E-01
DAV:  10    -0.307214449161E+03    0.79260E-04   -0.86701E-04 49536   0.140E-01
   5 F= -.30721445E+03 E0= -.30721150E+03  d E =-.176985E+00
       N       E                     dE             d eps       ncg     rms          rms(c)
DAV:   1    -0.307248778169E+03   -0.34250E-01   -0.44541E+00 42408   0.657E+00    0.646E-01
DAV:   2    -0.307299056985E+03   -0.50279E-01   -0.42358E-01 69480   0.350E+00    0.173E+00
DAV:   3    -0.307269553827E+03    0.29503E-01   -0.20849E-01 69864   0.225E+00    0.519E-01
DAV:   4    -0.307269206964E+03    0.34686E-03   -0.38535E-02 69696   0.857E-01    0.456E-01
DAV:   5    -0.307267397588E+03    0.18094E-02   -0.18187E-02 63600   0.665E-01    0.293E-01
DAV:   6    -0.307266908746E+03    0.48884E-03   -0.82250E-03 63648   0.396E-01    0.216E-01
DAV:   7    -0.307267162107E+03   -0.25336E-03   -0.59503E-03 62952   0.378E-01    0.255E-01
DAV:   8    -0.307266592463E+03    0.56964E-03   -0.52687E-03 62700   0.345E-01    0.131E-01
DAV:   9    -0.307266414732E+03    0.17773E-03   -0.13766E-03 57156   0.172E-01    0.675E-02
DAV:  10    -0.307266393694E+03    0.21038E-04   -0.58513E-04 43476   0.122E-01
   6 F= -.30726639E+03 E0= -.30726329E+03  d E =-.519445E-01
       N       E                     dE             d eps       ncg     rms          rms(c)
DAV:   1    -0.307223233976E+03    0.43181E-01   -0.23572E+01 42612   0.151E+01    0.143E+00
DAV:   2    -0.307473098748E+03   -0.24986E+00   -0.21637E+00 69420   0.783E+00    0.391E+00
DAV:   3    -0.307329798825E+03    0.14330E+00   -0.10473E+00 69048   0.513E+00    0.114E+00
DAV:   4    -0.307326868646E+03    0.29302E-02   -0.17414E-01 70836   0.185E+00    0.986E-01
DAV:   5    -0.307319011477E+03    0.78572E-02   -0.86982E-02 68880   0.149E+00    0.673E-01
DAV:   6    -0.307316525949E+03    0.24855E-02   -0.43912E-02 71304   0.915E-01    0.512E-01
DAV:   7    -0.307317648901E+03   -0.11230E-02   -0.33457E-02 66504   0.875E-01    0.596E-01
DAV:   8    -0.307314538718E+03    0.31102E-02   -0.28413E-02 73944   0.778E-01    0.303E-01
DAV:   9    -0.307313609742E+03    0.92898E-03   -0.76682E-03 70812   0.372E-01    0.161E-01
DAV:  10    -0.307313482679E+03    0.12706E-03   -0.37395E-03 62292   0.260E-01    0.125E-01
DAV:  11    -0.307313395710E+03    0.86969E-04   -0.14507E-03 55236   0.169E-01    0.729E-02
DAV:  12    -0.307313366412E+03    0.29298E-04   -0.63701E-04 47820   0.116E-01
   7 F= -.30731337E+03 E0= -.30730993E+03  d E =-.989173E-01
       N       E                     dE             d eps       ncg     rms          rms(c)
DAV:   1    -0.307316817026E+03   -0.34213E-02   -0.34206E+00 41280   0.601E+00    0.594E-01
DAV:   2    -0.307346782734E+03   -0.29966E-01   -0.29737E-01 68796   0.291E+00    0.107E+00
DAV:   3    -0.307337835073E+03    0.89477E-02   -0.11615E-01 68976   0.165E+00    0.569E-01
DAV:   4    -0.307336365932E+03    0.14691E-02   -0.31491E-02 68964   0.802E-01    0.411E-01
DAV:   5    -0.307334814805E+03    0.15511E-02   -0.12758E-02 61164   0.545E-01    0.239E-01
DAV:   6    -0.307334834036E+03   -0.19232E-04   -0.64966E-03 62016   0.357E-01    0.235E-01
DAV:   7    -0.307334719006E+03    0.11503E-03   -0.56613E-03 66492   0.354E-01    0.216E-01
DAV:   8    -0.307334339896E+03    0.37911E-03   -0.40915E-03 63984   0.306E-01    0.123E-01
DAV:   9    -0.307334167595E+03    0.17230E-03   -0.12625E-03 54432   0.176E-01    0.555E-02
DAV:  10    -0.307334132238E+03    0.35357E-04   -0.30504E-04 35544   0.971E-02
   8 F= -.30733413E+03 E0= -.30733079E+03  d E =-.207658E-01
       N       E                     dE             d eps       ncg     rms          rms(c)
DAV:   1    -0.307301158615E+03    0.33009E-01   -0.89608E+00 41280   0.973E+00    0.969E-01
DAV:   2    -0.307373449921E+03   -0.72291E-01   -0.74417E-01 68832   0.453E+00    0.152E+00
DAV:   3    -0.307357652076E+03    0.15798E-01   -0.27809E-01 69492   0.252E+00    0.959E-01
DAV:   4    -0.307352503986E+03    0.51481E-02   -0.82920E-02 71328   0.132E+00    0.643E-01
DAV:   5    -0.307348761689E+03    0.37423E-02   -0.32040E-02 67008   0.842E-01    0.378E-01
DAV:   6    -0.307348950018E+03   -0.18833E-03   -0.16917E-02 63696   0.594E-01    0.393E-01
DAV:   7    -0.307348344207E+03    0.60581E-03   -0.14311E-02 68124   0.550E-01    0.314E-01
DAV:   8    -0.307347607208E+03    0.73700E-03   -0.97115E-03 69732   0.458E-01    0.203E-01
DAV:   9    -0.307347147302E+03    0.45991E-03   -0.34147E-03 59904   0.282E-01    0.900E-02
DAV:  10    -0.307347089207E+03    0.58095E-04   -0.10991E-03 54912   0.141E-01    0.531E-02
DAV:  11    -0.307347067584E+03    0.21623E-04   -0.18394E-04 29172   0.981E-02
   9 F= -.30734707E+03 E0= -.30734383E+03  d E =-.337012E-01
       N       E                     dE             d eps       ncg     rms          rms(c)
DAV:   1    -0.307360594566E+03   -0.13505E-01   -0.20147E+00 42432   0.566E+00    0.132E+00
DAV:   2    -0.307367271939E+03   -0.66774E-02   -0.27525E-01 71508   0.246E+00    0.947E-01
DAV:   3    -0.307371760304E+03   -0.44884E-02   -0.23848E-01 71532   0.193E+00    0.123E+00
DAV:   4    -0.307362237695E+03    0.95226E-02   -0.15565E-01 71148   0.183E+00    0.890E-01
DAV:   5    -0.307353183970E+03    0.90537E-02   -0.69200E-02 71364   0.114E+00    0.385E-01
DAV:   6    -0.307352598431E+03    0.58554E-03   -0.27110E-02 72804   0.682E-01    0.356E-01
DAV:   7    -0.307351848266E+03    0.75016E-03   -0.14468E-02 64908   0.548E-01    0.249E-01
DAV:   8    -0.307351558542E+03    0.28972E-03   -0.65214E-03 58944   0.365E-01    0.167E-01
DAV:   9    -0.307351376652E+03    0.18189E-03   -0.18078E-03 59052   0.182E-01    0.939E-02
DAV:  10    -0.307351420935E+03   -0.44284E-04   -0.38252E-04 35832   0.112E-01
  10 F= -.30735142E+03 E0= -.30734846E+03  d E =-.435335E-02
       N       E                     dE             d eps       ncg     rms          rms(c)
DAV:   1    -0.307351997090E+03   -0.62044E-03   -0.64531E-02 44316   0.102E+00    0.248E-01
DAV:   2    -0.307352823966E+03   -0.82688E-03   -0.12172E-02 77784   0.527E-01    0.266E-01
DAV:   3    -0.307352527997E+03    0.29597E-03   -0.10644E-02 68100   0.472E-01    0.241E-01
DAV:   4    -0.307352146550E+03    0.38145E-03   -0.49896E-03 61356   0.330E-01    0.140E-01
DAV:   5    -0.307351925084E+03    0.22147E-03   -0.23113E-03 60660   0.190E-01    0.838E-02
DAV:   6    -0.307351896485E+03    0.28599E-04   -0.11873E-03 54480   0.156E-01    0.798E-02
DAV:   7    -0.307351882762E+03    0.13723E-04   -0.83473E-04 47688   0.151E-01
  11 F= -.30735188E+03 E0= -.30734883E+03  d E =-.481518E-02
       N       E                     dE             d eps       ncg     rms          rms(c)
DAV:   1    -0.307353989975E+03   -0.20935E-02   -0.71817E-01 42168   0.266E+00    0.296E-01
DAV:   2    -0.307358406721E+03   -0.44167E-02   -0.52143E-02 70560   0.113E+00    0.394E-01
DAV:   3    -0.307357054527E+03    0.13522E-02   -0.18630E-02 74412   0.642E-01    0.247E-01
DAV:   4    -0.307356860249E+03    0.19428E-03   -0.73415E-03 60528   0.417E-01    0.234E-01
DAV:   5    -0.307356382955E+03    0.47729E-03   -0.46728E-03 59472   0.322E-01    0.138E-01
DAV:   6    -0.307356369877E+03    0.13078E-04   -0.26562E-03 61092   0.244E-01    0.126E-01
DAV:   7    -0.307356267775E+03    0.10210E-03   -0.19176E-03 58932   0.218E-01    0.885E-02
DAV:   8    -0.307356196986E+03    0.70789E-04   -0.87062E-04 48312   0.153E-01
  12 F= -.30735620E+03 E0= -.30735329E+03  d E =-.431422E-02
       N       E                     dE             d eps       ncg     rms          rms(c)
DAV:   1    -0.307353012205E+03    0.32556E-02   -0.16054E+00 42192   0.398E+00    0.439E-01
DAV:   2    -0.307361574279E+03   -0.85621E-02   -0.10924E-01 70176   0.162E+00    0.524E-01
DAV:   3    -0.307359879165E+03    0.16951E-02   -0.36061E-02 74376   0.904E-01    0.367E-01
DAV:   4    -0.307359116372E+03    0.76279E-03   -0.14219E-02 64860   0.586E-01    0.316E-01
DAV:   5    -0.307358373703E+03    0.74267E-03   -0.97241E-03 60564   0.465E-01    0.225E-01
DAV:   6    -0.307358256209E+03    0.11749E-03   -0.62020E-03 63648   0.368E-01    0.182E-01
DAV:   7    -0.307358034613E+03    0.22160E-03   -0.42235E-03 66960   0.296E-01    0.127E-01
DAV:   8    -0.307357917614E+03    0.11700E-03   -0.18546E-03 60480   0.204E-01    0.911E-02
DAV:   9    -0.307357826609E+03    0.91005E-04   -0.47064E-04 40284   0.112E-01
  13 F= -.30735783E+03 E0= -.30735518E+03  d E =-.594385E-02
       N       E                     dE             d eps       ncg     rms          rms(c)
DAV:   1    -0.307358814967E+03   -0.89735E-03   -0.20587E-01 43332   0.132E+00    0.141E-01
DAV:   2    -0.307360613790E+03   -0.17988E-02   -0.16513E-02 70008   0.612E-01    0.352E-01
DAV:   3    -0.307359383942E+03    0.12298E-02   -0.87941E-03 63588   0.458E-01    0.122E-01
DAV:   4    -0.307359343410E+03    0.40532E-04   -0.18333E-03 59040   0.192E-01    0.111E-01
DAV:   5    -0.307359255743E+03    0.87667E-04   -0.10045E-03 51768   0.153E-01    0.738E-02
DAV:   6    -0.307359219182E+03    0.36560E-04   -0.41453E-04 40128   0.109E-01
  14 F= -.30735922E+03 E0= -.30735658E+03  d E =-.139257E-02
       N       E                     dE             d eps       ncg     rms          rms(c)
DAV:   1    -0.307358214370E+03    0.10414E-02   -0.77987E-01 43056   0.257E+00    0.256E-01
DAV:   2    -0.307365340052E+03   -0.71257E-02   -0.62599E-02 70824   0.116E+00    0.669E-01
DAV:   3    -0.307360553427E+03    0.47866E-02   -0.32543E-02 71268   0.855E-01    0.231E-01
DAV:   4    -0.307360455192E+03    0.98236E-04   -0.68151E-03 62052   0.364E-01    0.213E-01
DAV:   5    -0.307360076433E+03    0.37876E-03   -0.33629E-03 58368   0.274E-01    0.115E-01
DAV:   6    -0.307360038281E+03    0.38153E-04   -0.15503E-03 58392   0.179E-01    0.102E-01
DAV:   7    -0.307359998616E+03    0.39665E-04   -0.13235E-03 55956   0.153E-01    0.905E-02
DAV:   8    -0.307359942504E+03    0.56111E-04   -0.97130E-04 50172   0.164E-01
  15 F= -.30735994E+03 E0= -.30735738E+03  d E =-.211590E-02
       N       E                     dE             d eps       ncg     rms          rms(c)
DAV:   1    -0.307359735369E+03    0.26325E-03   -0.33913E-01 41952   0.213E+00    0.340E-01
DAV:   2    -0.307362883485E+03   -0.31481E-02   -0.43124E-02 70380   0.990E-01    0.412E-01
DAV:   3    -0.307362034523E+03    0.84896E-03   -0.22487E-02 70704   0.731E-01    0.316E-01
DAV:   4    -0.307361321518E+03    0.71301E-03   -0.87965E-03 62376   0.443E-01    0.193E-01
DAV:   5    -0.307360977112E+03    0.34441E-03   -0.47348E-03 63324   0.296E-01    0.143E-01
DAV:   6    -0.307360922256E+03    0.54856E-04   -0.28166E-03 61884   0.254E-01    0.128E-01
DAV:   7    -0.307360778516E+03    0.14374E-03   -0.14954E-03 55956   0.185E-01    0.672E-02
DAV:   8    -0.307360752551E+03    0.25964E-04   -0.59625E-04 43224   0.125E-01
  16 F= -.30736075E+03 E0= -.30735820E+03  d E =-.810047E-03
       N       E                     dE             d eps       ncg     rms          rms(c)
DAV:   1    -0.307360661868E+03    0.11665E-03   -0.21566E-02 43692   0.544E-01    0.828E-02
DAV:   2    -0.307361007366E+03   -0.34550E-03   -0.34935E-03 67344   0.313E-01    0.160E-01
DAV:   3    -0.307360779200E+03    0.22817E-03   -0.20539E-03 54768   0.219E-01    0.626E-02
DAV:   4    -0.307360761714E+03    0.17486E-04   -0.45052E-04 39660   0.110E-01
  17 F= -.30736076E+03 E0= -.30735822E+03  d E =-.819210E-03
