<?xml version="1.0" encoding="ISO-8859-1"?>
<modeling>
 <generator>
  <i name="program" type="string">vasp </i>
  <i name="version" type="string">5.4.4.18Apr17-6-g9f103f2a35  </i>
  <i name="subversion" type="string">(build Aug 09 2018 16:20:53) complex            parallel </i>
  <i name="platform" type="string">LinuxIFC </i>
  <i name="date" type="string">2020 04 30 </i>
  <i name="time" type="string">22:19:45 </i>
 </generator>
 <incar>
  <i type="string" name="SYSTEM"> Nb - Mo - Ta - Ti - V SQS</i>
  <i type="string" name="PREC">normal</i>
  <i type="int" name="ICHARG">     0</i>
  <i type="int" name="IBRION">     2</i>
  <i type="int" name="NSW">    50</i>
  <i type="int" name="ISIF">     3</i>
  <i name="ENCUT">    600.00000000</i>
  <i type="string" name="LREAL"> Auto</i>
  <i type="int" name="ISMEAR">     1</i>
  <i name="SIGMA">      0.20000000</i>
  <v type="int" name="KPOINT_BSE">    -1     0     0     0</v>
  <i type="string" name="GGA"> PS</i>
 </incar>
 <structure name="primitive_cell" >
  <crystal>
   <varray name="basis" >
    <v>      -3.16000000      -3.16000000      -3.16000000 </v>
    <v>       1.58000000       1.58000000      -7.90000000 </v>
    <v>       7.90000000      -7.90000000      -1.58000000 </v>
   </varray>
   <i name="volume">    473.31744000 </i>
   <varray name="rec_basis" >
    <v>      -0.13713080      -0.12658228      -0.05274262 </v>
    <v>       0.04219409       0.06329114      -0.10548523 </v>
    <v>       0.06329114      -0.06329114       0.00000000 </v>
   </varray>
  </crystal>
  <varray name="positions" >
   <v>      -0.03333333      -0.06666667       0.40000000 </v>
   <v>       0.30000000      -0.40000000       0.40000000 </v>
   <v>      -0.10000000      -0.20000000       0.20000000 </v>
   <v>       0.06666667       0.13333333       0.20000000 </v>
   <v>       0.46666667      -0.06666667       0.40000000 </v>
   <v>      -0.13333333      -0.26666667      -0.40000000 </v>
   <v>       0.03333333       0.06666667      -0.40000000 </v>
   <v>      -0.36666667       0.26666667       0.40000000 </v>
   <v>       0.40000000      -0.20000000       0.20000000 </v>
   <v>      -0.20000000      -0.40000000       0.40000000 </v>
   <v>      -0.43333333       0.13333333       0.20000000 </v>
   <v>       0.36666667      -0.26666667      -0.40000000 </v>
   <v>       0.13333333       0.26666667       0.40000000 </v>
   <v>      -0.46666667       0.06666667      -0.40000000 </v>
   <v>       0.23333333       0.46666667       0.20000000 </v>
   <v>       0.20000000       0.40000000      -0.40000000 </v>
   <v>       0.00000000       0.00000000       0.00000000 </v>
   <v>      -0.06666667      -0.13333333      -0.20000000 </v>
   <v>      -0.30000000       0.40000000      -0.40000000 </v>
   <v>      -0.26666667       0.46666667       0.20000000 </v>
   <v>       0.43333333      -0.13333333      -0.20000000 </v>
   <v>      -0.50000000       0.00000000       0.00000000 </v>
   <v>       0.26666667      -0.46666667      -0.20000000 </v>
   <v>      -0.33333333       0.33333333       0.00000000 </v>
   <v>      -0.40000000       0.20000000      -0.20000000 </v>
   <v>      -0.16666667      -0.33333333       0.00000000 </v>
   <v>      -0.23333333      -0.46666667      -0.20000000 </v>
   <v>       0.16666667       0.33333333       0.00000000 </v>
   <v>       0.10000000       0.20000000      -0.20000000 </v>
  </varray>
 </structure>
 <varray name="primitive_index" >
  <v type="int" >        1 </v>
  <v type="int" >       18 </v>
  <v type="int" >        7 </v>
  <v type="int" >       24 </v>
  <v type="int" >       20 </v>
  <v type="int" >       19 </v>
  <v type="int" >        6 </v>
  <v type="int" >        2 </v>
  <v type="int" >       16 </v>
  <v type="int" >        8 </v>
  <v type="int" >       15 </v>
  <v type="int" >       11 </v>
  <v type="int" >       12 </v>
  <v type="int" >       28 </v>
  <v type="int" >       29 </v>
  <v type="int" >       23 </v>
  <v type="int" >        4 </v>
  <v type="int" >       14 </v>
  <v type="int" >       26 </v>
  <v type="int" >        9 </v>
  <v type="int" >       17 </v>
  <v type="int" >        3 </v>
  <v type="int" >       22 </v>
  <v type="int" >       10 </v>
  <v type="int" >       27 </v>
  <v type="int" >       13 </v>
  <v type="int" >       25 </v>
  <v type="int" >       21 </v>
  <v type="int" >        5 </v>
 </varray>
 <kpoints>
  <generation param="Gamma">
   <v type="int" name="divisions">       7        7        7 </v>
   <v name="usershift">      0.00000000       0.00000000       0.00000000 </v>
   <v name="genvec1">      0.14285714       0.00000000       0.00000000 </v>
   <v name="genvec2">     -0.00000000       0.14285714       0.00000000 </v>
   <v name="genvec3">      0.00000000       0.00000000       0.14285714 </v>
   <v name="shift">      0.00000000       0.00000000       0.00000000 </v>
  </generation>
  <varray name="kpointlist" >
   <v>       0.00000000       0.00000000       0.00000000 </v>
   <v>       0.14285714       0.00000000      -0.00000000 </v>
   <v>       0.28571429       0.00000000       0.00000000 </v>
   <v>       0.42857143       0.00000000      -0.00000000 </v>
   <v>      -0.00000000       0.14285714       0.00000000 </v>
   <v>       0.14285714       0.14285714      -0.00000000 </v>
   <v>       0.28571429       0.14285714       0.00000000 </v>
   <v>       0.42857143       0.14285714      -0.00000000 </v>
   <v>      -0.42857143       0.14285714       0.00000000 </v>
   <v>      -0.28571429       0.14285714       0.00000000 </v>
   <v>      -0.14285714       0.14285714       0.00000000 </v>
   <v>       0.00000000       0.28571429      -0.00000000 </v>
   <v>       0.14285714       0.28571429      -0.00000000 </v>
   <v>       0.28571429       0.28571429      -0.00000000 </v>
   <v>       0.42857143       0.28571429      -0.00000000 </v>
   <v>      -0.42857143       0.28571429      -0.00000000 </v>
   <v>      -0.28571429       0.28571429      -0.00000000 </v>
   <v>      -0.14285714       0.28571429      -0.00000000 </v>
   <v>      -0.00000000       0.42857143      -0.00000000 </v>
   <v>       0.14285714       0.42857143       0.00000000 </v>
   <v>       0.28571429       0.42857143       0.00000000 </v>
   <v>       0.42857143       0.42857143      -0.00000000 </v>
   <v>      -0.42857143       0.42857143       0.00000000 </v>
   <v>      -0.28571429       0.42857143      -0.00000000 </v>
   <v>      -0.14285714       0.42857143      -0.00000000 </v>
   <v>       0.00000000       0.00000000       0.14285714 </v>
   <v>       0.14285714       0.00000000       0.14285714 </v>
   <v>       0.28571429       0.00000000       0.14285714 </v>
   <v>       0.42857143       0.00000000       0.14285714 </v>
   <v>      -0.42857143       0.00000000       0.14285714 </v>
   <v>      -0.28571429       0.00000000       0.14285714 </v>
   <v>      -0.14285714      -0.00000000       0.14285714 </v>
   <v>      -0.00000000       0.14285714       0.14285714 </v>
   <v>       0.14285714       0.14285714       0.14285714 </v>
   <v>       0.28571429       0.14285714       0.14285714 </v>
   <v>       0.42857143       0.14285714       0.14285714 </v>
   <v>      -0.42857143       0.14285714       0.14285714 </v>
   <v>      -0.28571429       0.14285714       0.14285714 </v>
   <v>      -0.14285714       0.14285714       0.14285714 </v>
   <v>      -0.00000000       0.28571429       0.14285714 </v>
   <v>       0.14285714       0.28571429       0.14285714 </v>
   <v>       0.28571429       0.28571429       0.14285714 </v>
   <v>       0.42857143       0.28571429       0.14285714 </v>
   <v>      -0.42857143       0.28571429       0.14285714 </v>
   <v>      -0.28571429       0.28571429       0.14285714 </v>
   <v>      -0.14285714       0.28571429       0.14285714 </v>
   <v>       0.00000000       0.42857143       0.14285714 </v>
   <v>       0.14285714       0.42857143       0.14285714 </v>
   <v>       0.28571429       0.42857143       0.14285714 </v>
   <v>       0.42857143       0.42857143       0.14285714 </v>
   <v>      -0.42857143       0.42857143       0.14285714 </v>
   <v>      -0.28571429       0.42857143       0.14285714 </v>
   <v>      -0.14285714       0.42857143       0.14285714 </v>
   <v>       0.00000000      -0.42857143       0.14285714 </v>
   <v>       0.14285714      -0.42857143       0.14285714 </v>
   <v>       0.28571429      -0.42857143       0.14285714 </v>
   <v>       0.42857143      -0.42857143       0.14285714 </v>
   <v>      -0.42857143      -0.42857143       0.14285714 </v>
   <v>      -0.28571429      -0.42857143       0.14285714 </v>
   <v>      -0.14285714      -0.42857143       0.14285714 </v>
   <v>       0.00000000      -0.28571429       0.14285714 </v>
   <v>       0.14285714      -0.28571429       0.14285714 </v>
   <v>       0.28571429      -0.28571429       0.14285714 </v>
   <v>       0.42857143      -0.28571429       0.14285714 </v>
   <v>      -0.42857143      -0.28571429       0.14285714 </v>
   <v>      -0.28571429      -0.28571429       0.14285714 </v>
   <v>      -0.14285714      -0.28571429       0.14285714 </v>
   <v>       0.00000000      -0.14285714       0.14285714 </v>
   <v>       0.14285714      -0.14285714       0.14285714 </v>
   <v>       0.28571429      -0.14285714       0.14285714 </v>
   <v>       0.42857143      -0.14285714       0.14285714 </v>
   <v>      -0.42857143      -0.14285714       0.14285714 </v>
   <v>      -0.28571429      -0.14285714       0.14285714 </v>
   <v>      -0.14285714      -0.14285714       0.14285714 </v>
   <v>       0.00000000       0.00000000       0.28571429 </v>
   <v>       0.14285714       0.00000000       0.28571429 </v>
   <v>       0.28571429       0.00000000       0.28571429 </v>
   <v>       0.42857143       0.00000000       0.28571429 </v>
   <v>      -0.42857143      -0.00000000       0.28571429 </v>
   <v>      -0.28571429      -0.00000000       0.28571429 </v>
   <v>      -0.14285714      -0.00000000       0.28571429 </v>
   <v>      -0.00000000       0.14285714       0.28571429 </v>
   <v>       0.14285714       0.14285714       0.28571429 </v>
   <v>       0.28571429       0.14285714       0.28571429 </v>
   <v>       0.42857143       0.14285714       0.28571429 </v>
   <v>      -0.42857143       0.14285714       0.28571429 </v>
   <v>      -0.28571429       0.14285714       0.28571429 </v>
   <v>      -0.14285714       0.14285714       0.28571429 </v>
   <v>      -0.00000000       0.28571429       0.28571429 </v>
   <v>       0.14285714       0.28571429       0.28571429 </v>
   <v>       0.28571429       0.28571429       0.28571429 </v>
   <v>       0.42857143       0.28571429       0.28571429 </v>
   <v>      -0.42857143       0.28571429       0.28571429 </v>
   <v>      -0.28571429       0.28571429       0.28571429 </v>
   <v>      -0.14285714       0.28571429       0.28571429 </v>
   <v>       0.00000000       0.42857143       0.28571429 </v>
   <v>       0.14285714       0.42857143       0.28571429 </v>
   <v>       0.28571429       0.42857143       0.28571429 </v>
   <v>       0.42857143       0.42857143       0.28571429 </v>
   <v>      -0.42857143       0.42857143       0.28571429 </v>
   <v>      -0.28571429       0.42857143       0.28571429 </v>
   <v>      -0.14285714       0.42857143       0.28571429 </v>
   <v>      -0.00000000      -0.42857143       0.28571429 </v>
   <v>       0.14285714      -0.42857143       0.28571429 </v>
   <v>       0.28571429      -0.42857143       0.28571429 </v>
   <v>       0.42857143      -0.42857143       0.28571429 </v>
   <v>      -0.42857143      -0.42857143       0.28571429 </v>
   <v>      -0.28571429      -0.42857143       0.28571429 </v>
   <v>      -0.14285714      -0.42857143       0.28571429 </v>
   <v>       0.00000000      -0.28571429       0.28571429 </v>
   <v>       0.14285714      -0.28571429       0.28571429 </v>
   <v>       0.28571429      -0.28571429       0.28571429 </v>
   <v>       0.42857143      -0.28571429       0.28571429 </v>
   <v>      -0.42857143      -0.28571429       0.28571429 </v>
   <v>      -0.28571429      -0.28571429       0.28571429 </v>
   <v>      -0.14285714      -0.28571429       0.28571429 </v>
   <v>       0.00000000      -0.14285714       0.28571429 </v>
   <v>       0.14285714      -0.14285714       0.28571429 </v>
   <v>       0.28571429      -0.14285714       0.28571429 </v>
   <v>       0.42857143      -0.14285714       0.28571429 </v>
   <v>      -0.42857143      -0.14285714       0.28571429 </v>
   <v>      -0.28571429      -0.14285714       0.28571429 </v>
   <v>      -0.14285714      -0.14285714       0.28571429 </v>
   <v>       0.00000000       0.00000000       0.42857143 </v>
   <v>       0.14285714       0.00000000       0.42857143 </v>
   <v>       0.28571429       0.00000000       0.42857143 </v>
   <v>       0.42857143      -0.00000000       0.42857143 </v>
   <v>      -0.42857143      -0.00000000       0.42857143 </v>
   <v>      -0.28571429       0.00000000       0.42857143 </v>
   <v>      -0.14285714      -0.00000000       0.42857143 </v>
   <v>      -0.00000000       0.14285714       0.42857143 </v>
   <v>       0.14285714       0.14285714       0.42857143 </v>
   <v>       0.28571429       0.14285714       0.42857143 </v>
   <v>       0.42857143       0.14285714       0.42857143 </v>
   <v>      -0.42857143       0.14285714       0.42857143 </v>
   <v>      -0.28571429       0.14285714       0.42857143 </v>
   <v>      -0.14285714       0.14285714       0.42857143 </v>
   <v>       0.00000000       0.28571429       0.42857143 </v>
   <v>       0.14285714       0.28571429       0.42857143 </v>
   <v>       0.28571429       0.28571429       0.42857143 </v>
   <v>       0.42857143       0.28571429       0.42857143 </v>
   <v>      -0.42857143       0.28571429       0.42857143 </v>
   <v>      -0.28571429       0.28571429       0.42857143 </v>
   <v>      -0.14285714       0.28571429       0.42857143 </v>
   <v>       0.00000000       0.42857143       0.42857143 </v>
   <v>       0.14285714       0.42857143       0.42857143 </v>
   <v>       0.28571429       0.42857143       0.42857143 </v>
   <v>       0.42857143       0.42857143       0.42857143 </v>
   <v>      -0.42857143       0.42857143       0.42857143 </v>
   <v>      -0.28571429       0.42857143       0.42857143 </v>
   <v>      -0.14285714       0.42857143       0.42857143 </v>
   <v>       0.00000000      -0.42857143       0.42857143 </v>
   <v>       0.14285714      -0.42857143       0.42857143 </v>
   <v>       0.28571429      -0.42857143       0.42857143 </v>
   <v>       0.42857143      -0.42857143       0.42857143 </v>
   <v>      -0.42857143      -0.42857143       0.42857143 </v>
   <v>      -0.28571429      -0.42857143       0.42857143 </v>
   <v>      -0.14285714      -0.42857143       0.42857143 </v>
   <v>      -0.00000000      -0.28571429       0.42857143 </v>
   <v>       0.14285714      -0.28571429       0.42857143 </v>
   <v>       0.28571429      -0.28571429       0.42857143 </v>
   <v>       0.42857143      -0.28571429       0.42857143 </v>
   <v>      -0.42857143      -0.28571429       0.42857143 </v>
   <v>      -0.28571429      -0.28571429       0.42857143 </v>
   <v>      -0.14285714      -0.28571429       0.42857143 </v>
   <v>       0.00000000      -0.14285714       0.42857143 </v>
   <v>       0.14285714      -0.14285714       0.42857143 </v>
   <v>       0.28571429      -0.14285714       0.42857143 </v>
   <v>       0.42857143      -0.14285714       0.42857143 </v>
   <v>      -0.42857143      -0.14285714       0.42857143 </v>
   <v>      -0.28571429      -0.14285714       0.42857143 </v>
   <v>      -0.14285714      -0.14285714       0.42857143 </v>
  </varray>
  <varray name="weights" >
   <v>       0.00291545 </v>
   <v>       0.00583090 </v>
   <v>       0.00583090 </v>
   <v>       0.00583090 </v>
   <v>       0.00583090 </v>
   <v>       0.00583090 </v>
   <v>       0.00583090 </v>
   <v>       0.00583090 </v>
   <v>       0.00583090 </v>
   <v>       0.00583090 </v>
   <v>       0.00583090 </v>
   <v>       0.00583090 </v>
   <v>       0.00583090 </v>
   <v>       0.00583090 </v>
   <v>       0.00583090 </v>
   <v>       0.00583090 </v>
   <v>       0.00583090 </v>
   <v>       0.00583090 </v>
   <v>       0.00583090 </v>
   <v>       0.00583090 </v>
   <v>       0.00583090 </v>
   <v>       0.00583090 </v>
   <v>       0.00583090 </v>
   <v>       0.00583090 </v>
   <v>       0.00583090 </v>
   <v>       0.00583090 </v>
   <v>       0.00583090 </v>
   <v>       0.00583090 </v>
   <v>       0.00583090 </v>
   <v>       0.00583090 </v>
   <v>       0.00583090 </v>
   <v>       0.00583090 </v>
   <v>       0.00583090 </v>
   <v>       0.00583090 </v>
   <v>       0.00583090 </v>
   <v>       0.00583090 </v>
   <v>       0.00583090 </v>
   <v>       0.00583090 </v>
   <v>       0.00583090 </v>
   <v>       0.00583090 </v>
   <v>       0.00583090 </v>
   <v>       0.00583090 </v>
   <v>       0.00583090 </v>
   <v>       0.00583090 </v>
   <v>       0.00583090 </v>
   <v>       0.00583090 </v>
   <v>       0.00583090 </v>
   <v>       0.00583090 </v>
   <v>       0.00583090 </v>
   <v>       0.00583090 </v>
   <v>       0.00583090 </v>
   <v>       0.00583090 </v>
   <v>       0.00583090 </v>
   <v>       0.00583090 </v>
   <v>       0.00583090 </v>
   <v>       0.00583090 </v>
   <v>       0.00583090 </v>
   <v>       0.00583090 </v>
   <v>       0.00583090 </v>
   <v>       0.00583090 </v>
   <v>       0.00583090 </v>
   <v>       0.00583090 </v>
   <v>       0.00583090 </v>
   <v>       0.00583090 </v>
   <v>       0.00583090 </v>
   <v>       0.00583090 </v>
   <v>       0.00583090 </v>
   <v>       0.00583090 </v>
   <v>       0.00583090 </v>
   <v>       0.00583090 </v>
   <v>       0.00583090 </v>
   <v>       0.00583090 </v>
   <v>       0.00583090 </v>
   <v>       0.00583090 </v>
   <v>       0.00583090 </v>
   <v>       0.00583090 </v>
   <v>       0.00583090 </v>
   <v>       0.00583090 </v>
   <v>       0.00583090 </v>
   <v>       0.00583090 </v>
   <v>       0.00583090 </v>
   <v>       0.00583090 </v>
   <v>       0.00583090 </v>
   <v>       0.00583090 </v>
   <v>       0.00583090 </v>
   <v>       0.00583090 </v>
   <v>       0.00583090 </v>
   <v>       0.00583090 </v>
   <v>       0.00583090 </v>
   <v>       0.00583090 </v>
   <v>       0.00583090 </v>
   <v>       0.00583090 </v>
   <v>       0.00583090 </v>
   <v>       0.00583090 </v>
   <v>       0.00583090 </v>
   <v>       0.00583090 </v>
   <v>       0.00583090 </v>
   <v>       0.00583090 </v>
   <v>       0.00583090 </v>
   <v>       0.00583090 </v>
   <v>       0.00583090 </v>
   <v>       0.00583090 </v>
   <v>       0.00583090 </v>
   <v>       0.00583090 </v>
   <v>       0.00583090 </v>
   <v>       0.00583090 </v>
   <v>       0.00583090 </v>
   <v>       0.00583090 </v>
   <v>       0.00583090 </v>
   <v>       0.00583090 </v>
   <v>       0.00583090 </v>
   <v>       0.00583090 </v>
   <v>       0.00583090 </v>
   <v>       0.00583090 </v>
   <v>       0.00583090 </v>
   <v>       0.00583090 </v>
   <v>       0.00583090 </v>
   <v>       0.00583090 </v>
   <v>       0.00583090 </v>
   <v>       0.00583090 </v>
   <v>       0.00583090 </v>
   <v>       0.00583090 </v>
   <v>       0.00583090 </v>
   <v>       0.00583090 </v>
   <v>       0.00583090 </v>
   <v>       0.00583090 </v>
   <v>       0.00583090 </v>
   <v>       0.00583090 </v>
   <v>       0.00583090 </v>
   <v>       0.00583090 </v>
   <v>       0.00583090 </v>
   <v>       0.00583090 </v>
   <v>       0.00583090 </v>
   <v>       0.00583090 </v>
   <v>       0.00583090 </v>
   <v>       0.00583090 </v>
   <v>       0.00583090 </v>
   <v>       0.00583090 </v>
   <v>       0.00583090 </v>
   <v>       0.00583090 </v>
   <v>       0.00583090 </v>
   <v>       0.00583090 </v>
   <v>       0.00583090 </v>
   <v>       0.00583090 </v>
   <v>       0.00583090 </v>
   <v>       0.00583090 </v>
   <v>       0.00583090 </v>
   <v>       0.00583090 </v>
   <v>       0.00583090 </v>
   <v>       0.00583090 </v>
   <v>       0.00583090 </v>
   <v>       0.00583090 </v>
   <v>       0.00583090 </v>
   <v>       0.00583090 </v>
   <v>       0.00583090 </v>
   <v>       0.00583090 </v>
   <v>       0.00583090 </v>
   <v>       0.00583090 </v>
   <v>       0.00583090 </v>
   <v>       0.00583090 </v>
   <v>       0.00583090 </v>
   <v>       0.00583090 </v>
   <v>       0.00583090 </v>
   <v>       0.00583090 </v>
   <v>       0.00583090 </v>
   <v>       0.00583090 </v>
   <v>       0.00583090 </v>
   <v>       0.00583090 </v>
   <v>       0.00583090 </v>
   <v>       0.00583090 </v>
   <v>       0.00583090 </v>
   <v>       0.00583090 </v>
  </varray>
 </kpoints>
 <parameters>
  <separator name="general" >
   <i type="string" name="SYSTEM">Nb - Mo - Ta - Ti - V SQS</i>
   <i type="logical" name="LCOMPAT"> F  </i>
  </separator>
  <separator name="electronic" >
   <i type="string" name="PREC">normal</i>
   <i name="ENMAX">    600.00000000</i>
   <i name="ENAUG">    455.65900000</i>
   <i name="EDIFF">      0.00010000</i>
   <i type="int" name="IALGO">    38</i>
   <i type="int" name="IWAVPR">    11</i>
   <i type="int" name="NBANDS">   120</i>
   <i name="NELECT">    193.00000000</i>
   <i type="int" name="TURBO">     0</i>
   <i type="int" name="IRESTART">     0</i>
   <i type="int" name="NREBOOT">     0</i>
   <i type="int" name="NMIN">     0</i>
   <i name="EREF">      0.00000000</i>
   <separator name="electronic smearing" >
    <i type="int" name="ISMEAR">     1</i>
    <i name="SIGMA">      0.20000000</i>
    <i name="KSPACING">      0.50000000</i>
    <i type="logical" name="KGAMMA"> T  </i>
   </separator>
   <separator name="electronic projectors" >
    <i type="logical" name="LREAL"> T  </i>
    <v name="ROPT">     -0.00050000     -0.00050000     -0.00050000     -0.00050000     -0.00050000</v>
    <i type="int" name="LMAXPAW">  -100</i>
    <i type="int" name="LMAXMIX">     2</i>
    <i type="logical" name="NLSPLINE"> F  </i>
   </separator>
   <separator name="electronic startup" >
    <i type="int" name="ISTART">     0</i>
    <i type="int" name="ICHARG">     0</i>
    <i type="int" name="INIWAV">     1</i>
   </separator>
   <separator name="electronic spin" >
    <i type="int" name="ISPIN">     1</i>
    <i type="logical" name="LNONCOLLINEAR"> F  </i>
    <v name="MAGMOM">      1.00000000      1.00000000      1.00000000      1.00000000      1.00000000      1.00000000      1.00000000      1.00000000      1.00000000      1.00000000      1.00000000      1.00000000      1.00000000      1.00000000      1.00000000      1.00000000      1.00000000      1.00000000      1.00000000      1.00000000
      1.00000000      1.00000000      1.00000000      1.00000000      1.00000000      1.00000000      1.00000000      1.00000000      1.00000000</v>
    <i name="NUPDOWN">     -1.00000000</i>
    <i type="logical" name="LSORBIT"> F  </i>
    <v name="SAXIS">      0.00000000      0.00000000      1.00000000</v>
    <i type="logical" name="LSPIRAL"> F  </i>
    <v name="QSPIRAL">      0.00000000      0.00000000      0.00000000</v>
    <i type="logical" name="LZEROZ"> F  </i>
   </separator>
   <separator name="electronic exchange-correlation" >
    <i type="logical" name="LASPH"> F  </i>
    <i type="logical" name="LMETAGGA"> F  </i>
   </separator>
   <separator name="electronic convergence" >
    <i type="int" name="NELM">    60</i>
    <i type="int" name="NELMDL">    -5</i>
    <i type="int" name="NELMIN">     2</i>
    <i name="ENINI">    600.00000000</i>
    <separator name="electronic convergence detail" >
     <i type="logical" name="LDIAG"> T  </i>
     <i type="logical" name="LSUBROT"> F  </i>
     <i name="WEIMIN">      0.00100000</i>
     <i name="EBREAK">      0.00000021</i>
     <i name="DEPER">      0.30000000</i>
     <i type="int" name="NRMM">     4</i>
     <i name="TIME">      0.40000000</i>
    </separator>
   </separator>
   <separator name="electronic mixer" >
    <i name="AMIX">      0.40000000</i>
    <i name="BMIX">      1.00000000</i>
    <i name="AMIN">      0.10000000</i>
    <i name="AMIX_MAG">      1.60000000</i>
    <i name="BMIX_MAG">      1.00000000</i>
    <separator name="electronic mixer details" >
     <i type="int" name="IMIX">     4</i>
     <i type="logical" name="MIXFIRST"> F  </i>
     <i type="int" name="MAXMIX">   -45</i>
     <i name="WC">    100.00000000</i>
     <i type="int" name="INIMIX">     1</i>
     <i type="int" name="MIXPRE">     1</i>
     <i type="int" name="MREMOVE">     5</i>
    </separator>
   </separator>
   <separator name="electronic dipolcorrection" >
    <i type="logical" name="LDIPOL"> F  </i>
    <i type="logical" name="LMONO"> F  </i>
    <i type="int" name="IDIPOL">     0</i>
    <i name="EPSILON">      1.00000000</i>
    <v name="DIPOL">   -100.00000000   -100.00000000   -100.00000000</v>
    <i name="EFIELD">      0.00000000</i>
   </separator>
  </separator>
  <separator name="grids" >
   <i type="int" name="NGX">    36</i>
   <i type="int" name="NGY">    50</i>
   <i type="int" name="NGZ">    70</i>
   <i type="int" name="NGXF">    72</i>
   <i type="int" name="NGYF">   100</i>
   <i type="int" name="NGZF">   140</i>
   <i type="logical" name="ADDGRID"> F  </i>
  </separator>
  <separator name="ionic" >
   <i type="int" name="NSW">    50</i>
   <i type="int" name="IBRION">     2</i>
   <i type="int" name="MDALGO">     0</i>
   <i type="int" name="ISIF">     3</i>
   <i name="PSTRESS">      0.00000000</i>
   <i name="EDIFFG">      0.00100000</i>
   <i type="int" name="NFREE">     1</i>
   <i name="POTIM">      0.50000000</i>
   <i name="SMASS">     -3.00000000</i>
   <i name="SCALEE">      1.00000000</i>
  </separator>
  <separator name="ionic md" >
   <i name="TEBEG">      0.00010000</i>
   <i name="TEEND">      0.00010000</i>
   <i type="int" name="NBLOCK">     1</i>
   <i type="int" name="KBLOCK">    50</i>
   <i type="int" name="NPACO">   256</i>
   <i name="APACO">     16.00000000</i>
  </separator>
  <separator name="symmetry" >
   <i type="int" name="ISYM">     2</i>
   <i name="SYMPREC">      0.00001000</i>
  </separator>
  <separator name="dos" >
   <i type="int" name="LORBIT">     0</i>
   <v name="RWIGS">     -1.00000000     -1.00000000     -1.00000000     -1.00000000     -1.00000000</v>
   <i type="int" name="NEDOS">   301</i>
   <i name="EMIN">     10.00000000</i>
   <i name="EMAX">    -10.00000000</i>
   <i name="EFERMI">      0.00000000</i>
  </separator>
  <separator name="writing" >
   <i type="int" name="NWRITE">     2</i>
   <i type="logical" name="LWAVE"> T  </i>
   <i type="logical" name="LDOWNSAMPLE"> F  </i>
   <i type="logical" name="LCHARG"> T  </i>
   <i type="logical" name="LPARD"> F  </i>
   <i type="logical" name="LVTOT"> F  </i>
   <i type="logical" name="LVHAR"> F  </i>
   <i type="logical" name="LELF"> F  </i>
   <i type="logical" name="LOPTICS"> F  </i>
   <v name="STM">      0.00000000      0.00000000      0.00000000      0.00000000      0.00000000      0.00000000      0.00000000</v>
  </separator>
  <separator name="performance" >
   <i type="int" name="NPAR">    12</i>
   <i type="int" name="NSIM">     4</i>
   <i type="int" name="NBLK">    -1</i>
   <i type="logical" name="LPLANE"> T  </i>
   <i type="logical" name="LSCALAPACK"> T  </i>
   <i type="logical" name="LSCAAWARE"> F  </i>
   <i type="logical" name="LSCALU"> F  </i>
   <i type="logical" name="LASYNC"> F  </i>
   <i type="logical" name="LORBITALREAL"> F  </i>
  </separator>
  <separator name="miscellaneous" >
   <i type="int" name="IDIOT">     3</i>
   <i type="int" name="ISPECIAL">     0</i>
   <i type="logical" name="LMUSIC"> F  </i>
   <v name="POMASS">     92.91000000     95.94000000    180.94800000     47.88000000     50.94100000</v>
   <v name="DARWINR">      0.00000000      0.00000000      0.00000000      0.00000000      0.00000000</v>
   <v name="DARWINV">      1.00000000      1.00000000      1.00000000      1.00000000      1.00000000</v>
   <i type="logical" name="LCORR"> T  </i>
  </separator>
  <i type="logical" name="GGA_COMPAT"> T  </i>
  <i type="logical" name="LBERRY"> F  </i>
  <i type="int" name="ICORELEVEL">     0</i>
  <i type="logical" name="LDAU"> F  </i>
  <i type="int" name="I_CONSTRAINED_M">     0</i>
  <separator name="electronic exchange-correlation" >
   <i type="string" name="GGA">PS</i>
   <i type="int" name="VOSKOWN">     0</i>
   <i type="logical" name="LHFCALC"> F  </i>
   <i type="string" name="PRECFOCK"></i>
   <i type="logical" name="LSYMGRAD"> F  </i>
   <i type="logical" name="LHFONE"> F  </i>
   <i type="logical" name="LRHFCALC"> F  </i>
   <i type="logical" name="LTHOMAS"> F  </i>
   <i type="logical" name="LMODELHF"> F  </i>
   <i name="ENCUT4O">     -1.00000000</i>
   <i type="int" name="EXXOEP">     0</i>
   <i type="int" name="FOURORBIT">     0</i>
   <i name="AEXX">      0.00000000</i>
   <i name="HFALPHA">      0.00000000</i>
   <i name="MCALPHA">      0.00000000</i>
   <i name="ALDAX">      1.00000000</i>
   <i name="AGGAX">      1.00000000</i>
   <i name="ALDAC">      1.00000000</i>
   <i name="AGGAC">      1.00000000</i>
   <i type="int" name="NKREDX">     1</i>
   <i type="int" name="NKREDY">     1</i>
   <i type="int" name="NKREDZ">     1</i>
   <i type="logical" name="SHIFTRED"> F  </i>
   <i type="logical" name="ODDONLY"> F  </i>
   <i type="logical" name="EVENONLY"> F  </i>
   <i type="int" name="LMAXFOCK">     0</i>
   <i type="int" name="NMAXFOCKAE">     0</i>
   <i type="logical" name="LFOCKAEDFT"> F  </i>
   <i name="HFSCREEN">      0.00000000</i>
   <i name="HFSCREENC">      0.00000000</i>
   <i type="int" name="NBANDSGWLOW">     0</i>
  </separator>
  <separator name="vdW DFT" >
   <i type="logical" name="LUSE_VDW"> F  </i>
   <i name="Zab_VDW">     -0.84910000</i>
   <i name="PARAM1">      0.12340000</i>
   <i name="PARAM2">      1.00000000</i>
   <i name="PARAM3">      0.00000000</i>
  </separator>
  <separator name="model GW" >
   <i type="int" name="MODEL_GW">     0</i>
   <i name="MODEL_EPS0">      9.79277462</i>
   <i name="MODEL_ALPHA">      1.00000000</i>
  </separator>
  <separator name="linear response parameters" >
   <i type="logical" name="LEPSILON"> F  </i>
   <i type="logical" name="LRPA"> F  </i>
   <i type="logical" name="LNABLA"> F  </i>
   <i type="logical" name="LVEL"> F  </i>
   <i type="int" name="KINTER">     0</i>
   <i name="CSHIFT">      0.10000000</i>
   <i name="OMEGAMAX">     -1.00000000</i>
   <i name="DEG_THRESHOLD">      0.00200000</i>
   <i name="RTIME">     -0.10000000</i>
   <i name="WPLASMAI">      0.00000000</i>
   <v name="DFIELD">      0.00000000      0.00000000      0.00000000</v>
   <v name="WPLASMA">      0.00000000      0.00000000      0.00000000      0.00000000      0.00000000      0.00000000      0.00000000      0.00000000      0.00000000</v>
  </separator>
  <separator name="orbital magnetization" >
   <i type="logical" name="NUCIND"> F  </i>
   <v name="MAGPOS">      0.00000000      0.00000000      0.00000000</v>
   <i type="logical" name="LNICSALL"> T  </i>
   <i type="logical" name="ORBITALMAG"> F  </i>
   <i type="logical" name="LMAGBLOCH"> F  </i>
   <i type="logical" name="LCHIMAG"> F  </i>
   <i type="logical" name="LGAUGE"> T  </i>
   <i type="int" name="MAGATOM">     0</i>
   <v name="MAGDIPOL">      0.00000000      0.00000000      0.00000000</v>
   <v name="AVECCONST">      0.00000000      0.00000000      0.00000000</v>
  </separator>
  <separator name="response functions" >
   <i type="logical" name="LADDER"> F  </i>
   <i type="logical" name="LRPAFORCE"> F  </i>
   <i type="logical" name="LFXC"> F  </i>
   <i type="logical" name="LHARTREE"> T  </i>
   <i type="int" name="IBSE">     0</i>
   <v type="int" name="KPOINT">    -1     0     0     0</v>
   <i type="logical" name="LTCTE"> F  </i>
   <i type="logical" name="LTETE"> F  </i>
   <i type="logical" name="LTRIPLET"> F  </i>
   <i type="logical" name="LFXCEPS"> F  </i>
   <i type="logical" name="LFXHEG"> F  </i>
   <i type="int" name="NATURALO">     2</i>
   <i type="logical" name="L2ORDER"> F  </i>
   <i type="logical" name="LMP2LT"> F  </i>
   <i type="logical" name="LUSEW"> F  </i>
   <i name="ENCUTGW">     -2.00000000</i>
   <i name="ENCUTGWSOFT">     -2.00000000</i>
   <i name="ENCUTLF">     -1.00000000</i>
   <i type="int" name="LMAXMP2">    -1</i>
   <i name="SCISSOR">      0.00000000</i>
   <i type="int" name="NOMEGA">     0</i>
   <i type="int" name="NOMEGAR">     0</i>
   <i type="int" name="NBANDSGW">    -1</i>
   <i type="int" name="NBANDSO">    -1</i>
   <i type="int" name="NBANDSV">    -1</i>
   <i type="int" name="NELM">     1</i>
   <i type="int" name="NELMHF">     1</i>
   <i type="int" name="DIM">     3</i>
   <i type="int" name="ANTIRES">     0</i>
   <i name="OMEGAMAX">    -30.00000000</i>
   <i name="OMEGAMIN">    -30.00000000</i>
   <i name="OMEGATL">   -200.00000000</i>
   <i type="int" name="OMEGAGRID">   140</i>
   <i name="CSHIFT">     -0.10000000</i>
   <i type="logical" name="SELFENERGY"> F  </i>
   <i type="logical" name="LSPECTRAL"> F  </i>
   <i type="logical" name="LSPECTRALGW"> F  </i>
   <i type="logical" name="LSINGLES"> F  </i>
   <i type="logical" name="LFERMIGW"> F  </i>
   <i type="logical" name="ODDONLYGW"> F  </i>
   <i type="logical" name="EVENONLYGW"> F  </i>
   <i type="int" name="NKREDLFX">     1</i>
   <i type="int" name="NKREDLFY">     1</i>
   <i type="int" name="NKREDLFZ">     1</i>
   <i type="int" name="MAXMEM">  2800</i>
   <i type="int" name="TELESCOPE">     0</i>
   <i type="int" name="TAUPAR">     1</i>
   <i type="int" name="OMEGAPAR">    -1</i>
   <i name="LAMBDA">      1.00000000</i>
  </separator>
  <separator name="External order field" >
   <i name="OFIELD_KAPPA">      0.00000000</i>
   <v name="OFIELD_K">      0.00000000      0.00000000      0.00000000</v>
   <i name="OFIELD_Q6_NEAR">      0.00000000</i>
   <i name="OFIELD_Q6_FAR">      0.00000000</i>
   <i name="OFIELD_A">      0.00000000</i>
  </separator>
  <separator name="solvation model" >
   <i type="logical" name="LSOL"> F  </i>
  </separator>
 </parameters>
 <atominfo>
  <atoms>      29 </atoms>
  <types>       5 </types>
  <array name="atoms" >
   <dimension dim="1">ion</dimension>
   <field type="string">element</field>
   <field type="int">atomtype</field>
   <set>
    <rc><c>Nb</c><c>   1</c></rc>
    <rc><c>Nb</c><c>   1</c></rc>
    <rc><c>Nb</c><c>   1</c></rc>
    <rc><c>Nb</c><c>   1</c></rc>
    <rc><c>Nb</c><c>   1</c></rc>
    <rc><c>Nb</c><c>   1</c></rc>
    <rc><c>Mo</c><c>   2</c></rc>
    <rc><c>Mo</c><c>   2</c></rc>
    <rc><c>Mo</c><c>   2</c></rc>
    <rc><c>Mo</c><c>   2</c></rc>
    <rc><c>Mo</c><c>   2</c></rc>
    <rc><c>Mo</c><c>   2</c></rc>
    <rc><c>Ta</c><c>   3</c></rc>
    <rc><c>Ta</c><c>   3</c></rc>
    <rc><c>Ta</c><c>   3</c></rc>
    <rc><c>Ta</c><c>   3</c></rc>
    <rc><c>Ta</c><c>   3</c></rc>
    <rc><c>Ta</c><c>   3</c></rc>
    <rc><c>Ti</c><c>   4</c></rc>
    <rc><c>Ti</c><c>   4</c></rc>
    <rc><c>Ti</c><c>   4</c></rc>
    <rc><c>Ti</c><c>   4</c></rc>
    <rc><c>Ti</c><c>   4</c></rc>
    <rc><c>Ti</c><c>   4</c></rc>
    <rc><c>V </c><c>   5</c></rc>
    <rc><c>V </c><c>   5</c></rc>
    <rc><c>V </c><c>   5</c></rc>
    <rc><c>V </c><c>   5</c></rc>
    <rc><c>V </c><c>   5</c></rc>
   </set>
  </array>
  <array name="atomtypes" >
   <dimension dim="1">type</dimension>
   <field type="int">atomspertype</field>
   <field type="string">element</field>
   <field>mass</field>
   <field>valence</field>
   <field type="string">pseudopotential</field>
   <set>
    <rc><c>   6</c><c>Nb</c><c>     92.91000000</c><c>     13.00000000</c><c>  PAW_PBE Nb_sv 25May2007               </c></rc>
    <rc><c>   6</c><c>Mo</c><c>     95.94000000</c><c>      6.00000000</c><c>  PAW_PBE Mo 08Apr2002                  </c></rc>
    <rc><c>   6</c><c>Ta</c><c>    180.94800000</c><c>      5.00000000</c><c>  PAW_PBE Ta 17Jan2003                  </c></rc>
    <rc><c>   6</c><c>Ti</c><c>     47.88000000</c><c>      4.00000000</c><c>  PAW_PBE Ti 08Apr2002                  </c></rc>
    <rc><c>   5</c><c>V </c><c>     50.94100000</c><c>      5.00000000</c><c>  PAW_PBE V 08Apr2002                   </c></rc>
   </set>
  </array>
 </atominfo>
 <structure name="initialpos" >
  <crystal>
   <varray name="basis" >
    <v>      -3.16000000      -3.16000000      -3.16000000 </v>
    <v>       1.58000000       1.58000000      -7.90000000 </v>
    <v>       7.90000000      -7.90000000      -1.58000000 </v>
   </varray>
   <i name="volume">    473.31744000 </i>
   <varray name="rec_basis" >
    <v>      -0.13713080      -0.12658228      -0.05274262 </v>
    <v>       0.04219409       0.06329114      -0.10548523 </v>
    <v>       0.06329114      -0.06329114       0.00000000 </v>
   </varray>
  </crystal>
  <varray name="positions" >
   <v>       0.96666667       0.93333333       0.40000000 </v>
   <v>       0.63333333       0.26666667       0.40000000 </v>
   <v>       0.50000000       0.00000000       0.00000000 </v>
   <v>       0.00000000       0.00000000       0.00000000 </v>
   <v>       0.10000000       0.20000000       0.80000000 </v>
   <v>       0.03333333       0.06666667       0.60000000 </v>
   <v>       0.90000000       0.80000000       0.20000000 </v>
   <v>       0.80000000       0.60000000       0.40000000 </v>
   <v>       0.73333333       0.46666667       0.20000000 </v>
   <v>       0.66666667       0.33333333       0.00000000 </v>
   <v>       0.36666667       0.73333333       0.60000000 </v>
   <v>       0.13333333       0.26666667       0.40000000 </v>
   <v>       0.83333333       0.66666667       0.00000000 </v>
   <v>       0.93333333       0.86666667       0.80000000 </v>
   <v>       0.56666667       0.13333333       0.20000000 </v>
   <v>       0.40000000       0.80000000       0.20000000 </v>
   <v>       0.43333333       0.86666667       0.80000000 </v>
   <v>       0.30000000       0.60000000       0.40000000 </v>
   <v>       0.86666667       0.73333333       0.60000000 </v>
   <v>       0.46666667       0.93333333       0.40000000 </v>
   <v>       0.16666667       0.33333333       0.00000000 </v>
   <v>       0.26666667       0.53333333       0.80000000 </v>
   <v>       0.20000000       0.40000000       0.60000000 </v>
   <v>       0.06666667       0.13333333       0.20000000 </v>
   <v>       0.76666667       0.53333333       0.80000000 </v>
   <v>       0.70000000       0.40000000       0.60000000 </v>
   <v>       0.60000000       0.20000000       0.80000000 </v>
   <v>       0.53333333       0.06666667       0.60000000 </v>
   <v>       0.23333333       0.46666667       0.20000000 </v>
  </varray>
 </structure>
 <calculation>
  <scstep>
   <time name="dav">   46.13   46.21</time>
   <time name="total">   46.26   46.35</time>
   <energy>
    <i name="alphaZ">   1173.71499705 </i>
    <i name="ewald"> -11023.50996213 </i>
    <i name="hartreedc">   -110.34800028 </i>
    <i name="XCdc">   -935.87932022 </i>
    <i name="pawpsdc"> 577119.31685696 </i>
    <i name="pawaedc">-575858.34822124 </i>
    <i name="eentropy">      0.00054789 </i>
    <i name="bandstr">  -7738.26753880 </i>
    <i name="atom">  12835.31476492 </i>
    <i name="e_fr_energy">  -4538.00587586 </i>
    <i name="e_wo_entrp">  -4538.00642375 </i>
    <i name="e_0_energy">  -4538.00605849 </i>
   </energy>
  </scstep>
  <scstep>
   <time name="dav">   50.23   50.33</time>
   <time name="total">   50.24   50.34</time>
   <energy>
    <i name="e_fr_energy">  -9760.12235657 </i>
    <i name="e_wo_entrp">  -9760.12440331 </i>
    <i name="e_0_energy">  -9760.12303882 </i>
   </energy>
  </scstep>
  <scstep>
   <time name="dav">   57.04   57.13</time>
   <time name="total">   57.05   57.14</time>
   <energy>
    <i name="e_fr_energy"> -10649.88214859 </i>
    <i name="e_wo_entrp"> -10649.88573775 </i>
    <i name="e_0_energy"> -10649.88334498 </i>
   </energy>
  </scstep>
  <scstep>
   <time name="dav">   57.03   57.13</time>
   <time name="total">   57.04   57.14</time>
   <energy>
    <i name="e_fr_energy"> -10913.15010428 </i>
    <i name="e_wo_entrp"> -10913.15162544 </i>
    <i name="e_0_energy"> -10913.15061133 </i>
   </energy>
  </scstep>
  <scstep>
   <time name="dav">   57.01   57.10</time>
   <time name="total">   57.68   57.77</time>
   <energy>
    <i name="e_fr_energy"> -11092.66144535 </i>
    <i name="e_wo_entrp"> -11092.66076031 </i>
    <i name="e_0_energy"> -11092.66121701 </i>
   </energy>
  </scstep>
  <scstep>
   <time name="dav">   46.06   46.14</time>
   <time name="total">   46.81   46.90</time>
   <energy>
    <i name="e_fr_energy">  -1161.13937499 </i>
    <i name="e_wo_entrp">  -1161.13400512 </i>
    <i name="e_0_energy">  -1161.13758504 </i>
   </energy>
  </scstep>
  <scstep>
   <time name="dav">   51.76   51.85</time>
   <time name="total">   52.44   52.53</time>
   <energy>
    <i name="e_fr_energy">   -907.48577014 </i>
    <i name="e_wo_entrp">   -907.49000998 </i>
    <i name="e_0_energy">   -907.48718342 </i>
   </energy>
  </scstep>
  <scstep>
   <time name="dav">   50.77   50.85</time>
   <time name="total">   51.43   51.53</time>
   <energy>
    <i name="e_fr_energy">   -648.06117662 </i>
    <i name="e_wo_entrp">   -648.05673304 </i>
    <i name="e_0_energy">   -648.05969543 </i>
   </energy>
  </scstep>
  <scstep>
   <time name="dav">   53.18   53.27</time>
   <time name="total">   53.85   53.94</time>
   <energy>
    <i name="e_fr_energy">   -566.87377212 </i>
    <i name="e_wo_entrp">   -566.87086032 </i>
    <i name="e_0_energy">   -566.87280152 </i>
   </energy>
  </scstep>
  <scstep>
   <time name="dav">   53.90   53.97</time>
   <time name="total">   54.57   54.66</time>
   <energy>
    <i name="e_fr_energy">   -700.75464728 </i>
    <i name="e_wo_entrp">   -700.76519261 </i>
    <i name="e_0_energy">   -700.75816239 </i>
   </energy>
  </scstep>
  <scstep>
   <time name="dav">   50.36   50.43</time>
   <time name="total">   51.02   51.09</time>
   <energy>
    <i name="e_fr_energy">   -862.42029332 </i>
    <i name="e_wo_entrp">   -862.42022345 </i>
    <i name="e_0_energy">   -862.42027003 </i>
   </energy>
  </scstep>
  <scstep>
   <time name="dav">   50.11   50.18</time>
   <time name="total">   50.79   50.86</time>
   <energy>
    <i name="e_fr_energy">  -1076.14663745 </i>
    <i name="e_wo_entrp">  -1076.14245669 </i>
    <i name="e_0_energy">  -1076.14524386 </i>
   </energy>
  </scstep>
  <scstep>
   <time name="dav">   47.00   47.06</time>
   <time name="total">   47.67   47.73</time>
   <energy>
    <i name="e_fr_energy">   -932.00861044 </i>
    <i name="e_wo_entrp">   -932.00771088 </i>
    <i name="e_0_energy">   -932.00831059 </i>
   </energy>
  </scstep>
  <scstep>
   <time name="dav">   54.12   54.19</time>
   <time name="total">   54.79   54.87</time>
   <energy>
    <i name="e_fr_energy">   -824.06537467 </i>
    <i name="e_wo_entrp">   -824.06136592 </i>
    <i name="e_0_energy">   -824.06403842 </i>
   </energy>
  </scstep>
  <scstep>
   <time name="dav">   46.94   47.00</time>
   <time name="total">   47.62   47.68</time>
   <energy>
    <i name="e_fr_energy">   -665.57598143 </i>
    <i name="e_wo_entrp">   -665.57918861 </i>
    <i name="e_0_energy">   -665.57705049 </i>
   </energy>
  </scstep>
  <scstep>
   <time name="dav">   47.88   47.94</time>
   <time name="total">   48.55   48.62</time>
   <energy>
    <i name="e_fr_energy">   -507.36123662 </i>
    <i name="e_wo_entrp">   -507.36108740 </i>
    <i name="e_0_energy">   -507.36118688 </i>
   </energy>
  </scstep>
  <scstep>
   <time name="dav">   52.18   52.25</time>
   <time name="total">   52.85   52.93</time>
   <energy>
    <i name="e_fr_energy">   -493.53714616 </i>
    <i name="e_wo_entrp">   -493.55098472 </i>
    <i name="e_0_energy">   -493.54175901 </i>
   </energy>
  </scstep>
  <scstep>
   <time name="dav">   49.79   49.86</time>
   <time name="total">   50.45   50.53</time>
   <energy>
    <i name="e_fr_energy">   -473.32536382 </i>
    <i name="e_wo_entrp">   -473.31664289 </i>
    <i name="e_0_energy">   -473.32245684 </i>
   </energy>
  </scstep>
  <scstep>
   <time name="dav">   49.90   49.96</time>
   <time name="total">   50.57   50.64</time>
   <energy>
    <i name="e_fr_energy">   -461.85811054 </i>
    <i name="e_wo_entrp">   -461.84716308 </i>
    <i name="e_0_energy">   -461.85446138 </i>
   </energy>
  </scstep>
  <scstep>
   <time name="dav">   46.29   46.35</time>
   <time name="total">   46.97   47.05</time>
   <energy>
    <i name="e_fr_energy">   -454.03596706 </i>
    <i name="e_wo_entrp">   -454.04242295 </i>
    <i name="e_0_energy">   -454.03811903 </i>
   </energy>
  </scstep>
  <scstep>
   <time name="dav">   48.05   48.11</time>
   <time name="total">   48.72   48.78</time>
   <energy>
    <i name="e_fr_energy">   -463.44332649 </i>
    <i name="e_wo_entrp">   -463.43957596 </i>
    <i name="e_0_energy">   -463.44207631 </i>
   </energy>
  </scstep>
  <scstep>
   <time name="dav">   52.34   52.43</time>
   <time name="total">   53.01   53.11</time>
   <energy>
    <i name="e_fr_energy">   -431.57538928 </i>
    <i name="e_wo_entrp">   -431.56776730 </i>
    <i name="e_0_energy">   -431.57284862 </i>
   </energy>
  </scstep>
  <scstep>
   <time name="dav">   53.63   53.71</time>
   <time name="total">   54.30   54.37</time>
   <energy>
    <i name="e_fr_energy">   -388.46691613 </i>
    <i name="e_wo_entrp">   -388.46607242 </i>
    <i name="e_0_energy">   -388.46663489 </i>
   </energy>
  </scstep>
  <scstep>
   <time name="dav">   52.31   52.38</time>
   <time name="total">   52.98   53.06</time>
   <energy>
    <i name="e_fr_energy">   -384.02960052 </i>
    <i name="e_wo_entrp">   -384.04038560 </i>
    <i name="e_0_energy">   -384.03319555 </i>
   </energy>
  </scstep>
  <scstep>
   <time name="dav">   51.67   51.74</time>
   <time name="total">   52.33   52.40</time>
   <energy>
    <i name="e_fr_energy">   -344.26426480 </i>
    <i name="e_wo_entrp">   -344.26235820 </i>
    <i name="e_0_energy">   -344.26362927 </i>
   </energy>
  </scstep>
  <scstep>
   <time name="dav">   51.81   51.88</time>
   <time name="total">   52.49   52.57</time>
   <energy>
    <i name="e_fr_energy">   -334.16869953 </i>
    <i name="e_wo_entrp">   -334.15603529 </i>
    <i name="e_0_energy">   -334.16447811 </i>
   </energy>
  </scstep>
  <scstep>
   <time name="dav">   52.55   52.62</time>
   <time name="total">   53.22   53.29</time>
   <energy>
    <i name="e_fr_energy">   -328.15702640 </i>
    <i name="e_wo_entrp">   -328.13941042 </i>
    <i name="e_0_energy">   -328.15115440 </i>
   </energy>
  </scstep>
  <scstep>
   <time name="dav">   50.10   50.16</time>
   <time name="total">   50.77   50.86</time>
   <energy>
    <i name="e_fr_energy">   -319.21642336 </i>
    <i name="e_wo_entrp">   -319.19405200 </i>
    <i name="e_0_energy">   -319.20896624 </i>
   </energy>
  </scstep>
  <scstep>
   <time name="dav">   46.67   46.73</time>
   <time name="total">   47.33   47.40</time>
   <energy>
    <i name="e_fr_energy">   -311.79709202 </i>
    <i name="e_wo_entrp">   -311.76669154 </i>
    <i name="e_0_energy">   -311.78695853 </i>
   </energy>
  </scstep>
  <scstep>
   <time name="dav">   50.59   50.66</time>
   <time name="total">   51.27   51.34</time>
   <energy>
    <i name="e_fr_energy">   -311.68356041 </i>
    <i name="e_wo_entrp">   -311.66496726 </i>
    <i name="e_0_energy">   -311.67736269 </i>
   </energy>
  </scstep>
  <scstep>
   <time name="dav">   49.71   49.78</time>
   <time name="total">   50.38   50.44</time>
   <energy>
    <i name="e_fr_energy">   -308.19479668 </i>
    <i name="e_wo_entrp">   -308.17178814 </i>
    <i name="e_0_energy">   -308.18712717 </i>
   </energy>
  </scstep>
  <scstep>
   <time name="dav">   51.39   51.46</time>
   <time name="total">   52.06   52.13</time>
   <energy>
    <i name="e_fr_energy">   -308.58487583 </i>
    <i name="e_wo_entrp">   -308.55599510 </i>
    <i name="e_0_energy">   -308.57524892 </i>
   </energy>
  </scstep>
  <scstep>
   <time name="dav">   49.95   50.01</time>
   <time name="total">   50.61   50.68</time>
   <energy>
    <i name="e_fr_energy">   -307.99486587 </i>
    <i name="e_wo_entrp">   -307.98075290 </i>
    <i name="e_0_energy">   -307.99016155 </i>
   </energy>
  </scstep>
  <scstep>
   <time name="dav">   50.85   50.92</time>
   <time name="total">   51.51   51.59</time>
   <energy>
    <i name="e_fr_energy">   -308.18327446 </i>
    <i name="e_wo_entrp">   -308.15851906 </i>
    <i name="e_0_energy">   -308.17502266 </i>
   </energy>
  </scstep>
  <scstep>
   <time name="dav">   53.12   53.20</time>
   <time name="total">   53.77   53.86</time>
   <energy>
    <i name="e_fr_energy">   -307.44515653 </i>
    <i name="e_wo_entrp">   -307.43331186 </i>
    <i name="e_0_energy">   -307.44120831 </i>
   </energy>
  </scstep>
  <scstep>
   <time name="dav">   53.38   53.45</time>
   <time name="total">   54.05   54.13</time>
   <energy>
    <i name="e_fr_energy">   -307.24509890 </i>
    <i name="e_wo_entrp">   -307.23180271 </i>
    <i name="e_0_energy">   -307.24066683 </i>
   </energy>
  </scstep>
  <scstep>
   <time name="dav">   54.56   54.63</time>
   <time name="total">   55.22   55.29</time>
   <energy>
    <i name="e_fr_energy">   -307.13157643 </i>
    <i name="e_wo_entrp">   -307.11751375 </i>
    <i name="e_0_energy">   -307.12688887 </i>
   </energy>
  </scstep>
  <scstep>
   <time name="dav">   50.00   50.07</time>
   <time name="total">   50.68   50.76</time>
   <energy>
    <i name="e_fr_energy">   -307.43210024 </i>
    <i name="e_wo_entrp">   -307.41541404 </i>
    <i name="e_0_energy">   -307.42653817 </i>
   </energy>
  </scstep>
  <scstep>
   <time name="dav">   50.41   50.47</time>
   <time name="total">   51.07   51.14</time>
   <energy>
    <i name="e_fr_energy">   -307.30553862 </i>
    <i name="e_wo_entrp">   -307.28937013 </i>
    <i name="e_0_energy">   -307.30014912 </i>
   </energy>
  </scstep>
  <scstep>
   <time name="dav">   47.57   47.63</time>
   <time name="total">   48.24   48.31</time>
   <energy>
    <i name="e_fr_energy">   -306.92565152 </i>
    <i name="e_wo_entrp">   -306.91547332 </i>
    <i name="e_0_energy">   -306.92225879 </i>
   </energy>
  </scstep>
  <scstep>
   <time name="dav">   51.44   51.51</time>
   <time name="total">   52.10   52.17</time>
   <energy>
    <i name="e_fr_energy">   -306.98252786 </i>
    <i name="e_wo_entrp">   -306.97000866 </i>
    <i name="e_0_energy">   -306.97835479 </i>
   </energy>
  </scstep>
  <scstep>
   <time name="dav">   52.11   52.17</time>
   <time name="total">   52.78   52.85</time>
   <energy>
    <i name="e_fr_energy">   -306.66975917 </i>
    <i name="e_wo_entrp">   -306.66016455 </i>
    <i name="e_0_energy">   -306.66656096 </i>
   </energy>
  </scstep>
  <scstep>
   <time name="dav">   51.98   52.05</time>
   <time name="total">   52.65   52.72</time>
   <energy>
    <i name="e_fr_energy">   -306.64241246 </i>
    <i name="e_wo_entrp">   -306.63240374 </i>
    <i name="e_0_energy">   -306.63907622 </i>
   </energy>
  </scstep>
  <scstep>
   <time name="dav">   51.77   51.84</time>
   <time name="total">   52.45   52.54</time>
   <energy>
    <i name="e_fr_energy">   -306.59934476 </i>
    <i name="e_wo_entrp">   -306.59149179 </i>
    <i name="e_0_energy">   -306.59672710 </i>
   </energy>
  </scstep>
  <scstep>
   <time name="dav">   51.90   51.97</time>
   <time name="total">   52.58   52.65</time>
   <energy>
    <i name="e_fr_energy">   -306.52090576 </i>
    <i name="e_wo_entrp">   -306.51317909 </i>
    <i name="e_0_energy">   -306.51833020 </i>
   </energy>
  </scstep>
  <scstep>
   <time name="dav">   52.23   52.30</time>
   <time name="total">   52.92   53.00</time>
   <energy>
    <i name="e_fr_energy">   -306.46351350 </i>
    <i name="e_wo_entrp">   -306.45521129 </i>
    <i name="e_0_energy">   -306.46074610 </i>
   </energy>
  </scstep>
  <scstep>
   <time name="dav">   49.16   49.22</time>
   <time name="total">   49.82   49.89</time>
   <energy>
    <i name="e_fr_energy">   -306.44842104 </i>
    <i name="e_wo_entrp">   -306.43990053 </i>
    <i name="e_0_energy">   -306.44558087 </i>
   </energy>
  </scstep>
  <scstep>
   <time name="dav">   45.84   45.90</time>
   <time name="total">   46.51   46.58</time>
   <energy>
    <i name="e_fr_energy">   -306.40098608 </i>
    <i name="e_wo_entrp">   -306.39119904 </i>
    <i name="e_0_energy">   -306.39772373 </i>
   </energy>
  </scstep>
  <scstep>
   <time name="dav">   49.88   49.95</time>
   <time name="total">   50.56   50.62</time>
   <energy>
    <i name="e_fr_energy">   -306.38928285 </i>
    <i name="e_wo_entrp">   -306.37894381 </i>
    <i name="e_0_energy">   -306.38583651 </i>
   </energy>
  </scstep>
  <scstep>
   <time name="dav">   44.16   44.21</time>
   <time name="total">   44.83   44.90</time>
   <energy>
    <i name="e_fr_energy">   -306.38729510 </i>
    <i name="e_wo_entrp">   -306.37678498 </i>
    <i name="e_0_energy">   -306.38379173 </i>
   </energy>
  </scstep>
  <scstep>
   <time name="dav">   45.32   45.38</time>
   <time name="total">   45.99   46.05</time>
   <energy>
    <i name="e_fr_energy">   -306.37746236 </i>
    <i name="e_wo_entrp">   -306.36631218 </i>
    <i name="e_0_energy">   -306.37374563 </i>
   </energy>
  </scstep>
  <scstep>
   <time name="dav">   48.63   48.69</time>
   <time name="total">   49.29   49.37</time>
   <energy>
    <i name="e_fr_energy">   -306.37345680 </i>
    <i name="e_wo_entrp">   -306.36202937 </i>
    <i name="e_0_energy">   -306.36964766 </i>
   </energy>
  </scstep>
  <scstep>
   <time name="dav">   49.95   50.02</time>
   <time name="total">   50.62   50.69</time>
   <energy>
    <i name="e_fr_energy">   -306.37250661 </i>
    <i name="e_wo_entrp">   -306.36098007 </i>
    <i name="e_0_energy">   -306.36866443 </i>
   </energy>
  </scstep>
  <scstep>
   <time name="dav">   44.70   44.78</time>
   <time name="total">   45.36   45.45</time>
   <energy>
    <i name="e_fr_energy">   -306.37174968 </i>
    <i name="e_wo_entrp">   -306.35999736 </i>
    <i name="e_0_energy">   -306.36783224 </i>
   </energy>
  </scstep>
  <scstep>
   <time name="dav">   35.90   36.13</time>
   <time name="total">   35.94   36.22</time>
   <energy>
    <i name="alphaZ">   1173.71499705 </i>
    <i name="ewald"> -11023.50996213 </i>
    <i name="hartreedc">  -3150.43595044 </i>
    <i name="XCdc">   -843.06192389 </i>
    <i name="pawpsdc">  18821.75806611 </i>
    <i name="pawaedc"> -17359.77050146 </i>
    <i name="eentropy">     -0.01173568 </i>
    <i name="bandstr">   -760.36952551 </i>
    <i name="atom">  12835.31476492 </i>
    <i name="e_fr_energy">   -306.37177103 </i>
    <i name="e_wo_entrp">   -306.36003535 </i>
    <i name="e_0_energy">   -306.36785914 </i>
   </energy>
  </scstep>
  <structure>
   <crystal>
    <varray name="basis" >
     <v>      -3.16000000      -3.16000000      -3.16000000 </v>
     <v>       1.58000000       1.58000000      -7.90000000 </v>
     <v>       7.90000000      -7.90000000      -1.58000000 </v>
    </varray>
    <i name="volume">    473.31744000 </i>
    <varray name="rec_basis" >
     <v>      -0.13713080      -0.12658228      -0.05274262 </v>
     <v>       0.04219409       0.06329114      -0.10548523 </v>
     <v>       0.06329114      -0.06329114       0.00000000 </v>
    </varray>
   </crystal>
   <varray name="positions" >
    <v>       0.96666667       0.93333333       0.40000000 </v>
    <v>       0.63333333       0.26666667       0.40000000 </v>
    <v>       0.50000000       0.00000000       0.00000000 </v>
    <v>       0.00000000       0.00000000       0.00000000 </v>
    <v>       0.10000000       0.20000000       0.80000000 </v>
    <v>       0.03333333       0.06666667       0.60000000 </v>
    <v>       0.90000000       0.80000000       0.20000000 </v>
    <v>       0.80000000       0.60000000       0.40000000 </v>
    <v>       0.73333333       0.46666667       0.20000000 </v>
    <v>       0.66666667       0.33333333       0.00000000 </v>
    <v>       0.36666667       0.73333333       0.60000000 </v>
    <v>       0.13333333       0.26666667       0.40000000 </v>
    <v>       0.83333333       0.66666667       0.00000000 </v>
    <v>       0.93333333       0.86666667       0.80000000 </v>
    <v>       0.56666667       0.13333333       0.20000000 </v>
    <v>       0.40000000       0.80000000       0.20000000 </v>
    <v>       0.43333333       0.86666667       0.80000000 </v>
    <v>       0.30000000       0.60000000       0.40000000 </v>
    <v>       0.86666667       0.73333333       0.60000000 </v>
    <v>       0.46666667       0.93333333       0.40000000 </v>
    <v>       0.16666667       0.33333333       0.00000000 </v>
    <v>       0.26666667       0.53333333       0.80000000 </v>
    <v>       0.20000000       0.40000000       0.60000000 </v>
    <v>       0.06666667       0.13333333       0.20000000 </v>
    <v>       0.76666667       0.53333333       0.80000000 </v>
    <v>       0.70000000       0.40000000       0.60000000 </v>
    <v>       0.60000000       0.20000000       0.80000000 </v>
    <v>       0.53333333       0.06666667       0.60000000 </v>
    <v>       0.23333333       0.46666667       0.20000000 </v>
   </varray>
  </structure>
  <varray name="forces" >
   <v>      -0.09433723       0.39547980       0.23854795 </v>
   <v>       0.39393150      -0.09577879       0.02019041 </v>
   <v>      -0.19428854       0.27326887      -0.59965496 </v>
   <v>       0.02919278      -0.22015151       0.33943730 </v>
   <v>       0.05928861       0.63030607      -0.53673143 </v>
   <v>      -0.20490229       0.14901886      -0.38268476 </v>
   <v>       0.21726851      -0.52764326       0.30623961 </v>
   <v>      -0.50161105      -0.23886505       0.53775417 </v>
   <v>      -0.34872763       0.17162954       0.02923957 </v>
   <v>       0.15514587       0.46851892      -0.87969116 </v>
   <v>      -0.06378478      -0.60573970       0.29543526 </v>
   <v>       0.17981313       0.12220399      -0.59764972 </v>
   <v>       0.28368559      -0.32679842       0.58280517 </v>
   <v>       0.31642124       0.88833897       0.05273073 </v>
   <v>      -0.29876989       0.63895410      -0.12358915 </v>
   <v>      -1.02176079       0.09927329       0.99463357 </v>
   <v>      -0.88026480      -0.37346940       0.54498456 </v>
   <v>       0.22412877      -0.22840606      -0.21440121 </v>
   <v>       0.21163373       0.17203300       0.49908351 </v>
   <v>       0.71637210      -0.58453288       0.08905708 </v>
   <v>       0.02945345      -0.11220058       0.20108820 </v>
   <v>      -0.28356291      -0.19282204      -0.24989536 </v>
   <v>      -0.25563166      -0.12958427       0.44344676 </v>
   <v>       0.56090438      -0.06921140      -0.82623198 </v>
   <v>      -0.45896181      -0.50437802       0.58083040 </v>
   <v>       0.72171195       0.07586957      -0.41130624 </v>
   <v>       0.08064241       0.20968414      -0.24967581 </v>
   <v>       0.16551201      -0.31861898      -0.49536994 </v>
   <v>       0.26149737       0.23362123      -0.18862256 </v>
  </varray>
  <varray name="stress" >
   <v>      -5.01431375      -1.45555828       1.80463396 </v>
   <v>      -1.45555819     -12.96459111      -3.32201747 </v>
   <v>       1.80463398      -3.32201747     -11.87117007 </v>
  </varray>
  <energy>
   <i name="e_fr_energy">   -306.37177103 </i>
   <i name="e_wo_entrp">   -306.36785914 </i>
   <i name="e_0_energy">     -0.01173568 </i>
  </energy>
  <time name="totalsc"> 2818.08 2822.56</time>
 </calculation>
 <calculation>
  <scstep>
   <time name="dav">   33.45   33.50</time>
   <time name="total">   34.11   34.17</time>
   <energy>
    <i name="alphaZ">   1191.11294922 </i>
    <i name="ewald"> -11118.12294505 </i>
    <i name="hartreedc">  -3127.60365168 </i>
    <i name="XCdc">   -841.27392237 </i>
    <i name="pawpsdc">  18819.69703981 </i>
    <i name="pawaedc"> -17357.70575614 </i>
    <i name="eentropy">     -0.00888112 </i>
    <i name="bandstr">   -708.15804597 </i>
    <i name="atom">  12835.31476492 </i>
    <i name="e_fr_energy">   -306.74844839 </i>
    <i name="e_wo_entrp">   -306.73956728 </i>
    <i name="e_0_energy">   -306.74548802 </i>
   </energy>
  </scstep>
  <scstep>
   <time name="dav">   51.54   51.61</time>
   <time name="total">   52.21   52.28</time>
   <energy>
    <i name="e_fr_energy">   -308.25696864 </i>
    <i name="e_wo_entrp">   -308.24321456 </i>
    <i name="e_0_energy">   -308.25238394 </i>
   </energy>
  </scstep>
  <scstep>
   <time name="dav">   51.50   51.57</time>
   <time name="total">   52.18   52.25</time>
   <energy>
    <i name="e_fr_energy">   -307.08797280 </i>
    <i name="e_wo_entrp">   -307.08124204 </i>
    <i name="e_0_energy">   -307.08572921 </i>
   </energy>
  </scstep>
  <scstep>
   <time name="dav">   50.98   51.04</time>
   <time name="total">   51.64   51.71</time>
   <energy>
    <i name="e_fr_energy">   -307.06402776 </i>
    <i name="e_wo_entrp">   -307.05134843 </i>
    <i name="e_0_energy">   -307.05980132 </i>
   </energy>
  </scstep>
  <scstep>
   <time name="dav">   48.82   48.88</time>
   <time name="total">   49.49   49.56</time>
   <energy>
    <i name="e_fr_energy">   -307.01908583 </i>
    <i name="e_wo_entrp">   -307.01072892 </i>
    <i name="e_0_energy">   -307.01630019 </i>
   </energy>
  </scstep>
  <scstep>
   <time name="dav">   49.44   49.50</time>
   <time name="total">   50.09   50.16</time>
   <energy>
    <i name="e_fr_energy">   -306.95754301 </i>
    <i name="e_wo_entrp">   -306.94947055 </i>
    <i name="e_0_energy">   -306.95485219 </i>
   </energy>
  </scstep>
  <scstep>
   <time name="dav">   53.17   53.24</time>
   <time name="total">   53.83   53.91</time>
   <energy>
    <i name="e_fr_energy">   -306.94326016 </i>
    <i name="e_wo_entrp">   -306.93286418 </i>
    <i name="e_0_energy">   -306.93979483 </i>
   </energy>
  </scstep>
  <scstep>
   <time name="dav">   55.16   55.24</time>
   <time name="total">   55.82   55.90</time>
   <energy>
    <i name="e_fr_energy">   -306.93930819 </i>
    <i name="e_wo_entrp">   -306.92798299 </i>
    <i name="e_0_energy">   -306.93553312 </i>
   </energy>
  </scstep>
  <scstep>
   <time name="dav">   52.45   52.52</time>
   <time name="total">   53.11   53.19</time>
   <energy>
    <i name="e_fr_energy">   -306.93164182 </i>
    <i name="e_wo_entrp">   -306.92175216 </i>
    <i name="e_0_energy">   -306.92834527 </i>
   </energy>
  </scstep>
  <scstep>
   <time name="dav">   49.27   49.33</time>
   <time name="total">   49.93   50.00</time>
   <energy>
    <i name="e_fr_energy">   -306.92862767 </i>
    <i name="e_wo_entrp">   -306.91843487 </i>
    <i name="e_0_energy">   -306.92523007 </i>
   </energy>
  </scstep>
  <scstep>
   <time name="dav">   45.60   45.66</time>
   <time name="total">   46.27   46.34</time>
   <energy>
    <i name="e_fr_energy">   -306.92895887 </i>
    <i name="e_wo_entrp">   -306.91872242 </i>
    <i name="e_0_energy">   -306.92554672 </i>
   </energy>
  </scstep>
  <scstep>
   <time name="dav">   44.86   44.93</time>
   <time name="total">   45.53   45.59</time>
   <energy>
    <i name="e_fr_energy">   -306.92919018 </i>
    <i name="e_wo_entrp">   -306.91900156 </i>
    <i name="e_0_energy">   -306.92579397 </i>
   </energy>
  </scstep>
  <scstep>
   <time name="dav">   49.20   49.26</time>
   <time name="total">   49.87   49.95</time>
   <energy>
    <i name="e_fr_energy">   -306.92963605 </i>
    <i name="e_wo_entrp">   -306.91956092 </i>
    <i name="e_0_energy">   -306.92627767 </i>
   </energy>
  </scstep>
  <scstep>
   <time name="dav">   45.05   45.11</time>
   <time name="total">   45.72   45.78</time>
   <energy>
    <i name="e_fr_energy">   -306.92959851 </i>
    <i name="e_wo_entrp">   -306.91935482 </i>
    <i name="e_0_energy">   -306.92618395 </i>
   </energy>
  </scstep>
  <scstep>
   <time name="dav">   45.13   45.19</time>
   <time name="total">   45.79   45.86</time>
   <energy>
    <i name="e_fr_energy">   -306.92919181 </i>
    <i name="e_wo_entrp">   -306.91908420 </i>
    <i name="e_0_energy">   -306.92582261 </i>
   </energy>
  </scstep>
  <scstep>
   <time name="dav">   39.14   39.19</time>
   <time name="total">   39.21   39.27</time>
   <energy>
    <i name="alphaZ">   1191.11294922 </i>
    <i name="ewald"> -11118.12294505 </i>
    <i name="hartreedc">  -3098.74997825 </i>
    <i name="XCdc">   -842.11095526 </i>
    <i name="pawpsdc">  19101.42971877 </i>
    <i name="pawaedc"> -17640.16895201 </i>
    <i name="eentropy">     -0.01020410 </i>
    <i name="bandstr">   -735.62350555 </i>
    <i name="atom">  12835.31476492 </i>
    <i name="e_fr_energy">   -306.92910731 </i>
    <i name="e_wo_entrp">   -306.91890322 </i>
    <i name="e_0_energy">   -306.92570595 </i>
   </energy>
  </scstep>
  <structure>
   <crystal>
    <varray name="basis" >
     <v>      -3.15275504      -3.13244700      -3.13920802 </v>
     <v>       1.56796991       1.58170045      -7.85508939 </v>
     <v>       7.88478216      -7.85273764      -1.55087843 </v>
    </varray>
    <i name="volume">    466.40394436 </i>
    <varray name="rec_basis" >
     <v>      -0.13751381      -0.12758026      -0.05313896 </v>
     <v>       0.04243818       0.06355330      -0.10603774 </v>
     <v>       0.06340199      -0.06365160      -0.00016109 </v>
    </varray>
   </crystal>
   <varray name="positions" >
    <v>       0.96426873       0.93313489       0.39850443 </v>
    <v>       0.63126077       0.26707335       0.40149525 </v>
    <v>       0.50114235       0.00349047      -0.00142761 </v>
    <v>       0.00028759      -0.00234013       0.00076133 </v>
    <v>       0.09712439       0.20477659       0.79825649 </v>
    <v>       0.03475258       0.06865202       0.59891936 </v>
    <v>       0.90100558       0.79727277       0.20227446 </v>
    <v>       0.80340882       0.59551304       0.39919775 </v>
    <v>       0.73451787       0.46633206       0.19841118 </v>
    <v>       0.66501753       0.33955633      -0.00095683 </v>
    <v>       0.37003597       0.72985053       0.60165477 </v>
    <v>       0.13291819       0.27044719       0.40017590 </v>
    <v>       0.83196933       0.66328047       0.00186401 </v>
    <v>       0.92568107       0.86975482       0.79825374 </v>
    <v>       0.56505579       0.13530504       0.19713682 </v>
    <v>       0.40362250       0.79316169       0.19657711 </v>
    <v>       0.44005074       0.86096115       0.79845259 </v>
    <v>       0.30045760       0.60084989       0.40138174 </v>
    <v>       0.86294616       0.73174962       0.60012091 </v>
    <v>       0.46527042       0.93255357       0.40397210 </v>
    <v>       0.16664533       0.33202738       0.00043252 </v>
    <v>       0.27035594       0.53343906       0.79972294 </v>
    <v>       0.20135415       0.39682733       0.59961514 </v>
    <v>       0.06548093       0.13846836       0.20192395 </v>
    <v>       0.77130513       0.52790327       0.80013867 </v>
    <v>       0.69580871       0.40379383       0.60197197 </v>
    <v>       0.59882132       0.20207496       0.79960599 </v>
    <v>       0.53544452       0.06855161       0.60147821 </v>
    <v>       0.23065667       0.46887216       0.20008512 </v>
   </varray>
  </structure>
  <varray name="forces" >
   <v>      -0.00881713       0.21721512       0.09367351 </v>
   <v>       0.12932550      -0.00756111       0.06961250 </v>
   <v>      -0.23945364       0.19939972      -0.19614170 </v>
   <v>      -0.11193218      -0.21482007       0.15085444 </v>
   <v>       0.00405970       0.26582993      -0.18973311 </v>
   <v>      -0.14424256       0.10666946      -0.25133832 </v>
   <v>       0.05733630      -0.18871100       0.18884109 </v>
   <v>      -0.16416261      -0.14249952       0.20001113 </v>
   <v>      -0.14570409       0.01973285       0.17971225 </v>
   <v>       0.05937082       0.48775251      -0.59424863 </v>
   <v>      -0.05749889      -0.37509237       0.26855365 </v>
   <v>       0.15053322       0.01096944      -0.21411500 </v>
   <v>       0.10578952      -0.09307133       0.19384953 </v>
   <v>       0.04837936       0.41360281      -0.05213025 </v>
   <v>      -0.04887282       0.26404791      -0.12323515 </v>
   <v>      -0.54024400       0.18695987       0.50529780 </v>
   <v>      -0.13648832      -0.11506526       0.49894686 </v>
   <v>       0.10217891      -0.22894590      -0.14922654 </v>
   <v>       0.08899043       0.11752992       0.34586771 </v>
   <v>       0.32958729      -0.28171729       0.09341826 </v>
   <v>       0.00942713      -0.04871559       0.06495654 </v>
   <v>      -0.17606935      -0.26678009      -0.24205934 </v>
   <v>      -0.15316849      -0.06081139       0.24751652 </v>
   <v>       0.33184689      -0.03670455      -0.43597777 </v>
   <v>      -0.35490045      -0.36020918       0.43965410 </v>
   <v>       0.59989375      -0.00685882      -0.29147410 </v>
   <v>       0.03111669       0.24203420      -0.28733337 </v>
   <v>       0.15995214      -0.36905703      -0.36834097 </v>
   <v>       0.07376687       0.26487674      -0.14541163 </v>
  </varray>
  <varray name="stress" >
   <v>      18.97833327      -0.72546052       1.07185437 </v>
   <v>      -0.72546056      12.90548242      -1.77368735 </v>
   <v>       1.07185440      -1.77368746      15.85993607 </v>
  </varray>
  <energy>
   <i name="e_fr_energy">   -306.92910731 </i>
   <i name="e_wo_entrp">   -306.92570595 </i>
   <i name="e_0_energy">     -0.01020410 </i>
  </energy>
  <time name="totalsc">  794.10  795.41</time>
 </calculation>
 <calculation>
  <scstep>
   <time name="dav">   33.75   33.80</time>
   <time name="total">   34.41   34.47</time>
   <energy>
    <i name="alphaZ">   1204.07981341 </i>
    <i name="ewald"> -11183.51469866 </i>
    <i name="hartreedc">  -3085.44661807 </i>
    <i name="XCdc">   -840.79082243 </i>
    <i name="pawpsdc">  19101.45351748 </i>
    <i name="pawaedc"> -17640.16754453 </i>
    <i name="eentropy">     -0.00853250 </i>
    <i name="bandstr">   -697.84918231 </i>
    <i name="atom">  12835.31476492 </i>
    <i name="e_fr_energy">   -306.92930269 </i>
    <i name="e_wo_entrp">   -306.92077019 </i>
    <i name="e_0_energy">   -306.92645853 </i>
   </energy>
  </scstep>
  <scstep>
   <time name="dav">   51.36   51.44</time>
   <time name="total">   52.02   52.11</time>
   <energy>
    <i name="e_fr_energy">   -307.69906162 </i>
    <i name="e_wo_entrp">   -307.68626571 </i>
    <i name="e_0_energy">   -307.69479631 </i>
   </energy>
  </scstep>
  <scstep>
   <time name="dav">   51.48   51.55</time>
   <time name="total">   52.14   52.22</time>
   <energy>
    <i name="e_fr_energy">   -307.11626793 </i>
    <i name="e_wo_entrp">   -307.10860168 </i>
    <i name="e_0_energy">   -307.11371252 </i>
   </energy>
  </scstep>
  <scstep>
   <time name="dav">   51.17   51.24</time>
   <time name="total">   51.83   51.90</time>
   <energy>
    <i name="e_fr_energy">   -307.10533560 </i>
    <i name="e_wo_entrp">   -307.09341583 </i>
    <i name="e_0_energy">   -307.10136234 </i>
   </energy>
  </scstep>
  <scstep>
   <time name="dav">   49.47   49.54</time>
   <time name="total">   50.13   50.21</time>
   <energy>
    <i name="e_fr_energy">   -307.08270218 </i>
    <i name="e_wo_entrp">   -307.07492352 </i>
    <i name="e_0_energy">   -307.08010930 </i>
   </energy>
  </scstep>
  <scstep>
   <time name="dav">   50.17   50.24</time>
   <time name="total">   50.84   50.91</time>
   <energy>
    <i name="e_fr_energy">   -307.05219317 </i>
    <i name="e_wo_entrp">   -307.04332012 </i>
    <i name="e_0_energy">   -307.04923548 </i>
   </energy>
  </scstep>
  <scstep>
   <time name="dav">   54.48   54.56</time>
   <time name="total">   55.16   55.26</time>
   <energy>
    <i name="e_fr_energy">   -307.04464078 </i>
    <i name="e_wo_entrp">   -307.03465849 </i>
    <i name="e_0_energy">   -307.04131335 </i>
   </energy>
  </scstep>
  <scstep>
   <time name="dav">   54.26   54.33</time>
   <time name="total">   54.92   55.00</time>
   <energy>
    <i name="e_fr_energy">   -307.04181773 </i>
    <i name="e_wo_entrp">   -307.03140256 </i>
    <i name="e_0_energy">   -307.03834601 </i>
   </energy>
  </scstep>
  <scstep>
   <time name="dav">   49.87   49.94</time>
   <time name="total">   50.54   50.62</time>
   <energy>
    <i name="e_fr_energy">   -307.03841305 </i>
    <i name="e_wo_entrp">   -307.02905549 </i>
    <i name="e_0_energy">   -307.03529387 </i>
   </energy>
  </scstep>
  <scstep>
   <time name="dav">   46.42   46.49</time>
   <time name="total">   47.09   47.16</time>
   <energy>
    <i name="e_fr_energy">   -307.03715686 </i>
    <i name="e_wo_entrp">   -307.02741473 </i>
    <i name="e_0_energy">   -307.03390948 </i>
   </energy>
  </scstep>
  <scstep>
   <time name="dav">   44.29   44.35</time>
   <time name="total">   44.95   45.03</time>
   <energy>
    <i name="e_fr_energy">   -307.03744511 </i>
    <i name="e_wo_entrp">   -307.02772589 </i>
    <i name="e_0_energy">   -307.03420537 </i>
   </energy>
  </scstep>
  <scstep>
   <time name="dav">   45.55   45.61</time>
   <time name="total">   46.22   46.28</time>
   <energy>
    <i name="e_fr_energy">   -307.03758608 </i>
    <i name="e_wo_entrp">   -307.02791359 </i>
    <i name="e_0_energy">   -307.03436192 </i>
   </energy>
  </scstep>
  <scstep>
   <time name="dav">   45.60   45.66</time>
   <time name="total">   46.26   46.34</time>
   <energy>
    <i name="e_fr_energy">   -307.03766039 </i>
    <i name="e_wo_entrp">   -307.02807652 </i>
    <i name="e_0_energy">   -307.03446577 </i>
   </energy>
  </scstep>
  <scstep>
   <time name="dav">   44.19   44.26</time>
   <time name="total">   44.87   44.93</time>
   <energy>
    <i name="e_fr_energy">   -307.03769723 </i>
    <i name="e_wo_entrp">   -307.02793162 </i>
    <i name="e_0_energy">   -307.03444202 </i>
   </energy>
  </scstep>
  <scstep>
   <time name="dav">   42.35   42.42</time>
   <time name="total">   43.02   43.10</time>
   <energy>
    <i name="e_fr_energy">   -307.03750617 </i>
    <i name="e_wo_entrp">   -307.02786214 </i>
    <i name="e_0_energy">   -307.03429150 </i>
   </energy>
  </scstep>
  <scstep>
   <time name="dav">   29.06   29.10</time>
   <time name="total">   29.13   29.18</time>
   <energy>
    <i name="alphaZ">   1204.07981341 </i>
    <i name="ewald"> -11183.51469866 </i>
    <i name="hartreedc">  -3064.82903785 </i>
    <i name="XCdc">   -841.40563633 </i>
    <i name="pawpsdc">  19344.88345040 </i>
    <i name="pawaedc"> -17884.08889260 </i>
    <i name="eentropy">     -0.00968590 </i>
    <i name="bandstr">   -717.46754129 </i>
    <i name="atom">  12835.31476492 </i>
    <i name="e_fr_energy">   -307.03746391 </i>
    <i name="e_wo_entrp">   -307.02777801 </i>
    <i name="e_0_energy">   -307.03423528 </i>
   </energy>
  </scstep>
  <structure>
   <crystal>
    <varray name="basis" >
     <v>      -3.14745180      -3.11227850      -3.12398851 </v>
     <v>       1.55916401       1.58294516      -7.82221529 </v>
     <v>       7.87364286      -7.81814209      -1.52956175 </v>
    </varray>
    <i name="volume">    461.38119044 </i>
    <varray name="rec_basis" >
     <v>      -0.13779583      -0.12832012      -0.05343371 </v>
     <v>       0.04261848       0.06374640      -0.10644603 </v>
     <v>       0.06348333      -0.06391864      -0.00028109 </v>
    </varray>
   </crystal>
   <varray name="positions" >
    <v>       0.96249746       0.93298783       0.39740292 </v>
    <v>       0.62974144       0.26737315       0.40259240 </v>
    <v>       0.50197993       0.00605802      -0.00247343 </v>
    <v>       0.00050071      -0.00406149       0.00131960 </v>
    <v>       0.09500397       0.20828981       0.79697553 </v>
    <v>       0.03579434       0.07011236       0.59812782 </v>
    <v>       0.90175302       0.79526748       0.20394517 </v>
    <v>       0.80591171       0.59221160       0.39860853 </v>
    <v>       0.73538321       0.46608514       0.19724446 </v>
    <v>       0.66380408       0.34413434      -0.00165758 </v>
    <v>       0.37252034       0.72728924       0.60287182 </v>
    <v>       0.13261594       0.27322883       0.40030720 </v>
    <v>       0.83097041       0.66078986       0.00323040 </v>
    <v>       0.92004337       0.87202523       0.79696514 </v>
    <v>       0.56385989       0.13675406       0.19503240 </v>
    <v>       0.40627052       0.78812882       0.19406067 </v>
    <v>       0.44498525       0.85676309       0.79731810 </v>
    <v>       0.30080057       0.60147600       0.40239816 </v>
    <v>       0.86020687       0.73058403       0.60020522 </v>
    <v>       0.46425804       0.93198182       0.40688937 </v>
    <v>       0.16663046       0.33106674       0.00074951 </v>
    <v>       0.27307058       0.53351710       0.79952290 </v>
    <v>       0.20234719       0.39449292       0.59933154 </v>
    <v>       0.06461940       0.14224746       0.20334004 </v>
    <v>       0.77471629       0.52390857       0.80024150 </v>
    <v>       0.69273405       0.40658582       0.60341963 </v>
    <v>       0.59795355       0.20360132       0.79931665 </v>
    <v>       0.53700581       0.06993951       0.60256777 </v>
    <v>       0.22868826       0.47049466       0.20014654 </v>
   </varray>
  </structure>
  <varray name="forces" >
   <v>       0.07834021       0.07019681      -0.01778788 </v>
   <v>      -0.08273908       0.05250533       0.07860853 </v>
   <v>      -0.28898675       0.13071318       0.11446676 </v>
   <v>      -0.20496544      -0.20253509       0.02224853 </v>
   <v>      -0.04664652      -0.02365318       0.07862815 </v>
   <v>      -0.08596089       0.07107895      -0.13833836 </v>
   <v>      -0.06535662       0.08368478       0.08652043 </v>
   <v>       0.11624386      -0.06128802      -0.08034965 </v>
   <v>       0.04845666      -0.14662513       0.31831184 </v>
   <v>      -0.01230226       0.50217599      -0.30947528 </v>
   <v>      -0.04522229      -0.16370691       0.24882644 </v>
   <v>       0.11238185      -0.08772501       0.10824255 </v>
   <v>      -0.06938795       0.09846886      -0.13821876 </v>
   <v>      -0.15720740       0.07252036      -0.13563164 </v>
   <v>       0.13567358      -0.02180056      -0.16009510 </v>
   <v>      -0.20266626       0.28753365       0.14723066 </v>
   <v>       0.41147089       0.05472337       0.43614712 </v>
   <v>       0.03237514      -0.23131105      -0.10059022 </v>
   <v>      -0.03745755       0.04110401       0.20981278 </v>
   <v>       0.04638952      -0.05750333       0.09051222 </v>
   <v>      -0.00575839      -0.00184227      -0.05078835 </v>
   <v>      -0.06605095      -0.30798243      -0.21542789 </v>
   <v>      -0.05936366       0.01553760       0.08427674 </v>
   <v>       0.16106480       0.00614564      -0.11344200 </v>
   <v>      -0.26237559      -0.21221949       0.26913594 </v>
   <v>       0.47804963      -0.08115305      -0.16637105 </v>
   <v>      -0.00605794       0.26227073      -0.31046761 </v>
   <v>       0.14632610      -0.41014048      -0.25352959 </v>
   <v>      -0.06826668       0.26082675      -0.10245528 </v>
  </varray>
  <varray name="stress" >
   <v>      39.15815176      -0.13287711       0.48379801 </v>
   <v>      -0.13287706      35.19617141      -0.28596977 </v>
   <v>       0.48379798      -0.28596980      39.48935573 </v>
  </varray>
  <energy>
   <i name="e_fr_energy">   -307.03746391 </i>
   <i name="e_wo_entrp">   -307.03423528 </i>
   <i name="e_0_energy">     -0.00968590 </i>
  </energy>
  <time name="totalsc">  772.95  774.18</time>
 </calculation>
 <calculation>
  <scstep>
[...]
       <r>    4.7292    1.0000 </r>
       <r>    4.7776    1.0000 </r>
       <r>    4.8178    1.0000 </r>
       <r>    4.8741    1.0000 </r>
       <r>    4.9497    1.0000 </r>
       <r>    5.0085    1.0000 </r>
       <r>    5.0589    1.0000 </r>
       <r>    5.0971    1.0000 </r>
       <r>    5.1536    1.0000 </r>
       <r>    5.1974    1.0000 </r>
       <r>    5.2753    1.0000 </r>
       <r>    5.3164    1.0000 </r>
       <r>    5.3618    1.0000 </r>
       <r>    5.4101    1.0000 </r>
       <r>    5.4457    1.0000 </r>
       <r>    5.5100    1.0000 </r>
       <r>    5.6005    1.0000 </r>
       <r>    5.6328    1.0000 </r>
       <r>    5.6706    1.0000 </r>
       <r>    5.7814    1.0000 </r>
       <r>    5.8011    1.0000 </r>
       <r>    5.8707    1.0000 </r>
       <r>    5.9544    1.0000 </r>
       <r>    5.9791    1.0001 </r>
       <r>    6.0205    1.0002 </r>
       <r>    6.1129    1.0021 </r>
       <r>    6.1466    1.0041 </r>
       <r>    6.1975    1.0097 </r>
       <r>    6.2209    1.0136 </r>
       <r>    6.2639    1.0228 </r>
       <r>    6.3140    1.0333 </r>
       <r>    6.3499    1.0351 </r>
       <r>    6.3776    1.0286 </r>
       <r>    6.4481    0.9546 </r>
       <r>    6.5136    0.7825 </r>
       <r>    6.5340    0.7089 </r>
       <r>    6.6242    0.3383 </r>
       <r>    6.6387    0.2822 </r>
       <r>    6.7549   -0.0015 </r>
       <r>    6.8180   -0.0348 </r>
       <r>    6.8548   -0.0335 </r>
       <r>    6.9060   -0.0229 </r>
       <r>    6.9460   -0.0143 </r>
       <r>    7.0914   -0.0010 </r>
       <r>    7.1970   -0.0001 </r>
       <r>    7.3163   -0.0000 </r>
       <r>    7.3864   -0.0000 </r>
       <r>    7.4498   -0.0000 </r>
       <r>    7.5408   -0.0000 </r>
       <r>    7.8002   -0.0000 </r>
       <r>    7.9546   -0.0000 </r>
       <r>    8.0475   -0.0000 </r>
       <r>    8.1556   -0.0000 </r>
       <r>    8.2518   -0.0000 </r>
       <r>    8.3347   -0.0000 </r>
       <r>    8.4862   -0.0000 </r>
       <r>    8.5962   -0.0000 </r>
       <r>    8.6226   -0.0000 </r>
       <r>    8.6541   -0.0000 </r>
       <r>    8.6660   -0.0000 </r>
       <r>    8.7306   -0.0000 </r>
      </set>
     </set>
    </set>
   </array>
  </eigenvalues>
  <separator name="orbital magnetization" >
   <v name="MAGDIPOLOUT">      0.00000000      0.00000000      0.00000000</v>
  </separator>
  <dos>
   <i name="efermi">      6.58517157 </i>
   <total>
    <array>
     <dimension dim="1">gridpoints</dimension>
     <dimension dim="2">spin</dimension>
     <field>energy</field>
     <field>total</field>
     <field>integrated</field>
     <set>
      <set comment="spin 1">
       <r>   -50.3716     0.0000     0.0000 </r>
       <r>   -50.1649     0.0000     0.0000 </r>
       <r>   -49.9582     0.0000     0.0000 </r>
       <r>   -49.7515     0.0000     0.0000 </r>
       <r>   -49.5449     0.0000     0.0000 </r>
       <r>   -49.3382    -0.0000    -0.0000 </r>
       <r>   -49.1315    -0.0000    -0.0000 </r>
       <r>   -48.9249    -0.0000    -0.0000 </r>
       <r>   -48.7182    -0.0000    -0.0000 </r>
       <r>   -48.5115    -0.0000    -0.0000 </r>
       <r>   -48.3048    -0.0000    -0.0000 </r>
       <r>   -48.0982    -0.0032    -0.0007 </r>
       <r>   -47.8915    -0.1895    -0.0398 </r>
       <r>   -47.6848    -0.1207    -0.0648 </r>
       <r>   -47.4781    10.7207     2.1509 </r>
       <r>   -47.2715    26.2104     7.5679 </r>
       <r>   -47.0648    20.3019    11.7638 </r>
       <r>   -46.8581     1.6263    12.0999 </r>
       <r>   -46.6514    -0.4685    12.0030 </r>
       <r>   -46.4448    -0.0147    12.0000 </r>
       <r>   -46.2381    -0.0000    12.0000 </r>
       <r>   -46.0314    -0.0000    12.0000 </r>
       <r>   -45.8248    -0.0000    12.0000 </r>
       <r>   -45.6181     0.0000    12.0000 </r>
       <r>   -45.4114     0.0000    12.0000 </r>
       <r>   -45.2047     0.0000    12.0000 </r>
       <r>   -44.9981     0.0000    12.0000 </r>
       <r>   -44.7914     0.0000    12.0000 </r>
       <r>   -44.5847     0.0000    12.0000 </r>
       <r>   -44.3780     0.0000    12.0000 </r>
       <r>   -44.1714     0.0000    12.0000 </r>
       <r>   -43.9647     0.0000    12.0000 </r>
       <r>   -43.7580     0.0000    12.0000 </r>
       <r>   -43.5514     0.0000    12.0000 </r>
       <r>   -43.3447     0.0000    12.0000 </r>
       <r>   -43.1380     0.0000    12.0000 </r>
       <r>   -42.9313     0.0000    12.0000 </r>
       <r>   -42.7247     0.0000    12.0000 </r>
       <r>   -42.5180     0.0000    12.0000 </r>
       <r>   -42.3113     0.0000    12.0000 </r>
       <r>   -42.1046     0.0000    12.0000 </r>
       <r>   -41.8980     0.0000    12.0000 </r>
       <r>   -41.6913     0.0000    12.0000 </r>
       <r>   -41.4846     0.0000    12.0000 </r>
       <r>   -41.2779     0.0000    12.0000 </r>
       <r>   -41.0713     0.0000    12.0000 </r>
       <r>   -40.8646     0.0000    12.0000 </r>
       <r>   -40.6579     0.0000    12.0000 </r>
       <r>   -40.4513     0.0000    12.0000 </r>
       <r>   -40.2446     0.0000    12.0000 </r>
       <r>   -40.0379     0.0000    12.0000 </r>
       <r>   -39.8312     0.0000    12.0000 </r>
       <r>   -39.6246     0.0000    12.0000 </r>
       <r>   -39.4179     0.0000    12.0000 </r>
       <r>   -39.2112     0.0000    12.0000 </r>
       <r>   -39.0045     0.0000    12.0000 </r>
       <r>   -38.7979     0.0000    12.0000 </r>
       <r>   -38.5912     0.0000    12.0000 </r>
       <r>   -38.3845     0.0000    12.0000 </r>
       <r>   -38.1779     0.0000    12.0000 </r>
       <r>   -37.9712     0.0000    12.0000 </r>
       <r>   -37.7645     0.0000    12.0000 </r>
       <r>   -37.5578     0.0000    12.0000 </r>
       <r>   -37.3512     0.0000    12.0000 </r>
       <r>   -37.1445     0.0000    12.0000 </r>
       <r>   -36.9378     0.0000    12.0000 </r>
       <r>   -36.7311     0.0000    12.0000 </r>
       <r>   -36.5245     0.0000    12.0000 </r>
       <r>   -36.3178     0.0000    12.0000 </r>
       <r>   -36.1111     0.0000    12.0000 </r>
       <r>   -35.9044     0.0000    12.0000 </r>
       <r>   -35.6978     0.0000    12.0000 </r>
       <r>   -35.4911     0.0000    12.0000 </r>
       <r>   -35.2844     0.0000    12.0000 </r>
       <r>   -35.0778     0.0000    12.0000 </r>
       <r>   -34.8711     0.0000    12.0000 </r>
       <r>   -34.6644     0.0000    12.0000 </r>
       <r>   -34.4577     0.0000    12.0000 </r>
       <r>   -34.2511     0.0000    12.0000 </r>
       <r>   -34.0444     0.0000    12.0000 </r>
       <r>   -33.8377     0.0000    12.0000 </r>
       <r>   -33.6310     0.0000    12.0000 </r>
       <r>   -33.4244     0.0000    12.0000 </r>
       <r>   -33.2177     0.0000    12.0000 </r>
       <r>   -33.0110     0.0000    12.0000 </r>
       <r>   -32.8044     0.0000    12.0000 </r>
       <r>   -32.5977     0.0000    12.0000 </r>
       <r>   -32.3910     0.0000    12.0000 </r>
       <r>   -32.1843     0.0000    12.0000 </r>
       <r>   -31.9777     0.0000    12.0000 </r>
       <r>   -31.7710     0.0000    12.0000 </r>
       <r>   -31.5643     0.0000    12.0000 </r>
       <r>   -31.3576     0.0000    12.0000 </r>
       <r>   -31.1510     0.0000    12.0000 </r>
       <r>   -30.9443     0.0000    12.0000 </r>
       <r>   -30.7376     0.0000    12.0000 </r>
       <r>   -30.5309     0.0000    12.0000 </r>
       <r>   -30.3243     0.0000    12.0000 </r>
       <r>   -30.1176     0.0000    12.0000 </r>
       <r>   -29.9109     0.0000    12.0000 </r>
       <r>   -29.7043     0.0000    12.0000 </r>
       <r>   -29.4976     0.0000    12.0000 </r>
       <r>   -29.2909     0.0000    12.0000 </r>
       <r>   -29.0842     0.0000    12.0000 </r>
       <r>   -28.8776     0.0000    12.0000 </r>
       <r>   -28.6709     0.0000    12.0000 </r>
       <r>   -28.4642     0.0000    12.0000 </r>
       <r>   -28.2575     0.0000    12.0000 </r>
       <r>   -28.0509     0.0000    12.0000 </r>
       <r>   -27.8442     0.0000    12.0000 </r>
       <r>   -27.6375     0.0000    12.0000 </r>
       <r>   -27.4309     0.0000    12.0000 </r>
       <r>   -27.2242     0.0000    12.0000 </r>
       <r>   -27.0175     0.0000    12.0000 </r>
       <r>   -26.8108     0.0000    12.0000 </r>
       <r>   -26.6042     0.0000    12.0000 </r>
       <r>   -26.3975     0.0000    12.0000 </r>
       <r>   -26.1908     0.0000    12.0000 </r>
       <r>   -25.9841    -0.0000    12.0000 </r>
       <r>   -25.7775    -0.0000    12.0000 </r>
       <r>   -25.5708    -0.0000    12.0000 </r>
       <r>   -25.3641    -0.0000    12.0000 </r>
       <r>   -25.1574    -0.0000    12.0000 </r>
       <r>   -24.9508    -0.0000    12.0000 </r>
       <r>   -24.7441    -0.0046    11.9991 </r>
       <r>   -24.5374    -0.1166    11.9750 </r>
       <r>   -24.3308     0.3554    12.0484 </r>
       <r>   -24.1241     4.5265    12.9839 </r>
       <r>   -23.9174    14.0130    15.8800 </r>
       <r>   -23.7107    23.5089    20.7387 </r>
       <r>   -23.5041    41.7932    29.3762 </r>
       <r>   -23.2974    51.0317    39.9231 </r>
       <r>   -23.0907    25.3937    45.1713 </r>
       <r>   -22.8840    11.0143    47.4476 </r>
       <r>   -22.6774     2.8860    48.0441 </r>
       <r>   -22.4707    -0.1624    48.0105 </r>
       <r>   -22.2640    -0.0502    48.0002 </r>
       <r>   -22.0574    -0.0008    48.0000 </r>
       <r>   -21.8507    -0.0000    48.0000 </r>
       <r>   -21.6440    -0.0000    48.0000 </r>
       <r>   -21.4373    -0.0000    48.0000 </r>
       <r>   -21.2307     0.0000    48.0000 </r>
       <r>   -21.0240     0.0000    48.0000 </r>
       <r>   -20.8173     0.0000    48.0000 </r>
       <r>   -20.6106     0.0000    48.0000 </r>
       <r>   -20.4040     0.0000    48.0000 </r>
       <r>   -20.1973     0.0000    48.0000 </r>
       <r>   -19.9906     0.0000    48.0000 </r>
       <r>   -19.7839     0.0000    48.0000 </r>
       <r>   -19.5773     0.0000    48.0000 </r>
       <r>   -19.3706     0.0000    48.0000 </r>
       <r>   -19.1639     0.0000    48.0000 </r>
       <r>   -18.9573     0.0000    48.0000 </r>
       <r>   -18.7506     0.0000    48.0000 </r>
       <r>   -18.5439     0.0000    48.0000 </r>
       <r>   -18.3372     0.0000    48.0000 </r>
       <r>   -18.1306     0.0000    48.0000 </r>
       <r>   -17.9239     0.0000    48.0000 </r>
       <r>   -17.7172     0.0000    48.0000 </r>
       <r>   -17.5105     0.0000    48.0000 </r>
       <r>   -17.3039     0.0000    48.0000 </r>
       <r>   -17.0972     0.0000    48.0000 </r>
       <r>   -16.8905     0.0000    48.0000 </r>
       <r>   -16.6838     0.0000    48.0000 </r>
       <r>   -16.4772     0.0000    48.0000 </r>
       <r>   -16.2705     0.0000    48.0000 </r>
       <r>   -16.0638     0.0000    48.0000 </r>
       <r>   -15.8572     0.0000    48.0000 </r>
       <r>   -15.6505     0.0000    48.0000 </r>
       <r>   -15.4438     0.0000    48.0000 </r>
       <r>   -15.2371     0.0000    48.0000 </r>
       <r>   -15.0305     0.0000    48.0000 </r>
       <r>   -14.8238     0.0000    48.0000 </r>
       <r>   -14.6171     0.0000    48.0000 </r>
       <r>   -14.4104     0.0000    48.0000 </r>
       <r>   -14.2038     0.0000    48.0000 </r>
       <r>   -13.9971     0.0000    48.0000 </r>
       <r>   -13.7904     0.0000    48.0000 </r>
       <r>   -13.5838     0.0000    48.0000 </r>
       <r>   -13.3771     0.0000    48.0000 </r>
       <r>   -13.1704     0.0000    48.0000 </r>
       <r>   -12.9637     0.0000    48.0000 </r>
       <r>   -12.7571     0.0000    48.0000 </r>
       <r>   -12.5504     0.0000    48.0000 </r>
       <r>   -12.3437     0.0000    48.0000 </r>
       <r>   -12.1370     0.0000    48.0000 </r>
       <r>   -11.9304     0.0000    48.0000 </r>
       <r>   -11.7237     0.0000    48.0000 </r>
       <r>   -11.5170     0.0000    48.0000 </r>
       <r>   -11.3103     0.0000    48.0000 </r>
       <r>   -11.1037     0.0000    48.0000 </r>
       <r>   -10.8970     0.0000    48.0000 </r>
       <r>   -10.6903     0.0000    48.0000 </r>
       <r>   -10.4837     0.0000    48.0000 </r>
       <r>   -10.2770     0.0000    48.0000 </r>
       <r>   -10.0703     0.0000    48.0000 </r>
       <r>    -9.8636     0.0000    48.0000 </r>
       <r>    -9.6570     0.0000    48.0000 </r>
       <r>    -9.4503     0.0000    48.0000 </r>
       <r>    -9.2436     0.0000    48.0000 </r>
       <r>    -9.0369     0.0000    48.0000 </r>
       <r>    -8.8303     0.0000    48.0000 </r>
       <r>    -8.6236     0.0000    48.0000 </r>
       <r>    -8.4169     0.0000    48.0000 </r>
       <r>    -8.2103     0.0000    48.0000 </r>
       <r>    -8.0036     0.0000    48.0000 </r>
       <r>    -7.7969     0.0000    48.0000 </r>
       <r>    -7.5902     0.0000    48.0000 </r>
       <r>    -7.3836     0.0000    48.0000 </r>
       <r>    -7.1769     0.0000    48.0000 </r>
       <r>    -6.9702     0.0000    48.0000 </r>
       <r>    -6.7635     0.0000    48.0000 </r>
       <r>    -6.5569     0.0000    48.0000 </r>
       <r>    -6.3502     0.0000    48.0000 </r>
       <r>    -6.1435     0.0000    48.0000 </r>
       <r>    -5.9368     0.0000    48.0000 </r>
       <r>    -5.7302     0.0000    48.0000 </r>
       <r>    -5.5235     0.0000    48.0000 </r>
       <r>    -5.3168     0.0000    48.0000 </r>
       <r>    -5.1102     0.0000    48.0000 </r>
       <r>    -4.9035     0.0000    48.0000 </r>
       <r>    -4.6968     0.0000    48.0000 </r>
       <r>    -4.4901     0.0000    48.0000 </r>
       <r>    -4.2835     0.0000    48.0000 </r>
       <r>    -4.0768     0.0000    48.0000 </r>
       <r>    -3.8701     0.0000    48.0000 </r>
       <r>    -3.6634     0.0000    48.0000 </r>
       <r>    -3.4568     0.0000    48.0000 </r>
       <r>    -3.2501     0.0000    48.0000 </r>
       <r>    -3.0434     0.0000    48.0000 </r>
       <r>    -2.8368     0.0000    48.0000 </r>
       <r>    -2.6301     0.0000    48.0000 </r>
       <r>    -2.4234     0.0000    48.0000 </r>
       <r>    -2.2167     0.0000    48.0000 </r>
       <r>    -2.0101     0.0000    48.0000 </r>
       <r>    -1.8034    -0.0000    48.0000 </r>
       <r>    -1.5967    -0.0000    48.0000 </r>
       <r>    -1.3900    -0.0000    48.0000 </r>
       <r>    -1.1834    -0.0000    48.0000 </r>
       <r>    -0.9767    -0.0000    48.0000 </r>
       <r>    -0.7700    -0.0000    48.0000 </r>
       <r>    -0.5633    -0.0014    47.9997 </r>
       <r>    -0.3567    -0.0161    47.9964 </r>
       <r>    -0.1500     0.1011    48.0173 </r>
       <r>     0.0567     0.7397    48.1701 </r>
       <r>     0.2633     1.2077    48.4198 </r>
       <r>     0.4700     1.6953    48.7701 </r>
       <r>     0.6767     2.1731    49.2192 </r>
       <r>     0.8834     2.0223    49.6372 </r>
       <r>     1.0900     2.7905    50.2139 </r>
       <r>     1.2967     3.1272    50.8602 </r>
       <r>     1.5034     3.3608    51.5548 </r>
       <r>     1.7101     3.6578    52.3108 </r>
       <r>     1.9167     4.2530    53.1898 </r>
       <r>     2.1234     5.0156    54.2264 </r>
       <r>     2.3301     6.8407    55.6401 </r>
       <r>     2.5367     9.9667    57.7000 </r>
       <r>     2.7434    16.5893    61.1286 </r>
       <r>     2.9501    21.6364    65.6002 </r>
       <r>     3.1568    25.0634    70.7801 </r>
       <r>     3.3634    28.5221    76.6749 </r>
       <r>     3.5701    30.2815    82.9333 </r>
       <r>     3.7768    31.0022    89.3406 </r>
       <r>     3.9835    30.8300    95.7123 </r>
       <r>     4.1901    31.2656   102.1741 </r>
       <r>     4.3968    28.2896   108.0208 </r>
       <r>     4.6035    26.6094   113.5203 </r>
       <r>     4.8102    30.3521   119.7932 </r>
       <r>     5.0168    37.5535   127.5545 </r>
       <r>     5.2235    42.0286   136.2407 </r>
       <r>     5.4302    40.4222   144.5949 </r>
       <r>     5.6368    40.1106   152.8847 </r>
       <r>     5.8435    40.1506   161.1827 </r>
       <r>     6.0502    42.1721   169.8986 </r>
       <r>     6.2569    44.2194   179.0375 </r>
       <r>     6.4635    43.8007   188.0900 </r>
       <r>     6.6702    38.7626   196.1011 </r>
       <r>     6.8769    31.6043   202.6329 </r>
       <r>     7.0836    25.9849   208.0033 </r>
       <r>     7.2902    20.8307   212.3084 </r>
       <r>     7.4969    18.5728   216.1469 </r>
       <r>     7.7036    18.0817   219.8839 </r>
       <r>     7.9102    19.2754   223.8676 </r>
       <r>     8.1169    23.6305   228.7514 </r>
       <r>     8.3236    24.8585   233.8890 </r>
       <r>     8.5303    18.9467   237.8048 </r>
       <r>     8.7369     9.6794   239.8052 </r>
       <r>     8.9436     1.1717   240.0474 </r>
       <r>     9.1503    -0.2131   240.0034 </r>
       <r>     9.3570    -0.0161   240.0000 </r>
       <r>     9.5636    -0.0001   240.0000 </r>
       <r>     9.7703    -0.0000   240.0000 </r>
       <r>     9.9770    -0.0000   240.0000 </r>
       <r>    10.1837    -0.0000   240.0000 </r>
       <r>    10.3903     0.0000   240.0000 </r>
       <r>    10.5970     0.0000   240.0000 </r>
       <r>    10.8037     0.0000   240.0000 </r>
       <r>    11.0103     0.0000   240.0000 </r>
       <r>    11.2170     0.0000   240.0000 </r>
       <r>    11.4237     0.0000   240.0000 </r>
       <r>    11.6304     0.0000   240.0000 </r>
      </set>
     </set>
    </array>
   </total>
  </dos>
 </calculation>
 <structure name="finalpos" >
  <crystal>
   <varray name="basis" >
    <v>      -3.16595184      -3.10865504      -3.14181379 </v>
    <v>       1.56345135       1.61942092      -7.89996785 </v>
    <v>       7.92256202      -7.84238840      -1.50781017 </v>
   </varray>
   <i name="volume">    469.94377484 </i>
   <varray name="rec_basis" >
    <v>      -0.13703000      -0.12816554      -0.05339182 </v>
    <v>       0.04245628       0.06312429      -0.10524054 </v>
    <v>       0.06308455      -0.06367355      -0.00056768 </v>
   </varray>
  </crystal>
  <varray name="positions" >
   <v>       0.95995551       0.93264161       0.39643286 </v>
   <v>       0.62788299       0.26661543       0.40314134 </v>
   <v>       0.50914969       0.00780096      -0.00533107 </v>
   <v>       0.00746246      -0.00575660       0.00022641 </v>
   <v>       0.09902979       0.20271739       0.79775252 </v>
   <v>       0.04285600       0.06996582       0.59729061 </v>
   <v>       0.89846879       0.79592454       0.20239187 </v>
   <v>       0.80367325       0.59214288       0.39875735 </v>
   <v>       0.73325392       0.46523481       0.19740068 </v>
   <v>       0.65606049       0.35544029      -0.00700493 </v>
   <v>       0.37248419       0.72102494       0.60508545 </v>
   <v>       0.13003922       0.27246813       0.40227402 </v>
   <v>       0.84059928       0.66359747       0.00073858 </v>
   <v>       0.91189278       0.87565732       0.79122461 </v>
   <v>       0.56165390       0.13970496       0.19432323 </v>
   <v>       0.40472114       0.78591876       0.18823988 </v>
   <v>       0.43572281       0.84689088       0.80418682 </v>
   <v>       0.30082388       0.60118624       0.40261546 </v>
   <v>       0.85729554       0.72607115       0.59783963 </v>
   <v>       0.46387878       0.92877322       0.40758122 </v>
   <v>       0.16189219       0.33185282       0.00043020 </v>
   <v>       0.28257076       0.53543572       0.80608743 </v>
   <v>       0.20268989       0.39203189       0.60126860 </v>
   <v>       0.06016926       0.14634964       0.20545797 </v>
   <v>       0.78790851       0.51750648       0.79940659 </v>
   <v>       0.68628283       0.41008814       0.60913376 </v>
   <v>       0.59670492       0.21271757       0.79553872 </v>
   <v>       0.54749107       0.06848761       0.61034681 </v>
   <v>       0.22405284       0.47484329       0.19716337 </v>
  </varray>
 </structure>
</modeling>
