Nb - Mo - Ta - Ti - V SQS               
           1
    -3.160000   -3.160000   -3.160000
     1.580000    1.580000   -7.900000
     7.900000   -7.900000   -1.580000
   Nb   Mo   Ta   Ti   V 
   6   6   6   6   5
Direct configuration=     1
   0.96666667  0.93333333  0.40000000
   0.63333333  0.26666667  0.40000000
   0.50000000  0.00000000  0.00000000
   0.00000000  0.00000000  0.00000000
   0.10000000  0.20000000  0.80000000
   0.03333333  0.06666667  0.60000000
   0.90000000  0.80000000  0.20000000
   0.80000000  0.60000000  0.40000000
   0.73333333  0.46666667  0.20000000
   0.66666667  0.33333333  0.00000000
   0.36666667  0.73333333  0.60000000
   0.13333333  0.26666667  0.40000000
   0.83333333  0.66666667  0.00000000
   0.93333333  0.86666667  0.80000000
   0.56666667  0.13333333  0.20000000
   0.40000000  0.80000000  0.20000000
   0.43333333  0.86666667  0.80000000
   0.30000000  0.60000000  0.40000000
   0.86666667  0.73333333  0.60000000
   0.46666667  0.93333333  0.40000000
   0.16666667  0.33333333  0.00000000
   0.26666667  0.53333333  0.80000000
   0.20000000  0.40000000  0.60000000
   0.06666667  0.13333333  0.20000000
   0.76666667  0.53333333  0.80000000
   0.70000000  0.40000000  0.60000000
   0.60000000  0.20000000  0.80000000
   0.53333333  0.06666667  0.60000000
   0.23333333  0.46666667  0.20000000
Nb - Mo - Ta - Ti - V SQS               
           1
    -3.152755   -3.132447   -3.139208
     1.567970    1.581700   -7.855089
     7.884782   -7.852738   -1.550878
   Nb   Mo   Ta   Ti   V 
   6   6   6   6   5
Direct configuration=     2
   0.96426873  0.93313489  0.39850443
   0.63126077  0.26707335  0.40149525
   0.50114235  0.00349047 -0.00142761
   0.00028759 -0.00234013  0.00076133
   0.09712439  0.20477659  0.79825649
   0.03475258  0.06865202  0.59891936
   0.90100558  0.79727277  0.20227446
   0.80340882  0.59551304  0.39919775
   0.73451787  0.46633206  0.19841118
   0.66501753  0.33955633 -0.00095683
   0.37003597  0.72985053  0.60165477
   0.13291819  0.27044719  0.40017590
   0.83196933  0.66328047  0.00186401
   0.92568107  0.86975482  0.79825374
   0.56505579  0.13530504  0.19713682
   0.40362250  0.79316169  0.19657711
   0.44005074  0.86096115  0.79845259
   0.30045760  0.60084989  0.40138174
   0.86294616  0.73174962  0.60012091
   0.46527042  0.93255357  0.40397210
   0.16664533  0.33202738  0.00043252
   0.27035594  0.53343906  0.79972294
   0.20135415  0.39682733  0.59961514
   0.06548093  0.13846836  0.20192395
   0.77130513  0.52790327  0.80013867
   0.69580871  0.40379383  0.60197197
   0.59882132  0.20207496  0.79960599
   0.53544452  0.06855161  0.60147821
   0.23065667  0.46887216  0.20008512
Nb - Mo - Ta - Ti - V SQS               
           1
    -3.147452   -3.112278   -3.123989
     1.559164    1.582945   -7.822215
     7.873643   -7.818142   -1.529562
   Nb   Mo   Ta   Ti   V 
   6   6   6   6   5
Direct configuration=     3
   0.96249746  0.93298783  0.39740292
   0.62974144  0.26737315  0.40259240
   0.50197993  0.00605802 -0.00247343
   0.00050071 -0.00406149  0.00131960
   0.09500397  0.20828981  0.79697553
   0.03579434  0.07011236  0.59812782
   0.90175302  0.79526748  0.20394517
   0.80591171  0.59221160  0.39860853
   0.73538321  0.46608514  0.19724446
   0.66380408  0.34413434 -0.00165758
   0.37252034  0.72728924  0.60287182
   0.13261594  0.27322883  0.40030720
   0.83097041  0.66078986  0.00323040
   0.92004337  0.87202523  0.79696514
   0.56385989  0.13675406  0.19503240
   0.40627052  0.78812882  0.19406067
   0.44498525  0.85676309  0.79731810
   0.30080057  0.60147600  0.40239816
   0.86020687  0.73058403  0.60020522
   0.46425804  0.93198182  0.40688937
   0.16663046  0.33106674  0.00074951
   0.27307058  0.53351710  0.79952290
   0.20234719  0.39449292  0.59933154
   0.06461940  0.14224746  0.20334004
   0.77471629  0.52390857  0.80024150
   0.69273405  0.40658582  0.60341963
   0.59795355  0.20360132  0.79931665
   0.53700581  0.06993951  0.60256777
   0.22868826  0.47049466  0.20014654
Nb - Mo - Ta - Ti - V SQS               
           1
    -3.180744   -3.128225   -3.148882
     1.569079    1.601471   -7.888296
     7.957974   -7.872852   -1.528209
   Nb   Mo   Ta   Ti   V 
   6   6   6   6   5
Direct configuration=     4
   0.96040209  0.93315851  0.39647570
   0.62846045  0.26736822  0.40326422
   0.50321222  0.00775752 -0.00418261
   0.00230713 -0.00626752  0.00179340
   0.09334956  0.21092897  0.79583671
   0.03699284  0.07183756  0.59714862
   0.90220219  0.79335040  0.20508012
   0.80792973  0.58968334  0.39845194
   0.73596990  0.46461387  0.19662681
   0.66135274  0.35001886 -0.00325804
   0.37507400  0.72391176  0.60414208
   0.13205320  0.27522941  0.40080963
   0.83025142  0.65921331  0.00406894
   0.91581960  0.87434310  0.79541516
   0.56260620  0.13864752  0.19354256
   0.40800785  0.78364288  0.19095346
   0.44653495  0.85239724  0.79703950
   0.30203402  0.60193035  0.40378308
   0.85751763  0.72893536  0.60011937
   0.46328427  0.93114782  0.40958153
   0.16673282  0.33040007  0.00101255
   0.27723138  0.53359877  0.79983028
   0.20324544  0.39217581  0.59894242
   0.06337203  0.14606994  0.20485269
   0.77913074  0.51886140  0.80023296
   0.68868649  0.40997989  0.60574395
   0.59671477  0.20642091  0.79854755
   0.53975353  0.07134313  0.60458907
   0.22643746  0.47263493  0.19955635
Nb - Mo - Ta - Ti - V SQS               
           1
    -3.174542   -3.125255   -3.144245
     1.567232    1.598020   -7.875987
     7.942265   -7.862661   -1.528461
   Nb   Mo   Ta   Ti   V 
   6   6   6   6   5
Direct configuration=     5
   0.96079011  0.93312691  0.39664730
   0.62869660  0.26736907  0.40314043
   0.50298588  0.00744372 -0.00386744
   0.00197298 -0.00586004  0.00170578
   0.09365617  0.21044152  0.79604705
   0.03677213  0.07151901  0.59732901
   0.90211829  0.79370445  0.20487066
   0.80755703  0.59015033  0.39848070
   0.73586207  0.46488561  0.19674088
   0.66180689  0.34893203 -0.00296262
   0.37460112  0.72453560  0.60390736
   0.13215669  0.27485992  0.40071678
   0.83038364  0.65950443  0.00391441
   0.91660139  0.87391488  0.79570196
   0.56283909  0.13829780  0.19381771
   0.40768962  0.78447142  0.19152727
   0.44624898  0.85320358  0.79709106
   0.30180487  0.60184648  0.40352708
   0.85801475  0.72923973  0.60013592
   0.46346195  0.93130178  0.40908472
   0.16671370  0.33052319  0.00096403
   0.27646218  0.53358385  0.79977269
   0.20307986  0.39260377  0.59901432
   0.06360110  0.14536396  0.20457327
   0.77831515  0.51979367  0.80023415
   0.68943237  0.40935291  0.60531526
   0.59694425  0.20590015  0.79868953
   0.53924396  0.07108401  0.60421517
   0.22685384  0.47223959  0.19966556
Nb - Mo - Ta - Ti - V SQS               
           1
    -3.174224   -3.122903   -3.145697
     1.566200    1.596906   -7.878829
     7.939108   -7.855300   -1.528219
   Nb   Mo   Ta   Ti   V 
   6   6   6   6   5
Direct configuration=     6
   0.96038670  0.93327141  0.39675274
   0.62888618  0.26720882  0.40273917
   0.50396855  0.00658290 -0.00447193
   0.00307513 -0.00617496  0.00164278
   0.09427193  0.20922807  0.79625770
   0.03719935  0.07169957  0.59714813
   0.90152279  0.79384694  0.20440743
   0.80726438  0.59088017  0.39877178
   0.73548527  0.46398333  0.19736864
   0.66096566  0.34983310 -0.00382824
   0.37434324  0.72381015  0.60401634
   0.13183957  0.27420107  0.40107953
   0.83055124  0.66065174  0.00338000
   0.91717441  0.87426566  0.79529836
   0.56293996  0.13857766  0.19413391
   0.40701206  0.78472812  0.19109029
   0.44352904  0.85297851  0.79786228
   0.30247731  0.60183087  0.40372931
   0.85817232  0.72875391  0.59989768
   0.46347522  0.93096105  0.40888622
   0.16656372  0.33076928  0.00087670
   0.27794202  0.53359438  0.80025335
   0.20304138  0.39256518  0.59881950
   0.06300846  0.14552182  0.20481124
   0.77942542  0.51891441  0.80017044
   0.68842413  0.40999694  0.60613693
   0.59664892  0.20721177  0.79821003
   0.54066339  0.07093395  0.60531062
   0.22640891  0.47270751  0.19924905
Nb - Mo - Ta - Ti - V SQS               
           1
    -3.173493   -3.117496   -3.149035
     1.563829    1.594345   -7.885364
     7.931847   -7.838372   -1.527663
   Nb   Mo   Ta   Ti   V 
   6   6   6   6   5
Direct configuration=     7
   0.95945868  0.93360389  0.39699527
   0.62932197  0.26684046  0.40181580
   0.50622923  0.00460327 -0.00586276
   0.00561079 -0.00689982  0.00149815
   0.09568990  0.20643729  0.79674267
   0.03818174  0.07211456  0.59673197
   0.90015218  0.79417534  0.20334120
   0.80659077  0.59255837  0.39944157
   0.73462012  0.46190847  0.19881324
   0.65902855  0.35190622 -0.00582059
   0.37375088  0.72214218  0.60426708
   0.13111114  0.27268609  0.40191426
   0.83093499  0.66329012  0.00215018
   0.91849174  0.87507211  0.79436969
   0.56317212  0.13922087  0.19486163
   0.40545261  0.78531915  0.19008443
   0.43727319  0.85246243  0.79963632
   0.30402446  0.60179434  0.40419492
   0.85853500  0.72763688  0.59934945
   0.46350585  0.93017771  0.40842942
   0.16621836  0.33133529  0.00067567
   0.28134683  0.53361717  0.80135997
   0.20295266  0.39247663  0.59837116
   0.06164527  0.14588507  0.20535870
   0.78198034  0.51689189  0.80002417
   0.68610510  0.41147796  0.60802756
   0.59596764  0.21022824  0.79710644
   0.54393016  0.07058710  0.60783205
   0.22538442  0.47378405  0.19829038
Nb - Mo - Ta - Ti - V SQS               
           1
    -3.172542   -3.116398   -3.148284
     1.562738    1.600057   -7.889066
     7.929928   -7.840924   -1.522501
   Nb   Mo   Ta   Ti   V 
   6   6   6   6   5
Direct configuration=     8
   0.95939075  0.93339651  0.39700031
   0.62903224  0.26680763  0.40233318
   0.50677852  0.00512197 -0.00564056
   0.00642751 -0.00708815  0.00128339
   0.09659097  0.20514116  0.79703395
   0.03921247  0.07174720  0.59699551
   0.89935632  0.79445253  0.20302819
   0.80630466  0.59301340  0.39959046
   0.73401337  0.46295953  0.19867832
   0.65850648  0.35252447 -0.00654344
   0.37301525  0.72215134  0.60459361
   0.13116796  0.27233230  0.40200713
   0.83220225  0.66326244  0.00165612
   0.91678729  0.87548522  0.79341720
   0.56270110  0.13889669  0.19428134
   0.40520624  0.78535164  0.19001236
   0.43680949  0.85162370  0.80053496
   0.30378406  0.60177007  0.40359277
   0.85876467  0.72728926  0.59916962
   0.46360830  0.92981256  0.40810459
   0.16545658  0.33169149  0.00047657
   0.28242032  0.53367151  0.80217821
   0.20269682  0.39239805  0.59860569
   0.06149449  0.14575015  0.20552019
   0.78297181  0.51666642  0.80006623
   0.68579627  0.41157139  0.60857194
   0.59606478  0.21105555  0.79660251
   0.54512627  0.07032440  0.60877635
   0.22497943  0.47415289  0.19807328
Nb - Mo - Ta - Ti - V SQS               
           1
    -3.171004   -3.114623   -3.147068
     1.560972    1.609301   -7.895056
     7.926823   -7.845054   -1.514148
   Nb   Mo   Ta   Ti   V 
   6   6   6   6   5
Direct configuration=     9
   0.95928067  0.93306118  0.39700833
   0.62856297  0.26675521  0.40317032
   0.50766784  0.00596096 -0.00528066
   0.00774948 -0.00739299  0.00093577
   0.09804853  0.20304564  0.79750436
   0.04088050  0.07115346  0.59742171
   0.89806845  0.79490040  0.20252191
   0.80584176  0.59374939  0.39983169
   0.73303197  0.46465893  0.19846073
   0.65766220  0.35352328 -0.00771263
   0.37182436  0.72216660  0.60512195
   0.13125965  0.27176033  0.40215716
   0.83425372  0.66321700  0.00085671
   0.91402914  0.87615208  0.79187626
   0.56193879  0.13837179  0.19334216
   0.40480750  0.78540410  0.18989577
   0.43605795  0.85026864  0.80198843
   0.30339525  0.60173007  0.40261842
   0.85913631  0.72672693  0.59887841
   0.46377406  0.92922169  0.40757873
   0.16422386  0.33226726  0.00015466
   0.28415753  0.53376037  0.80350225
   0.20228254  0.39227130  0.59898512
   0.06125026  0.14553220  0.20578140
   0.78457648  0.51630185  0.80013414
   0.68529618  0.41172318  0.60945285
   0.59622279  0.21239265  0.79578768
   0.54706171  0.06990077  0.61030414
   0.22432425  0.47474904  0.19772224
Nb - Mo - Ta - Ti - V SQS               
           1
    -3.165588   -3.109030   -3.140400
     1.558414    1.612297   -7.884262
     7.912621   -7.834151   -1.507118
   Nb   Mo   Ta   Ti   V 
   6   6   6   6   5
Direct configuration=    10
   0.95939590  0.93302283  0.39684510
   0.62847982  0.26675592  0.40318170
   0.50807792  0.00653919 -0.00525053
   0.00750426 -0.00735546  0.00075170
   0.09840183  0.20298842  0.79764440
   0.04177252  0.07082901  0.59734771
   0.89820456  0.79520432  0.20252552
   0.80542869  0.59309478  0.39953658
   0.73314878  0.46502564  0.19802383
   0.65746972  0.35390225 -0.00769533
   0.37198751  0.72201037  0.60522309
   0.13092409  0.27215664  0.40218437
   0.83562593  0.66295674  0.00075045
   0.91256827  0.87624525  0.79157229
   0.56214934  0.13853491  0.19337412
   0.40480546  0.78551974  0.18965084
   0.43655326  0.84931352  0.80266319
   0.30249363  0.60160151  0.40255361
   0.85869427  0.72656992  0.59866025
   0.46373273  0.92914044  0.40755711
   0.16344866  0.33225969  0.00012814
   0.28389494  0.53423813  0.80412413
   0.20241947  0.39209645  0.59948476
   0.06068713  0.14572851  0.20580971
   0.78552010  0.51651872  0.80006414
   0.68546017  0.41147556  0.60950890
   0.59641676  0.21249877  0.79559977
   0.54734092  0.06966502  0.61057742
   0.22406002  0.47479656  0.19760304
Nb - Mo - Ta - Ti - V SQS               
           1
    -3.166559   -3.110032   -3.141596
     1.558873    1.611760   -7.886197
     7.915167   -7.836106   -1.508378
   Nb   Mo   Ta   Ti   V 
   6   6   6   6   5
Direct configuration=    11
   0.95937521  0.93302973  0.39687441
   0.62849475  0.26675580  0.40317966
   0.50800421  0.00643541 -0.00525598
   0.00754829 -0.00736217  0.00078475
   0.09833839  0.20299867  0.79761926
   0.04161236  0.07088722  0.59736101
   0.89818008  0.79514978  0.20252486
   0.80550293  0.59321229  0.39958961
   0.73312775  0.46495988  0.19810225
   0.65750425  0.35383424 -0.00769846
   0.37195823  0.72203839  0.60520494
   0.13098431  0.27208553  0.40217946
   0.83537952  0.66300343  0.00076954
   0.91283061  0.87622859  0.79162686
   0.56211151  0.13850563  0.19336837
   0.40480580  0.78549901  0.18969481
   0.43646444  0.84948483  0.80254210
   0.30265557  0.60162460  0.40256526
   0.85877366  0.72659813  0.59869943
   0.46374016  0.92915502  0.40756100
   0.16358787  0.33226107  0.00013290
   0.28394207  0.53415233  0.80401244
   0.20239491  0.39212777  0.59939506
   0.06078824  0.14569329  0.20580462
   0.78535061  0.51647979  0.80007669
   0.68543075  0.41151998  0.60949885
   0.59638190  0.21247975  0.79563350
   0.54729081  0.06970728  0.61052837
   0.22410747  0.47478805  0.19762444
Nb - Mo - Ta - Ti - V SQS               
           1
    -3.166878   -3.110424   -3.141042
     1.559871    1.615431   -7.889089
     7.916177   -7.838801   -1.506636
   Nb   Mo   Ta   Ti   V 
   6   6   6   6   5
Direct configuration=    12
   0.95947111  0.93301035  0.39677373
   0.62844968  0.26672968  0.40315046
   0.50826372  0.00683208 -0.00526888
   0.00735707 -0.00727285  0.00065507
   0.09855640  0.20305216  0.79768350
   0.04216811  0.07067281  0.59728984
   0.89836192  0.79537712  0.20254684
   0.80512308  0.59270457  0.39935769
   0.73328392  0.46505958  0.19779273
   0.65732021  0.35410791 -0.00758725
   0.37219088  0.72189536  0.60520890
   0.13073777  0.27237240  0.40219784
   0.83638926  0.66286215  0.00072280
   0.91208055  0.87618744  0.79150106
   0.56226702  0.13870460  0.19350185
   0.40478849  0.78563882  0.18946121
   0.43667718  0.84884903  0.80300031
   0.30195440  0.60151372  0.40262035
   0.85841035  0.72650837  0.59854500
   0.46373314  0.92913139  0.40759388
   0.16309966  0.33220000  0.00014461
   0.28356196  0.53454187  0.80444300
   0.20255254  0.39201968  0.59980479
   0.06041628  0.14585359  0.20577929
   0.78599444  0.51672930  0.79996996
   0.68562232  0.41126000  0.60946937
   0.59650179  0.21247018  0.79553717
   0.54733910  0.06953670  0.61058198
   0.22399428  0.47478533  0.19752291
Nb - Mo - Ta - Ti - V SQS               
           1
    -3.167355   -3.111011   -3.140214
     1.561364    1.620926   -7.893418
     7.917688   -7.842835   -1.504029
   Nb   Mo   Ta   Ti   V 
   6   6   6   6   5
Direct configuration=    13
   0.95961466  0.93298133  0.39662307
   0.62838222  0.26669059  0.40310676
   0.50865242  0.00742549 -0.00528810
   0.00707096 -0.00713931  0.00046104
   0.09888273  0.20313225  0.79777964
   0.04299979  0.07035210  0.59718327
   0.89863423  0.79571725  0.20257980
   0.80455425  0.59194489  0.39901049
   0.73351779  0.46520861  0.19732956
   0.65704494  0.35451732 -0.00742076
   0.37253900  0.72168142  0.60521479
   0.13036896  0.27280151  0.40222543
   0.83790046  0.66265093  0.00065281
   0.91095791  0.87612572  0.79131280
   0.56249989  0.13900233  0.19370166
   0.40476271  0.78584784  0.18911166
   0.43699508  0.84789816  0.80368583
   0.30090488  0.60134776  0.40270278
   0.85786655  0.72637397  0.59831389
   0.46372262  0.92909605  0.40764307
   0.16236890  0.33210858  0.00016213
   0.28299324  0.53512475  0.80508742
   0.20278833  0.39185819  0.60041790
   0.05985968  0.14609333  0.20574142
   0.78695825  0.51710260  0.79981030
   0.68590888  0.41087110  0.60942518
   0.59668122  0.21245585  0.79539300
   0.54741125  0.06928154  0.61066218
   0.22382490  0.47478120  0.19737097
Nb - Mo - Ta - Ti - V SQS               
           1
    -3.166638   -3.110196   -3.139960
     1.561906    1.620472   -7.893652
     7.917715   -7.841702   -1.504830
   Nb   Mo   Ta   Ti   V 
   6   6   6   6   5
Direct configuration=    14
   0.95969685  0.93290428  0.39658549
   0.62828925  0.26668792  0.40308275
   0.50878066  0.00751818 -0.00529341
   0.00714214 -0.00690020  0.00039975
   0.09895632  0.20307972  0.79777496
   0.04304199  0.07025874  0.59719504
   0.89862444  0.79578674  0.20253417
   0.80427122  0.59191454  0.39890963
   0.73348340  0.46519494  0.19730691
   0.65683160  0.35470695 -0.00731777
   0.37259372  0.72152682  0.60517581
   0.13026444  0.27278077  0.40223226
   0.83854937  0.66286687  0.00065228
   0.91122927  0.87600131  0.79128563
   0.56234628  0.13918220  0.19387381
   0.40475994  0.78590130  0.18888911
   0.43655700  0.84759572  0.80388075
   0.30077783  0.60130660  0.40272643
   0.85770945  0.72628318  0.59819793
   0.46376472  0.92903433  0.40764599
   0.16221728  0.33201971  0.00022157
   0.28279205  0.53529022  0.80533954
   0.20278791  0.39188990  0.60065846
   0.05991339  0.14617046  0.20565861
   0.78726410  0.51725179  0.79970760
   0.68602946  0.41067616  0.60936129
   0.59668253  0.21250543  0.79541446
   0.54745037  0.06910252  0.61060004
   0.22385967  0.47479622  0.19730092
Nb - Mo - Ta - Ti - V SQS               
           1
    -3.165239   -3.108607   -3.139463
     1.562962    1.619586   -7.894107
     7.917766   -7.839491   -1.506392
   Nb   Mo   Ta   Ti   V 
   6   6   6   6   5
Direct configuration=    15
   0.95985717  0.93275403  0.39651218
   0.62810790  0.26668274  0.40303592
   0.50903085  0.00769895 -0.00530379
   0.00728099 -0.00643383  0.00028016
   0.09909986  0.20297728  0.79776585
   0.04312432  0.07007663  0.59721799
   0.89860533  0.79592230  0.20244514
   0.80371906  0.59185540  0.39871289
   0.73341632  0.46516831  0.19726273
   0.65641545  0.35507677 -0.00711691
   0.37270044  0.72122528  0.60509980
   0.13006052  0.27274031  0.40224558
   0.83981528  0.66328798  0.00065123
   0.91175864  0.87575865  0.79123265
   0.56204667  0.13953297  0.19420959
   0.40475449  0.78600564  0.18845502
   0.43570242  0.84700583  0.80426098
   0.30052998  0.60122632  0.40277256
   0.85740296  0.72610617  0.59797178
   0.46384687  0.92891395  0.40765170
   0.16192153  0.33184637  0.00033752
   0.28239963  0.53561290  0.80583130
   0.20278716  0.39195168  0.60112767
   0.06001814  0.14632093  0.20549706
   0.78786074  0.51754277  0.79950727
   0.68626469  0.41029597  0.60923670
   0.59668509  0.21260213  0.79545631
   0.54752668  0.06875337  0.61047886
   0.22392748  0.47482554  0.19716427
Nb - Mo - Ta - Ti - V SQS               
           1
    -3.165808   -3.108645   -3.141340
     1.563353    1.619454   -7.898786
     7.921595   -7.841804   -1.507524
   Nb   Mo   Ta   Ti   V 
   6   6   6   6   5
Direct configuration=    16
   0.95993569  0.93266427  0.39644885
   0.62792832  0.26662899  0.40312010
   0.50912574  0.00778041 -0.00532557
   0.00742590 -0.00589308  0.00023725
   0.09904390  0.20276976  0.79775520
   0.04291008  0.06998815  0.59727597
   0.89849631  0.79592408  0.20240261
   0.80368249  0.59208494  0.39874839
   0.73328665  0.46522141  0.19737288
   0.65613205  0.35536702 -0.00702749
   0.37252777  0.72106530  0.60508834
   0.13004351  0.27252298  0.40226829
   0.84044126  0.66353512  0.00072097
   0.91186574  0.87567774  0.79122623
   0.56173307  0.13967029  0.19430033
   0.40472786  0.78593626  0.18828324
   0.43571870  0.84691404  0.80420176
   0.30076464  0.60119432  0.40264712
   0.85731720  0.72607820  0.59786627
   0.46387235  0.92880158  0.40759543
   0.16189810  0.33185152  0.00041152
   0.28253625  0.53547143  0.80603580
   0.20270949  0.39201573  0.60124020
   0.06013880  0.14634386  0.20546585
   0.78789888  0.51751379  0.79942688
   0.68627917  0.41013002  0.60915451
   0.59670093  0.21269431  0.79552211
   0.54749825  0.06854116  0.61037342
   0.22402757  0.47483972  0.19716355
Nb - Mo - Ta - Ti - V SQS               
           1
    -3.165952   -3.108655   -3.141814
     1.563451    1.619421   -7.899968
     7.922562   -7.842388   -1.507810
   Nb   Mo   Ta   Ti   V 
   6   6   6   6   5
Direct configuration=    17
   0.95995551  0.93264161  0.39643286
   0.62788299  0.26661543  0.40314134
   0.50914969  0.00780096 -0.00533107
   0.00746246 -0.00575660  0.00022641
   0.09902979  0.20271739  0.79775252
   0.04285600  0.06996582  0.59729061
   0.89846879  0.79592454  0.20239187
   0.80367325  0.59214288  0.39875735
   0.73325392  0.46523481  0.19740068
   0.65606049  0.35544029 -0.00700493
   0.37248419  0.72102494  0.60508545
   0.13003922  0.27246813  0.40227402
   0.84059928  0.66359747  0.00073858
   0.91189278  0.87565732  0.79122461
   0.56165390  0.13970496  0.19432323
   0.40472114  0.78591876  0.18823988
   0.43572281  0.84689088  0.80418682
   0.30082388  0.60118624  0.40261546
   0.85729554  0.72607115  0.59783963
   0.46387878  0.92877322  0.40758122
   0.16189219  0.33185282  0.00043020
   0.28257076  0.53543572  0.80608743
   0.20268989  0.39203189  0.60126860
   0.06016926  0.14634964  0.20545797
   0.78790851  0.51750648  0.79940659
   0.68628283  0.41008814  0.60913376
   0.59670492  0.21271757  0.79553872
   0.54749107  0.06848761  0.61034681
   0.22405284  0.47484329  0.19716337
