  29  29   0   0
  0.1632129E+02  0.5473281E-09  0.8209921E-09  0.1128346E-08  0.5000000E-15
  1.000000000000000E-004
  CAR 
 Nb - Mo - Ta - Ti - V SQS               
     11.62675938    -50.41223557  301      6.59307280      1.00000000
    -50.412  0.0000E+00  0.0000E+00
    -50.205  0.0000E+00  0.0000E+00
    -49.999  0.0000E+00  0.0000E+00
    -49.792  0.0000E+00  0.0000E+00
    -49.585  0.0000E+00  0.0000E+00
    -49.378 -0.4026E-35 -0.8326E-36
    -49.171 -0.1430E-27 -0.2957E-28
    -48.965 -0.5712E-21 -0.1181E-21
    -48.758 -0.2596E-15 -0.5368E-16
    -48.551 -0.1372E-10 -0.2837E-11
    -48.344 -0.8276E-07 -0.1712E-07
    -48.137 -0.5511E-04 -0.1141E-04
    -47.931 -0.3742E-02 -0.7853E-03
    -47.724 -0.9256E-02 -0.2699E-02
    -47.517  0.2456E+00  0.4808E-01
    -47.310  0.6729E+00  0.1872E+00
    -47.103  0.2767E+00  0.2445E+00
    -46.897 -0.1819E-01  0.2407E+00
    -46.690 -0.3305E-02  0.2400E+00
    -46.483 -0.3034E-04  0.2400E+00
    -46.276 -0.2880E-07  0.2400E+00
    -46.070 -0.3051E-11  0.2400E+00
    -45.863 -0.4295E-16  0.2400E+00
    -45.656  0.0000E+00  0.2400E+00
    -45.449  0.0000E+00  0.2400E+00
    -45.242  0.0000E+00  0.2400E+00
    -45.036  0.0000E+00  0.2400E+00
    -44.829  0.0000E+00  0.2400E+00
    -44.622  0.0000E+00  0.2400E+00
    -44.415  0.0000E+00  0.2400E+00
    -44.208  0.0000E+00  0.2400E+00
    -44.002  0.0000E+00  0.2400E+00
    -43.795  0.0000E+00  0.2400E+00
    -43.588  0.0000E+00  0.2400E+00
    -43.381  0.0000E+00  0.2400E+00
    -43.174  0.0000E+00  0.2400E+00
    -42.968  0.0000E+00  0.2400E+00
    -42.761  0.0000E+00  0.2400E+00
    -42.554  0.0000E+00  0.2400E+00
    -42.347  0.0000E+00  0.2400E+00
    -42.140  0.0000E+00  0.2400E+00
    -41.934  0.0000E+00  0.2400E+00
    -41.727  0.0000E+00  0.2400E+00
    -41.520  0.0000E+00  0.2400E+00
    -41.313  0.0000E+00  0.2400E+00
    -41.106  0.0000E+00  0.2400E+00
    -40.900  0.0000E+00  0.2400E+00
    -40.693  0.0000E+00  0.2400E+00
    -40.486  0.0000E+00  0.2400E+00
    -40.279  0.0000E+00  0.2400E+00
    -40.072  0.0000E+00  0.2400E+00
    -39.866  0.0000E+00  0.2400E+00
    -39.659  0.0000E+00  0.2400E+00
    -39.452  0.0000E+00  0.2400E+00
    -39.245  0.0000E+00  0.2400E+00
    -39.038  0.0000E+00  0.2400E+00
    -38.832  0.0000E+00  0.2400E+00
    -38.625  0.0000E+00  0.2400E+00
    -38.418  0.0000E+00  0.2400E+00
    -38.211  0.0000E+00  0.2400E+00
    -38.004  0.0000E+00  0.2400E+00
    -37.798  0.0000E+00  0.2400E+00
    -37.591  0.0000E+00  0.2400E+00
    -37.384  0.0000E+00  0.2400E+00
    -37.177  0.0000E+00  0.2400E+00
    -36.970  0.0000E+00  0.2400E+00
    -36.764  0.0000E+00  0.2400E+00
    -36.557  0.0000E+00  0.2400E+00
    -36.350  0.0000E+00  0.2400E+00
    -36.143  0.0000E+00  0.2400E+00
    -35.936  0.0000E+00  0.2400E+00
    -35.730  0.0000E+00  0.2400E+00
    -35.523  0.0000E+00  0.2400E+00
    -35.316  0.0000E+00  0.2400E+00
    -35.109  0.0000E+00  0.2400E+00
    -34.902  0.0000E+00  0.2400E+00
    -34.696  0.0000E+00  0.2400E+00
    -34.489  0.0000E+00  0.2400E+00
    -34.282  0.0000E+00  0.2400E+00
    -34.075  0.0000E+00  0.2400E+00
    -33.869  0.0000E+00  0.2400E+00
    -33.662  0.0000E+00  0.2400E+00
    -33.455  0.0000E+00  0.2400E+00
    -33.248  0.0000E+00  0.2400E+00
    -33.041  0.0000E+00  0.2400E+00
    -32.835  0.0000E+00  0.2400E+00
    -32.628  0.0000E+00  0.2400E+00
    -32.421  0.0000E+00  0.2400E+00
    -32.214  0.0000E+00  0.2400E+00
    -32.007  0.0000E+00  0.2400E+00
    -31.801  0.0000E+00  0.2400E+00
    -31.594  0.0000E+00  0.2400E+00
    -31.387  0.0000E+00  0.2400E+00
    -31.180  0.0000E+00  0.2400E+00
    -30.973  0.0000E+00  0.2400E+00
    -30.767  0.0000E+00  0.2400E+00
    -30.560  0.0000E+00  0.2400E+00
    -30.353  0.0000E+00  0.2400E+00
    -30.146  0.0000E+00  0.2400E+00
    -29.939  0.0000E+00  0.2400E+00
    -29.733  0.0000E+00  0.2400E+00
    -29.526  0.0000E+00  0.2400E+00
    -29.319  0.0000E+00  0.2400E+00
    -29.112  0.0000E+00  0.2400E+00
    -28.905  0.0000E+00  0.2400E+00
    -28.699  0.0000E+00  0.2400E+00
    -28.492  0.0000E+00  0.2400E+00
    -28.285  0.0000E+00  0.2400E+00
    -28.078  0.0000E+00  0.2400E+00
    -27.871  0.0000E+00  0.2400E+00
    -27.665  0.0000E+00  0.2400E+00
    -27.458  0.0000E+00  0.2400E+00
    -27.251  0.0000E+00  0.2400E+00
    -27.044  0.0000E+00  0.2400E+00
    -26.837  0.0000E+00  0.2400E+00
    -26.631  0.0000E+00  0.2400E+00
    -26.424  0.0000E+00  0.2400E+00
    -26.217  0.0000E+00  0.2400E+00
    -26.010 -0.3996E-29  0.2400E+00
    -25.803 -0.2085E-22  0.2400E+00
    -25.597 -0.1266E-16  0.2400E+00
    -25.390 -0.8595E-12  0.2400E+00
    -25.183 -0.6910E-08  0.2400E+00
    -24.976 -0.6273E-05  0.2400E+00
    -24.769 -0.5820E-03  0.2399E+00
    -24.563 -0.1689E-02  0.2395E+00
    -24.356  0.3740E-01  0.2473E+00
    -24.149  0.7553E-01  0.2629E+00
    -23.942  0.2888E+00  0.3226E+00
    -23.735  0.5040E+00  0.4268E+00
    -23.529  0.1084E+01  0.6510E+00
    -23.322  0.9253E+00  0.8424E+00
    -23.115  0.3974E+00  0.9245E+00
    -22.908  0.1478E+00  0.9551E+00
    -22.701  0.2651E-01  0.9606E+00
    -22.495 -0.2292E-02  0.9601E+00
    -22.288 -0.5245E-03  0.9600E+00
    -22.081 -0.5627E-05  0.9600E+00
    -21.874 -0.6269E-08  0.9600E+00
    -21.668 -0.7869E-12  0.9600E+00
    -21.461 -0.1227E-16  0.9600E+00
    -21.254  0.0000E+00  0.9600E+00
    -21.047  0.0000E+00  0.9600E+00
    -20.840  0.0000E+00  0.9600E+00
    -20.634  0.0000E+00  0.9600E+00
    -20.427  0.0000E+00  0.9600E+00
    -20.220  0.0000E+00  0.9600E+00
    -20.013  0.0000E+00  0.9600E+00
    -19.806  0.0000E+00  0.9600E+00
    -19.600  0.0000E+00  0.9600E+00
    -19.393  0.0000E+00  0.9600E+00
    -19.186  0.0000E+00  0.9600E+00
    -18.979  0.0000E+00  0.9600E+00
    -18.772  0.0000E+00  0.9600E+00
    -18.566  0.0000E+00  0.9600E+00
    -18.359  0.0000E+00  0.9600E+00
    -18.152  0.0000E+00  0.9600E+00
    -17.945  0.0000E+00  0.9600E+00
    -17.738  0.0000E+00  0.9600E+00
    -17.532  0.0000E+00  0.9600E+00
    -17.325  0.0000E+00  0.9600E+00
    -17.118  0.0000E+00  0.9600E+00
    -16.911  0.0000E+00  0.9600E+00
    -16.704  0.0000E+00  0.9600E+00
    -16.498  0.0000E+00  0.9600E+00
    -16.291  0.0000E+00  0.9600E+00
    -16.084  0.0000E+00  0.9600E+00
    -15.877  0.0000E+00  0.9600E+00
    -15.670  0.0000E+00  0.9600E+00
    -15.464  0.0000E+00  0.9600E+00
    -15.257  0.0000E+00  0.9600E+00
    -15.050  0.0000E+00  0.9600E+00
    -14.843  0.0000E+00  0.9600E+00
    -14.636  0.0000E+00  0.9600E+00
    -14.430  0.0000E+00  0.9600E+00
    -14.223  0.0000E+00  0.9600E+00
    -14.016  0.0000E+00  0.9600E+00
    -13.809  0.0000E+00  0.9600E+00
    -13.602  0.0000E+00  0.9600E+00
    -13.396  0.0000E+00  0.9600E+00
    -13.189  0.0000E+00  0.9600E+00
    -12.982  0.0000E+00  0.9600E+00
    -12.775  0.0000E+00  0.9600E+00
    -12.568  0.0000E+00  0.9600E+00
    -12.362  0.0000E+00  0.9600E+00
    -12.155  0.0000E+00  0.9600E+00
    -11.948  0.0000E+00  0.9600E+00
    -11.741  0.0000E+00  0.9600E+00
    -11.534  0.0000E+00  0.9600E+00
    -11.328  0.0000E+00  0.9600E+00
    -11.121  0.0000E+00  0.9600E+00
    -10.914  0.0000E+00  0.9600E+00
    -10.707  0.0000E+00  0.9600E+00
    -10.500  0.0000E+00  0.9600E+00
    -10.294  0.0000E+00  0.9600E+00
    -10.087  0.0000E+00  0.9600E+00
     -9.880  0.0000E+00  0.9600E+00
     -9.673  0.0000E+00  0.9600E+00
     -9.466  0.0000E+00  0.9600E+00
     -9.260  0.0000E+00  0.9600E+00
     -9.053  0.0000E+00  0.9600E+00
     -8.846  0.0000E+00  0.9600E+00
     -8.639  0.0000E+00  0.9600E+00
     -8.433  0.0000E+00  0.9600E+00
     -8.226  0.0000E+00  0.9600E+00
     -8.019  0.0000E+00  0.9600E+00
     -7.812  0.0000E+00  0.9600E+00
     -7.605  0.0000E+00  0.9600E+00
     -7.399  0.0000E+00  0.9600E+00
     -7.192  0.0000E+00  0.9600E+00
     -6.985  0.0000E+00  0.9600E+00
     -6.778  0.0000E+00  0.9600E+00
     -6.571  0.0000E+00  0.9600E+00
     -6.365  0.0000E+00  0.9600E+00
     -6.158  0.0000E+00  0.9600E+00
     -5.951  0.0000E+00  0.9600E+00
     -5.744  0.0000E+00  0.9600E+00
     -5.537  0.0000E+00  0.9600E+00
     -5.331  0.0000E+00  0.9600E+00
     -5.124  0.0000E+00  0.9600E+00
     -4.917  0.0000E+00  0.9600E+00
     -4.710  0.0000E+00  0.9600E+00
     -4.503  0.0000E+00  0.9600E+00
     -4.297  0.0000E+00  0.9600E+00
     -4.090  0.0000E+00  0.9600E+00
     -3.883  0.0000E+00  0.9600E+00
     -3.676  0.0000E+00  0.9600E+00
     -3.469  0.0000E+00  0.9600E+00
     -3.263  0.0000E+00  0.9600E+00
     -3.056  0.0000E+00  0.9600E+00
     -2.849  0.0000E+00  0.9600E+00
     -2.642  0.0000E+00  0.9600E+00
     -2.435  0.0000E+00  0.9600E+00
     -2.229  0.0000E+00  0.9600E+00
     -2.022 -0.9271E-38  0.9600E+00
     -1.815 -0.3953E-30  0.9600E+00
     -1.608 -0.1794E-23  0.9600E+00
     -1.401 -0.9319E-18  0.9600E+00
     -1.195 -0.5898E-13  0.9600E+00
     -0.988 -0.4404E-09  0.9600E+00
     -0.781 -0.3898E-06  0.9600E+00
     -0.574 -0.3998E-04  0.9600E+00
     -0.367 -0.3481E-03  0.9599E+00
     -0.161  0.2816E-02  0.9605E+00
      0.046  0.1682E-01  0.9640E+00
      0.253  0.2618E-01  0.9694E+00
      0.460  0.3682E-01  0.9770E+00
      0.667  0.4298E-01  0.9859E+00
      0.873  0.3897E-01  0.9940E+00
      1.080  0.5281E-01  0.1005E+01
      1.287  0.5893E-01  0.1017E+01
      1.494  0.6478E-01  0.1030E+01
      1.701  0.7370E-01  0.1046E+01
      1.907  0.8587E-01  0.1063E+01
      2.114  0.1061E+00  0.1085E+01
      2.321  0.1293E+00  0.1112E+01
      2.528  0.1846E+00  0.1150E+01
      2.735  0.3245E+00  0.1217E+01
      2.941  0.4322E+00  0.1307E+01
      3.148  0.5019E+00  0.1411E+01
      3.355  0.5461E+00  0.1524E+01
      3.562  0.5888E+00  0.1645E+01
      3.768  0.5797E+00  0.1765E+01
      3.975  0.5606E+00  0.1881E+01
      4.182  0.5901E+00  0.2003E+01
      4.389  0.5665E+00  0.2120E+01
      4.596  0.5553E+00  0.2235E+01
      4.802  0.6609E+00  0.2372E+01
      5.009  0.7881E+00  0.2535E+01
      5.216  0.8237E+00  0.2705E+01
      5.423  0.8092E+00  0.2872E+01
      5.630  0.8018E+00  0.3038E+01
      5.836  0.8250E+00  0.3209E+01
      6.043  0.8595E+00  0.3387E+01
      6.250  0.8599E+00  0.3564E+01
      6.457  0.8367E+00  0.3737E+01
      6.664  0.7331E+00  0.3889E+01
      6.870  0.6441E+00  0.4022E+01
      7.077  0.5530E+00  0.4137E+01
      7.284  0.4624E+00  0.4232E+01
      7.491  0.4027E+00  0.4315E+01
      7.698  0.3959E+00  0.4397E+01
      7.904  0.4031E+00  0.4481E+01
      8.111  0.4936E+00  0.4583E+01
      8.318  0.5488E+00  0.4696E+01
      8.525  0.3812E+00  0.4775E+01
      8.732  0.1178E+00  0.4799E+01
      8.938  0.5134E-02  0.4800E+01
      9.145 -0.2212E-02  0.4800E+01
      9.352 -0.1473E-03  0.4800E+01
      9.559 -0.1333E-05  0.4800E+01
      9.766 -0.1658E-08  0.4800E+01
      9.972 -0.2605E-12  0.4800E+01
     10.179 -0.4758E-17  0.4800E+01
     10.386  0.0000E+00  0.4800E+01
     10.593  0.0000E+00  0.4800E+01
     10.800  0.0000E+00  0.4800E+01
     11.006  0.0000E+00  0.4800E+01
     11.213  0.0000E+00  0.4800E+01
     11.420  0.0000E+00  0.4800E+01
     11.627  0.0000E+00  0.4800E+01
