   29   29   50    1
  0.1632129E+02  0.5473281E-09  0.8209921E-09  0.1128346E-08  0.5000000E-15
  1.000000000000000E-004
  CAR 
 Nb - Mo - Ta - Ti - V SQS               
    192    172    120
 
  0.0000000E+00  0.0000000E+00  0.0000000E+00  0.2915452E-02
    1      -47.592281   1.000000
    2      -47.472849   1.000000
    3      -47.427623   1.000000
    4      -47.388523   1.000000
    5      -47.303318   1.000000
    6      -47.283158   1.000000
    7      -24.398603   1.000000
    8      -24.005430   1.000000
    9      -23.956350   1.000000
   10      -23.850652   1.000000
   11      -23.741646   1.000000
   12      -23.663159   1.000000
   13      -23.628175   1.000000
   14      -23.599790   1.000000
   15      -23.579106   1.000000
   16      -23.556335   1.000000
   17      -23.494093   1.000000
   18      -23.465169   1.000000
   19      -23.459429   1.000000
   20      -23.456939   1.000000
   21      -23.347523   1.000000
   22      -23.219109   1.000000
   23      -23.145940   1.000000
   24      -22.866643   1.000000
   25       -0.221540   1.000000
   26        1.026354   1.000000
   27        1.425637   1.000000
   28        2.215316   1.000000
   29        2.366213   1.000000
   30        2.461965   1.000000
   31        2.531601   1.000000
   32        2.715423   1.000000
   33        2.755337   1.000000
   34        2.811768   1.000000
   35        2.843145   1.000000
   36        2.911626   1.000000
   37        2.972001   1.000000
   38        3.037173   1.000000
   39        3.064895   1.000000
   40        3.152464   1.000000
   41        3.210107   1.000000
   42        3.353893   1.000000
   43        3.487274   1.000000
   44        3.528214   1.000000
   45        3.603135   1.000000
   46        3.637621   1.000000
   47        3.722925   1.000000
   48        3.801560   1.000000
   49        3.902146   1.000000
   50        4.006862   1.000000
   51        4.097714   1.000000
   52        4.132468   1.000000
   53        4.201255   1.000000
   54        4.276608   1.000000
   55        4.338648   1.000000
   56        4.368807   1.000000
   57        4.479847   1.000000
   58        4.533568   1.000000
   59        4.669629   1.000000
   60        4.718658   1.000000
   61        4.754142   1.000000
   62        4.788455   1.000000
   63        4.848078   1.000000
   64        4.888101   1.000000
   65        4.928879   1.000000
   66        4.937212   1.000000
   67        5.020399   1.000000
   68        5.099370   1.000000
   69        5.173988   1.000000
   70        5.261202   1.000000
   71        5.319516   1.000000
   72        5.355875   1.000000
   73        5.385156   1.000000
   74        5.485540   1.000000
   75        5.496912   1.000000
   76        5.519431   1.000000
   77        5.672006   1.000000
   78        5.768757   1.000000
   79        5.811937   1.000000
   80        5.914892   1.000009
   81        5.924047   1.000012
   82        5.959478   1.000035
   83        6.073583   1.000741
   84        6.111256   1.001721
   85        6.147820   1.003600
   86        6.177660   1.006183
   87        6.238795   1.015555
   88        6.282077   1.025149
   89        6.324668   1.033660
   90        6.371202   1.033070
   91        6.411273   1.012925
   92        6.569905   0.597306
   93        6.587840   0.522135
   94        6.615045   0.407646
   95        6.674981   0.183545
   96        6.689005   0.141276
   97        6.861064  -0.033718
   98        6.905918  -0.024722
   99        6.956028  -0.013870
  100        6.980064  -0.009808
  101        7.066537  -0.002052
  102        7.181074  -0.000130
  103        7.230906  -0.000031
  104        7.301919  -0.000003
  105        7.383065  -0.000000
  106        7.461629  -0.000000
  107        7.627836  -0.000000
  108        7.736642  -0.000000
  109        7.962349  -0.000000
  110        7.996204  -0.000000
  111        8.155884  -0.000000
  112        8.242302  -0.000000
  113        8.277813  -0.000000
  114        8.395957  -0.000000
  115        8.462199  -0.000000
  116        8.512440  -0.000000
  117        8.557800  -0.000000
  118        8.629800  -0.000000
  119        8.703244  -0.000000
  120        8.749218  -0.000000
 
  0.1428571E+00  0.0000000E+00 -0.1561251E-16  0.5830904E-02
    1      -47.586197   1.000000
    2      -47.472053   1.000000
    3      -47.427155   1.000000
    4      -47.388250   1.000000
    5      -47.310449   1.000000
    6      -47.283150   1.000000
    7      -24.334315   1.000000
    8      -24.002020   1.000000
    9      -23.953798   1.000000
   10      -23.849562   1.000000
   11      -23.735339   1.000000
   12      -23.665433   1.000000
   13      -23.629655   1.000000
   14      -23.602502   1.000000
   15      -23.580716   1.000000
   16      -23.559187   1.000000
   17      -23.501106   1.000000
   18      -23.466599   1.000000
   19      -23.462101   1.000000
   20      -23.459578   1.000000
   21      -23.348623   1.000000
   22      -23.220966   1.000000
   23      -23.148847   1.000000
   24      -22.943145   1.000000
   25       -0.052651   1.000000
   26        1.180043   1.000000
   27        1.570394   1.000000
   28        2.258279   1.000000
   29        2.482716   1.000000
   30        2.582753   1.000000
   31        2.643893   1.000000
   32        2.802023   1.000000
   33        2.820858   1.000000
   34        2.864852   1.000000
   35        2.986857   1.000000
   36        3.024496   1.000000
   37        3.068623   1.000000
   38        3.151820   1.000000
   39        3.178023   1.000000
   40        3.249166   1.000000
   41        3.311914   1.000000
   42        3.405068   1.000000
   43        3.489687   1.000000
   44        3.543721   1.000000
   45        3.657928   1.000000
   46        3.740543   1.000000
   47        3.781144   1.000000
   48        3.892087   1.000000
   49        3.947319   1.000000
   50        4.073068   1.000000
   51        4.105046   1.000000
   52        4.158509   1.000000
   53        4.237543   1.000000
   54        4.331050   1.000000
   55        4.383977   1.000000
   56        4.469452   1.000000
   57        4.522103   1.000000
   58        4.584089   1.000000
   59        4.666172   1.000000
   60        4.715898   1.000000
   61        4.767678   1.000000
   62        4.837589   1.000000
   63        4.883690   1.000000
   64        4.945636   1.000000
   65        4.990149   1.000000
   66        5.019646   1.000000
   67        5.102117   1.000000
   68        5.142702   1.000000
   69        5.187198   1.000000
   70        5.255767   1.000000
   71        5.323927   1.000000
   72        5.391588   1.000000
   73        5.449999   1.000000
   74        5.518692   1.000000
   75        5.542539   1.000000
   76        5.584706   1.000000
   77        5.628001   1.000000
   78        5.693277   1.000000
   79        5.824166   1.000000
   80        5.875165   1.000002
   81        5.941564   1.000021
   82        5.960463   1.000036
   83        6.008533   1.000143
   84        6.084615   1.000957
   85        6.099547   1.001337
   86        6.154259   1.004065
   87        6.190409   1.007656
   88        6.242367   1.016280
   89        6.309118   1.031027
   90        6.336791   1.035000
   91        6.380455   1.030496
   92        6.418820   1.006100
   93        6.487928   0.883899
   94        6.537970   0.723637
   95        6.576638   0.569282
   96        6.644042   0.291903
   97        6.743760   0.022842
   98        6.868618  -0.032555
   99        6.899006  -0.026311
  100        6.958329  -0.013442
  101        7.014716  -0.005549
  102        7.044890  -0.003172
  103        7.139300  -0.000388
  104        7.220376  -0.000043
  105        7.271599  -0.000009
  106        7.357670  -0.000000
  107        7.440706  -0.000000
  108        7.675729  -0.000000
  109        7.783237  -0.000000
  110        7.901548  -0.000000
  111        7.995096  -0.000000
  112        8.076461  -0.000000
  113        8.133045  -0.000000
  114        8.235060  -0.000000
  115        8.259897  -0.000000
  116        8.342441  -0.000000
  117        8.367514  -0.000000
  118        8.439641  -0.000000
  119        8.508784  -0.000000
  120        8.575769  -0.000000
 
  0.2857143E+00  0.1387779E-16  0.3469447E-17  0.5830904E-02
    1      -47.571531   1.000000
    2      -47.469746   1.000000
    3      -47.426069   1.000000
    4      -47.387636   1.000000
    5      -47.328020   1.000000
    6      -47.283135   1.000000
    7      -24.162443   1.000000
    8      -23.989404   1.000000
    9      -23.943523   1.000000
   10      -23.846962   1.000000
   11      -23.720442   1.000000
   12      -23.669364   1.000000
   13      -23.634065   1.000000
   14      -23.608187   1.000000
   15      -23.583764   1.000000
   16      -23.565937   1.000000
   17      -23.518435   1.000000
   18      -23.473218   1.000000
   19      -23.467138   1.000000
   20      -23.463701   1.000000
   21      -23.354849   1.000000
   22      -23.227681   1.000000
   23      -23.160686   1.000000
   24      -23.139634   1.000000
   25        0.425831   1.000000
   26        1.590869   1.000000
   27        1.955154   1.000000
   28        2.399415   1.000000
   29        2.614583   1.000000
   30        2.780824   1.000000
   31        2.860752   1.000000
   32        2.943310   1.000000
   33        3.033011   1.000000
   34        3.117739   1.000000
   35        3.226590   1.000000
   36        3.261454   1.000000
   37        3.279178   1.000000
   38        3.305591   1.000000
   39        3.418620   1.000000
   40        3.491955   1.000000
   41        3.535569   1.000000
   42        3.563096   1.000000
   43        3.644918   1.000000
   44        3.719121   1.000000
   45        3.782195   1.000000
   46        3.871585   1.000000
   47        3.928548   1.000000
   48        4.023057   1.000000
   49        4.082766   1.000000
   50        4.135230   1.000000
   51        4.219639   1.000000
   52        4.291676   1.000000
   53        4.427466   1.000000
   54        4.456228   1.000000
   55        4.516702   1.000000
   56        4.576343   1.000000
   57        4.612012   1.000000
   58        4.700062   1.000000
   59        4.737318   1.000000
   60        4.779123   1.000000
   61        4.843961   1.000000
   62        4.929808   1.000000
   63        4.981653   1.000000
   64        5.040119   1.000000
   65        5.074435   1.000000
   66        5.137821   1.000000
   67        5.164048   1.000000
   68        5.198782   1.000000
   69        5.272211   1.000000
   70        5.337018   1.000000
   71        5.393455   1.000000
   72        5.420239   1.000000
   73        5.473651   1.000000
   74        5.521470   1.000000
   75        5.580104   1.000000
   76        5.609066   1.000000
   77        5.657100   1.000000
   78        5.689671   1.000000
   79        5.741961   1.000000
   80        5.791319   1.000000
   81        5.851765   1.000001
   82        5.892098   1.000004
   83        5.936698   1.000018
   84        5.971704   1.000051
   85        6.039110   1.000319
   86        6.090673   1.001097
   87        6.149447   1.003713
   88        6.220966   1.012215
   89        6.256594   1.019321
   90        6.296546   1.028419
   91        6.336211   1.034954
   92        6.384206   1.029137
   93        6.414520   1.010124
   94        6.457081   0.952682
   95        6.494002   0.867534
   96        6.547284   0.688232
   97        6.569519   0.598901
   98        6.642833   0.296500
   99        6.667382   0.208339
  100        6.805914  -0.030571
  101        6.851298  -0.034838
  102        6.947497  -0.015526
  103        6.984951  -0.009095
  104        7.058019  -0.002444
  105        7.184880  -0.000117
  106        7.226828  -0.000035
  107        7.252912  -0.000016
  108        7.374731  -0.000000
  109        7.502559  -0.000000
  110        7.567337  -0.000000
  111        7.634047  -0.000000
  112        7.673566  -0.000000
  113        7.772435  -0.000000
  114        7.843563  -0.000000
  115        7.916856  -0.000000
  116        7.964916  -0.000000
  117        8.082808  -0.000000
  118        8.139024  -0.000000
  119        8.257711  -0.000000
  120        8.360728  -0.000000
 
  0.4285714E+00  0.5551115E-16 -0.4163336E-16  0.5830904E-02
    1      -47.558569   1.000000
    2      -47.466965   1.000000
    3      -47.425123   1.000000
    4      -47.387146   1.000000
    5      -47.344309   1.000000
    6      -47.283127   1.000000
    7      -24.032696   1.000000
    8      -23.961901   1.000000
    9      -23.844731   1.000000
   10      -23.837101   1.000000
   11      -23.713307   1.000000
   12      -23.668288   1.000000
   13      -23.638425   1.000000
   14      -23.611621   1.000000
   15      -23.587957   1.000000
   16      -23.572193   1.000000
   17      -23.534579   1.000000
   18      -23.482992   1.000000
   19      -23.473763   1.000000
   20      -23.465158   1.000000
   21      -23.452174   1.000000
   22      -23.321174   1.000000
   23      -23.226117   1.000000
   24      -23.157947   1.000000
   25        1.123846   1.000000
   26        1.870401   1.000000
   27        2.244342   1.000000
   28        2.476642   1.000000
   29        2.568896   1.000000
   30        2.811399   1.000000
   31        2.938922   1.000000
   32        3.154315   1.000000
   33        3.205732   1.000000
   34        3.285168   1.000000
   35        3.337440   1.000000
   36        3.426076   1.000000
   37        3.492981   1.000000
   38        3.542863   1.000000
   39        3.621746   1.000000
   40        3.688255   1.000000
   41        3.740878   1.000000
   42        3.793087   1.000000
   43        3.869179   1.000000
   44        3.878004   1.000000
   45        3.923476   1.000000
   46        4.025753   1.000000
   47        4.100610   1.000000
   48        4.125236   1.000000
   49        4.184079   1.000000
   50        4.253012   1.000000
   51        4.349637   1.000000
   52        4.367881   1.000000
   53        4.480027   1.000000
   54        4.539891   1.000000
   55        4.628282   1.000000
   56        4.658211   1.000000
   57        4.739062   1.000000
   58        4.785398   1.000000
   59        4.830097   1.000000
   60        4.892039   1.000000
   61        4.921941   1.000000
   62        5.003368   1.000000
   63        5.021414   1.000000
   64        5.078784   1.000000
   65        5.090761   1.000000
   66        5.133600   1.000000
   67        5.195925   1.000000
   68        5.246523   1.000000
   69        5.275783   1.000000
   70        5.304166   1.000000
   71        5.339785   1.000000
   72        5.423372   1.000000
   73        5.455913   1.000000
   74        5.473781   1.000000
   75        5.552188   1.000000
   76        5.612106   1.000000
   77        5.667010   1.000000
   78        5.710549   1.000000
   79        5.759196   1.000000
   80        5.822611   1.000000
   81        5.844395   1.000001
   82        5.910482   1.000008
   83        5.932392   1.000015
   84        5.983335   1.000071
   85        6.011671   1.000156
   86        6.056886   1.000497
   87        6.113580   1.001808
   88        6.169177   1.005333
   89        6.213657   1.010989
   90        6.254900   1.018947
   91        6.287818   1.026466
   92        6.313404   1.031832
   93        6.392282   1.025533
   94        6.421457   1.003450
   95        6.474164   0.917552
   96        6.532826   0.742556
   97        6.612006   0.420283
   98        6.650737   0.266885
   99        6.696434   0.120812
  100        6.722615   0.059723
  101        6.780244  -0.017126
  102        6.797536  -0.027291
  103        6.880979  -0.030242
  104        6.928294  -0.019600
  105        7.024859  -0.004628
  106        7.100082  -0.000989
  107        7.170652  -0.000172
  108        7.221790  -0.000041
  109        7.364752  -0.000000
  110        7.411682  -0.000000
  111        7.457694  -0.000000
  112        7.511989  -0.000000
  113        7.625059  -0.000000
  114        7.687594  -0.000000
  115        7.742662  -0.000000
  116        7.801301  -0.000000
  117        7.913452  -0.000000
  118        8.023218  -0.000000
  119        8.082014  -0.000000
  120        8.112208  -0.000000
 
 -0.6938894E-17  0.1428571E+00  0.1040834E-16  0.5830904E-02
    1      -47.592280   1.000000
    2      -47.472839   1.000000
    3      -47.427490   1.000000
    4      -47.388482   1.000000
    5      -47.303317   1.000000
    6      -47.283346   1.000000
    7      -24.398604   1.000000
    8      -24.004915   1.000000
    9      -23.955118   1.000000
   10      -23.848848   1.000000
   11      -23.741661   1.000000
   12      -23.663196   1.000000
   13      -23.628189   1.000000
   14      -23.599873   1.000000
   15      -23.579185   1.000000
   16      -23.556305   1.000000
   17      -23.494104   1.000000
   18      -23.465121   1.000000
   19      -23.459298   1.000000
   20      -23.456920   1.000000
   21      -23.347529   1.000000
   22      -23.220542   1.000000
   23      -23.148663   1.000000
   24      -22.866643   1.000000
   25       -0.154631   1.000000
   26        1.064558   1.000000
   27        1.480973   1.000000
   28        1.979676   1.000000
   29        2.358847   1.000000
   30        2.465510   1.000000
   31        2.552158   1.000000
   32        2.690409   1.000000
   33        2.741705   1.000000
   34        2.828030   1.000000
   35        2.865657   1.000000
   36        2.908535   1.000000
   37        2.927727   1.000000
   38        3.036322   1.000000
   39        3.091787   1.000000
   40        3.119857   1.000000
   41        3.258194   1.000000
   42        3.368239   1.000000
   43        3.471166   1.000000
   44        3.508535   1.000000
   45        3.571061   1.000000
   46        3.661771   1.000000
   47        3.768582   1.000000
   48        3.881960   1.000000
   49        3.944771   1.000000
   50        3.992438   1.000000
   51        4.069938   1.000000
   52        4.125966   1.000000
   53        4.185826   1.000000
   54        4.295655   1.000000
   55        4.326133   1.000000
   56        4.444563   1.000000
   57        4.509609   1.000000
   58        4.587759   1.000000
   59        4.645010   1.000000
   60        4.718984   1.000000
   61        4.750208   1.000000
   62        4.846229   1.000000
   63        4.871527   1.000000
   64        4.891296   1.000000
   65        4.937649   1.000000
   66        4.999530   1.000000
   67        5.043930   1.000000
   68        5.138883   1.000000
   69        5.194663   1.000000
   70        5.228048   1.000000
   71        5.291484   1.000000
   72        5.352904   1.000000
   73        5.379255   1.000000
   74        5.468405   1.000000
   75        5.513603   1.000000
   76        5.586803   1.000000
   77        5.639844   1.000000
   78        5.752598   1.000000
   79        5.831112   1.000000
   80        5.862592   1.000002
   81        5.908490   1.000007
   82        5.956223   1.000032
   83        6.020396   1.000196
   84        6.086023   1.000988
   85        6.117084   1.001947
   86        6.185386   1.007047
   87        6.226651   1.013228
   88        6.256767   1.019359
   89        6.312245   1.031620
   90        6.328949   1.034219
   91        6.371947   1.032902
   92        6.426515   0.997967
   93        6.515803   0.801472
   94        6.556757   0.650890
   95        6.637074   0.318720
   96        6.723365   0.058228
   97        6.862287  -0.033545
   98        6.910807  -0.023590
   99        6.989505  -0.008465
  100        7.019657  -0.005083
  101        7.112553  -0.000741
  102        7.224002  -0.000038
  103        7.258002  -0.000014
  104        7.332189  -0.000001
  105        7.402216  -0.000000
  106        7.517295  -0.000000
  107        7.591322  -0.000000
  108        7.694797  -0.000000
  109        7.837060  -0.000000
  110        7.922495  -0.000000
  111        8.111448  -0.000000
  112        8.232629  -0.000000
  113        8.267250  -0.000000
  114        8.331569  -0.000000
  115        8.409039  -0.000000
  116        8.445637  -0.000000
  117        8.488308  -0.000000
  118        8.564451  -0.000000
  119        8.623393  -0.000000
  120        8.672929  -0.000000
 
  0.1428571E+00  0.1428571E+00 -0.1387779E-16  0.5830904E-02
    1      -47.586198   1.000000
    2      -47.472062   1.000000
    3      -47.427281   1.000000
    4      -47.388292   1.000000
    5      -47.310449   1.000000
    6      -47.282971   1.000000
    7      -24.334314   1.000000
    8      -24.002595   1.000000
    9      -23.954910   1.000000
   10      -23.851323   1.000000
   11      -23.735348   1.000000
   12      -23.665400   1.000000
   13      -23.629666   1.000000
   14      -23.602491   1.000000
   15      -23.580735   1.000000
   16      -23.559172   1.000000
   17      -23.501106   1.000000
   18      -23.466674   1.000000
   19      -23.462060   1.000000
   20      -23.459576   1.000000
   21      -23.348618   1.000000
   22      -23.219535   1.000000
   23      -23.146300   1.000000
   24      -22.943149   1.000000
   25       -0.050800   1.000000
   26        1.162533   1.000000
   27        1.584055   1.000000
   28        2.253350   1.000000
   29        2.470242   1.000000
   30        2.574711   1.000000
   31        2.639992   1.000000
   32        2.746213   1.000000
   33        2.826546   1.000000
   34        2.886264   1.000000
   35        2.915903   1.000000
   36        2.981774   1.000000
   37        3.037396   1.000000
   38        3.128453   1.000000
   39        3.164426   1.000000
   40        3.220891   1.000000
   41        3.298806   1.000000
   42        3.423707   1.000000
   43        3.518479   1.000000
   44        3.558922   1.000000
   45        3.640790   1.000000
   46        3.735311   1.000000
   47        3.801534   1.000000
   48        3.901450   1.000000
   49        3.972090   1.000000
   50        4.043714   1.000000
   51        4.117610   1.000000
   52        4.221947   1.000000
   53        4.253666   1.000000
   54        4.382286   1.000000
   55        4.417911   1.000000
   56        4.446842   1.000000
   57        4.535241   1.000000
   58        4.598273   1.000000
   59        4.684963   1.000000
   60        4.740783   1.000000
   61        4.778934   1.000000
   62        4.844919   1.000000
   63        4.856917   1.000000
   64        4.935461   1.000000
   65        4.957783   1.000000
   66        5.003104   1.000000
   67        5.067065   1.000000
   68        5.127363   1.000000
   69        5.158737   1.000000
   70        5.251697   1.000000
   71        5.318221   1.000000
   72        5.370058   1.000000
   73        5.433419   1.000000
   74        5.469191   1.000000
   75        5.512682   1.000000
   76        5.600488   1.000000
   77        5.639345   1.000000
   78        5.706370   1.000000
   79        5.793565   1.000000
   80        5.855737   1.000001
   81        5.872292   1.000002
   82        5.919601   1.000010
   83        6.020798   1.000199
   84        6.067106   1.000636
   85        6.105229   1.001513
   86        6.172540   1.005658
   87        6.217704   1.011657
   88        6.255975   1.019184
   89        6.310928   1.031373
   90        6.366273   1.034027
   91        6.429137   0.994913
   92        6.460720   0.945808
   93        6.515955   0.800972
   94        6.569485   0.599041
   95        6.618548   0.393167
   96        6.685531   0.151311
   97        6.767502  -0.006273
   98        6.835613  -0.035435
   99        6.907655  -0.024320
  100        6.947470  -0.015531
  101        7.023284  -0.004762
  102        7.047532  -0.003013
  103        7.137759  -0.000403
  104        7.190094  -0.000101
  105        7.285182  -0.000006
  106        7.374812  -0.000000
  107        7.454650  -0.000000
  108        7.613372  -0.000000
  109        7.768062  -0.000000
  110        7.880826  -0.000000
  111        8.002996  -0.000000
  112        8.132666  -0.000000
  113        8.243842  -0.000000
  114        8.301174  -0.000000
  115        8.330068  -0.000000
  116        8.441171  -0.000000
  117        8.492973  -0.000000
  118        8.573985  -0.000000
  119        8.602201  -0.000000
  120        8.677255  -0.000000
 
  0.2857143E+00  0.1428571E+00  0.2775558E-16  0.5830904E-02
    1      -47.571532   1.000000
    2      -47.469768   1.000000
    3      -47.426354   1.000000
    4      -47.387732   1.000000
    5      -47.328019   1.000000
    6      -47.282724   1.000000
    7      -24.162443   1.000000
    8      -23.991439   1.000000
    9      -23.945186   1.000000
   10      -23.851186   1.000000
   11      -23.720429   1.000000
   12      -23.669309   1.000000
   13      -23.634087   1.000000
   14      -23.608125   1.000000
   15      -23.583741   1.000000
   16      -23.565920   1.000000
   17      -23.518431   1.000000
   18      -23.473262   1.000000
   19      -23.467127   1.000000
   20      -23.463850   1.000000
   21      -23.354829   1.000000
   22      -23.224269   1.000000
   23      -23.156131   1.000000
   24      -23.138420   1.000000
   25        0.367585   1.000000
   26        1.514097   1.000000
   27        1.921762   1.000000
   28        2.493497   1.000000
   29        2.589328   1.000000
   30        2.742749   1.000000
   31        2.881194   1.000000
   32        2.964747   1.000000
   33        3.002022   1.000000
   34        3.130440   1.000000
   35        3.167697   1.000000
   36        3.209437   1.000000
   37        3.289086   1.000000
   38        3.338497   1.000000
   39        3.371593   1.000000
   40        3.453854   1.000000
   41        3.484318   1.000000
   42        3.585851   1.000000
   43        3.605912   1.000000
   44        3.747609   1.000000
   45        3.818701   1.000000
   46        3.886358   1.000000
   47        3.957300   1.000000
   48        3.997761   1.000000
   49        4.072839   1.000000
   50        4.132757   1.000000
   51        4.235061   1.000000
   52        4.318275   1.000000
   53        4.436064   1.000000
   54        4.455370   1.000000
   55        4.530481   1.000000
   56        4.582333   1.000000
   57        4.623607   1.000000
   58        4.676585   1.000000
   59        4.749686   1.000000
   60        4.796876   1.000000
   61        4.867126   1.000000
   62        4.885330   1.000000
   63        4.952180   1.000000
   64        4.997247   1.000000
   65        5.052377   1.000000
   66        5.100584   1.000000
   67        5.143378   1.000000
   68        5.173429   1.000000
   69        5.245708   1.000000
   70        5.296148   1.000000
   71        5.350215   1.000000
   72        5.398267   1.000000
   73        5.454088   1.000000
   74        5.490832   1.000000
   75        5.587979   1.000000
   76        5.613632   1.000000
   77        5.675725   1.000000
   78        5.701585   1.000000
   79        5.759023   1.000000
   80        5.850099   1.000001
   81        5.905958   1.000007
   82        5.955483   1.000031
   83        5.999562   1.000112
   84        6.016182   1.000176
   85        6.039109   1.000319
   86        6.076753   1.000798
   87        6.169543   1.005367
   88        6.201800   1.009182
   89        6.211413   1.010629
   90        6.286825   1.026240
   91        6.308753   1.030956
   92        6.339556   1.035191
   93        6.396380   1.023325
   94        6.456752   0.953287
   95        6.485312   0.890661
   96        6.547088   0.688991
   97        6.553492   0.663899
   98        6.625150   0.366188
   99        6.692294   0.132050
  100        6.774397  -0.012527
  101        6.813213  -0.032669
  102        6.890617  -0.028196
  103        7.005337  -0.006525
  104        7.090392  -0.001229
  105        7.157661  -0.000243
  106        7.256304  -0.000014
  107        7.287007  -0.000005
  108        7.457860  -0.000000
  109        7.523730  -0.000000
  110        7.586878  -0.000000
  111        7.754743  -0.000000
  112        7.873058  -0.000000
  113        7.958609  -0.000000
  114        7.990622  -0.000000
  115        8.070848  -0.000000
  116        8.152310  -0.000000
  117        8.200098  -0.000000
  118        8.276928  -0.000000
  119        8.378024  -0.000000
  120        8.459022  -0.000000
 
  0.4285714E+00  0.1428571E+00 -0.2081668E-16  0.5830904E-02
    1      -47.558571   1.000000
    2      -47.466983   1.000000
    3      -47.425350   1.000000
    4      -47.387227   1.000000
    5      -47.344308   1.000000
    6      -47.282796   1.000000
    7      -24.032965   1.000000
    8      -23.964419   1.000000
    9      -23.848378   1.000000
   10      -23.837128   1.000000
   11      -23.713275   1.000000
   12      -23.668286   1.000000
   13      -23.638460   1.000000
   14      -23.611582   1.000000
   15      -23.587925   1.000000
   16      -23.572173   1.000000
   17      -23.534590   1.000000
   18      -23.482996   1.000000
   19      -23.473754   1.000000
   20      -23.465289   1.000000
   21      -23.452179   1.000000
   22      -23.321105   1.000000
   23      -23.222497   1.000000
   24      -23.154125   1.000000
   25        1.030842   1.000000
   26        1.888227   1.000000
   27        2.183910   1.000000
   28        2.396690   1.000000
   29        2.620117   1.000000
   30        2.692425   1.000000
   31        2.965001   1.000000
   32        3.215729   1.000000
   33        3.253992   1.000000
   34        3.337854   1.000000
   35        3.358582   1.000000
   36        3.422029   1.000000
   37        3.495323   1.000000
   38        3.576806   1.000000
   39        3.604146   1.000000
   40        3.674458   1.000000
   41        3.719722   1.000000
   42        3.801869   1.000000
   43        3.850566   1.000000
   44        3.883551   1.000000
   45        3.934441   1.000000
   46        4.012263   1.000000
   47        4.062783   1.000000