 running on   96 total cores
 distrk:  each k-point on   96 cores,    1 groups
 distr:  one band on    8 cores,   12 groups
 using from now: INCAR     
 vasp.5.4.4.18Apr17-6-g9f103f2a35 (build Aug 09 2018 16:20:53) complex          
  
 POSCAR found :  5 types and      29 ions
 scaLAPACK will be used

 ----------------------------------------------------------------------------- 
|                                                                             |
|  ADVICE TO THIS USER RUNNING 'VASP/VAMP'   (HEAR YOUR MASTER'S VOICE ...):  |
|                                                                             |
|      You enforced a specific xc-type in the INCAR file,                     |
|      a different type was found on the POTCAR file                          |
|          I HOPE YOU KNOW, WHAT YOU ARE  DOING                               |
|                                                                             |
 ----------------------------------------------------------------------------- 

 LDA part: xc-table for Pade appr. of Perdew
 POSCAR found :  5 types and      29 ions
 POSCAR, INCAR and KPOINTS ok, starting setup
 FFT: planning ...
 WAVECAR not read
 initial charge from wavefunction
 entering main loop
       N       E                     dE             d eps       ncg     rms          rms(c)
DAV:   1    -0.422090234294E+04   -0.42209E+04   -0.16597E+05 61740   0.198E+03
DAV:   2    -0.975970080978E+04   -0.55388E+04   -0.53326E+04 74652   0.126E+03
DAV:   3    -0.106732495723E+05   -0.91355E+03   -0.85731E+03 82560   0.546E+02
DAV:   4    -0.109548545194E+05   -0.28160E+03   -0.25256E+03 82560   0.250E+02
DAV:   5    -0.111338958368E+05   -0.17904E+03   -0.16174E+03 82560   0.187E+02    0.688E+03
DAV:   6    -0.134929453516E+04    0.97846E+04   -0.26981E+04 62676   0.652E+02    0.307E+03
DAV:   7    -0.103322573864E+04    0.31607E+03   -0.17783E+04 76332   0.566E+02    0.234E+03
DAV:   8    -0.767461333710E+03    0.26576E+03   -0.51094E+03 72720   0.360E+02    0.208E+03
DAV:   9    -0.653594403228E+03    0.11387E+03   -0.90841E+02 70920   0.954E+01    0.198E+03
DAV:  10    -0.632877346853E+03    0.20717E+02   -0.20968E+02 74700   0.557E+01    0.193E+03
DAV:  11    -0.622472074708E+03    0.10405E+02   -0.43674E+01 77424   0.251E+01    0.192E+03
DAV:  12    -0.665232926835E+03   -0.42761E+02   -0.60364E+02 67644   0.154E+02    0.176E+03
DAV:  13    -0.608318145485E+03    0.56915E+02   -0.10481E+03 73308   0.792E+01    0.126E+03
DAV:  14    -0.607146364170E+03    0.11718E+01   -0.34130E+03 66516   0.297E+02    0.797E+02
DAV:  15    -0.463787782248E+03    0.14336E+03   -0.12919E+03 66696   0.205E+02    0.496E+02
DAV:  16    -0.506915149004E+03   -0.43127E+02   -0.89933E+02 74304   0.892E+01    0.353E+02
DAV:  17    -0.426574519227E+03    0.80341E+02   -0.68000E+02 72156   0.132E+02    0.263E+02
DAV:  18    -0.344463382805E+03    0.82111E+02   -0.53276E+02 80208   0.904E+01    0.166E+02
DAV:  19    -0.322862224670E+03    0.21601E+02   -0.21534E+02 71448   0.674E+01    0.148E+02
DAV:  20    -0.341845451654E+03   -0.18983E+02   -0.14158E+02 72264   0.527E+01    0.150E+02
DAV:  21    -0.350023281013E+03   -0.81778E+01   -0.88695E+01 70668   0.343E+01    0.153E+02
DAV:  22    -0.333522992936E+03    0.16500E+02   -0.55250E+01 75876   0.324E+01    0.159E+02
DAV:  23    -0.330013875980E+03    0.35091E+01   -0.97244E+01 69504   0.523E+01    0.137E+02
DAV:  24    -0.314608589188E+03    0.15405E+02   -0.96794E+01 76284   0.512E+01    0.109E+02
DAV:  25    -0.309668511340E+03    0.49401E+01   -0.65943E+01 71352   0.318E+01    0.737E+01
DAV:  26    -0.307935609143E+03    0.17329E+01   -0.30281E+01 79740   0.206E+01    0.637E+01
DAV:  27    -0.307141781153E+03    0.79383E+00   -0.55110E+00 80484   0.877E+00    0.576E+01
DAV:  28    -0.307592873981E+03   -0.45109E+00   -0.20193E+00 70860   0.623E+00    0.537E+01
DAV:  29    -0.306993462627E+03    0.59941E+00   -0.13359E+00 72240   0.496E+00    0.492E+01
DAV:  30    -0.306136231303E+03    0.85723E+00   -0.11912E+01 71148   0.133E+01    0.303E+01
DAV:  31    -0.306306929811E+03   -0.17070E+00   -0.61729E+00 72984   0.977E+00    0.241E+01
DAV:  32    -0.305675988292E+03    0.63094E+00   -0.73165E-01 69420   0.317E+00    0.237E+01
DAV:  33    -0.305177205188E+03    0.49878E+00   -0.75223E-01 71220   0.364E+00    0.182E+01
DAV:  34    -0.304782498671E+03    0.39471E+00   -0.10095E+00 71436   0.367E+00    0.159E+01
DAV:  35    -0.303969177221E+03    0.81332E+00   -0.16922E+00 69540   0.529E+00    0.111E+01
DAV:  36    -0.303760285045E+03    0.20889E+00   -0.53468E-01 79188   0.293E+00    0.906E+00
DAV:  37    -0.303842435968E+03   -0.82151E-01   -0.28139E-01 72168   0.191E+00    0.885E+00
DAV:  38    -0.303669757411E+03    0.17268E+00   -0.41573E-01 69228   0.262E+00    0.647E+00
DAV:  39    -0.303730327972E+03   -0.60571E-01   -0.19511E-01 69492   0.169E+00    0.568E+00
DAV:  40    -0.303621858216E+03    0.10847E+00   -0.36907E-01 70416   0.232E+00    0.430E+00
DAV:  41    -0.303614695065E+03    0.71632E-02   -0.10504E-01 79128   0.114E+00    0.368E+00
DAV:  42    -0.303611206228E+03    0.34888E-02   -0.28258E-02 75024   0.612E-01    0.328E+00
DAV:  43    -0.303606941833E+03    0.42644E-02   -0.21044E-02 67572   0.609E-01    0.268E+00
DAV:  44    -0.303604957845E+03    0.19840E-02   -0.44064E-03 67692   0.255E-01    0.215E+00
DAV:  45    -0.303602965118E+03    0.19927E-02   -0.28680E-03 64188   0.234E-01    0.171E+00
DAV:  46    -0.303602182791E+03    0.78233E-03   -0.16465E-03 64536   0.170E-01    0.140E+00
DAV:  47    -0.303601268199E+03    0.91459E-03   -0.90210E-04 51672   0.126E-01    0.105E+00
DAV:  48    -0.303600866835E+03    0.40136E-03   -0.67288E-04 51492   0.101E-01    0.823E-01
DAV:  49    -0.303600506800E+03    0.36004E-03   -0.25647E-04 31668   0.879E-02    0.612E-01
DAV:  50    -0.303600239182E+03    0.26762E-03   -0.60637E-04 47316   0.790E-02    0.476E-01
DAV:  51    -0.303600102312E+03    0.13687E-03   -0.21361E-04 30168   0.680E-02    0.288E-01
DAV:  52    -0.303600044706E+03    0.57606E-04   -0.13375E-04 29244   0.491E-02
   1 F= -.30360004E+03 E0= -.30359325E+03  d E =-.303600E+03
 curvature:   0.00 expect dE= 0.000E+00 dE for cont linesearch  0.000E+00
 trial: gam= 0.00000 g(F)=  0.661E+00 g(S)=  0.590E-01 ort = 0.000E+00 (trialstep = 0.100E+01)
 search vector abs. value=  0.720E+00
 bond charge predicted
       N       E                     dE             d eps       ncg     rms          rms(c)
DAV:   1    -0.303985258201E+03   -0.38516E+00   -0.72944E+01 41280   0.293E+01    0.450E+00
DAV:   2    -0.305457579690E+03   -0.14723E+01   -0.13379E+01 73464   0.208E+01    0.945E+00
DAV:   3    -0.304334517416E+03    0.11231E+01   -0.68162E+00 72864   0.112E+01    0.381E+00
DAV:   4    -0.304309727032E+03    0.24790E-01   -0.21498E+00 70188   0.660E+00    0.402E+00
DAV:   5    -0.304209272963E+03    0.10045E+00   -0.14701E+00 68568   0.571E+00    0.236E+00
DAV:   6    -0.304162127979E+03    0.47145E-01   -0.55049E-01 72096   0.304E+00    0.148E+00
DAV:   7    -0.304160330820E+03    0.17972E-02   -0.41348E-01 74352   0.265E+00    0.161E+00
DAV:   8    -0.304148171720E+03    0.12159E-01   -0.25451E-01 71028   0.222E+00    0.110E+00
DAV:   9    -0.304138753408E+03    0.94183E-02   -0.84183E-02 73512   0.128E+00    0.578E-01
DAV:  10    -0.304137048408E+03    0.17050E-02   -0.28612E-02 71376   0.711E-01    0.502E-01
DAV:  11    -0.304136050578E+03    0.99783E-03   -0.13972E-02 63060   0.491E-01    0.347E-01
DAV:  12    -0.304136417329E+03   -0.36675E-03   -0.70030E-03 69852   0.329E-01    0.259E-01
DAV:  13    -0.304137068434E+03   -0.65110E-03   -0.85917E-03 67404   0.368E-01    0.254E-01
DAV:  14    -0.304136887567E+03    0.18087E-03   -0.83523E-03 62568   0.420E-01    0.212E-01
DAV:  15    -0.304136577602E+03    0.30997E-03   -0.41427E-03 60768   0.288E-01    0.110E-01
DAV:  16    -0.304136449740E+03    0.12786E-03   -0.13320E-03 57576   0.154E-01    0.523E-02
DAV:  17    -0.304136426038E+03    0.23701E-04   -0.26636E-04 33348   0.100E-01
   2 F= -.30413643E+03 E0= -.30413068E+03  d E =-.536381E+00
 trial-energy change:   -0.536381  1 .order   -0.534044   -0.720122   -0.347967
 step:   1.8734(harm=  1.9350)  dis= 0.06283  next Energy=  -304.289932 (dE=-0.690E+00)
 bond charge predicted
       N       E                     dE             d eps       ncg     rms          rms(c)
DAV:   1    -0.304153694951E+03   -0.17245E-01   -0.55604E+01 41280   0.256E+01    0.402E+00
DAV:   2    -0.305244822865E+03   -0.10911E+01   -0.10131E+01 73224   0.183E+01    0.816E+00
DAV:   3    -0.304423824688E+03    0.82100E+00   -0.50520E+00 72396   0.998E+00    0.329E+00
DAV:   4    -0.304406858660E+03    0.16966E-01   -0.16164E+00 69744   0.580E+00    0.345E+00
DAV:   5    -0.304334771338E+03    0.72087E-01   -0.11011E+00 67284   0.501E+00    0.211E+00
DAV:   6    -0.304296364794E+03    0.38407E-01   -0.42505E-01 72324   0.270E+00    0.123E+00
DAV:   7    -0.304298059417E+03   -0.16946E-02   -0.30475E-01 76476   0.229E+00    0.142E+00
DAV:   8    -0.304286462620E+03    0.11597E-01   -0.18821E-01 70932   0.195E+00    0.894E-01
DAV:   9    -0.304280223011E+03    0.62396E-02   -0.55611E-02 72612   0.106E+00    0.482E-01
DAV:  10    -0.304278920072E+03    0.13029E-02   -0.17411E-02 71256   0.563E-01    0.398E-01
DAV:  11    -0.304278632094E+03    0.28798E-03   -0.91548E-03 62580   0.403E-01    0.316E-01
DAV:  12    -0.304278927937E+03   -0.29584E-03   -0.58258E-03 64188   0.318E-01    0.230E-01
DAV:  13    -0.304279378718E+03   -0.45078E-03   -0.69981E-03 66000   0.360E-01    0.223E-01
DAV:  14    -0.304279140741E+03    0.23798E-03   -0.63550E-03 60576   0.378E-01    0.162E-01
DAV:  15    -0.304278946861E+03    0.19388E-03   -0.26613E-03 64644   0.239E-01    0.814E-02
DAV:  16    -0.304278865769E+03    0.81092E-04   -0.69021E-04 49176   0.115E-01
   3 F= -.30427887E+03 E0= -.30427519E+03  d E =-.678821E+00
 curvature:  -0.96 expect dE=-0.720E+00 dE for cont linesearch -0.790E-03
 trial: gam= 1.07110 g(F)=  0.152E+00 g(S)=  0.595E+00 ort =-0.243E-01 (trialstep = 0.556E+00)
 search vector abs. value=  0.152E+01
 bond charge predicted
       N       E                     dE             d eps       ncg     rms          rms(c)
DAV:   1    -0.304751416779E+03   -0.47247E+00   -0.50012E+01 53352   0.290E+01    0.627E+00
DAV:   2    -0.305669985872E+03   -0.91857E+00   -0.11618E+01 72648   0.170E+01    0.939E+00
DAV:   3    -0.304834870325E+03    0.83512E+00   -0.91945E+00 75252   0.130E+01    0.550E+00
DAV:   4    -0.304820888831E+03    0.13981E-01   -0.36061E+00 73920   0.894E+00    0.525E+00
DAV:   5    -0.304584622580E+03    0.23627E+00   -0.24616E+00 68808   0.788E+00    0.267E+00
DAV:   6    -0.304507000281E+03    0.77622E-01   -0.82346E-01 70356   0.412E+00    0.179E+00
DAV:   7    -0.304508966793E+03   -0.19665E-02   -0.53221E-01 71100   0.334E+00    0.185E+00
DAV:   8    -0.304481171372E+03    0.27795E-01   -0.23224E-01 72432   0.228E+00    0.719E-01
DAV:   9    -0.304480477264E+03    0.69411E-03   -0.46532E-02 68628   0.958E-01    0.692E-01
DAV:  10    -0.304478350509E+03    0.21268E-02   -0.22149E-02 67548   0.681E-01    0.458E-01
DAV:  11    -0.304478952421E+03   -0.60191E-03   -0.72334E-03 66036   0.370E-01    0.420E-01
DAV:  12    -0.304480227550E+03   -0.12751E-02   -0.94901E-03 72984   0.413E-01    0.338E-01
DAV:  13    -0.304481771714E+03   -0.15442E-02   -0.16102E-02 65904   0.603E-01    0.372E-01
DAV:  14    -0.304480558484E+03    0.12132E-02   -0.11922E-02 69288   0.478E-01    0.123E-01
DAV:  15    -0.304480511124E+03    0.47360E-04   -0.27211E-03 67356   0.197E-01    0.931E-02
DAV:  16    -0.304480447285E+03    0.63839E-04   -0.10108E-03 52608   0.148E-01    0.684E-02
DAV:  17    -0.304480404285E+03    0.43000E-04   -0.19148E-04 28272   0.977E-02
   4 F= -.30448040E+03 E0= -.30447933E+03  d E =-.201539E+00
 trial-energy change:   -0.201539  1 .order   -0.205148   -0.400950   -0.009346
 step:   0.5702(harm=  0.5694)  dis= 0.03665  next Energy=  -304.480522 (dE=-0.202E+00)
 bond charge predicted
       N       E                     dE             d eps       ncg     rms          rms(c)
DAV:   1    -0.304480618192E+03   -0.17091E-03   -0.31616E-02 54096   0.722E-01    0.152E-01
DAV:   2    -0.304481238435E+03   -0.62024E-03   -0.72515E-03 71412   0.428E-01    0.234E-01
DAV:   3    -0.304480709712E+03    0.52872E-03   -0.57379E-03 63096   0.350E-01    0.130E-01
DAV:   4    -0.304480703959E+03    0.57530E-05   -0.19685E-03 57900   0.213E-01    0.126E-01
DAV:   5    -0.304480550746E+03    0.15321E-03   -0.12628E-03 52716   0.183E-01    0.617E-02
DAV:   6    -0.304480510145E+03    0.40601E-04   -0.36338E-04 38136   0.108E-01
   5 F= -.30448051E+03 E0= -.30447948E+03  d E =-.201644E+00
 curvature:  -0.60 expect dE=-0.811E-01 dE for cont linesearch -0.986E-05
 trial: gam= 0.11958 g(F)=  0.127E+00 g(S)=  0.800E-02 ort = 0.501E-02 (trialstep = 0.559E+00)
 search vector abs. value=  0.158E+00
 bond charge predicted
       N       E                     dE             d eps       ncg     rms          rms(c)
DAV:   1    -0.304526354015E+03   -0.45803E-01   -0.48554E+00 41868   0.698E+00    0.635E-01
DAV:   2    -0.304579996717E+03   -0.53643E-01   -0.43963E-01 69432   0.359E+00    0.168E+00
DAV:   3    -0.304551866342E+03    0.28130E-01   -0.18617E-01 69684   0.229E+00    0.542E-01
DAV:   4    -0.304551232808E+03    0.63353E-03   -0.39744E-02 70236   0.945E-01    0.514E-01
DAV:   5    -0.304549533000E+03    0.16998E-02   -0.23313E-02 64596   0.712E-01    0.344E-01
DAV:   6    -0.304548551485E+03    0.98151E-03   -0.82517E-03 66420   0.411E-01    0.210E-01
DAV:   7    -0.304548927488E+03   -0.37600E-03   -0.85669E-03 68904   0.394E-01    0.277E-01
DAV:   8    -0.304548374265E+03    0.55322E-03   -0.64042E-03 66624   0.344E-01    0.145E-01
DAV:   9    -0.304548119603E+03    0.25466E-03   -0.21238E-03 64104   0.206E-01    0.101E-01
DAV:  10    -0.304548047251E+03    0.72352E-04   -0.98267E-04 50484   0.142E-01
   6 F= -.30454805E+03 E0= -.30454748E+03  d E =-.675371E-01
 ZBRENT: can't locate minimum, use default step
 trial-energy change:   -0.067537  1 .order   -0.067236   -0.076048   -0.058425
 step:   2.2357(harm=  2.4118)  dis= 0.06335  next Energy=  -304.644592 (dE=-0.164E+00)
 bond charge predicted
       N       E                     dE             d eps       ncg     rms          rms(c)
DAV:   1    -0.304461807286E+03    0.86312E-01   -0.43888E+01 43512   0.210E+01    0.191E+00
DAV:   2    -0.304904328830E+03   -0.44252E+00   -0.36877E+00 69828   0.102E+01    0.478E+00
DAV:   3    -0.304677083809E+03    0.22725E+00   -0.16015E+00 71244   0.677E+00    0.164E+00
DAV:   4    -0.304666798956E+03    0.10285E-01   -0.34226E-01 71376   0.275E+00    0.147E+00
DAV:   5    -0.304654288859E+03    0.12510E-01   -0.21504E-01 66432   0.212E+00    0.103E+00
DAV:   6    -0.304645269883E+03    0.90190E-02   -0.78595E-02 69168   0.129E+00    0.597E-01
DAV:   7    -0.304647275140E+03   -0.20053E-02   -0.67953E-02 73680   0.103E+00    0.714E-01
DAV:   8    -0.304643770736E+03    0.35044E-02   -0.50247E-02 75984   0.916E-01    0.445E-01
DAV:   9    -0.304641340614E+03    0.24301E-02   -0.20365E-02 73572   0.633E-01    0.256E-01
DAV:  10    -0.304640916270E+03    0.42434E-03   -0.60073E-03 65100   0.350E-01    0.165E-01
DAV:  11    -0.304640849197E+03    0.67073E-04   -0.30599E-03 64428   0.234E-01    0.136E-01
DAV:  12    -0.304640786352E+03    0.62845E-04   -0.20300E-03 56748   0.204E-01    0.108E-01
DAV:  13    -0.304640720367E+03    0.65985E-04   -0.11175E-03 52260   0.161E-01    0.668E-02
DAV:  14    -0.304640686299E+03    0.34068E-04   -0.39673E-04 39528   0.119E-01
   7 F= -.30464069E+03 E0= -.30464158E+03  d E =-.160176E+00
 curvature:  -1.39 expect dE=-0.774E-01 dE for cont linesearch -0.791E-04
 trial: gam= 0.38426 g(F)=  0.546E-01 g(S)=  0.102E-02 ort = 0.300E-02 (trialstep = 0.894E+00)
 search vector abs. value=  0.813E-01
 bond charge predicted
       N       E                     dE             d eps       ncg     rms          rms(c)
DAV:   1    -0.304664659230E+03   -0.23939E-01   -0.50214E+00 41280   0.707E+00    0.769E-01
DAV:   2    -0.304724334906E+03   -0.59676E-01   -0.54848E-01 70992   0.410E+00    0.184E+00
DAV:   3    -0.304690745663E+03    0.33589E-01   -0.24286E-01 69336   0.243E+00    0.744E-01
DAV:   4    -0.304687595654E+03    0.31500E-02   -0.61703E-02 71064   0.114E+00    0.554E-01
DAV:   5    -0.304685271877E+03    0.23238E-02   -0.26971E-02 66072   0.778E-01    0.357E-01
DAV:   6    -0.304684234429E+03    0.10374E-02   -0.10289E-02 66540   0.456E-01    0.238E-01
DAV:   7    -0.304684730670E+03   -0.49624E-03   -0.10669E-02 67404   0.479E-01    0.322E-01
DAV:   8    -0.304684089945E+03    0.64072E-03   -0.94215E-03 64200   0.438E-01    0.198E-01
DAV:   9    -0.304683716809E+03    0.37314E-03   -0.37598E-03 61980   0.276E-01    0.133E-01
DAV:  10    -0.304683568870E+03    0.14794E-03   -0.13423E-03 55128   0.167E-01    0.661E-02
DAV:  11    -0.304683542505E+03    0.26365E-04   -0.25718E-04 33264   0.974E-02
   8 F= -.30468354E+03 E0= -.30468516E+03  d E =-.428562E-01
 trial-energy change:   -0.042856  1 .order   -0.042832   -0.050790   -0.034874
 step:   2.8538(harm=  2.8538)  dis= 0.04551  next Energy=  -304.721726 (dE=-0.810E-01)
 bond charge predicted
       N       E                     dE             d eps       ncg     rms          rms(c)
DAV:   1    -0.304628662875E+03    0.54906E-01   -0.24107E+01 41292   0.155E+01    0.166E+00
DAV:   2    -0.304890141302E+03   -0.26148E+00   -0.25124E+00 70728   0.894E+00    0.373E+00
DAV:   3    -0.304750944592E+03    0.13920E+00   -0.10429E+00 68976   0.508E+00    0.157E+00
DAV:   4    -0.304735855430E+03    0.15089E-01   -0.27786E-01 71196   0.246E+00    0.117E+00
DAV:   5    -0.304727047975E+03    0.88075E-02   -0.13098E-01 65760   0.176E+00    0.826E-01
DAV:   6    -0.304721025367E+03    0.60226E-02   -0.52303E-02 69012   0.101E+00    0.472E-01
DAV:   7    -0.304722890401E+03   -0.18650E-02   -0.40118E-02 78528   0.897E-01    0.593E-01
DAV:   8    -0.304720630137E+03    0.22603E-02   -0.35076E-02 74796   0.888E-01    0.426E-01
DAV:   9    -0.304718858048E+03    0.17721E-02   -0.16494E-02 70452   0.578E-01    0.268E-01
DAV:  10    -0.304718248980E+03    0.60907E-03   -0.53890E-03 62148   0.304E-01    0.125E-01
DAV:  11    -0.304718243091E+03    0.58891E-05   -0.15529E-03 55380   0.179E-01    0.111E-01
DAV:  12    -0.304718203649E+03    0.39442E-04   -0.84120E-04 50844   0.137E-01
   9 F= -.30471820E+03 E0= -.30472129E+03  d E =-.775173E-01
 curvature:  -2.04 expect dE=-0.138E+00 dE for cont linesearch -0.659E-03
 trial: gam= 1.23065 g(F)=  0.421E-01 g(S)=  0.252E-01 ort =-0.512E-02 (trialstep = 0.588E+00)
 search vector abs. value=  0.178E+00
 bond charge predicted
       N       E                     dE             d eps       ncg     rms          rms(c)
DAV:   1    -0.304747350934E+03   -0.29108E-01   -0.41485E+00 41280   0.764E+00    0.157E+00
DAV:   2    -0.304762094389E+03   -0.14743E-01   -0.45549E-01 69564   0.309E+00    0.117E+00
DAV:   3    -0.304782722315E+03   -0.20628E-01   -0.39676E-01 71280   0.287E+00    0.182E+00
DAV:   4    -0.304753070891E+03    0.29651E-01   -0.19902E-01 67692   0.228E+00    0.866E-01
DAV:   5    -0.304747212023E+03    0.58589E-02   -0.95544E-02 69480   0.146E+00    0.654E-01
DAV:   6    -0.304743851850E+03    0.33602E-02   -0.45038E-02 70008   0.106E+00    0.370E-01
DAV:   7    -0.304742980534E+03    0.87132E-03   -0.17500E-02 71652   0.574E-01    0.287E-01
DAV:   8    -0.304742692662E+03    0.28787E-03   -0.85135E-03 58104   0.421E-01    0.230E-01
DAV:   9    -0.304742405352E+03    0.28731E-03   -0.28473E-03 60612   0.251E-01    0.142E-01
DAV:  10    -0.304742382359E+03    0.22992E-04   -0.92900E-04 51132   0.143E-01
  10 F= -.30474238E+03 E0= -.30474558E+03  d E =-.241787E-01
 trial-energy change:   -0.024179  1 .order   -0.025349   -0.035873   -0.014825
 step:   1.0024(harm=  1.0024)  dis= 0.01597  next Energy=  -304.748774 (dE=-0.306E-01)
 bond charge predicted
       N       E                     dE             d eps       ncg     rms          rms(c)
DAV:   1    -0.304748509997E+03   -0.61046E-02   -0.20597E+00 41280   0.538E+00    0.109E+00
DAV:   2    -0.304757685921E+03   -0.91759E-02   -0.23554E-01 69492   0.227E+00    0.903E-01
DAV:   3    -0.304762335618E+03   -0.46497E-02   -0.19580E-01 70764   0.204E+00    0.116E+00
DAV:   4    -0.304751114804E+03    0.11221E-01   -0.89889E-02 66636   0.150E+00    0.627E-01
DAV:   5    -0.304747960939E+03    0.31539E-02   -0.49164E-02 68964   0.102E+00    0.473E-01
DAV:   6    -0.304746736886E+03    0.12241E-02   -0.24140E-02 68304   0.770E-01    0.327E-01
DAV:   7    -0.304746052788E+03    0.68410E-03   -0.10962E-02 65328   0.474E-01    0.227E-01
DAV:   8    -0.304745754108E+03    0.29868E-03   -0.41015E-03 58992   0.312E-01    0.148E-01
DAV:   9    -0.304745697397E+03    0.56711E-04   -0.12631E-03 56148   0.166E-01    0.117E-01
DAV:  10    -0.304745698509E+03   -0.11124E-05   -0.54133E-04 44388   0.123E-01
  11 F= -.30474570E+03 E0= -.30474899E+03  d E =-.274949E-01
 curvature:  -1.46 expect dE=-0.116E+00 dE for cont linesearch -0.428E-04
 trial: gam= 1.01656 g(F)=  0.429E-01 g(S)=  0.362E-01 ort =-0.228E-02 (trialstep = 0.462E+00)
 search vector abs. value=  0.258E+00
 bond charge predicted
       N       E                     dE             d eps       ncg     rms          rms(c)
DAV:   1    -0.304773372410E+03   -0.27675E-01   -0.30686E+00 42168   0.524E+00    0.652E-01
DAV:   2    -0.304801641499E+03   -0.28269E-01   -0.27950E-01 70296   0.281E+00    0.141E+00
DAV:   3    -0.304782168616E+03    0.19473E-01   -0.14542E-01 69576   0.185E+00    0.615E-01
DAV:   4    -0.304779981700E+03    0.21869E-02   -0.40105E-02 72696   0.885E-01    0.432E-01
DAV:   5    -0.304778471709E+03    0.15100E-02   -0.18615E-02 70284   0.591E-01    0.301E-01
DAV:   6    -0.304777607738E+03    0.86397E-03   -0.12976E-02 71712   0.486E-01    0.221E-01
DAV:   7    -0.304777595649E+03    0.12088E-04   -0.96801E-03 71916   0.442E-01    0.233E-01
DAV:   8    -0.304777086266E+03    0.50938E-03   -0.49606E-03 60012   0.335E-01    0.110E-01
DAV:   9    -0.304776954736E+03    0.13153E-03   -0.11300E-03 53460   0.170E-01    0.670E-02
DAV:  10    -0.304776906678E+03    0.48057E-04   -0.22187E-04 30984   0.998E-02
  12 F= -.30477691E+03 E0= -.30478012E+03  d E =-.312082E-01
 ZBRENT: can't locate minimum, use default step
 trial-energy change:   -0.031208  1 .order   -0.031425   -0.035475   -0.027376
 step:   1.8485(harm=  2.0241)  dis= 0.04046  next Energy=  -304.823386 (dE=-0.777E-01)
 bond charge predicted
       N       E                     dE             d eps       ncg     rms          rms(c)
DAV:   1    -0.304783228711E+03   -0.62740E-02   -0.27510E+01 42168   0.157E+01    0.196E+00
DAV:   2    -0.305103793665E+03   -0.32056E+00   -0.28803E+00 68148   0.945E+00    0.476E+00
DAV:   3    -0.304857328962E+03    0.24646E+00   -0.14219E+00 67236   0.565E+00    0.162E+00
DAV:   4    -0.304843849506E+03    0.13479E-01   -0.31534E-01 77316   0.253E+00    0.122E+00
DAV:   5    -0.304834054030E+03    0.97955E-02   -0.16429E-01 72120   0.175E+00    0.969E-01
DAV:   6    -0.304825499356E+03    0.85547E-02   -0.11775E-01 71532   0.149E+00    0.719E-01
DAV:   7    -0.304826601610E+03   -0.11023E-02   -0.95877E-02 69396   0.142E+00    0.801E-01
DAV:   8    -0.304821791974E+03    0.48096E-02   -0.53651E-02 72348   0.107E+00    0.422E-01
DAV:   9    -0.304820180221E+03    0.16118E-02   -0.14840E-02 63768   0.555E-01    0.253E-01
DAV:  10    -0.304819738360E+03    0.44186E-03   -0.43562E-03 61548   0.297E-01    0.161E-01
DAV:  11    -0.304819718380E+03    0.19980E-04   -0.17853E-03 61152   0.190E-01    0.132E-01
DAV:  12    -0.304819784327E+03   -0.65947E-04   -0.14090E-03 57756   0.174E-01    0.104E-01
DAV:  13    -0.304819824068E+03   -0.39741E-04   -0.17733E-03 57732   0.207E-01    0.100E-01
DAV:  14    -0.304819745660E+03    0.78408E-04   -0.11744E-03 53700   0.183E-01    0.575E-02
DAV:  15    -0.304819698494E+03    0.47166E-04   -0.23415E-04 33048   0.101E-01
  13 F= -.30481970E+03 E0= -.30482276E+03  d E =-.740000E-01
 curvature:  -3.36 expect dE=-0.228E+00 dE for cont linesearch -0.152E-06
 trial: gam= 0.75690 g(F)=  0.615E-01 g(S)=  0.642E-02 ort = 0.108E-03 (trialstep = 0.739E+00)
 search vector abs. value=  0.216E+00
 bond charge predicted
       N       E                     dE             d eps       ncg     rms          rms(c)
DAV:   1    -0.304853238996E+03   -0.33493E-01   -0.62803E+00 42756   0.719E+00    0.741E-01
DAV:   2    -0.304905406030E+03   -0.52167E-01   -0.47110E-01 68016   0.344E+00    0.198E+00
DAV:   3    -0.304870073581E+03    0.35332E-01   -0.23552E-01 67344   0.241E+00    0.614E-01
DAV:   4    -0.304868553900E+03    0.15197E-02   -0.45759E-02 71316   0.936E-01    0.507E-01
DAV:   5    -0.304866821355E+03    0.17325E-02   -0.24993E-02 66060   0.758E-01    0.429E-01
DAV:   6    -0.304865377849E+03    0.14435E-02   -0.15956E-02 66648   0.614E-01    0.270E-01
DAV:   7    -0.304865444811E+03   -0.66962E-04   -0.97492E-03 69984   0.447E-01    0.266E-01
DAV:   8    -0.304864735164E+03    0.70965E-03   -0.77234E-03 68148   0.425E-01    0.169E-01
DAV:   9    -0.304864423699E+03    0.31147E-03   -0.27755E-03 60060   0.254E-01    0.959E-02
DAV:  10    -0.304864348127E+03    0.75572E-04   -0.93544E-04 53028   0.135E-01
  14 F= -.30486435E+03 E0= -.30486713E+03  d E =-.446496E-01
 ZBRENT: can't locate minimum, use default step
 trial-energy change:   -0.044650  1 .order   -0.044376   -0.050279   -0.038472
 step:   2.9577(harm=  3.1489)  dis= 0.06244  next Energy=  -304.926757 (dE=-0.107E+00)
 bond charge predicted
       N       E                     dE             d eps       ncg     rms          rms(c)
DAV:   1    -0.304811860279E+03    0.52563E-01   -0.56261E+01 42900   0.217E+01    0.230E+00
DAV:   2    -0.305348541071E+03   -0.53668E+00   -0.48796E+00 69072   0.103E+01    0.630E+00
DAV:   3    -0.304974304123E+03    0.37424E+00   -0.24751E+00 67884   0.754E+00    0.196E+00
DAV:   4    -0.304962759774E+03    0.11544E-01   -0.49266E-01 75108   0.290E+00    0.168E+00
DAV:   5    -0.304941929772E+03    0.20830E-01   -0.24163E-01 66948   0.233E+00    0.131E+00
DAV:   6    -0.304928418725E+03    0.13511E-01   -0.14589E-01 68580   0.184E+00    0.792E-01
DAV:   7    -0.304926942494E+03    0.14762E-02   -0.70676E-02 74376   0.118E+00    0.665E-01
DAV:   8    -0.304922989251E+03    0.39532E-02   -0.63421E-02 78192   0.121E+00    0.554E-01
DAV:   9    -0.304919415402E+03    0.35738E-02   -0.25606E-02 68184   0.788E-01    0.271E-01
DAV:  10    -0.304918892357E+03    0.52304E-03   -0.81569E-03 67644   0.349E-01    0.161E-01
DAV:  11    -0.304918892325E+03    0.31827E-07   -0.27058E-03 61356   0.227E-01    0.146E-01
DAV:  12    -0.304918852365E+03    0.39960E-04   -0.21580E-03 57768   0.228E-01    0.111E-01
DAV:  13    -0.304918737494E+03    0.11487E-03   -0.13591E-03 55932   0.178E-01    0.619E-02
DAV:  14    -0.304918739480E+03   -0.19859E-05   -0.89710E-04 51084   0.150E-01
  15 F= -.30491874E+03 E0= -.30492034E+03  d E =-.990410E-01
 curvature:  -4.97 expect dE=-0.441E+00 dE for cont linesearch -0.623E-03
 trial: gam= 1.15993 g(F)=  0.522E-01 g(S)=  0.365E-01 ort =-0.520E-02 (trialstep = 0.696E+00)
 search vector abs. value=  0.367E+00
 bond charge predicted
       N       E                     dE             d eps       ncg     rms          rms(c)
DAV:   1    -0.304962296109E+03   -0.43559E-01   -0.10162E+01 41280   0.110E+01    0.202E+00
DAV:   2    -0.305028592227E+03   -0.66296E-01   -0.11307E+00 70212   0.533E+00    0.249E+00
DAV:   3    -0.305017836547E+03    0.10756E-01   -0.89362E-01 66444   0.461E+00    0.233E+00
DAV:   4    -0.304979321311E+03    0.38515E-01   -0.38224E-01 68712   0.282E+00    0.118E+00
DAV:   5    -0.304969419801E+03    0.99015E-02   -0.18116E-01 72672   0.191E+00    0.993E-01
DAV:   6    -0.304961432981E+03    0.79868E-02   -0.94909E-02 70104   0.151E+00    0.544E-01
DAV:   7    -0.304958532345E+03    0.29006E-02   -0.35287E-02 78336   0.768E-01    0.319E-01
DAV:   8    -0.304958594657E+03   -0.62313E-04   -0.12095E-02 74808   0.492E-01    0.313E-01
DAV:   9    -0.304958165144E+03    0.42951E-03   -0.71077E-03 59220   0.398E-01    0.219E-01
DAV:  10    -0.304958047632E+03    0.11751E-03   -0.28472E-03 62292   0.243E-01    0.156E-01
DAV:  11    -0.304958273604E+03   -0.22597E-03   -0.23770E-03 58500   0.220E-01    0.142E-01
DAV:  12    -0.304958283471E+03   -0.98674E-05   -0.28555E-03 58932   0.255E-01    0.110E-01
DAV:  13    -0.304958175595E+03    0.10788E-03   -0.12742E-03 58944   0.172E-01    0.494E-02
DAV:  14    -0.304958148043E+03    0.27552E-04   -0.31952E-04 35388   0.107E-01
  16 F= -.30495815E+03 E0= -.30495953E+03  d E =-.394086E-01
 trial-energy change:   -0.039409  1 .order   -0.038927   -0.057521   -0.020332
 step:   1.0368(harm=  1.0763)  dis= 0.03245  next Energy=  -304.963186 (dE=-0.444E-01)
 bond charge predicted
       N       E                     dE             d eps       ncg     rms          rms(c)
DAV:   1    -0.304963655377E+03   -0.54798E-02   -0.24441E+00 41280   0.540E+00    0.995E-01
DAV:   2    -0.304979075485E+03   -0.15420E-01   -0.26446E-01 69912   0.259E+00    0.120E+00
DAV:   3    -0.304977317431E+03    0.17581E-02   -0.21297E-01 66456   0.227E+00    0.115E+00
DAV:   4    -0.304967791686E+03    0.95257E-02   -0.90847E-02 68532   0.140E+00    0.570E-01
DAV:   5    -0.304965769493E+03    0.20222E-02   -0.43730E-02 71544   0.955E-01    0.504E-01
DAV:   6    -0.304963597215E+03    0.21723E-02   -0.22577E-02 69408   0.736E-01    0.249E-01
DAV:   7    -0.304963053984E+03    0.54323E-03   -0.78582E-03 72540   0.361E-01    0.166E-01
DAV:   8    -0.304963071736E+03   -0.17752E-04   -0.31082E-03 63096   0.263E-01    0.165E-01
DAV:   9    -0.304962932771E+03    0.13896E-03   -0.17073E-03 54924   0.204E-01    0.104E-01
DAV:  10    -0.304962920967E+03    0.11804E-04   -0.59311E-04 46260   0.123E-01
  17 F= -.30496292E+03 E0= -.30496416E+03  d E =-.441815E-01
 curvature:  -2.37 expect dE=-0.194E+00 dE for cont linesearch -0.933E-04
 trial: gam= 0.72790 g(F)=  0.409E-01 g(S)=  0.409E-01 ort = 0.381E-02 (trialstep = 0.764E+00)
 search vector abs. value=  0.282E+00
 bond charge predicted
       N       E                     dE             d eps       ncg     rms          rms(c)
DAV:   1    -0.304991061404E+03   -0.28129E-01   -0.10651E+01 41280   0.108E+01    0.153E+00
DAV:   2    -0.305090400187E+03   -0.99339E-01   -0.12011E+00 71808   0.536E+00    0.244E+00
DAV:   3    -0.305038757256E+03    0.51643E-01   -0.68949E-01 72888   0.390E+00    0.154E+00
DAV:   4    -0.305029716477E+03    0.90408E-02   -0.26386E-01 71112   0.229E+00    0.121E+00
DAV:   5    -0.305019974687E+03    0.97418E-02   -0.15289E-01 65388   0.171E+00    0.960E-01
DAV:   6    -0.305012536000E+03    0.74387E-02   -0.80118E-02 69084   0.136E+00    0.500E-01
DAV:   7    -0.305010617982E+03    0.19180E-02   -0.30071E-02 77796   0.745E-01    0.306E-01
DAV:   8    -0.305009688494E+03    0.92949E-03   -0.15510E-02 73116   0.483E-01    0.229E-01
DAV:   9    -0.305009327849E+03    0.36064E-03   -0.49407E-03 62484   0.351E-01    0.170E-01
DAV:  10    -0.305009114630E+03    0.21322E-03   -0.17663E-03 61560   0.198E-01    0.111E-01
DAV:  11    -0.305009145890E+03   -0.31261E-04   -0.90648E-04 51420   0.141E-01
  18 F= -.30500915E+03 E0= -.30501044E+03  d E =-.462249E-01
 trial-energy change:   -0.046225  1 .order   -0.046825   -0.064650   -0.028999
 step:   1.5449(harm=  1.3856)  dis= 0.04569  next Energy=  -305.023323 (dE=-0.604E-01)
 bond charge predicted
       N       E                     dE             d eps       ncg     rms          rms(c)
DAV:   1    -0.304998985073E+03    0.10130E-01   -0.11133E+01 41280   0.110E+01    0.155E+00
DAV:   2    -0.305103760485E+03   -0.10478E+00   -0.12486E+00 71832   0.556E+00    0.253E+00
DAV:   3    -0.305046779884E+03    0.56981E-01   -0.71828E-01 72468   0.400E+00    0.152E+00
DAV:   4    -0.305038924731E+03    0.78552E-02   -0.27056E-01 71256   0.232E+00    0.124E+00
DAV:   5    -0.305028639158E+03    0.10286E-01   -0.15921E-01 65280   0.175E+00    0.981E-01
DAV:   6    -0.305020898585E+03    0.77406E-02   -0.84191E-02 70056   0.137E+00    0.506E-01
DAV:   7    -0.305019071323E+03    0.18273E-02   -0.31327E-02 75972   0.756E-01    0.334E-01
DAV:   8    -0.305018267345E+03    0.80398E-03   -0.17176E-02 75168   0.547E-01    0.277E-01
DAV:   9    -0.305017694505E+03    0.57284E-03   -0.56995E-03 64152   0.382E-01    0.178E-01
DAV:  10    -0.305017496171E+03    0.19833E-03   -0.18861E-03 62652   0.192E-01    0.128E-01
DAV:  11    -0.305017546124E+03   -0.49953E-04   -0.11873E-03 54216   0.160E-01    0.127E-01
DAV:  12    -0.305017538429E+03    0.76945E-05   -0.11573E-03 54012   0.170E-01    0.817E-02
DAV:  13    -0.305017507581E+03    0.30848E-04   -0.83135E-04 51744   0.135E-01
  19 F= -.30501751E+03 E0= -.30501881E+03  d E =-.545866E-01
 curvature:  -2.16 expect dE=-0.115E+00 dE for cont linesearch -0.154E-02
 ZBRENT: interpolating
 opt :   1.3325  next Energy=  -305.019014 (dE=-0.561E-01)
 bond charge predicted
       N       E                     dE             d eps       ncg     rms          rms(c)
DAV:   1    -0.305017491482E+03    0.46947E-04   -0.81904E-01 41280   0.297E+00    0.414E-01
DAV:   2    -0.305025235856E+03   -0.77444E-02   -0.92485E-02 71664   0.155E+00    0.683E-01
DAV:   3    -0.305021076866E+03    0.41590E-02   -0.51404E-02 70956   0.111E+00    0.408E-01
DAV:   4    -0.305020355967E+03    0.72090E-03   -0.18019E-02 62664   0.611E-01    0.313E-01
DAV:   5    -0.305019805026E+03    0.55094E-03   -0.10723E-02 65028   0.461E-01    0.275E-01
DAV:   6    -0.305019246960E+03    0.55807E-03   -0.61499E-03 59448   0.370E-01    0.145E-01
DAV:   7    -0.305019100479E+03    0.14648E-03   -0.23913E-03 63996   0.214E-01    0.857E-02
DAV:   8    -0.305019020637E+03    0.79842E-04   -0.12514E-03 58992   0.136E-01    0.595E-02
DAV:   9    -0.305018977699E+03    0.42937E-04   -0.27626E-04 33912   0.111E-01
  20 F= -.30501898E+03 E0= -.30502030E+03  d E =-.560567E-01
 curvature:  -2.11 expect dE=-0.754E-01 dE for cont linesearch -0.127E-05
 trial: gam= 0.48176 g(F)=  0.207E-01 g(S)=  0.150E-01 ort =-0.411E-03 (trialstep = 0.878E+00)
 search vector abs. value=  0.101E+00
 bond charge predicted
       N       E                     dE             d eps       ncg     rms          rms(c)
DAV:   1    -0.305040691440E+03   -0.21671E-01   -0.57262E+00 41280   0.837E+00    0.146E+00
DAV:   2    -0.305076202448E+03   -0.35511E-01   -0.66476E-01 70224   0.420E+00    0.171E+00
DAV:   3    -0.305065177235E+03    0.11025E-01   -0.42800E-01 67776   0.319E+00    0.141E+00
DAV:   4    -0.305050397313E+03    0.14780E-01   -0.18890E-01 69516   0.212E+00    0.827E-01
DAV:   5    -0.305043458252E+03    0.69391E-02   -0.89887E-02 70920   0.127E+00    0.627E-01
DAV:   6    -0.305042698189E+03    0.76006E-03   -0.51054E-02 69492   0.105E+00    0.606E-01
DAV:   7    -0.305039987201E+03    0.27110E-02   -0.27581E-02 70188   0.761E-01    0.274E-01
DAV:   8    -0.305039535541E+03    0.45166E-03   -0.85258E-03 69168   0.395E-01    0.208E-01
DAV:   9    -0.305039328619E+03    0.20692E-03   -0.30273E-03 60528   0.274E-01    0.151E-01
DAV:  10    -0.305039288054E+03    0.40565E-04   -0.13315E-03 56352   0.173E-01    0.115E-01
DAV:  11    -0.305039441662E+03   -0.15361E-03   -0.12140E-03 53748   0.174E-01    0.127E-01
DAV:  12    -0.305039412042E+03    0.29620E-04   -0.11907E-03 53436   0.192E-01    0.717E-02
DAV:  13    -0.305039368701E+03    0.43341E-04   -0.58204E-04 44388   0.137E-01
  21 F= -.30503937E+03 E0= -.30504092E+03  d E =-.203910E-01
 trial-energy change:   -0.020391  1 .order   -0.020056   -0.031155   -0.008957
 step:   1.2319(harm=  1.2319)  dis= 0.02212  next Energy=  -305.040841 (dE=-0.219E-01)
 bond charge predicted
       N       E                     dE             d eps       ncg     rms          rms(c)
DAV:   1    -0.305041415949E+03   -0.20039E-02   -0.93445E-01 41280   0.339E+00    0.601E-01
DAV:   2    -0.305046993080E+03   -0.55771E-02   -0.10777E-01 70296   0.169E+00    0.700E-01
DAV:   3    -0.305045460154E+03    0.15329E-02   -0.73730E-02 67536   0.134E+00    0.591E-01
DAV:   4    -0.305042636890E+03    0.28233E-02   -0.29976E-02 65424   0.854E-01    0.306E-01
DAV:   5    -0.305041409460E+03    0.12274E-02   -0.11887E-02 68868   0.446E-01    0.182E-01
DAV:   6    -0.305041470388E+03   -0.60927E-04   -0.65032E-03 69084   0.390E-01    0.229E-01
DAV:   7    -0.305041097914E+03    0.37247E-03   -0.45651E-03 58548   0.317E-01    0.117E-01
DAV:   8    -0.305041004580E+03    0.93335E-04   -0.12261E-03 57120   0.162E-01    0.713E-02
DAV:   9    -0.305040974701E+03    0.29878E-04   -0.23596E-04 31692   0.114E-01
  22 F= -.30504097E+03 E0= -.30504260E+03  d E =-.219970E-01
 curvature:  -1.75 expect dE=-0.536E-01 dE for cont linesearch -0.207E-06
 trial: gam= 0.84526 g(F)=  0.150E-01 g(S)=  0.156E-01 ort =-0.109E-03 (trialstep = 0.933E+00)
 search vector abs. value=  0.102E+00
 bond charge predicted
       N       E                     dE             d eps       ncg     rms          rms(c)
DAV:   1    -0.305043437343E+03   -0.24328E-02   -0.74018E+00 41280   0.944E+00    0.139E+00
DAV:   2    -0.305099735824E+03   -0.56298E-01   -0.80718E-01 70344   0.435E+00    0.177E+00
DAV:   3    -0.305080672427E+03    0.19063E-01   -0.45121E-01 70944   0.323E+00    0.136E+00
DAV:   4    -0.305069285859E+03    0.11387E-01   -0.16522E-01 70236   0.201E+00    0.836E-01
DAV:   5    -0.305061379384E+03    0.79065E-02   -0.74523E-02 71472   0.111E+00    0.590E-01
DAV:   6    -0.305061024688E+03    0.35470E-03   -0.54723E-02 69912   0.109E+00    0.639E-01
DAV:   7    -0.305057861481E+03    0.31632E-02   -0.32023E-02 73368   0.813E-01    0.293E-01
DAV:   8    -0.305057005867E+03    0.85561E-03   -0.10387E-02 65988   0.415E-01    0.163E-01
DAV:   9    -0.305056830785E+03    0.17508E-03   -0.30209E-03 61740   0.241E-01    0.134E-01
DAV:  10    -0.305056753028E+03    0.77757E-04   -0.11960E-03 53928   0.170E-01    0.922E-02
DAV:  11    -0.305056754137E+03   -0.11088E-05   -0.45635E-04 40548   0.117E-01
  23 F= -.30505675E+03 E0= -.30505859E+03  d E =-.157794E-01
 trial-energy change:   -0.015779  1 .order   -0.016132   -0.028493   -0.003771
 step:   1.0753(harm=  1.0753)  dis= 0.01768  next Energy=  -305.057394 (dE=-0.164E-01)
 bond charge predicted
       N       E                     dE             d eps       ncg     rms          rms(c)
DAV:   1    -0.305056785770E+03   -0.32742E-04   -0.17374E-01 41904   0.145E+00    0.225E-01
DAV:   2    -0.305059224134E+03   -0.24384E-02   -0.25896E-02 70260   0.836E-01    0.433E-01
DAV:   3    -0.305057410048E+03    0.18141E-02   -0.15586E-02 68556   0.611E-01    0.187E-01
DAV:   4    -0.305057302427E+03    0.10762E-03   -0.40753E-03 64260   0.283E-01    0.155E-01
DAV:   5    -0.305057100019E+03    0.20241E-03   -0.28948E-03 61320   0.255E-01    0.115E-01
DAV:   6    -0.305056990956E+03    0.10906E-03   -0.14434E-03 55908   0.190E-01    0.691E-02
DAV:   7    -0.305056948849E+03    0.42107E-04   -0.48664E-04 41892   0.118E-01
  24 F= -.30505695E+03 E0= -.30505881E+03  d E =-.159741E-01
 curvature:  -1.80 expect dE=-0.233E-01 dE for cont linesearch -0.170E-04
 trial: gam= 0.33126 g(F)=  0.101E-01 g(S)=  0.286E-02 ort = 0.981E-03 (trialstep = 0.961E+00)
 search vector abs. value=  0.248E-01
 bond charge predicted
       N       E                     dE             d eps       ncg     rms          rms(c)
DAV:   1    -0.305050933459E+03    0.60575E-02   -0.24898E+00 41292   0.566E+00    0.625E-01
DAV:   2    -0.305075088807E+03   -0.24155E-01   -0.28288E-01 68184   0.285E+00    0.847E-01
DAV:   3    -0.305071805406E+03    0.32834E-02   -0.86584E-02 68796   0.155E+00    0.635E-01
DAV:   4    -0.305068849067E+03    0.29563E-02   -0.34665E-02 69372   0.867E-01    0.391E-01
DAV:   5    -0.305067699933E+03    0.11491E-02   -0.13774E-02 65556   0.567E-01    0.304E-01
DAV:   6    -0.305067245620E+03    0.45431E-03   -0.97675E-03 67848   0.455E-01    0.224E-01
DAV:   7    -0.305067194918E+03    0.50701E-04   -0.65628E-03 66168   0.395E-01    0.219E-01
DAV:   8    -0.305066835154E+03    0.35976E-03   -0.47683E-03 63600   0.332E-01    0.132E-01
DAV:   9    -0.305066700708E+03    0.13445E-03   -0.13920E-03 55572   0.187E-01    0.803E-02
DAV:  10    -0.305066632567E+03    0.68140E-04   -0.21630E-04 31548   0.111E-01
  25 F= -.30506663E+03 E0= -.30506858E+03  d E =-.968372E-02
 trial-energy change:   -0.009684  1 .order   -0.009702   -0.012748   -0.006656
 step:   2.0120(harm=  2.0120)  dis= 0.01506  next Energy=  -305.070287 (dE=-0.133E-01)
 bond charge predicted
       N       E                     dE             d eps       ncg     rms          rms(c)
DAV:   1    -0.305051263196E+03    0.15438E-01   -0.29768E+00 41328   0.618E+00    0.661E-01
DAV:   2    -0.305079971074E+03   -0.28708E-01   -0.33175E-01 67956   0.311E+00    0.918E-01
DAV:   3    -0.305075848468E+03    0.41226E-02   -0.97235E-02 69060   0.164E+00    0.664E-01
DAV:   4    -0.305072725275E+03    0.31232E-02   -0.39230E-02 71376   0.921E-01    0.420E-01
DAV:   5    -0.305071336076E+03    0.13892E-02   -0.15890E-02 65640   0.610E-01    0.317E-01
DAV:   6    -0.305070914621E+03    0.42145E-03   -0.10907E-02 68652   0.473E-01    0.239E-01
DAV:   7    -0.305070865930E+03    0.48691E-04   -0.75552E-03 68028   0.425E-01    0.236E-01
DAV:   8    -0.305070420959E+03    0.44497E-03   -0.51586E-03 64344   0.346E-01    0.132E-01
DAV:   9    -0.305070298795E+03    0.12216E-03   -0.13687E-03 55680   0.181E-01    0.837E-02
DAV:  10    -0.305070236764E+03    0.62031E-04   -0.21541E-04 31080   0.113E-01
  26 F= -.30507024E+03 E0= -.30507230E+03  d E =-.132879E-01
 curvature:  -1.88 expect dE=-0.282E-01 dE for cont linesearch -0.146E-06
 trial: gam= 1.17710 g(F)=  0.634E-02 g(S)=  0.863E-02 ort =-0.438E-04 (trialstep = 0.590E+00)
 search vector abs. value=  0.493E-01
 bond charge predicted
       N       E                     dE             d eps       ncg     rms          rms(c)
DAV:   1    -0.305066532360E+03    0.37664E-02   -0.19441E+00 41280   0.529E+00    0.763E-01
DAV:   2    -0.305082317414E+03   -0.15785E-01   -0.24000E-01 67896   0.231E+00    0.668E-01
DAV:   3    -0.305085298363E+03   -0.29809E-02   -0.10058E-01 69336   0.158E+00    0.880E-01
DAV:   4    -0.305078870189E+03    0.64282E-02   -0.54788E-02 68148   0.115E+00    0.401E-01
DAV:   5    -0.305077373575E+03    0.14966E-02   -0.18397E-02 67668   0.644E-01    0.318E-01
DAV:   6    -0.305077052380E+03    0.32119E-03   -0.13119E-02 66828   0.582E-01    0.261E-01
DAV:   7    -0.305076513931E+03    0.53845E-03   -0.58851E-03 60864   0.365E-01    0.148E-01
DAV:   8    -0.305076518175E+03   -0.42447E-05   -0.33436E-03 58344   0.285E-01    0.159E-01
DAV:   9    -0.305076289079E+03    0.22910E-03   -0.11297E-03 51756   0.187E-01    0.601E-02
DAV:  10    -0.305076266676E+03    0.22403E-04   -0.19787E-04 27624   0.838E-02
  27 F= -.30507627E+03 E0= -.30507835E+03  d E =-.602991E-02
 trial-energy change:   -0.006030  1 .order   -0.006049   -0.008807   -0.003291
 step:   0.9426(harm=  0.9426)  dis= 0.00868  next Energy=  -305.077267 (dE=-0.703E-02)
 bond charge predicted
       N       E                     dE             d eps       ncg     rms          rms(c)
DAV:   1    -0.305073765093E+03    0.25240E-02   -0.69386E-01 41316   0.316E+00    0.443E-01
DAV:   2    -0.305079434344E+03   -0.56693E-02   -0.83528E-02 67644   0.136E+00    0.408E-01
DAV:   3    -0.305080233389E+03   -0.79905E-03   -0.36145E-02 69564   0.946E-01    0.509E-01
DAV:   4    -0.305078009918E+03    0.22235E-02   -0.17753E-02 62232   0.656E-01    0.224E-01
DAV:   5    -0.305077623913E+03    0.38601E-03   -0.65823E-03 65376   0.387E-01    0.196E-01
DAV:   6    -0.305077416728E+03    0.20719E-03   -0.44019E-03 58296   0.341E-01    0.144E-01
DAV:   7    -0.305077290906E+03    0.12582E-03   -0.19501E-03 65784   0.205E-01    0.916E-02
DAV:   8    -0.305077267949E+03    0.22957E-04   -0.99290E-04 51696   0.157E-01
  28 F= -.30507727E+03 E0= -.30507934E+03  d E =-.703119E-02
 curvature:  -1.56 expect dE=-0.163E-01 dE for cont linesearch -0.685E-06
 trial: gam= 0.78209 g(F)=  0.513E-02 g(S)=  0.537E-02 ort =-0.147E-03 (trialstep = 0.661E+00)
 search vector abs. value=  0.404E-01
 bond charge predicted
       N       E                     dE             d eps       ncg     rms          rms(c)
DAV:   1    -0.305069390696E+03    0.79002E-02   -0.19815E+00 41904   0.504E+00    0.493E-01
DAV:   2    -0.305088212440E+03   -0.18822E-01   -0.20771E-01 67176   0.229E+00    0.759E-01
DAV:   3    -0.305085461831E+03    0.27506E-02   -0.69934E-02 68400   0.135E+00    0.563E-01
DAV:   4    -0.305083123195E+03    0.23386E-02   -0.19864E-02 67068   0.689E-01    0.277E-01
DAV:   5    -0.305082298237E+03    0.82496E-03   -0.62768E-03 69780   0.335E-01    0.189E-01
DAV:   6    -0.305082407843E+03   -0.10961E-03   -0.51898E-03 66000   0.357E-01    0.214E-01
DAV:   7    -0.305082155107E+03    0.25274E-03   -0.53180E-03 67416   0.354E-01    0.158E-01
DAV:   8    -0.305081942347E+03    0.21276E-03   -0.27597E-03 60684   0.244E-01    0.106E-01
DAV:   9    -0.305081857434E+03    0.84913E-04   -0.93540E-04 50940   0.156E-01
  29 F= -.30508186E+03 E0= -.30508394E+03  d E =-.458949E-02
 trial-energy change:   -0.004589  1 .order   -0.004853   -0.006861   -0.002846
 step:   1.1292(harm=  1.1292)  dis= 0.01025  next Energy=  -305.083129 (dE=-0.586E-02)
 bond charge predicted
       N       E                     dE             d eps       ncg     rms          rms(c)
DAV:   1    -0.305076608152E+03    0.53342E-02   -0.99829E-01 41952   0.358E+00    0.340E-01
DAV:   2    -0.305086141664E+03   -0.95335E-02   -0.10311E-01 66876   0.162E+00    0.549E-01
DAV:   3    -0.305084585311E+03    0.15564E-02   -0.34066E-02 68460   0.961E-01    0.372E-01
DAV:   4    -0.305083518778E+03    0.10665E-02   -0.85446E-03 67380   0.453E-01    0.178E-01
DAV:   5    -0.305083207120E+03    0.31166E-03   -0.29975E-03 65376   0.241E-01    0.135E-01
DAV:   6    -0.305083222135E+03   -0.15015E-04   -0.25342E-03 62640   0.250E-01    0.138E-01
DAV:   7    -0.305083123918E+03    0.98216E-04   -0.23412E-03 67428   0.233E-01    0.105E-01
DAV:   8    -0.305083025086E+03    0.98832E-04   -0.10872E-03 51696   0.162E-01    0.677E-02
DAV:   9    -0.305082983893E+03    0.41193E-04   -0.24845E-04 33108   0.105E-01
  30 F= -.30508298E+03 E0= -.30508503E+03  d E =-.571594E-02
 curvature:  -2.20 expect dE=-0.974E-02 dE for cont linesearch -0.222E-04
 trial: gam= 0.29091 g(F)=  0.404E-02 g(S)=  0.398E-03 ort = 0.638E-03 (trialstep = 0.755E+00)
 search vector abs. value=  0.822E-02
 bond charge predicted
       N       E                     dE             d eps       ncg     rms          rms(c)
DAV:   1    -0.305083491934E+03   -0.46685E-03   -0.44816E-01 41604   0.223E+00    0.219E-01
DAV:   2    -0.305087862888E+03   -0.43710E-02   -0.43800E-02 66564   0.114E+00    0.407E-01
DAV:   3    -0.305086396011E+03    0.14669E-02   -0.14602E-02 69804   0.641E-01    0.193E-01
DAV:   4    -0.305086283951E+03    0.11206E-03   -0.38310E-03 62832   0.306E-01    0.166E-01
DAV:   5    -0.305086034738E+03    0.24921E-03   -0.18588E-03 59040   0.220E-01    0.102E-01
DAV:   6    -0.305085995458E+03    0.39280E-04   -0.88439E-04 52128   0.133E-01
  31 F= -.30508600E+03 E0= -.30508796E+03  d E =-.301156E-02
 ZBRENT: can't locate minimum, use default step
 trial-energy change:   -0.003012  1 .order   -0.003131   -0.003485   -0.002777
 step:   3.0181(harm=  3.7114)  dis= 0.01703  next Energy=  -305.091555 (dE=-0.857E-02)
 bond charge predicted
       N       E                     dE             d eps       ncg     rms          rms(c)
DAV:   1    -0.305066576546E+03    0.19458E-01   -0.40229E+00 41616   0.668E+00    0.647E-01
DAV:   2    -0.305107798135E+03   -0.41222E-01   -0.39386E-01 67212   0.341E+00    0.129E+00
DAV:   3    -0.305092849772E+03    0.14948E-01   -0.13268E-01 69696   0.190E+00    0.587E-01
DAV:   4    -0.305092217002E+03    0.63277E-03   -0.35776E-02 68640   0.909E-01    0.519E-01
DAV:   5    -0.305089587865E+03    0.26291E-02   -0.17583E-02 65496   0.660E-01    0.284E-01
DAV:   6    -0.305089550987E+03    0.36878E-04   -0.80837E-03 70920   0.375E-01    0.249E-01
DAV:   7    -0.305089661602E+03   -0.11062E-03   -0.96181E-03 69816   0.463E-01    0.295E-01
DAV:   8    -0.305088856929E+03    0.80467E-03   -0.59712E-03 68208   0.368E-01    0.128E-01
DAV:   9    -0.305088651294E+03    0.20563E-03   -0.15157E-03 58308   0.176E-01    0.695E-02
DAV:  10    -0.305088638627E+03    0.12667E-04   -0.60227E-04 46884   0.112E-01
  32 F= -.30508864E+03 E0= -.30509040E+03  d E =-.565473E-02
 curvature:  -3.12 expect dE=-0.243E-01 dE for cont linesearch -0.224E-03
 trial: gam= 1.98077 g(F)=  0.219E-02 g(S)=  0.560E-02 ort =-0.768E-03 (trialstep = 0.268E+00)
 search vector abs. value=  0.370E-01
 bond charge predicted
       N       E                     dE             d eps       ncg     rms          rms(c)
DAV:   1    -0.305089500866E+03   -0.84957E-03   -0.24871E-01 41304   0.183E+00    0.328E-01
DAV:   2    -0.305091243321E+03   -0.17425E-02   -0.31003E-02 68796   0.858E-01    0.306E-01
DAV:   3    -0.305091416823E+03   -0.17350E-03   -0.19337E-02 68988   0.701E-01    0.363E-01
DAV:   4    -0.305090336235E+03    0.10806E-02   -0.94634E-03 59448   0.498E-01    0.169E-01
DAV:   5    -0.305090089241E+03    0.24699E-03   -0.35075E-03 62916   0.277E-01    0.151E-01
DAV:   6    -0.305089949898E+03    0.13934E-03   -0.27188E-03 57792   0.256E-01    0.104E-01
DAV:   7    -0.305089861829E+03    0.88069E-04   -0.10405E-03 54036   0.156E-01    0.550E-02
DAV:   8    -0.305089858181E+03    0.36475E-05   -0.43575E-04 40548   0.125E-01
  33 F= -.30508986E+03 E0= -.30509158E+03  d E =-.121955E-02
 trial-energy change:   -0.001220  1 .order   -0.001203   -0.001681   -0.000726
 step:   0.4721(harm=  0.4721)  dis= 0.00523  next Energy=  -305.090118 (dE=-0.148E-02)
 bond charge predicted
       N       E                     dE             d eps       ncg     rms          rms(c)
DAV:   1    -0.305089900611E+03   -0.38782E-04   -0.14365E-01 41424   0.141E+00    0.236E-01
DAV:   2    -0.305090882689E+03   -0.98208E-03   -0.16321E-02 68400   0.619E-01    0.217E-01
DAV:   3    -0.305091006706E+03   -0.12402E-03   -0.10142E-02 69336   0.510E-01    0.262E-01
DAV:   4    -0.305090442624E+03    0.56408E-03   -0.48323E-03 59772   0.355E-01    0.120E-01
DAV:   5    -0.305090325901E+03    0.11672E-03   -0.19630E-03 57780   0.214E-01    0.110E-01
DAV:   6    -0.305090239758E+03    0.86143E-04   -0.12341E-03 53832   0.183E-01    0.655E-02
DAV:   7    -0.305090210065E+03    0.29693E-04   -0.30469E-04 36060   0.106E-01
  34 F= -.30509021E+03 E0= -.30509190E+03  d E =-.157144E-02
 curvature:  -1.39 expect dE=-0.410E-02 dE for cont linesearch -0.749E-04
 trial: gam=-0.04631 g(F)=  0.263E-02 g(S)=  0.312E-03 ort = 0.141E-02 (trialstep = 0.309E+00)
 search vector abs. value=  0.289E-02
 bond charge predicted
       N       E                     dE             d eps       ncg     rms          rms(c)
DAV:   1    -0.305090749723E+03   -0.50997E-03   -0.36109E-02 41904   0.684E-01    0.841E-02
DAV:   2    -0.305091383717E+03   -0.63399E-03   -0.54172E-03 69588   0.408E-01    0.195E-01
DAV:   3    -0.305091047493E+03    0.33622E-03   -0.25952E-03 57192   0.258E-01    0.775E-02
DAV:   4    -0.305091035289E+03    0.12204E-04   -0.64064E-04 46512   0.130E-01
  35 F= -.30509104E+03 E0= -.30509273E+03  d E =-.825224E-03
 ZBRENT: can't locate minimum, use default step
 trial-energy change:   -0.000825  1 .order   -0.000789   -0.000889   -0.000689
 step:   1.2361(harm=  1.3725)  dis= 0.00313  next Energy=  -305.092185 (dE=-0.197E-02)
 bond charge predicted
       N       E                     dE             d eps       ncg     rms          rms(c)
DAV:   1    -0.305090402679E+03    0.64481E-03   -0.32600E-01 41280   0.205E+00    0.242E-01
DAV:   2    -0.305094583670E+03   -0.41810E-02   -0.43293E-02 70752   0.110E+00    0.446E-01
DAV:   3    -0.305093037904E+03    0.15458E-02   -0.18372E-02 68664   0.665E-01    0.265E-01
DAV:   4    -0.305092600953E+03    0.43695E-03   -0.60306E-03 62724   0.352E-01    0.153E-01
DAV:   5    -0.305092373925E+03    0.22703E-03   -0.23824E-03 63336   0.220E-01    0.105E-01
DAV:   6    -0.305092368476E+03    0.54486E-05   -0.15620E-03 55188   0.194E-01    0.102E-01
DAV:   7    -0.305092320533E+03    0.47943E-04   -0.96638E-04 51312   0.165E-01
  36 F= -.30509232E+03 E0= -.30509398E+03  d E =-.211047E-02
 curvature:  -0.68 expect dE=-0.139E-02 dE for cont linesearch -0.139E-03
 trial: gam= 0.43784 g(F)=  0.839E-03 g(S)=  0.120E-02 ort = 0.771E-03 (trialstep = 0.437E+00)
 search vector abs. value=  0.327E-02
 bond charge predicted
       N       E                     dE             d eps       ncg     rms          rms(c)
DAV:   1    -0.305093163106E+03   -0.79463E-03   -0.87426E-02 53556   0.128E+00    0.277E-01
DAV:   2    -0.305094182884E+03   -0.10198E-02   -0.19228E-02 74172   0.705E-01    0.310E-01
DAV:   3    -0.305094079190E+03    0.10369E-03   -0.16388E-02 68904   0.638E-01    0.328E-01
DAV:   4    -0.305093225008E+03    0.85418E-03   -0.71614E-03 64224   0.404E-01    0.138E-01
DAV:   5    -0.305093002119E+03    0.22289E-03   -0.24931E-03 62244   0.189E-01    0.102E-01
DAV:   6    -0.305092947322E+03    0.54797E-04   -0.15961E-03 56136   0.187E-01    0.911E-02
DAV:   7    -0.305092894676E+03    0.52646E-04   -0.85283E-04 49164   0.156E-01
  37 F= -.30509289E+03 E0= -.30509460E+03  d E =-.574143E-03
 trial-energy change:   -0.000574  1 .order   -0.000751   -0.001040   -0.000462
 step:   0.7857(harm=  0.7857)  dis= 0.00212  next Energy=  -305.093256 (dE=-0.935E-03)
 bond charge predicted
       N       E                     dE             d eps       ncg     rms          rms(c)
DAV:   1    -0.305092983413E+03   -0.36090E-04   -0.54338E-02 53256   0.100E+00    0.202E-01
DAV:   2    -0.305093663384E+03   -0.67997E-03   -0.11557E-02 72540   0.543E-01    0.242E-01
DAV:   3    -0.305093436253E+03    0.22713E-03   -0.91146E-03 65472   0.452E-01    0.219E-01
DAV:   4    -0.305093106905E+03    0.32935E-03   -0.36100E-03 62928   0.283E-01    0.109E-01
DAV:   5    -0.305092984590E+03    0.12231E-03   -0.15993E-03 57576   0.183E-01    0.856E-02
DAV:   6    -0.305092911022E+03    0.73568E-04   -0.74304E-04 47160   0.159E-01
  38 F= -.30509291E+03 E0= -.30509464E+03  d E =-.590489E-03
 curvature:  -0.54 expect dE=-0.399E-03 dE for cont linesearch -0.560E-05
 trial: gam= 0.34220 g(F)=  0.519E-03 g(S)=  0.219E-03 ort = 0.184E-03 (trialstep = 0.507E+00)
 search vector abs. value=  0.125E-02
 reached required accuracy - stopping structural energy minimisation
 writing wavefunctions
VASP is done!
