<?xml version="1.0" encoding="ISO-8859-1"?>
<modeling>
 <generator>
  <i name="program" type="string">vasp </i>
  <i name="version" type="string">5.4.4.18Apr17-6-g9f103f2a35  </i>
  <i name="subversion" type="string">(build Aug 09 2018 16:20:53) complex            parallel </i>
  <i name="platform" type="string">LinuxIFC </i>
  <i name="date" type="string">2020 04 29 </i>
  <i name="time" type="string">09:18:33 </i>
 </generator>
 <incar>
  <i type="string" name="SYSTEM"> Nb - Mo - Ta - Ti - V SQS</i>
  <i type="string" name="PREC">normal</i>
  <i type="int" name="ICHARG">     0</i>
  <i type="int" name="IBRION">     2</i>
  <i type="int" name="NSW">    50</i>
  <i type="int" name="ISIF">     3</i>
  <i name="ENCUT">    600.00000000</i>
  <i type="string" name="LREAL"> Auto</i>
  <i type="int" name="ISMEAR">     1</i>
  <i name="SIGMA">      0.20000000</i>
  <v type="int" name="KPOINT_BSE">    -1     0     0     0</v>
  <i type="string" name="GGA"> PS</i>
 </incar>
 <structure name="primitive_cell" >
  <crystal>
   <varray name="basis" >
    <v>      -3.16000000      -3.16000000      -3.16000000 </v>
    <v>       1.58000000       1.58000000      -7.90000000 </v>
    <v>       7.90000000      -7.90000000      -1.58000000 </v>
   </varray>
   <i name="volume">    473.31744000 </i>
   <varray name="rec_basis" >
    <v>      -0.13713080      -0.12658228      -0.05274262 </v>
    <v>       0.04219409       0.06329114      -0.10548523 </v>
    <v>       0.06329114      -0.06329114       0.00000000 </v>
   </varray>
  </crystal>
  <varray name="positions" >
   <v>      -0.03333333      -0.06666667       0.40000000 </v>
   <v>       0.30000000      -0.40000000       0.40000000 </v>
   <v>      -0.10000000      -0.20000000       0.20000000 </v>
   <v>       0.06666667       0.13333333       0.20000000 </v>
   <v>       0.46666667      -0.06666667       0.40000000 </v>
   <v>      -0.13333333      -0.26666667      -0.40000000 </v>
   <v>       0.03333333       0.06666667      -0.40000000 </v>
   <v>      -0.36666667       0.26666667       0.40000000 </v>
   <v>       0.40000000      -0.20000000       0.20000000 </v>
   <v>      -0.20000000      -0.40000000       0.40000000 </v>
   <v>      -0.43333333       0.13333333       0.20000000 </v>
   <v>       0.36666667      -0.26666667      -0.40000000 </v>
   <v>       0.13333333       0.26666667       0.40000000 </v>
   <v>      -0.46666667       0.06666667      -0.40000000 </v>
   <v>       0.23333333       0.46666667       0.20000000 </v>
   <v>       0.20000000       0.40000000      -0.40000000 </v>
   <v>       0.00000000       0.00000000       0.00000000 </v>
   <v>      -0.06666667      -0.13333333      -0.20000000 </v>
   <v>      -0.30000000       0.40000000      -0.40000000 </v>
   <v>      -0.26666667       0.46666667       0.20000000 </v>
   <v>       0.33333333      -0.33333333       0.00000000 </v>
   <v>       0.43333333      -0.13333333      -0.20000000 </v>
   <v>      -0.50000000       0.00000000       0.00000000 </v>
   <v>       0.26666667      -0.46666667      -0.20000000 </v>
   <v>      -0.40000000       0.20000000      -0.20000000 </v>
   <v>      -0.16666667      -0.33333333       0.00000000 </v>
   <v>      -0.23333333      -0.46666667      -0.20000000 </v>
   <v>       0.16666667       0.33333333       0.00000000 </v>
   <v>       0.10000000       0.20000000      -0.20000000 </v>
  </varray>
 </structure>
 <varray name="primitive_index" >
  <v type="int" >        1 </v>
  <v type="int" >       17 </v>
  <v type="int" >        7 </v>
  <v type="int" >       23 </v>
  <v type="int" >       19 </v>
  <v type="int" >       18 </v>
  <v type="int" >        6 </v>
  <v type="int" >        2 </v>
  <v type="int" >       15 </v>
  <v type="int" >        8 </v>
  <v type="int" >       14 </v>
  <v type="int" >       10 </v>
  <v type="int" >       11 </v>
  <v type="int" >       27 </v>
  <v type="int" >       29 </v>
  <v type="int" >       22 </v>
  <v type="int" >        4 </v>
  <v type="int" >       13 </v>
  <v type="int" >       25 </v>
  <v type="int" >        9 </v>
  <v type="int" >       28 </v>
  <v type="int" >       16 </v>
  <v type="int" >        3 </v>
  <v type="int" >       21 </v>
  <v type="int" >       26 </v>
  <v type="int" >       12 </v>
  <v type="int" >       24 </v>
  <v type="int" >       20 </v>
  <v type="int" >        5 </v>
 </varray>
 <kpoints>
  <generation param="Gamma">
   <v type="int" name="divisions">       7        7        7 </v>
   <v name="usershift">      0.00000000       0.00000000       0.00000000 </v>
   <v name="genvec1">      0.14285714       0.00000000       0.00000000 </v>
   <v name="genvec2">     -0.00000000       0.14285714       0.00000000 </v>
   <v name="genvec3">      0.00000000       0.00000000       0.14285714 </v>
   <v name="shift">      0.00000000       0.00000000       0.00000000 </v>
  </generation>
  <varray name="kpointlist" >
   <v>       0.00000000       0.00000000       0.00000000 </v>
   <v>       0.14285714       0.00000000      -0.00000000 </v>
   <v>       0.28571429       0.00000000       0.00000000 </v>
   <v>       0.42857143       0.00000000      -0.00000000 </v>
   <v>      -0.00000000       0.14285714       0.00000000 </v>
   <v>       0.14285714       0.14285714      -0.00000000 </v>
   <v>       0.28571429       0.14285714       0.00000000 </v>
   <v>       0.42857143       0.14285714      -0.00000000 </v>
   <v>      -0.42857143       0.14285714       0.00000000 </v>
   <v>      -0.28571429       0.14285714       0.00000000 </v>
   <v>      -0.14285714       0.14285714       0.00000000 </v>
   <v>       0.00000000       0.28571429      -0.00000000 </v>
   <v>       0.14285714       0.28571429      -0.00000000 </v>
   <v>       0.28571429       0.28571429      -0.00000000 </v>
   <v>       0.42857143       0.28571429      -0.00000000 </v>
   <v>      -0.42857143       0.28571429      -0.00000000 </v>
   <v>      -0.28571429       0.28571429      -0.00000000 </v>
   <v>      -0.14285714       0.28571429      -0.00000000 </v>
   <v>      -0.00000000       0.42857143      -0.00000000 </v>
   <v>       0.14285714       0.42857143       0.00000000 </v>
   <v>       0.28571429       0.42857143       0.00000000 </v>
   <v>       0.42857143       0.42857143      -0.00000000 </v>
   <v>      -0.42857143       0.42857143       0.00000000 </v>
   <v>      -0.28571429       0.42857143      -0.00000000 </v>
   <v>      -0.14285714       0.42857143      -0.00000000 </v>
   <v>       0.00000000       0.00000000       0.14285714 </v>
   <v>       0.14285714       0.00000000       0.14285714 </v>
   <v>       0.28571429       0.00000000       0.14285714 </v>
   <v>       0.42857143       0.00000000       0.14285714 </v>
   <v>      -0.42857143       0.00000000       0.14285714 </v>
   <v>      -0.28571429       0.00000000       0.14285714 </v>
   <v>      -0.14285714      -0.00000000       0.14285714 </v>
   <v>      -0.00000000       0.14285714       0.14285714 </v>
   <v>       0.14285714       0.14285714       0.14285714 </v>
   <v>       0.28571429       0.14285714       0.14285714 </v>
   <v>       0.42857143       0.14285714       0.14285714 </v>
   <v>      -0.42857143       0.14285714       0.14285714 </v>
   <v>      -0.28571429       0.14285714       0.14285714 </v>
   <v>      -0.14285714       0.14285714       0.14285714 </v>
   <v>      -0.00000000       0.28571429       0.14285714 </v>
   <v>       0.14285714       0.28571429       0.14285714 </v>
   <v>       0.28571429       0.28571429       0.14285714 </v>
   <v>       0.42857143       0.28571429       0.14285714 </v>
   <v>      -0.42857143       0.28571429       0.14285714 </v>
   <v>      -0.28571429       0.28571429       0.14285714 </v>
   <v>      -0.14285714       0.28571429       0.14285714 </v>
   <v>       0.00000000       0.42857143       0.14285714 </v>
   <v>       0.14285714       0.42857143       0.14285714 </v>
   <v>       0.28571429       0.42857143       0.14285714 </v>
   <v>       0.42857143       0.42857143       0.14285714 </v>
   <v>      -0.42857143       0.42857143       0.14285714 </v>
   <v>      -0.28571429       0.42857143       0.14285714 </v>
   <v>      -0.14285714       0.42857143       0.14285714 </v>
   <v>       0.00000000      -0.42857143       0.14285714 </v>
   <v>       0.14285714      -0.42857143       0.14285714 </v>
   <v>       0.28571429      -0.42857143       0.14285714 </v>
   <v>       0.42857143      -0.42857143       0.14285714 </v>
   <v>      -0.42857143      -0.42857143       0.14285714 </v>
   <v>      -0.28571429      -0.42857143       0.14285714 </v>
   <v>      -0.14285714      -0.42857143       0.14285714 </v>
   <v>       0.00000000      -0.28571429       0.14285714 </v>
   <v>       0.14285714      -0.28571429       0.14285714 </v>
   <v>       0.28571429      -0.28571429       0.14285714 </v>
   <v>       0.42857143      -0.28571429       0.14285714 </v>
   <v>      -0.42857143      -0.28571429       0.14285714 </v>
   <v>      -0.28571429      -0.28571429       0.14285714 </v>
   <v>      -0.14285714      -0.28571429       0.14285714 </v>
   <v>       0.00000000      -0.14285714       0.14285714 </v>
   <v>       0.14285714      -0.14285714       0.14285714 </v>
   <v>       0.28571429      -0.14285714       0.14285714 </v>
   <v>       0.42857143      -0.14285714       0.14285714 </v>
   <v>      -0.42857143      -0.14285714       0.14285714 </v>
   <v>      -0.28571429      -0.14285714       0.14285714 </v>
   <v>      -0.14285714      -0.14285714       0.14285714 </v>
   <v>       0.00000000       0.00000000       0.28571429 </v>
   <v>       0.14285714       0.00000000       0.28571429 </v>
   <v>       0.28571429       0.00000000       0.28571429 </v>
   <v>       0.42857143       0.00000000       0.28571429 </v>
   <v>      -0.42857143      -0.00000000       0.28571429 </v>
   <v>      -0.28571429      -0.00000000       0.28571429 </v>
   <v>      -0.14285714      -0.00000000       0.28571429 </v>
   <v>      -0.00000000       0.14285714       0.28571429 </v>
   <v>       0.14285714       0.14285714       0.28571429 </v>
   <v>       0.28571429       0.14285714       0.28571429 </v>
   <v>       0.42857143       0.14285714       0.28571429 </v>
   <v>      -0.42857143       0.14285714       0.28571429 </v>
   <v>      -0.28571429       0.14285714       0.28571429 </v>
   <v>      -0.14285714       0.14285714       0.28571429 </v>
   <v>      -0.00000000       0.28571429       0.28571429 </v>
   <v>       0.14285714       0.28571429       0.28571429 </v>
   <v>       0.28571429       0.28571429       0.28571429 </v>
   <v>       0.42857143       0.28571429       0.28571429 </v>
   <v>      -0.42857143       0.28571429       0.28571429 </v>
   <v>      -0.28571429       0.28571429       0.28571429 </v>
   <v>      -0.14285714       0.28571429       0.28571429 </v>
   <v>       0.00000000       0.42857143       0.28571429 </v>
   <v>       0.14285714       0.42857143       0.28571429 </v>
   <v>       0.28571429       0.42857143       0.28571429 </v>
   <v>       0.42857143       0.42857143       0.28571429 </v>
   <v>      -0.42857143       0.42857143       0.28571429 </v>
   <v>      -0.28571429       0.42857143       0.28571429 </v>
   <v>      -0.14285714       0.42857143       0.28571429 </v>
   <v>      -0.00000000      -0.42857143       0.28571429 </v>
   <v>       0.14285714      -0.42857143       0.28571429 </v>
   <v>       0.28571429      -0.42857143       0.28571429 </v>
   <v>       0.42857143      -0.42857143       0.28571429 </v>
   <v>      -0.42857143      -0.42857143       0.28571429 </v>
   <v>      -0.28571429      -0.42857143       0.28571429 </v>
   <v>      -0.14285714      -0.42857143       0.28571429 </v>
   <v>       0.00000000      -0.28571429       0.28571429 </v>
   <v>       0.14285714      -0.28571429       0.28571429 </v>
   <v>       0.28571429      -0.28571429       0.28571429 </v>
   <v>       0.42857143      -0.28571429       0.28571429 </v>
   <v>      -0.42857143      -0.28571429       0.28571429 </v>
   <v>      -0.28571429      -0.28571429       0.28571429 </v>
   <v>      -0.14285714      -0.28571429       0.28571429 </v>
   <v>       0.00000000      -0.14285714       0.28571429 </v>
   <v>       0.14285714      -0.14285714       0.28571429 </v>
   <v>       0.28571429      -0.14285714       0.28571429 </v>
   <v>       0.42857143      -0.14285714       0.28571429 </v>
   <v>      -0.42857143      -0.14285714       0.28571429 </v>
   <v>      -0.28571429      -0.14285714       0.28571429 </v>
   <v>      -0.14285714      -0.14285714       0.28571429 </v>
   <v>       0.00000000       0.00000000       0.42857143 </v>
   <v>       0.14285714       0.00000000       0.42857143 </v>
   <v>       0.28571429       0.00000000       0.42857143 </v>
   <v>       0.42857143      -0.00000000       0.42857143 </v>
   <v>      -0.42857143      -0.00000000       0.42857143 </v>
   <v>      -0.28571429       0.00000000       0.42857143 </v>
   <v>      -0.14285714      -0.00000000       0.42857143 </v>
   <v>      -0.00000000       0.14285714       0.42857143 </v>
   <v>       0.14285714       0.14285714       0.42857143 </v>
   <v>       0.28571429       0.14285714       0.42857143 </v>
   <v>       0.42857143       0.14285714       0.42857143 </v>
   <v>      -0.42857143       0.14285714       0.42857143 </v>
   <v>      -0.28571429       0.14285714       0.42857143 </v>
   <v>      -0.14285714       0.14285714       0.42857143 </v>
   <v>       0.00000000       0.28571429       0.42857143 </v>
   <v>       0.14285714       0.28571429       0.42857143 </v>
   <v>       0.28571429       0.28571429       0.42857143 </v>
   <v>       0.42857143       0.28571429       0.42857143 </v>
   <v>      -0.42857143       0.28571429       0.42857143 </v>
   <v>      -0.28571429       0.28571429       0.42857143 </v>
   <v>      -0.14285714       0.28571429       0.42857143 </v>
   <v>       0.00000000       0.42857143       0.42857143 </v>
   <v>       0.14285714       0.42857143       0.42857143 </v>
   <v>       0.28571429       0.42857143       0.42857143 </v>
   <v>       0.42857143       0.42857143       0.42857143 </v>
   <v>      -0.42857143       0.42857143       0.42857143 </v>
   <v>      -0.28571429       0.42857143       0.42857143 </v>
   <v>      -0.14285714       0.42857143       0.42857143 </v>
   <v>       0.00000000      -0.42857143       0.42857143 </v>
   <v>       0.14285714      -0.42857143       0.42857143 </v>
   <v>       0.28571429      -0.42857143       0.42857143 </v>
   <v>       0.42857143      -0.42857143       0.42857143 </v>
   <v>      -0.42857143      -0.42857143       0.42857143 </v>
   <v>      -0.28571429      -0.42857143       0.42857143 </v>
   <v>      -0.14285714      -0.42857143       0.42857143 </v>
   <v>      -0.00000000      -0.28571429       0.42857143 </v>
   <v>       0.14285714      -0.28571429       0.42857143 </v>
   <v>       0.28571429      -0.28571429       0.42857143 </v>
   <v>       0.42857143      -0.28571429       0.42857143 </v>
   <v>      -0.42857143      -0.28571429       0.42857143 </v>
   <v>      -0.28571429      -0.28571429       0.42857143 </v>
   <v>      -0.14285714      -0.28571429       0.42857143 </v>
   <v>       0.00000000      -0.14285714       0.42857143 </v>
   <v>       0.14285714      -0.14285714       0.42857143 </v>
   <v>       0.28571429      -0.14285714       0.42857143 </v>
   <v>       0.42857143      -0.14285714       0.42857143 </v>
   <v>      -0.42857143      -0.14285714       0.42857143 </v>
   <v>      -0.28571429      -0.14285714       0.42857143 </v>
   <v>      -0.14285714      -0.14285714       0.42857143 </v>
  </varray>
  <varray name="weights" >
   <v>       0.00291545 </v>
   <v>       0.00583090 </v>
   <v>       0.00583090 </v>
   <v>       0.00583090 </v>
   <v>       0.00583090 </v>
   <v>       0.00583090 </v>
   <v>       0.00583090 </v>
   <v>       0.00583090 </v>
   <v>       0.00583090 </v>
   <v>       0.00583090 </v>
   <v>       0.00583090 </v>
   <v>       0.00583090 </v>
   <v>       0.00583090 </v>
   <v>       0.00583090 </v>
   <v>       0.00583090 </v>
   <v>       0.00583090 </v>
   <v>       0.00583090 </v>
   <v>       0.00583090 </v>
   <v>       0.00583090 </v>
   <v>       0.00583090 </v>
   <v>       0.00583090 </v>
   <v>       0.00583090 </v>
   <v>       0.00583090 </v>
   <v>       0.00583090 </v>
   <v>       0.00583090 </v>
   <v>       0.00583090 </v>
   <v>       0.00583090 </v>
   <v>       0.00583090 </v>
   <v>       0.00583090 </v>
   <v>       0.00583090 </v>
   <v>       0.00583090 </v>
   <v>       0.00583090 </v>
   <v>       0.00583090 </v>
   <v>       0.00583090 </v>
   <v>       0.00583090 </v>
   <v>       0.00583090 </v>
   <v>       0.00583090 </v>
   <v>       0.00583090 </v>
   <v>       0.00583090 </v>
   <v>       0.00583090 </v>
   <v>       0.00583090 </v>
   <v>       0.00583090 </v>
   <v>       0.00583090 </v>
   <v>       0.00583090 </v>
   <v>       0.00583090 </v>
   <v>       0.00583090 </v>
   <v>       0.00583090 </v>
   <v>       0.00583090 </v>
   <v>       0.00583090 </v>
   <v>       0.00583090 </v>
   <v>       0.00583090 </v>
   <v>       0.00583090 </v>
   <v>       0.00583090 </v>
   <v>       0.00583090 </v>
   <v>       0.00583090 </v>
   <v>       0.00583090 </v>
   <v>       0.00583090 </v>
   <v>       0.00583090 </v>
   <v>       0.00583090 </v>
   <v>       0.00583090 </v>
   <v>       0.00583090 </v>
   <v>       0.00583090 </v>
   <v>       0.00583090 </v>
   <v>       0.00583090 </v>
   <v>       0.00583090 </v>
   <v>       0.00583090 </v>
   <v>       0.00583090 </v>
   <v>       0.00583090 </v>
   <v>       0.00583090 </v>
   <v>       0.00583090 </v>
   <v>       0.00583090 </v>
   <v>       0.00583090 </v>
   <v>       0.00583090 </v>
   <v>       0.00583090 </v>
   <v>       0.00583090 </v>
   <v>       0.00583090 </v>
   <v>       0.00583090 </v>
   <v>       0.00583090 </v>
   <v>       0.00583090 </v>
   <v>       0.00583090 </v>
   <v>       0.00583090 </v>
   <v>       0.00583090 </v>
   <v>       0.00583090 </v>
   <v>       0.00583090 </v>
   <v>       0.00583090 </v>
   <v>       0.00583090 </v>
   <v>       0.00583090 </v>
   <v>       0.00583090 </v>
   <v>       0.00583090 </v>
   <v>       0.00583090 </v>
   <v>       0.00583090 </v>
   <v>       0.00583090 </v>
   <v>       0.00583090 </v>
   <v>       0.00583090 </v>
   <v>       0.00583090 </v>
   <v>       0.00583090 </v>
   <v>       0.00583090 </v>
   <v>       0.00583090 </v>
   <v>       0.00583090 </v>
   <v>       0.00583090 </v>
   <v>       0.00583090 </v>
   <v>       0.00583090 </v>
   <v>       0.00583090 </v>
   <v>       0.00583090 </v>
   <v>       0.00583090 </v>
   <v>       0.00583090 </v>
   <v>       0.00583090 </v>
   <v>       0.00583090 </v>
   <v>       0.00583090 </v>
   <v>       0.00583090 </v>
   <v>       0.00583090 </v>
   <v>       0.00583090 </v>
   <v>       0.00583090 </v>
   <v>       0.00583090 </v>
   <v>       0.00583090 </v>
   <v>       0.00583090 </v>
   <v>       0.00583090 </v>
   <v>       0.00583090 </v>
   <v>       0.00583090 </v>
   <v>       0.00583090 </v>
   <v>       0.00583090 </v>
   <v>       0.00583090 </v>
   <v>       0.00583090 </v>
   <v>       0.00583090 </v>
   <v>       0.00583090 </v>
   <v>       0.00583090 </v>
   <v>       0.00583090 </v>
   <v>       0.00583090 </v>
   <v>       0.00583090 </v>
   <v>       0.00583090 </v>
   <v>       0.00583090 </v>
   <v>       0.00583090 </v>
   <v>       0.00583090 </v>
   <v>       0.00583090 </v>
   <v>       0.00583090 </v>
   <v>       0.00583090 </v>
   <v>       0.00583090 </v>
   <v>       0.00583090 </v>
   <v>       0.00583090 </v>
   <v>       0.00583090 </v>
   <v>       0.00583090 </v>
   <v>       0.00583090 </v>
   <v>       0.00583090 </v>
   <v>       0.00583090 </v>
   <v>       0.00583090 </v>
   <v>       0.00583090 </v>
   <v>       0.00583090 </v>
   <v>       0.00583090 </v>
   <v>       0.00583090 </v>
   <v>       0.00583090 </v>
   <v>       0.00583090 </v>
   <v>       0.00583090 </v>
   <v>       0.00583090 </v>
   <v>       0.00583090 </v>
   <v>       0.00583090 </v>
   <v>       0.00583090 </v>
   <v>       0.00583090 </v>
   <v>       0.00583090 </v>
   <v>       0.00583090 </v>
   <v>       0.00583090 </v>
   <v>       0.00583090 </v>
   <v>       0.00583090 </v>
   <v>       0.00583090 </v>
   <v>       0.00583090 </v>
   <v>       0.00583090 </v>
   <v>       0.00583090 </v>
   <v>       0.00583090 </v>
   <v>       0.00583090 </v>
   <v>       0.00583090 </v>
   <v>       0.00583090 </v>
   <v>       0.00583090 </v>
   <v>       0.00583090 </v>
  </varray>
 </kpoints>
 <parameters>
  <separator name="general" >
   <i type="string" name="SYSTEM">Nb - Mo - Ta - Ti - V SQS</i>
   <i type="logical" name="LCOMPAT"> F  </i>
  </separator>
  <separator name="electronic" >
   <i type="string" name="PREC">normal</i>
   <i name="ENMAX">    600.00000000</i>
   <i name="ENAUG">    455.65900000</i>
   <i name="EDIFF">      0.00010000</i>
   <i type="int" name="IALGO">    38</i>
   <i type="int" name="IWAVPR">    11</i>
   <i type="int" name="NBANDS">   120</i>
   <i name="NELECT">    192.00000000</i>
   <i type="int" name="TURBO">     0</i>
   <i type="int" name="IRESTART">     0</i>
   <i type="int" name="NREBOOT">     0</i>
   <i type="int" name="NMIN">     0</i>
   <i name="EREF">      0.00000000</i>
   <separator name="electronic smearing" >
    <i type="int" name="ISMEAR">     1</i>
    <i name="SIGMA">      0.20000000</i>
    <i name="KSPACING">      0.50000000</i>
    <i type="logical" name="KGAMMA"> T  </i>
   </separator>
   <separator name="electronic projectors" >
    <i type="logical" name="LREAL"> T  </i>
    <v name="ROPT">     -0.00050000     -0.00050000     -0.00050000     -0.00050000     -0.00050000</v>
    <i type="int" name="LMAXPAW">  -100</i>
    <i type="int" name="LMAXMIX">     2</i>
    <i type="logical" name="NLSPLINE"> F  </i>
   </separator>
   <separator name="electronic startup" >
    <i type="int" name="ISTART">     0</i>
    <i type="int" name="ICHARG">     0</i>
    <i type="int" name="INIWAV">     1</i>
   </separator>
   <separator name="electronic spin" >
    <i type="int" name="ISPIN">     1</i>
    <i type="logical" name="LNONCOLLINEAR"> F  </i>
    <v name="MAGMOM">      1.00000000      1.00000000      1.00000000      1.00000000      1.00000000      1.00000000      1.00000000      1.00000000      1.00000000      1.00000000      1.00000000      1.00000000      1.00000000      1.00000000      1.00000000      1.00000000      1.00000000      1.00000000      1.00000000      1.00000000
      1.00000000      1.00000000      1.00000000      1.00000000      1.00000000      1.00000000      1.00000000      1.00000000      1.00000000</v>
    <i name="NUPDOWN">     -1.00000000</i>
    <i type="logical" name="LSORBIT"> F  </i>
    <v name="SAXIS">      0.00000000      0.00000000      1.00000000</v>
    <i type="logical" name="LSPIRAL"> F  </i>
    <v name="QSPIRAL">      0.00000000      0.00000000      0.00000000</v>
    <i type="logical" name="LZEROZ"> F  </i>
   </separator>
   <separator name="electronic exchange-correlation" >
    <i type="logical" name="LASPH"> F  </i>
    <i type="logical" name="LMETAGGA"> F  </i>
   </separator>
   <separator name="electronic convergence" >
    <i type="int" name="NELM">    60</i>
    <i type="int" name="NELMDL">    -5</i>
    <i type="int" name="NELMIN">     2</i>
    <i name="ENINI">    600.00000000</i>
    <separator name="electronic convergence detail" >
     <i type="logical" name="LDIAG"> T  </i>
     <i type="logical" name="LSUBROT"> F  </i>
     <i name="WEIMIN">      0.00100000</i>
     <i name="EBREAK">      0.00000021</i>
     <i name="DEPER">      0.30000000</i>
     <i type="int" name="NRMM">     4</i>
     <i name="TIME">      0.40000000</i>
    </separator>
   </separator>
   <separator name="electronic mixer" >
    <i name="AMIX">      0.40000000</i>
    <i name="BMIX">      1.00000000</i>
    <i name="AMIN">      0.10000000</i>
    <i name="AMIX_MAG">      1.60000000</i>
    <i name="BMIX_MAG">      1.00000000</i>
    <separator name="electronic mixer details" >
     <i type="int" name="IMIX">     4</i>
     <i type="logical" name="MIXFIRST"> F  </i>
     <i type="int" name="MAXMIX">   -45</i>
     <i name="WC">    100.00000000</i>
     <i type="int" name="INIMIX">     1</i>
     <i type="int" name="MIXPRE">     1</i>
     <i type="int" name="MREMOVE">     5</i>
    </separator>
   </separator>
   <separator name="electronic dipolcorrection" >
    <i type="logical" name="LDIPOL"> F  </i>
    <i type="logical" name="LMONO"> F  </i>
    <i type="int" name="IDIPOL">     0</i>
    <i name="EPSILON">      1.00000000</i>
    <v name="DIPOL">   -100.00000000   -100.00000000   -100.00000000</v>
    <i name="EFIELD">      0.00000000</i>
   </separator>
  </separator>
  <separator name="grids" >
   <i type="int" name="NGX">    36</i>
   <i type="int" name="NGY">    50</i>
   <i type="int" name="NGZ">    70</i>
   <i type="int" name="NGXF">    72</i>
   <i type="int" name="NGYF">   100</i>
   <i type="int" name="NGZF">   140</i>
   <i type="logical" name="ADDGRID"> F  </i>
  </separator>
  <separator name="ionic" >
   <i type="int" name="NSW">    50</i>
   <i type="int" name="IBRION">     2</i>
   <i type="int" name="MDALGO">     0</i>
   <i type="int" name="ISIF">     3</i>
   <i name="PSTRESS">      0.00000000</i>
   <i name="EDIFFG">      0.00100000</i>
   <i type="int" name="NFREE">     1</i>
   <i name="POTIM">      0.50000000</i>
   <i name="SMASS">     -3.00000000</i>
   <i name="SCALEE">      1.00000000</i>
  </separator>
  <separator name="ionic md" >
   <i name="TEBEG">      0.00010000</i>
   <i name="TEEND">      0.00010000</i>
   <i type="int" name="NBLOCK">     1</i>
   <i type="int" name="KBLOCK">    50</i>
   <i type="int" name="NPACO">   256</i>
   <i name="APACO">     16.00000000</i>
  </separator>
  <separator name="symmetry" >
   <i type="int" name="ISYM">     2</i>
   <i name="SYMPREC">      0.00001000</i>
  </separator>
  <separator name="dos" >
   <i type="int" name="LORBIT">     0</i>
   <v name="RWIGS">     -1.00000000     -1.00000000     -1.00000000     -1.00000000     -1.00000000</v>
   <i type="int" name="NEDOS">   301</i>
   <i name="EMIN">     10.00000000</i>
   <i name="EMAX">    -10.00000000</i>
   <i name="EFERMI">      0.00000000</i>
  </separator>
  <separator name="writing" >
   <i type="int" name="NWRITE">     2</i>
   <i type="logical" name="LWAVE"> T  </i>
   <i type="logical" name="LDOWNSAMPLE"> F  </i>
   <i type="logical" name="LCHARG"> T  </i>
   <i type="logical" name="LPARD"> F  </i>
   <i type="logical" name="LVTOT"> F  </i>
   <i type="logical" name="LVHAR"> F  </i>
   <i type="logical" name="LELF"> F  </i>
   <i type="logical" name="LOPTICS"> F  </i>
   <v name="STM">      0.00000000      0.00000000      0.00000000      0.00000000      0.00000000      0.00000000      0.00000000</v>
  </separator>
  <separator name="performance" >
   <i type="int" name="NPAR">    12</i>
   <i type="int" name="NSIM">     4</i>
   <i type="int" name="NBLK">    -1</i>
   <i type="logical" name="LPLANE"> T  </i>
   <i type="logical" name="LSCALAPACK"> T  </i>
   <i type="logical" name="LSCAAWARE"> F  </i>
   <i type="logical" name="LSCALU"> F  </i>
   <i type="logical" name="LASYNC"> F  </i>
   <i type="logical" name="LORBITALREAL"> F  </i>
  </separator>
  <separator name="miscellaneous" >
   <i type="int" name="IDIOT">     3</i>
   <i type="int" name="ISPECIAL">     0</i>
   <i type="logical" name="LMUSIC"> F  </i>
   <v name="POMASS">     92.91000000     95.94000000    180.94800000     47.88000000     50.94100000</v>
   <v name="DARWINR">      0.00000000      0.00000000      0.00000000      0.00000000      0.00000000</v>
   <v name="DARWINV">      1.00000000      1.00000000      1.00000000      1.00000000      1.00000000</v>
   <i type="logical" name="LCORR"> T  </i>
  </separator>
  <i type="logical" name="GGA_COMPAT"> T  </i>
  <i type="logical" name="LBERRY"> F  </i>
  <i type="int" name="ICORELEVEL">     0</i>
  <i type="logical" name="LDAU"> F  </i>
  <i type="int" name="I_CONSTRAINED_M">     0</i>
  <separator name="electronic exchange-correlation" >
   <i type="string" name="GGA">PS</i>
   <i type="int" name="VOSKOWN">     0</i>
   <i type="logical" name="LHFCALC"> F  </i>
   <i type="string" name="PRECFOCK"></i>
   <i type="logical" name="LSYMGRAD"> F  </i>
   <i type="logical" name="LHFONE"> F  </i>
   <i type="logical" name="LRHFCALC"> F  </i>
   <i type="logical" name="LTHOMAS"> F  </i>
   <i type="logical" name="LMODELHF"> F  </i>
   <i name="ENCUT4O">     -1.00000000</i>
   <i type="int" name="EXXOEP">     0</i>
   <i type="int" name="FOURORBIT">     0</i>
   <i name="AEXX">      0.00000000</i>
   <i name="HFALPHA">      0.00000000</i>
   <i name="MCALPHA">      0.00000000</i>
   <i name="ALDAX">      1.00000000</i>
   <i name="AGGAX">      1.00000000</i>
   <i name="ALDAC">      1.00000000</i>
   <i name="AGGAC">      1.00000000</i>
   <i type="int" name="NKREDX">     1</i>
   <i type="int" name="NKREDY">     1</i>
   <i type="int" name="NKREDZ">     1</i>
   <i type="logical" name="SHIFTRED"> F  </i>
   <i type="logical" name="ODDONLY"> F  </i>
   <i type="logical" name="EVENONLY"> F  </i>
   <i type="int" name="LMAXFOCK">     0</i>
   <i type="int" name="NMAXFOCKAE">     0</i>
   <i type="logical" name="LFOCKAEDFT"> F  </i>
   <i name="HFSCREEN">      0.00000000</i>
   <i name="HFSCREENC">      0.00000000</i>
   <i type="int" name="NBANDSGWLOW">     0</i>
  </separator>
  <separator name="vdW DFT" >
   <i type="logical" name="LUSE_VDW"> F  </i>
   <i name="Zab_VDW">     -0.84910000</i>
   <i name="PARAM1">      0.12340000</i>
   <i name="PARAM2">      1.00000000</i>
   <i name="PARAM3">      0.00000000</i>
  </separator>
  <separator name="model GW" >
   <i type="int" name="MODEL_GW">     0</i>
   <i name="MODEL_EPS0">      9.79277462</i>
   <i name="MODEL_ALPHA">      1.00000000</i>
  </separator>
  <separator name="linear response parameters" >
   <i type="logical" name="LEPSILON"> F  </i>
   <i type="logical" name="LRPA"> F  </i>
   <i type="logical" name="LNABLA"> F  </i>
   <i type="logical" name="LVEL"> F  </i>
   <i type="int" name="KINTER">     0</i>
   <i name="CSHIFT">      0.10000000</i>
   <i name="OMEGAMAX">     -1.00000000</i>
   <i name="DEG_THRESHOLD">      0.00200000</i>
   <i name="RTIME">     -0.10000000</i>
   <i name="WPLASMAI">      0.00000000</i>
   <v name="DFIELD">      0.00000000      0.00000000      0.00000000</v>
   <v name="WPLASMA">      0.00000000      0.00000000      0.00000000      0.00000000      0.00000000      0.00000000      0.00000000      0.00000000      0.00000000</v>
  </separator>
  <separator name="orbital magnetization" >
   <i type="logical" name="NUCIND"> F  </i>
   <v name="MAGPOS">      0.00000000      0.00000000      0.00000000</v>
   <i type="logical" name="LNICSALL"> T  </i>
   <i type="logical" name="ORBITALMAG"> F  </i>
   <i type="logical" name="LMAGBLOCH"> F  </i>
   <i type="logical" name="LCHIMAG"> F  </i>
   <i type="logical" name="LGAUGE"> T  </i>
   <i type="int" name="MAGATOM">     0</i>
   <v name="MAGDIPOL">      0.00000000      0.00000000      0.00000000</v>
   <v name="AVECCONST">      0.00000000      0.00000000      0.00000000</v>
  </separator>
  <separator name="response functions" >
   <i type="logical" name="LADDER"> F  </i>
   <i type="logical" name="LRPAFORCE"> F  </i>
   <i type="logical" name="LFXC"> F  </i>
   <i type="logical" name="LHARTREE"> T  </i>
   <i type="int" name="IBSE">     0</i>
   <v type="int" name="KPOINT">    -1     0     0     0</v>
   <i type="logical" name="LTCTE"> F  </i>
   <i type="logical" name="LTETE"> F  </i>
   <i type="logical" name="LTRIPLET"> F  </i>
   <i type="logical" name="LFXCEPS"> F  </i>
   <i type="logical" name="LFXHEG"> F  </i>
   <i type="int" name="NATURALO">     2</i>
   <i type="logical" name="L2ORDER"> F  </i>
   <i type="logical" name="LMP2LT"> F  </i>
   <i type="logical" name="LUSEW"> F  </i>
   <i name="ENCUTGW">     -2.00000000</i>
   <i name="ENCUTGWSOFT">     -2.00000000</i>
   <i name="ENCUTLF">     -1.00000000</i>
   <i type="int" name="LMAXMP2">    -1</i>
   <i name="SCISSOR">      0.00000000</i>
   <i type="int" name="NOMEGA">     0</i>
   <i type="int" name="NOMEGAR">     0</i>
   <i type="int" name="NBANDSGW">    -1</i>
   <i type="int" name="NBANDSO">    -1</i>
   <i type="int" name="NBANDSV">    -1</i>
   <i type="int" name="NELM">     1</i>
   <i type="int" name="NELMHF">     1</i>
   <i type="int" name="DIM">     3</i>
   <i type="int" name="ANTIRES">     0</i>
   <i name="OMEGAMAX">    -30.00000000</i>
   <i name="OMEGAMIN">    -30.00000000</i>
   <i name="OMEGATL">   -200.00000000</i>
   <i type="int" name="OMEGAGRID">   140</i>
   <i name="CSHIFT">     -0.10000000</i>
   <i type="logical" name="SELFENERGY"> F  </i>
   <i type="logical" name="LSPECTRAL"> F  </i>
   <i type="logical" name="LSPECTRALGW"> F  </i>
   <i type="logical" name="LSINGLES"> F  </i>
   <i type="logical" name="LFERMIGW"> F  </i>
   <i type="logical" name="ODDONLYGW"> F  </i>
   <i type="logical" name="EVENONLYGW"> F  </i>
   <i type="int" name="NKREDLFX">     1</i>
   <i type="int" name="NKREDLFY">     1</i>
   <i type="int" name="NKREDLFZ">     1</i>
   <i type="int" name="MAXMEM">  2800</i>
   <i type="int" name="TELESCOPE">     0</i>
   <i type="int" name="TAUPAR">     1</i>
   <i type="int" name="OMEGAPAR">    -1</i>
   <i name="LAMBDA">      1.00000000</i>
  </separator>
  <separator name="External order field" >
   <i name="OFIELD_KAPPA">      0.00000000</i>
   <v name="OFIELD_K">      0.00000000      0.00000000      0.00000000</v>
   <i name="OFIELD_Q6_NEAR">      0.00000000</i>
   <i name="OFIELD_Q6_FAR">      0.00000000</i>
   <i name="OFIELD_A">      0.00000000</i>
  </separator>
  <separator name="solvation model" >
   <i type="logical" name="LSOL"> F  </i>
  </separator>
 </parameters>
 <atominfo>
  <atoms>      29 </atoms>
  <types>       5 </types>
  <array name="atoms" >
   <dimension dim="1">ion</dimension>
   <field type="string">element</field>
   <field type="int">atomtype</field>
   <set>
    <rc><c>Nb</c><c>   1</c></rc>
    <rc><c>Nb</c><c>   1</c></rc>
    <rc><c>Nb</c><c>   1</c></rc>
    <rc><c>Nb</c><c>   1</c></rc>
    <rc><c>Nb</c><c>   1</c></rc>
    <rc><c>Nb</c><c>   1</c></rc>
    <rc><c>Mo</c><c>   2</c></rc>
    <rc><c>Mo</c><c>   2</c></rc>
    <rc><c>Mo</c><c>   2</c></rc>
    <rc><c>Mo</c><c>   2</c></rc>
    <rc><c>Mo</c><c>   2</c></rc>
    <rc><c>Ta</c><c>   3</c></rc>
    <rc><c>Ta</c><c>   3</c></rc>
    <rc><c>Ta</c><c>   3</c></rc>
    <rc><c>Ta</c><c>   3</c></rc>
    <rc><c>Ta</c><c>   3</c></rc>
    <rc><c>Ta</c><c>   3</c></rc>
    <rc><c>Ti</c><c>   4</c></rc>
    <rc><c>Ti</c><c>   4</c></rc>
    <rc><c>Ti</c><c>   4</c></rc>
    <rc><c>Ti</c><c>   4</c></rc>
    <rc><c>Ti</c><c>   4</c></rc>
    <rc><c>Ti</c><c>   4</c></rc>
    <rc><c>V </c><c>   5</c></rc>
    <rc><c>V </c><c>   5</c></rc>
    <rc><c>V </c><c>   5</c></rc>
    <rc><c>V </c><c>   5</c></rc>
    <rc><c>V </c><c>   5</c></rc>
    <rc><c>V </c><c>   5</c></rc>
   </set>
  </array>
  <array name="atomtypes" >
   <dimension dim="1">type</dimension>
   <field type="int">atomspertype</field>
   <field type="string">element</field>
   <field>mass</field>
   <field>valence</field>
   <field type="string">pseudopotential</field>
   <set>
    <rc><c>   6</c><c>Nb</c><c>     92.91000000</c><c>     13.00000000</c><c>  PAW_PBE Nb_sv 25May2007               </c></rc>
    <rc><c>   5</c><c>Mo</c><c>     95.94000000</c><c>      6.00000000</c><c>  PAW_PBE Mo 08Apr2002                  </c></rc>
    <rc><c>   6</c><c>Ta</c><c>    180.94800000</c><c>      5.00000000</c><c>  PAW_PBE Ta 17Jan2003                  </c></rc>
    <rc><c>   6</c><c>Ti</c><c>     47.88000000</c><c>      4.00000000</c><c>  PAW_PBE Ti 08Apr2002                  </c></rc>
    <rc><c>   6</c><c>V </c><c>     50.94100000</c><c>      5.00000000</c><c>  PAW_PBE V 08Apr2002                   </c></rc>
   </set>
  </array>
 </atominfo>
 <structure name="initialpos" >
  <crystal>
   <varray name="basis" >
    <v>      -3.16000000      -3.16000000      -3.16000000 </v>
    <v>       1.58000000       1.58000000      -7.90000000 </v>
    <v>       7.90000000      -7.90000000      -1.58000000 </v>
   </varray>
   <i name="volume">    473.31744000 </i>
   <varray name="rec_basis" >
    <v>      -0.13713080      -0.12658228      -0.05274262 </v>
    <v>       0.04219409       0.06329114      -0.10548523 </v>
    <v>       0.06329114      -0.06329114       0.00000000 </v>
   </varray>
  </crystal>
  <varray name="positions" >
   <v>       0.96666667       0.93333333       0.40000000 </v>
   <v>       0.63333333       0.26666667       0.40000000 </v>
   <v>       0.50000000       0.00000000       0.00000000 </v>
   <v>       0.00000000       0.00000000       0.00000000 </v>
   <v>       0.10000000       0.20000000       0.80000000 </v>
   <v>       0.03333333       0.06666667       0.60000000 </v>
   <v>       0.90000000       0.80000000       0.20000000 </v>
   <v>       0.80000000       0.60000000       0.40000000 </v>
   <v>       0.73333333       0.46666667       0.20000000 </v>
   <v>       0.36666667       0.73333333       0.60000000 </v>
   <v>       0.13333333       0.26666667       0.40000000 </v>
   <v>       0.83333333       0.66666667       0.00000000 </v>
   <v>       0.93333333       0.86666667       0.80000000 </v>
   <v>       0.56666667       0.13333333       0.20000000 </v>
   <v>       0.40000000       0.80000000       0.20000000 </v>
   <v>       0.43333333       0.86666667       0.80000000 </v>
   <v>       0.30000000       0.60000000       0.40000000 </v>
   <v>       0.86666667       0.73333333       0.60000000 </v>
   <v>       0.46666667       0.93333333       0.40000000 </v>
   <v>       0.16666667       0.33333333       0.00000000 </v>
   <v>       0.26666667       0.53333333       0.80000000 </v>
   <v>       0.20000000       0.40000000       0.60000000 </v>
   <v>       0.06666667       0.13333333       0.20000000 </v>
   <v>       0.76666667       0.53333333       0.80000000 </v>
   <v>       0.70000000       0.40000000       0.60000000 </v>
   <v>       0.60000000       0.20000000       0.80000000 </v>
   <v>       0.53333333       0.06666667       0.60000000 </v>
   <v>       0.33333333       0.66666667       0.00000000 </v>
   <v>       0.23333333       0.46666667       0.20000000 </v>
  </varray>
 </structure>
 <calculation>
  <scstep>
   <time name="dav">   45.14   45.21</time>
   <time name="total">   45.27   45.34</time>
   <energy>
    <i name="alphaZ">   1146.37395419 </i>
    <i name="ewald"> -10941.22043849 </i>
    <i name="hartreedc">   -110.85908120 </i>
    <i name="XCdc">   -921.54963027 </i>
    <i name="pawpsdc"> 562685.53953153 </i>
    <i name="pawaedc">-561445.78295928 </i>
    <i name="eentropy">     -0.00129085 </i>
    <i name="bandstr">  -7421.88069454 </i>
    <i name="atom">  12788.47826598 </i>
    <i name="e_fr_energy">  -4220.90234294 </i>
    <i name="e_wo_entrp">  -4220.90105208 </i>
    <i name="e_0_energy">  -4220.90191265 </i>
   </energy>
  </scstep>
  <scstep>
   <time name="dav">   52.40   52.46</time>
   <time name="total">   52.41   52.47</time>
   <energy>
    <i name="e_fr_energy">  -9759.70080978 </i>
    <i name="e_wo_entrp">  -9759.70346740 </i>
    <i name="e_0_energy">  -9759.70169565 </i>
   </energy>
  </scstep>
  <scstep>
   <time name="dav">   57.05   57.12</time>
   <time name="total">   57.06   57.13</time>
   <energy>
    <i name="e_fr_energy"> -10673.24957230 </i>
    <i name="e_wo_entrp"> -10673.24833786 </i>
    <i name="e_0_energy"> -10673.24916082 </i>
   </energy>
  </scstep>
  <scstep>
   <time name="dav">   57.05   57.12</time>
   <time name="total">   57.06   57.12</time>
   <energy>
    <i name="e_fr_energy"> -10954.85451937 </i>
    <i name="e_wo_entrp"> -10954.85620314 </i>
    <i name="e_0_energy"> -10954.85508063 </i>
   </energy>
  </scstep>
  <scstep>
   <time name="dav">   57.27   57.35</time>
   <time name="total">   57.94   58.02</time>
   <energy>
    <i name="e_fr_energy"> -11133.89583681 </i>
    <i name="e_wo_entrp"> -11133.89188997 </i>
    <i name="e_0_energy"> -11133.89452120 </i>
   </energy>
  </scstep>
  <scstep>
   <time name="dav">   45.61   45.66</time>
   <time name="total">   46.37   46.44</time>
   <energy>
    <i name="e_fr_energy">  -1349.29453516 </i>
    <i name="e_wo_entrp">  -1349.29171733 </i>
    <i name="e_0_energy">  -1349.29359588 </i>
   </energy>
  </scstep>
  <scstep>
   <time name="dav">   53.71   53.77</time>
   <time name="total">   54.38   54.44</time>
   <energy>
    <i name="e_fr_energy">  -1033.22573864 </i>
    <i name="e_wo_entrp">  -1033.22823797 </i>
    <i name="e_0_energy">  -1033.22657175 </i>
   </energy>
  </scstep>
  <scstep>
   <time name="dav">   51.60   51.71</time>
   <time name="total">   52.28   52.40</time>
   <energy>
    <i name="e_fr_energy">   -767.46133371 </i>
    <i name="e_wo_entrp">   -767.46309162 </i>
    <i name="e_0_energy">   -767.46191968 </i>
   </energy>
  </scstep>
  <scstep>
   <time name="dav">   50.31   50.36</time>
   <time name="total">   50.98   51.04</time>
   <energy>
    <i name="e_fr_energy">   -653.59440323 </i>
    <i name="e_wo_entrp">   -653.60076890 </i>
    <i name="e_0_energy">   -653.59652512 </i>
   </energy>
  </scstep>
  <scstep>
   <time name="dav">   52.54   52.59</time>
   <time name="total">   53.21   53.26</time>
   <energy>
    <i name="e_fr_energy">   -632.87734685 </i>
    <i name="e_wo_entrp">   -632.86704109 </i>
    <i name="e_0_energy">   -632.87391160 </i>
   </energy>
  </scstep>
  <scstep>
   <time name="dav">   54.01   54.06</time>
   <time name="total">   54.67   54.74</time>
   <energy>
    <i name="e_fr_energy">   -622.47207471 </i>
    <i name="e_wo_entrp">   -622.46063807 </i>
    <i name="e_0_energy">   -622.46826250 </i>
   </energy>
  </scstep>
  <scstep>
   <time name="dav">   48.37   48.42</time>
   <time name="total">   49.04   49.09</time>
   <energy>
    <i name="e_fr_energy">   -665.23292683 </i>
    <i name="e_wo_entrp">   -665.23277839 </i>
    <i name="e_0_energy">   -665.23287735 </i>
   </energy>
  </scstep>
  <scstep>
   <time name="dav">   51.73   51.78</time>
   <time name="total">   52.39   52.46</time>
   <energy>
    <i name="e_fr_energy">   -608.31814548 </i>
    <i name="e_wo_entrp">   -608.31905979 </i>
    <i name="e_0_energy">   -608.31845025 </i>
   </energy>
  </scstep>
  <scstep>
   <time name="dav">   47.77   47.82</time>
   <time name="total">   48.44   48.49</time>
   <energy>
    <i name="e_fr_energy">   -607.14636417 </i>
    <i name="e_wo_entrp">   -607.13865096 </i>
    <i name="e_0_energy">   -607.14379310 </i>
   </energy>
  </scstep>
  <scstep>
   <time name="dav">   48.02   48.07</time>
   <time name="total">   48.67   48.73</time>
   <energy>
    <i name="e_fr_energy">   -463.78778225 </i>
    <i name="e_wo_entrp">   -463.78429282 </i>
    <i name="e_0_energy">   -463.78661910 </i>
   </energy>
  </scstep>
  <scstep>
   <time name="dav">   52.28   52.34</time>
   <time name="total">   52.95   53.01</time>
   <energy>
    <i name="e_fr_energy">   -506.91514900 </i>
    <i name="e_wo_entrp">   -506.91331401 </i>
    <i name="e_0_energy">   -506.91453734 </i>
   </energy>
  </scstep>
  <scstep>
   <time name="dav">   51.09   51.15</time>
   <time name="total">   51.76   51.82</time>
   <energy>
    <i name="e_fr_energy">   -426.57451923 </i>
    <i name="e_wo_entrp">   -426.57779160 </i>
    <i name="e_0_energy">   -426.57561002 </i>
   </energy>
  </scstep>
  <scstep>
   <time name="dav">   55.70   55.76</time>
   <time name="total">   56.36   56.43</time>
   <energy>
    <i name="e_fr_energy">   -344.46338280 </i>
    <i name="e_wo_entrp">   -344.46512862 </i>
    <i name="e_0_energy">   -344.46396474 </i>
   </energy>
  </scstep>
  <scstep>
   <time name="dav">   50.59   50.65</time>
   <time name="total">   51.26   51.32</time>
   <energy>
    <i name="e_fr_energy">   -322.86222467 </i>
    <i name="e_wo_entrp">   -322.83473894 </i>
    <i name="e_0_energy">   -322.85306276 </i>
   </energy>
  </scstep>
  <scstep>
   <time name="dav">   51.16   51.21</time>
   <time name="total">   51.82   51.88</time>
   <energy>
    <i name="e_fr_energy">   -341.84545165 </i>
    <i name="e_wo_entrp">   -341.84308615 </i>
    <i name="e_0_energy">   -341.84466315 </i>
   </energy>
  </scstep>
  <scstep>
   <time name="dav">   50.14   50.20</time>
   <time name="total">   50.81   50.87</time>
   <energy>
    <i name="e_fr_energy">   -350.02328101 </i>
    <i name="e_wo_entrp">   -350.01396515 </i>
    <i name="e_0_energy">   -350.02017572 </i>
   </energy>
  </scstep>
  <scstep>
   <time name="dav">   53.24   53.30</time>
   <time name="total">   53.92   53.99</time>
   <energy>
    <i name="e_fr_energy">   -333.52299294 </i>
    <i name="e_wo_entrp">   -333.50476994 </i>
    <i name="e_0_energy">   -333.51691860 </i>
   </energy>
  </scstep>
  <scstep>
   <time name="dav">   49.54   49.60</time>
   <time name="total">   50.20   50.28</time>
   <energy>
    <i name="e_fr_energy">   -330.01387598 </i>
    <i name="e_wo_entrp">   -329.98963771 </i>
    <i name="e_0_energy">   -330.00579656 </i>
   </energy>
  </scstep>
  <scstep>
   <time name="dav">   53.45   53.53</time>
   <time name="total">   54.11   54.19</time>
   <energy>
    <i name="e_fr_energy">   -314.60858919 </i>
    <i name="e_wo_entrp">   -314.59437190 </i>
    <i name="e_0_energy">   -314.60385009 </i>
   </energy>
  </scstep>
  <scstep>
   <time name="dav">   50.50   50.59</time>
   <time name="total">   51.15   51.26</time>
   <energy>
    <i name="e_fr_energy">   -309.66851134 </i>
    <i name="e_wo_entrp">   -309.65858549 </i>
    <i name="e_0_energy">   -309.66520272 </i>
   </energy>
  </scstep>
  <scstep>
   <time name="dav">   55.43   55.49</time>
   <time name="total">   56.08   56.16</time>
   <energy>
    <i name="e_fr_energy">   -307.93560914 </i>
    <i name="e_wo_entrp">   -307.91747810 </i>
    <i name="e_0_energy">   -307.92956546 </i>
   </energy>
  </scstep>
  <scstep>
   <time name="dav">   55.86   55.93</time>
   <time name="total">   56.53   56.61</time>
   <energy>
    <i name="e_fr_energy">   -307.14178115 </i>
    <i name="e_wo_entrp">   -307.12604556 </i>
    <i name="e_0_energy">   -307.13653595 </i>
   </energy>
  </scstep>
  <scstep>
   <time name="dav">   50.20   50.26</time>
   <time name="total">   50.87   50.93</time>
   <energy>
    <i name="e_fr_energy">   -307.59287398 </i>
    <i name="e_wo_entrp">   -307.57750922 </i>
    <i name="e_0_energy">   -307.58775239 </i>
   </energy>
  </scstep>
  <scstep>
   <time name="dav">   51.04   51.10</time>
   <time name="total">   51.71   51.78</time>
   <energy>
    <i name="e_fr_energy">   -306.99346263 </i>
    <i name="e_wo_entrp">   -306.97587360 </i>
    <i name="e_0_energy">   -306.98759962 </i>
   </energy>
  </scstep>
  <scstep>
   <time name="dav">   50.32   50.41</time>
   <time name="total">   50.98   51.09</time>
   <energy>
    <i name="e_fr_energy">   -306.13623130 </i>
    <i name="e_wo_entrp">   -306.13155674 </i>
    <i name="e_0_energy">   -306.13467312 </i>
   </energy>
  </scstep>
  <scstep>
   <time name="dav">   51.54   51.64</time>
   <time name="total">   52.21   52.31</time>
   <energy>
    <i name="e_fr_energy">   -306.30692981 </i>
    <i name="e_wo_entrp">   -306.30206362 </i>
    <i name="e_0_energy">   -306.30530775 </i>
   </energy>
  </scstep>
  <scstep>
   <time name="dav">   49.36   49.42</time>
   <time name="total">   50.02   50.08</time>
   <energy>
    <i name="e_fr_energy">   -305.67598829 </i>
    <i name="e_wo_entrp">   -305.66920927 </i>
    <i name="e_0_energy">   -305.67372862 </i>
   </energy>
  </scstep>
  <scstep>
   <time name="dav">   50.50   50.56</time>
   <time name="total">   51.15   51.22</time>
   <energy>
    <i name="e_fr_energy">   -305.17720519 </i>
    <i name="e_wo_entrp">   -305.17075317 </i>
    <i name="e_0_energy">   -305.17505451 </i>
   </energy>
  </scstep>
  <scstep>
   <time name="dav">   50.65   50.71</time>
   <time name="total">   51.32   51.38</time>
   <energy>
    <i name="e_fr_energy">   -304.78249867 </i>
    <i name="e_wo_entrp">   -304.77332855 </i>
    <i name="e_0_energy">   -304.77944196 </i>
   </energy>
  </scstep>
  <scstep>
   <time name="dav">   49.30   49.36</time>
   <time name="total">   49.96   50.02</time>
   <energy>
    <i name="e_fr_energy">   -303.96917722 </i>
    <i name="e_wo_entrp">   -303.95561648 </i>
    <i name="e_0_energy">   -303.96465697 </i>
   </energy>
  </scstep>
  <scstep>
   <time name="dav">   55.47   55.54</time>
   <time name="total">   56.11   56.21</time>
   <energy>
    <i name="e_fr_energy">   -303.76028504 </i>
    <i name="e_wo_entrp">   -303.74351232 </i>
    <i name="e_0_energy">   -303.75469414 </i>
   </energy>
  </scstep>
  <scstep>
   <time name="dav">   50.87   50.93</time>
   <time name="total">   51.53   51.60</time>
   <energy>
    <i name="e_fr_energy">   -303.84243597 </i>
    <i name="e_wo_entrp">   -303.82736932 </i>
    <i name="e_0_energy">   -303.83741375 </i>
   </energy>
  </scstep>
  <scstep>
   <time name="dav">   49.16   49.22</time>
   <time name="total">   49.82   49.88</time>
   <energy>
    <i name="e_fr_energy">   -303.66975741 </i>
    <i name="e_wo_entrp">   -303.65090220 </i>
    <i name="e_0_energy">   -303.66347234 </i>
   </energy>
  </scstep>
  <scstep>
   <time name="dav">   49.36   49.42</time>
   <time name="total">   50.03   50.09</time>
   <energy>
    <i name="e_fr_energy">   -303.73032797 </i>
    <i name="e_wo_entrp">   -303.71430979 </i>
    <i name="e_0_energy">   -303.72498858 </i>
   </energy>
  </scstep>
  <scstep>
   <time name="dav">   49.94   50.00</time>
   <time name="total">   50.60   50.66</time>
   <energy>
    <i name="e_fr_energy">   -303.62185822 </i>
    <i name="e_wo_entrp">   -303.60164486 </i>
    <i name="e_0_energy">   -303.61512043 </i>
   </energy>
  </scstep>
  <scstep>
   <time name="dav">   55.05   55.11</time>
   <time name="total">   55.72   55.79</time>
   <energy>
    <i name="e_fr_energy">   -303.61469507 </i>
    <i name="e_wo_entrp">   -303.59376182 </i>
    <i name="e_0_energy">   -303.60771732 </i>
   </energy>
  </scstep>
  <scstep>
   <time name="dav">   52.74   52.80</time>
   <time name="total">   53.40   53.48</time>
   <energy>
    <i name="e_fr_energy">   -303.61120623 </i>
    <i name="e_wo_entrp">   -303.59110798 </i>
    <i name="e_0_energy">   -303.60450681 </i>
   </energy>
  </scstep>
  <scstep>
   <time name="dav">   48.05   48.10</time>
   <time name="total">   48.71   48.77</time>
   <energy>
    <i name="e_fr_energy">   -303.60694183 </i>
    <i name="e_wo_entrp">   -303.58610172 </i>
    <i name="e_0_energy">   -303.59999513 </i>
   </energy>
  </scstep>
  <scstep>
   <time name="dav">   48.42   48.48</time>
   <time name="total">   49.09   49.14</time>
   <energy>
    <i name="e_fr_energy">   -303.60495785 </i>
    <i name="e_wo_entrp">   -303.58422017 </i>
    <i name="e_0_energy">   -303.59804529 </i>
   </energy>
  </scstep>
  <scstep>
   <time name="dav">   46.39   46.45</time>
   <time name="total">   47.06   47.12</time>
   <energy>
    <i name="e_fr_energy">   -303.60296512 </i>
    <i name="e_wo_entrp">   -303.58235038 </i>
    <i name="e_0_energy">   -303.59609354 </i>
   </energy>
  </scstep>
  <scstep>
   <time name="dav">   46.47   46.52</time>
   <time name="total">   47.14   47.19</time>
   <energy>
    <i name="e_fr_energy">   -303.60218279 </i>
    <i name="e_wo_entrp">   -303.58156981 </i>
    <i name="e_0_energy">   -303.59531180 </i>
   </energy>
  </scstep>
  <scstep>
   <time name="dav">   39.63   39.68</time>
   <time name="total">   40.31   40.36</time>
   <energy>
    <i name="e_fr_energy">   -303.60126820 </i>
    <i name="e_wo_entrp">   -303.58079383 </i>
    <i name="e_0_energy">   -303.59444341 </i>
   </energy>
  </scstep>
  <scstep>
   <time name="dav">   39.15   39.19</time>
   <time name="total">   39.82   39.87</time>
   <energy>
    <i name="e_fr_energy">   -303.60086684 </i>
    <i name="e_wo_entrp">   -303.58032989 </i>
    <i name="e_0_energy">   -303.59402119 </i>
   </energy>
  </scstep>
  <scstep>
   <time name="dav">   28.37   28.41</time>
   <time name="total">   29.04   29.08</time>
   <energy>
    <i name="e_fr_energy">   -303.60050680 </i>
    <i name="e_wo_entrp">   -303.58006662 </i>
    <i name="e_0_energy">   -303.59369341 </i>
   </energy>
  </scstep>
  <scstep>
   <time name="dav">   36.95   36.99</time>
   <time name="total">   37.61   37.66</time>
   <energy>
    <i name="e_fr_energy">   -303.60023918 </i>
    <i name="e_wo_entrp">   -303.57983814 </i>
    <i name="e_0_energy">   -303.59343883 </i>
   </energy>
  </scstep>
  <scstep>
   <time name="dav">   27.64   27.67</time>
   <time name="total">   28.29   28.33</time>
   <energy>
    <i name="e_fr_energy">   -303.60010231 </i>
    <i name="e_wo_entrp">   -303.57969223 </i>
    <i name="e_0_energy">   -303.59329895 </i>
   </energy>
  </scstep>
  <scstep>
   <time name="dav">   27.15   27.18</time>
   <time name="total">   27.23   27.26</time>
   <energy>
    <i name="alphaZ">   1146.37395419 </i>
    <i name="ewald"> -10941.22043849 </i>
    <i name="hartreedc">  -3141.52969987 </i>
    <i name="XCdc">   -828.55446118 </i>
    <i name="pawpsdc">  18765.67008338 </i>
    <i name="pawaedc"> -17323.88420089 </i>
    <i name="eentropy">     -0.02039870 </i>
    <i name="bandstr">   -768.91314911 </i>
    <i name="atom">  12788.47826598 </i>
    <i name="e_fr_energy">   -303.60004471 </i>
    <i name="e_wo_entrp">   -303.57964600 </i>
    <i name="e_0_energy">   -303.59324514 </i>
   </energy>
  </scstep>
  <structure>
   <crystal>
    <varray name="basis" >
     <v>      -3.16000000      -3.16000000      -3.16000000 </v>
     <v>       1.58000000       1.58000000      -7.90000000 </v>
     <v>       7.90000000      -7.90000000      -1.58000000 </v>
    </varray>
    <i name="volume">    473.31744000 </i>
    <varray name="rec_basis" >
     <v>      -0.13713080      -0.12658228      -0.05274262 </v>
     <v>       0.04219409       0.06329114      -0.10548523 </v>
     <v>       0.06329114      -0.06329114       0.00000000 </v>
    </varray>
   </crystal>
   <varray name="positions" >
    <v>       0.96666667       0.93333333       0.40000000 </v>
    <v>       0.63333333       0.26666667       0.40000000 </v>
    <v>       0.50000000       0.00000000       0.00000000 </v>
    <v>       0.00000000       0.00000000       0.00000000 </v>
    <v>       0.10000000       0.20000000       0.80000000 </v>
    <v>       0.03333333       0.06666667       0.60000000 </v>
    <v>       0.90000000       0.80000000       0.20000000 </v>
    <v>       0.80000000       0.60000000       0.40000000 </v>
    <v>       0.73333333       0.46666667       0.20000000 </v>
    <v>       0.36666667       0.73333333       0.60000000 </v>
    <v>       0.13333333       0.26666667       0.40000000 </v>
    <v>       0.83333333       0.66666667       0.00000000 </v>
    <v>       0.93333333       0.86666667       0.80000000 </v>
    <v>       0.56666667       0.13333333       0.20000000 </v>
    <v>       0.40000000       0.80000000       0.20000000 </v>
    <v>       0.43333333       0.86666667       0.80000000 </v>
    <v>       0.30000000       0.60000000       0.40000000 </v>
    <v>       0.86666667       0.73333333       0.60000000 </v>
    <v>       0.46666667       0.93333333       0.40000000 </v>
    <v>       0.16666667       0.33333333       0.00000000 </v>
    <v>       0.26666667       0.53333333       0.80000000 </v>
    <v>       0.20000000       0.40000000       0.60000000 </v>
    <v>       0.06666667       0.13333333       0.20000000 </v>
    <v>       0.76666667       0.53333333       0.80000000 </v>
    <v>       0.70000000       0.40000000       0.60000000 </v>
    <v>       0.60000000       0.20000000       0.80000000 </v>
    <v>       0.53333333       0.06666667       0.60000000 </v>
    <v>       0.33333333       0.66666667       0.00000000 </v>
    <v>       0.23333333       0.46666667       0.20000000 </v>
   </varray>
  </structure>
  <varray name="forces" >
   <v>       0.15463906       0.59970421       0.19136651 </v>
   <v>       0.28117283      -0.07327205       0.06269586 </v>
   <v>       0.02888714       0.46435000       0.00504970 </v>
   <v>       0.29484936      -0.00261198      -0.19340885 </v>
   <v>      -0.08463443       0.61017275      -0.70696012 </v>
   <v>      -0.02096372       0.28108688      -0.35363082 </v>
   <v>      -0.07399162      -0.50003635       0.20073499 </v>
   <v>      -0.50433656      -0.33869001       0.54369402 </v>
   <v>      -0.14465568       0.34521409       0.16046165 </v>
   <v>      -0.16008459      -0.49744979       0.30647688 </v>
   <v>       0.01048750       0.24683922      -0.63697696 </v>
   <v>      -0.06213217      -0.69075415       0.20352316 </v>
   <v>       0.31013272       0.21994406      -0.03448809 </v>
   <v>      -0.34035920       0.66685447      -0.39406184 </v>
   <v>      -0.82871948       0.01913491       0.68307855 </v>
   <v>      -0.73939502      -0.24073949       0.62182983 </v>
   <v>       0.23360919      -0.30712226      -0.11990483 </v>
   <v>       0.07497856       0.28305241       0.50145948 </v>
   <v>       0.64176650      -0.67233756       0.11097604 </v>
   <v>       0.15856583      -0.20633147      -0.43734301 </v>
   <v>      -0.27723326       0.28438006      -0.16374013 </v>
   <v>      -0.05611292      -0.25967670       0.51527279 </v>
   <v>       0.54740896      -0.45115708      -0.98092815 </v>
   <v>      -0.31521942       0.05059840       0.23206506 </v>
   <v>       0.69519660       0.00162834      -0.38588331 </v>
   <v>      -0.36773607       0.55916894       0.14008502 </v>
   <v>       0.09790680      -0.46418255      -0.53934969 </v>
   <v>      -0.10748845      -0.20477826       0.64782691 </v>
   <v>       0.55346154       0.27701098      -0.17992064 </v>
  </varray>
  <varray name="stress" >
   <v>      -6.56673993      -6.62516068      -3.59983380 </v>
   <v>      -6.62516067      -9.44189563      -1.45367409 </v>
   <v>      -3.59983382      -1.45367411     -12.49723272 </v>
  </varray>
  <energy>
   <i name="e_fr_energy">   -303.60004471 </i>
   <i name="e_wo_entrp">   -303.59324514 </i>
   <i name="e_0_energy">     -0.02039870 </i>
  </energy>
  <time name="totalsc"> 2606.81 2610.34</time>
 </calculation>
 <calculation>
  <scstep>
   <time name="dav">   33.29   33.35</time>
   <time name="total">   33.94   34.02</time>
   <energy>
    <i name="alphaZ">   1162.60395073 </i>
    <i name="ewald"> -11030.56229725 </i>
    <i name="hartreedc">  -3120.76465761 </i>
    <i name="XCdc">   -826.83961424 </i>
    <i name="pawpsdc">  18762.04196034 </i>
    <i name="pawaedc"> -17320.32600048 </i>
    <i name="eentropy">     -0.01938737 </i>
    <i name="bandstr">   -718.59747830 </i>
    <i name="atom">  12788.47826598 </i>
    <i name="e_fr_energy">   -303.98525820 </i>
    <i name="e_wo_entrp">   -303.96587083 </i>
    <i name="e_0_energy">   -303.97879574 </i>
   </energy>
  </scstep>
  <scstep>
   <time name="dav">   51.83   51.93</time>
   <time name="total">   52.50   52.59</time>
   <energy>
    <i name="e_fr_energy">   -305.45757969 </i>
    <i name="e_wo_entrp">   -305.44584674 </i>
    <i name="e_0_energy">   -305.45366871 </i>
   </energy>
  </scstep>
  <scstep>
   <time name="dav">   51.28   51.34</time>
   <time name="total">   51.94   52.00</time>
   <energy>
    <i name="e_fr_energy">   -304.33451742 </i>
    <i name="e_wo_entrp">   -304.32123727 </i>
    <i name="e_0_energy">   -304.33009070 </i>
   </energy>
  </scstep>
  <scstep>
   <time name="dav">   50.84   50.92</time>
   <time name="total">   51.52   51.63</time>
   <energy>
    <i name="e_fr_energy">   -304.30972703 </i>
    <i name="e_wo_entrp">   -304.28946475 </i>
    <i name="e_0_energy">   -304.30297294 </i>
   </energy>
  </scstep>
  <scstep>
   <time name="dav">   48.80   48.87</time>
   <time name="total">   49.47   49.56</time>
   <energy>
    <i name="e_fr_energy">   -304.20927296 </i>
    <i name="e_wo_entrp">   -304.19268343 </i>
    <i name="e_0_energy">   -304.20374312 </i>
   </energy>
  </scstep>
  <scstep>
   <time name="dav">   50.97   51.04</time>
   <time name="total">   51.64   51.71</time>
   <energy>
    <i name="e_fr_energy">   -304.16212798 </i>
    <i name="e_wo_entrp">   -304.14627131 </i>
    <i name="e_0_energy">   -304.15684242 </i>
   </energy>
  </scstep>
  <scstep>
   <time name="dav">   52.11   52.19</time>
   <time name="total">   52.78   52.87</time>
   <energy>
    <i name="e_fr_energy">   -304.16033082 </i>
    <i name="e_wo_entrp">   -304.14330306 </i>
    <i name="e_0_energy">   -304.15465490 </i>
   </energy>
  </scstep>
  <scstep>
   <time name="dav">   50.20   50.26</time>
   <time name="total">   50.87   50.93</time>
   <energy>
    <i name="e_fr_energy">   -304.14817172 </i>
    <i name="e_wo_entrp">   -304.13069162 </i>
    <i name="e_0_energy">   -304.14234502 </i>
   </energy>
  </scstep>
  <scstep>
   <time name="dav">   51.84   51.90</time>
   <time name="total">   52.51   52.59</time>
   <energy>
    <i name="e_fr_energy">   -304.13875341 </i>
    <i name="e_wo_entrp">   -304.12188199 </i>
    <i name="e_0_energy">   -304.13312960 </i>
   </energy>
  </scstep>
  <scstep>
   <time name="dav">   50.47   50.53</time>
   <time name="total">   51.14   51.21</time>
   <energy>
    <i name="e_fr_energy">   -304.13704841 </i>
    <i name="e_wo_entrp">   -304.11991748 </i>
    <i name="e_0_energy">   -304.13133810 </i>
   </energy>
  </scstep>
  <scstep>
   <time name="dav">   45.91   45.97</time>
   <time name="total">   46.58   46.64</time>
   <energy>
    <i name="e_fr_energy">   -304.13605058 </i>
    <i name="e_wo_entrp">   -304.11881673 </i>
    <i name="e_0_energy">   -304.13030596 </i>
   </energy>
  </scstep>
  <scstep>
   <time name="dav">   49.61   49.68</time>
   <time name="total">   50.28   50.35</time>
   <energy>
    <i name="e_fr_energy">   -304.13641733 </i>
    <i name="e_wo_entrp">   -304.11920559 </i>
    <i name="e_0_energy">   -304.13068008 </i>
   </energy>
  </scstep>
  <scstep>
   <time name="dav">   48.18   48.24</time>
   <time name="total">   48.85   48.91</time>
   <energy>
    <i name="e_fr_energy">   -304.13706843 </i>
    <i name="e_wo_entrp">   -304.11970419 </i>
    <i name="e_0_energy">   -304.13128035 </i>
   </energy>
  </scstep>
  <scstep>
   <time name="dav">   45.45   45.50</time>
   <time name="total">   46.12   46.17</time>
   <energy>
    <i name="e_fr_energy">   -304.13688757 </i>
    <i name="e_wo_entrp">   -304.11968139 </i>
    <i name="e_0_energy">   -304.13115217 </i>
   </energy>
  </scstep>
  <scstep>
   <time name="dav">   44.49   44.54</time>
   <time name="total">   45.14   45.21</time>
   <energy>
    <i name="e_fr_energy">   -304.13657760 </i>
    <i name="e_wo_entrp">   -304.11937388 </i>
    <i name="e_0_energy">   -304.13084303 </i>
   </energy>
  </scstep>
  <scstep>
   <time name="dav">   42.82   42.87</time>
   <time name="total">   43.50   43.55</time>
   <energy>
    <i name="e_fr_energy">   -304.13644974 </i>
    <i name="e_wo_entrp">   -304.11917784 </i>
    <i name="e_0_energy">   -304.13069244 </i>
   </energy>
  </scstep>
  <scstep>
   <time name="dav">   29.43   29.46</time>
   <time name="total">   29.51   29.55</time>
   <energy>
    <i name="alphaZ">   1162.60395073 </i>
    <i name="ewald"> -11030.56229725 </i>
    <i name="hartreedc">  -3092.16774338 </i>
    <i name="XCdc">   -827.69274790 </i>
    <i name="pawpsdc">  19025.69126486 </i>
    <i name="pawaedc"> -17584.76572344 </i>
    <i name="eentropy">     -0.01723414 </i>
    <i name="bandstr">   -745.70416150 </i>
    <i name="atom">  12788.47826598 </i>
    <i name="e_fr_energy">   -304.13642604 </i>
    <i name="e_wo_entrp">   -304.11919190 </i>
    <i name="e_0_energy">   -304.13068133 </i>
   </energy>
  </scstep>
  <structure>
   <crystal>
    <varray name="basis" >
     <v>      -3.13392299      -3.13279089      -3.13274428 </v>
     <v>       1.58373276       1.57316797      -7.85540449 </v>
     <v>       7.90302203      -7.88793551      -1.57862839 </v>
    </varray>
    <i name="volume">    466.70991006 </i>
    <varray name="rec_basis" >
     <v>      -0.13808657      -0.12766240      -0.05340611 </v>
     <v>       0.04235044       0.06364863      -0.10601596 </v>
     <v>       0.06328915      -0.06337912       0.00006710 </v>
    </varray>
   </crystal>
   <varray name="positions" >
    <v>       0.96149453       0.93450536       0.39864107 </v>
    <v>       0.63176114       0.26669624       0.40108224 </v>
    <v>       0.49696042       0.00145092      -0.00132961 </v>
    <v>      -0.00144252       0.00157644       0.00090825 </v>
    <v>       0.09863260       0.20528842       0.79787852 </v>
    <v>       0.03265531       0.06928184       0.59907774 </v>
    <v>       0.90303229       0.79730109       0.20130086 </v>
    <v>       0.80402133       0.59517246       0.39949423 </v>
    <v>       0.73177391       0.46660970       0.19850426 </v>
    <v>       0.36998366       0.72992896       0.60103009 </v>
    <v>       0.13337734       0.27068320       0.39927834 </v>
    <v>       0.83744472       0.66339539       0.00191939 </v>
    <v>       0.93002626       0.86814503       0.80027538 </v>
    <v>       0.56584875       0.13668197       0.19692464 </v>
    <v>       0.40362753       0.79489541       0.19741122 </v>
    <v>       0.43811274       0.86126211       0.79847744 </v>
    <v>       0.30063513       0.60014796       0.40165103 </v>
    <v>       0.86316620       0.73179834       0.59936468 </v>
    <v>       0.46624440       0.93202207       0.40401240 </v>
    <v>       0.16799046       0.33525169       0.00111415 </v>
    <v>       0.26718074       0.53447057       0.79828521 </v>
    <v>       0.20064589       0.39647073       0.60062155 </v>
    <v>       0.06829624       0.13806191       0.20304895 </v>
    <v>       0.76785256       0.53166522       0.79888304 </v>
    <v>       0.69637280       0.40338380       0.60211769 </v>
    <v>       0.59866168       0.20024590       0.79716985 </v>
    <v>       0.53689257       0.06819335       0.60171625 </v>
    <v>       0.33364658       0.66252590       0.00029706 </v>
    <v>       0.22843806       0.46955467       0.20084410 </v>
   </varray>
  </structure>
  <varray name="forces" >
   <v>       0.11706669       0.29125656       0.09807015 </v>
   <v>       0.10365540       0.00045182       0.03635129 </v>
   <v>      -0.14729244       0.30243897       0.10757685 </v>
   <v>       0.33725661       0.08856473      -0.28648935 </v>
   <v>      -0.05102937       0.28737325      -0.33386484 </v>
   <v>      -0.03417505       0.12266450      -0.20390932 </v>
   <v>      -0.07517383      -0.18890235       0.10155151 </v>
   <v>      -0.17435046      -0.18433924       0.22754482 </v>
   <v>      -0.15486129       0.23820871       0.27076623 </v>
   <v>      -0.10690989      -0.33197423       0.27427076 </v>
   <v>       0.09146737       0.11583946      -0.25890359 </v>
   <v>      -0.11660940      -0.26176615       0.02875052 </v>
   <v>       0.10608348       0.10501416      -0.09385119 </v>
   <v>      -0.28628963       0.39753153      -0.38034824 </v>
   <v>      -0.27541583      -0.08889495       0.25608458 </v>
   <v>      -0.18139025      -0.03079503       0.43772212 </v>
   <v>       0.13808147      -0.27801545      -0.15007286 </v>
   <v>       0.02669039       0.15876691       0.28110625 </v>
   <v>       0.31995074      -0.31438696       0.15205136 </v>
   <v>       0.01973619      -0.25099409      -0.42609629 </v>
   <v>      -0.23794304       0.15656179      -0.07469080 </v>
   <v>      -0.01670435      -0.13065606       0.33802998 </v>
   <v>       0.31258474      -0.26948282      -0.59130424 </v>
   <v>      -0.25409249       0.05008610       0.22130166 </v>
   <v>       0.56768440      -0.04995170      -0.24209101 </v>
   <v>      -0.33501151       0.50283742       0.05487522 </v>
   <v>       0.10323635      -0.44052592      -0.36786268 </v>
   <v>      -0.19259515      -0.21679958       0.65218081 </v>
   <v>       0.39635016       0.21988860      -0.12874967 </v>
  </varray>
  <varray name="stress" >
   <v>      15.55761868      -4.85989499      -1.85062542 </v>
   <v>      -4.85989495      13.21196245      -0.13668478 </v>
   <v>      -1.85062543      -0.13668468      11.53948797 </v>
  </varray>
  <energy>
   <i name="e_fr_energy">   -304.13642604 </i>
   <i name="e_wo_entrp">   -304.13068133 </i>
   <i name="e_0_energy">     -0.01723414 </i>
  </energy>
  <time name="totalsc">  828.12  829.37</time>
 </calculation>
 <calculation>
  <scstep>
   <time name="dav">   33.59   33.64</time>
   <time name="total">   34.27   34.32</time>
   <energy>
    <i name="alphaZ">   1177.06226867 </i>
    <i name="ewald"> -11103.63688560 </i>
    <i name="hartreedc">  -3078.37516822 </i>
    <i name="XCdc">   -826.18129661 </i>
    <i name="pawpsdc">  19025.51768976 </i>
    <i name="pawaedc"> -17584.57204146 </i>
    <i name="eentropy">     -0.01460874 </i>
    <i name="bandstr">   -702.43191872 </i>
    <i name="atom">  12788.47826598 </i>
    <i name="e_fr_energy">   -304.15369495 </i>
    <i name="e_wo_entrp">   -304.13908621 </i>
    <i name="e_0_energy">   -304.14882537 </i>
   </energy>
  </scstep>
  <scstep>
   <time name="dav">   51.69   51.76</time>
   <time name="total">   52.36   52.43</time>
   <energy>
    <i name="e_fr_energy">   -305.24482287 </i>
    <i name="e_wo_entrp">   -305.23913302 </i>
    <i name="e_0_energy">   -305.24292625 </i>
   </energy>
  </scstep>
  <scstep>
   <time name="dav">   51.12   51.19</time>
   <time name="total">   51.78   51.87</time>
   <energy>
    <i name="e_fr_energy">   -304.42382469 </i>
    <i name="e_wo_entrp">   -304.41593835 </i>
    <i name="e_0_energy">   -304.42119591 </i>
   </energy>
  </scstep>
  <scstep>
   <time name="dav">   49.63   49.69</time>
   <time name="total">   50.30   50.37</time>
   <energy>
    <i name="e_fr_energy">   -304.40685866 </i>
    <i name="e_wo_entrp">   -304.39201334 </i>
    <i name="e_0_energy">   -304.40191022 </i>
   </energy>
  </scstep>
  <scstep>
   <time name="dav">   48.22   48.28</time>
   <time name="total">   48.90   48.97</time>
   <energy>
    <i name="e_fr_energy">   -304.33477134 </i>
    <i name="e_wo_entrp">   -304.32492870 </i>
    <i name="e_0_energy">   -304.33149046 </i>
   </energy>
  </scstep>
  <scstep>
   <time name="dav">   51.18   51.24</time>
   <time name="total">   51.85   51.91</time>
   <energy>
    <i name="e_fr_energy">   -304.29636479 </i>
    <i name="e_wo_entrp">   -304.28601866 </i>
    <i name="e_0_energy">   -304.29291608 </i>
   </energy>
  </scstep>
  <scstep>
   <time name="dav">   53.53   53.59</time>
   <time name="total">   54.20   54.26</time>
   <energy>
    <i name="e_fr_energy">   -304.29805942 </i>
    <i name="e_wo_entrp">   -304.28740435 </i>
    <i name="e_0_energy">   -304.29450773 </i>
   </energy>
  </scstep>
  <scstep>
   <time name="dav">   50.28   50.34</time>
   <time name="total">   50.94   51.00</time>
   <energy>
    <i name="e_fr_energy">   -304.28646262 </i>
    <i name="e_wo_entrp">   -304.27539872 </i>
    <i name="e_0_energy">   -304.28277465 </i>
   </energy>
  </scstep>
  <scstep>
   <time name="dav">   51.20   51.25</time>
   <time name="total">   51.86   51.92</time>
   <energy>
    <i name="e_fr_energy">   -304.28022301 </i>
    <i name="e_wo_entrp">   -304.26970301 </i>
    <i name="e_0_energy">   -304.27671634 </i>
   </energy>
  </scstep>
  <scstep>
   <time name="dav">   50.51   50.56</time>
   <time name="total">   51.18   51.24</time>
   <energy>
    <i name="e_fr_energy">   -304.27892007 </i>
    <i name="e_wo_entrp">   -304.26804603 </i>
    <i name="e_0_energy">   -304.27529539 </i>
   </energy>
  </scstep>
  <scstep>
   <time name="dav">   45.75   45.80</time>
   <time name="total">   46.42   46.47</time>
   <energy>
    <i name="e_fr_energy">   -304.27863209 </i>
    <i name="e_wo_entrp">   -304.26760817 </i>
    <i name="e_0_energy">   -304.27495745 </i>
   </energy>
  </scstep>
  <scstep>
   <time name="dav">   46.64   46.70</time>
   <time name="total">   47.31   47.37</time>
   <energy>
    <i name="e_fr_energy">   -304.27892794 </i>
    <i name="e_wo_entrp">   -304.26799399 </i>
    <i name="e_0_energy">   -304.27528329 </i>
   </energy>
  </scstep>
  <scstep>
   <time name="dav">   47.48   47.54</time>
   <time name="total">   48.14   48.21</time>
   <energy>
    <i name="e_fr_energy">   -304.27937872 </i>
    <i name="e_wo_entrp">   -304.26837215 </i>
    <i name="e_0_energy">   -304.27570986 </i>
   </energy>
  </scstep>
  <scstep>
   <time name="dav">   44.39   44.44</time>
   <time name="total">   45.06   45.12</time>
   <energy>
    <i name="e_fr_energy">   -304.27914074 </i>
    <i name="e_wo_entrp">   -304.26809159 </i>
    <i name="e_0_energy">   -304.27545769 </i>
   </energy>
  </scstep>
  <scstep>
   <time name="dav">   46.66   46.71</time>
   <time name="total">   47.32   47.38</time>
   <energy>
    <i name="e_fr_energy">   -304.27894686 </i>
    <i name="e_wo_entrp">   -304.26798105 </i>
    <i name="e_0_energy">   -304.27529159 </i>
   </energy>
  </scstep>
  <scstep>
   <time name="dav">   38.13   38.17</time>
   <time name="total">   38.21   38.26</time>
   <energy>
    <i name="alphaZ">   1177.06226867 </i>
    <i name="ewald"> -11103.63688560 </i>
    <i name="hartreedc">  -3054.11508616 </i>
    <i name="XCdc">   -826.91580524 </i>
    <i name="pawpsdc">  19297.45723639 </i>
    <i name="pawaedc"> -17857.07431753 </i>
    <i name="eentropy">     -0.01101532 </i>
    <i name="bandstr">   -725.52352695 </i>
    <i name="atom">  12788.47826598 </i>
    <i name="e_fr_energy">   -304.27886577 </i>
    <i name="e_wo_entrp">   -304.26785045 </i>
    <i name="e_0_energy">   -304.27519400 </i>
   </energy>
  </scstep>
  <structure>
   <crystal>
    <varray name="basis" >
     <v>      -3.11114848      -3.10902764      -3.10894034 </v>
     <v>       1.58699280       1.56720117      -7.81645674 </v>
     <v>       7.90566133      -7.87739891      -1.57743049 </v>
    </varray>
    <i name="volume">    460.97712901 </i>
    <varray name="rec_basis" >
     <v>      -0.13893422      -0.12862002      -0.05399647 </v>
     <v>       0.04248820       0.06396380      -0.10648398 </v>
     <v>       0.06328712      -0.06345656       0.00012627 </v>
    </varray>
   </crystal>
   <varray name="positions" >
    <v>       0.95693855       0.93553473       0.39745254 </v>
    <v>       0.63037831       0.26672141       0.40202784 </v>
    <v>       0.49428334       0.00272516      -0.00249255 </v>
    <v>      -0.00270871       0.00295947       0.00170091 </v>
    <v>       0.09743378       0.20993154       0.79602146 </v>
    <v>       0.03206109       0.07157781       0.59827024 </v>
    <v>       0.90570068       0.79493148       0.20243939 </v>
    <v>       0.80755391       0.59093573       0.39905534 </v>
    <v>       0.73039762       0.46656060       0.19719714 </v>
    <v>       0.37290110       0.72694034       0.60193245 </v>
    <v>       0.13342192       0.27420910       0.39864536 </v>
    <v>       0.84106367       0.66052303       0.00359885 </v>
    <v>       0.92711647       0.86944229       0.80051494 </v>
    <v>       0.56512878       0.13962315       0.19423520 </v>
    <v>       0.40680907       0.79041684       0.19515222 </v>
    <v>       0.44231022       0.85651961       0.79715041 </v>
    <v>       0.30119775       0.60027678       0.40309375 </v>
    <v>       0.86007913       0.73045128       0.59881018 </v>
    <v>       0.46587725       0.93086849       0.40751940 </v>
    <v>       0.16916183       0.33693482       0.00208672 </v>
    <v>       0.26763250       0.53546990       0.79678609 </v>
    <v>       0.20120966       0.39337263       0.60116680 </v>
    <v>       0.06974534       0.14221039       0.20571063 </v>
    <v>       0.76889216       0.53020187       0.79790802 </v>
    <v>       0.69318769       0.40635229       0.60396604 </v>
    <v>       0.59747830       0.20046353       0.79469648 </v>
    <v>       0.54003332       0.06953240       0.60321533 </v>
    <v>       0.33391569       0.65889125       0.00055910 </v>
    <v>       0.22413288       0.47208877       0.20157971 </v>
   </varray>
  </structure>
  <varray name="forces" >
   <v>       0.07504427       0.00427225       0.03489704 </v>
   <v>      -0.06753860       0.05216424      -0.01240974 </v>
   <v>      -0.31392839       0.15441479       0.18715762 </v>
   <v>       0.37752804       0.17656160      -0.34615765 </v>
   <v>       0.02775976      -0.00975588      -0.00691418 </v>
   <v>      -0.04373533      -0.02408699      -0.05940659 </v>
   <v>      -0.06961019       0.10419514      -0.00943324 </v>
   <v>       0.15389586      -0.00715533      -0.10053374 </v>
   <v>      -0.13067977       0.07863369       0.38084846 </v>
   <v>      -0.04631937      -0.12239029       0.22714597 </v>
   <v>       0.15298993      -0.04155337       0.12840994 </v>
   <v>      -0.17983830       0.19518520      -0.12357769 </v>
   <v>      -0.08346881      -0.02308005      -0.14350032 </v>
   <v>      -0.24411750       0.13622943      -0.37200501 </v>
   <v>       0.19779890      -0.15164421      -0.12516953 </v>
   <v>       0.28748621       0.12379651       0.23964966 </v>
   <v>       0.04784740      -0.22008233      -0.16140133 </v>
   <v>      -0.01081084       0.02592483       0.04576076 </v>
   <v>       0.05984575      -0.00704512       0.18986822 </v>
   <v>      -0.12072404      -0.27661663      -0.38674203 </v>
   <v>      -0.15844540       0.03527542       0.01286501 </v>
   <v>       0.00595965       0.01992547       0.15632644 </v>
   <v>       0.08882371      -0.07687522      -0.20734766 </v>
   <v>      -0.16639319       0.01668202       0.19452598 </v>
   <v>       0.41309997      -0.09026420      -0.09146096 </v>
   <v>      -0.29328905       0.42230988      -0.03880936 </v>
   <v>       0.09158072      -0.41468545      -0.17330293 </v>
   <v>      -0.26558904      -0.21502979       0.63859309 </v>
   <v>       0.21482765       0.13469437      -0.07787622 </v>
  </varray>
  <varray name="stress" >
   <v>      38.74665135      -2.77175541       0.15138387 </v>
   <v>      -2.77175543      37.56766363       0.80155434 </v>
   <v>       0.15138391       0.80155439      37.27618123 </v>
  </varray>
  <energy>
   <i name="e_fr_energy">   -304.27886577 </i>
   <i name="e_wo_entrp">   -304.27519400 </i>
   <i name="e_0_energy">     -0.01101532 </i>
  </energy>
  <time name="totalsc">  789.63  790.69</time>
 </calculation>
 <calculation>
  <scstep>
   <time name="dav">   39.91   39.95</time>
   <time name="total">   40.57   40.62</time>
   <energy>
    <i name="alphaZ">   1151.67875618 </i>
    <i name="ewald"> -11043.50814744 </i>
    <i name="hartreedc">  -3012.21093871 </i>
    <i name="XCdc">   -829.87246998 </i>
    <i name="pawpsdc">  19297.34433199 </i>
    <i name="pawaedc"> -17856.93941579 </i>
    <i name="eentropy">     -0.00172654 </i>
    <i name="bandstr">   -799.72007246 </i>
    <i name="atom">  12788.47826598 </i>
    <i name="e_fr_energy">   -304.75141678 </i>
    <i name="e_wo_entrp">   -304.74969024 </i>
[...]
       <r>    4.7382    1.0000 </r>
       <r>    4.8069    1.0000 </r>
       <r>    4.8481    1.0000 </r>
       <r>    4.9288    1.0000 </r>
       <r>    4.9450    1.0000 </r>
       <r>    5.0006    1.0000 </r>
       <r>    5.0546    1.0000 </r>
       <r>    5.1199    1.0000 </r>
       <r>    5.1983    1.0000 </r>
       <r>    5.2533    1.0000 </r>
       <r>    5.3086    1.0000 </r>
       <r>    5.3409    1.0000 </r>
       <r>    5.3498    1.0000 </r>
       <r>    5.4439    1.0000 </r>
       <r>    5.5103    1.0000 </r>
       <r>    5.5269    1.0000 </r>
       <r>    5.5775    1.0000 </r>
       <r>    5.6360    1.0000 </r>
       <r>    5.6797    1.0000 </r>
       <r>    5.7026    1.0000 </r>
       <r>    5.8446    1.0000 </r>
       <r>    5.8967    1.0000 </r>
       <r>    5.9570    1.0000 </r>
       <r>    5.9904    1.0001 </r>
       <r>    6.0306    1.0003 </r>
       <r>    6.0866    1.0010 </r>
       <r>    6.1409    1.0032 </r>
       <r>    6.1948    1.0082 </r>
       <r>    6.2277    1.0134 </r>
       <r>    6.2714    1.0227 </r>
       <r>    6.3033    1.0299 </r>
       <r>    6.3638    1.0344 </r>
       <r>    6.4169    1.0080 </r>
       <r>    6.4391    0.9820 </r>
       <r>    6.5374    0.7257 </r>
       <r>    6.5768    0.5685 </r>
       <r>    6.5946    0.4935 </r>
       <r>    6.6693    0.2021 </r>
       <r>    6.7818   -0.0183 </r>
       <r>    6.8333   -0.0354 </r>
       <r>    6.9030   -0.0254 </r>
       <r>    7.0051   -0.0066 </r>
       <r>    7.0356   -0.0038 </r>
       <r>    7.1208   -0.0006 </r>
       <r>    7.1698   -0.0002 </r>
       <r>    7.3277   -0.0000 </r>
       <r>    7.4494   -0.0000 </r>
       <r>    7.5448   -0.0000 </r>
       <r>    7.6037   -0.0000 </r>
       <r>    7.7470   -0.0000 </r>
       <r>    7.8715   -0.0000 </r>
       <r>    8.0174   -0.0000 </r>
       <r>    8.1232   -0.0000 </r>
       <r>    8.2048   -0.0000 </r>
       <r>    8.2835   -0.0000 </r>
       <r>    8.3783   -0.0000 </r>
       <r>    8.4298   -0.0000 </r>
       <r>    8.4868   -0.0000 </r>
       <r>    8.5475   -0.0000 </r>
       <r>    8.6211   -0.0000 </r>
       <r>    8.7316   -0.0000 </r>
      </set>
     </set>
    </set>
   </array>
  </eigenvalues>
  <separator name="orbital magnetization" >
   <v name="MAGDIPOLOUT">      0.00000000      0.00000000      0.00000000</v>
  </separator>
  <dos>
   <i name="efermi">      6.59307280 </i>
   <total>
    <array>
     <dimension dim="1">gridpoints</dimension>
     <dimension dim="2">spin</dimension>
     <field>energy</field>
     <field>total</field>
     <field>integrated</field>
     <set>
      <set comment="spin 1">
       <r>   -50.4122     0.0000     0.0000 </r>
       <r>   -50.2054     0.0000     0.0000 </r>
       <r>   -49.9986     0.0000     0.0000 </r>
       <r>   -49.7918     0.0000     0.0000 </r>
       <r>   -49.5850     0.0000     0.0000 </r>
       <r>   -49.3783    -0.0000    -0.0000 </r>
       <r>   -49.1715    -0.0000    -0.0000 </r>
       <r>   -48.9647    -0.0000    -0.0000 </r>
       <r>   -48.7579    -0.0000    -0.0000 </r>
       <r>   -48.5511    -0.0000    -0.0000 </r>
       <r>   -48.3443    -0.0000    -0.0000 </r>
       <r>   -48.1375    -0.0028    -0.0006 </r>
       <r>   -47.9307    -0.1871    -0.0393 </r>
       <r>   -47.7239    -0.4628    -0.1350 </r>
       <r>   -47.5171    12.2785     2.4042 </r>
       <r>   -47.3103    33.6436     9.3616 </r>
       <r>   -47.1035    13.8348    12.2226 </r>
       <r>   -46.8967    -0.9095    12.0345 </r>
       <r>   -46.6899    -0.1652    12.0003 </r>
       <r>   -46.4831    -0.0015    12.0000 </r>
       <r>   -46.2763    -0.0000    12.0000 </r>
       <r>   -46.0695    -0.0000    12.0000 </r>
       <r>   -45.8627    -0.0000    12.0000 </r>
       <r>   -45.6559     0.0000    12.0000 </r>
       <r>   -45.4491     0.0000    12.0000 </r>
       <r>   -45.2423     0.0000    12.0000 </r>
       <r>   -45.0355     0.0000    12.0000 </r>
       <r>   -44.8287     0.0000    12.0000 </r>
       <r>   -44.6219     0.0000    12.0000 </r>
       <r>   -44.4151     0.0000    12.0000 </r>
       <r>   -44.2083     0.0000    12.0000 </r>
       <r>   -44.0015     0.0000    12.0000 </r>
       <r>   -43.7947     0.0000    12.0000 </r>
       <r>   -43.5879     0.0000    12.0000 </r>
       <r>   -43.3811     0.0000    12.0000 </r>
       <r>   -43.1744     0.0000    12.0000 </r>
       <r>   -42.9676     0.0000    12.0000 </r>
       <r>   -42.7608     0.0000    12.0000 </r>
       <r>   -42.5540     0.0000    12.0000 </r>
       <r>   -42.3472     0.0000    12.0000 </r>
       <r>   -42.1404     0.0000    12.0000 </r>
       <r>   -41.9336     0.0000    12.0000 </r>
       <r>   -41.7268     0.0000    12.0000 </r>
       <r>   -41.5200     0.0000    12.0000 </r>
       <r>   -41.3132     0.0000    12.0000 </r>
       <r>   -41.1064     0.0000    12.0000 </r>
       <r>   -40.8996     0.0000    12.0000 </r>
       <r>   -40.6928     0.0000    12.0000 </r>
       <r>   -40.4860     0.0000    12.0000 </r>
       <r>   -40.2792     0.0000    12.0000 </r>
       <r>   -40.0724     0.0000    12.0000 </r>
       <r>   -39.8656     0.0000    12.0000 </r>
       <r>   -39.6588     0.0000    12.0000 </r>
       <r>   -39.4520     0.0000    12.0000 </r>
       <r>   -39.2452     0.0000    12.0000 </r>
       <r>   -39.0384     0.0000    12.0000 </r>
       <r>   -38.8316     0.0000    12.0000 </r>
       <r>   -38.6248     0.0000    12.0000 </r>
       <r>   -38.4180     0.0000    12.0000 </r>
       <r>   -38.2112     0.0000    12.0000 </r>
       <r>   -38.0044     0.0000    12.0000 </r>
       <r>   -37.7976     0.0000    12.0000 </r>
       <r>   -37.5908     0.0000    12.0000 </r>
       <r>   -37.3840     0.0000    12.0000 </r>
       <r>   -37.1772     0.0000    12.0000 </r>
       <r>   -36.9705     0.0000    12.0000 </r>
       <r>   -36.7637     0.0000    12.0000 </r>
       <r>   -36.5569     0.0000    12.0000 </r>
       <r>   -36.3501     0.0000    12.0000 </r>
       <r>   -36.1433     0.0000    12.0000 </r>
       <r>   -35.9365     0.0000    12.0000 </r>
       <r>   -35.7297     0.0000    12.0000 </r>
       <r>   -35.5229     0.0000    12.0000 </r>
       <r>   -35.3161     0.0000    12.0000 </r>
       <r>   -35.1093     0.0000    12.0000 </r>
       <r>   -34.9025     0.0000    12.0000 </r>
       <r>   -34.6957     0.0000    12.0000 </r>
       <r>   -34.4889     0.0000    12.0000 </r>
       <r>   -34.2821     0.0000    12.0000 </r>
       <r>   -34.0753     0.0000    12.0000 </r>
       <r>   -33.8685     0.0000    12.0000 </r>
       <r>   -33.6617     0.0000    12.0000 </r>
       <r>   -33.4549     0.0000    12.0000 </r>
       <r>   -33.2481     0.0000    12.0000 </r>
       <r>   -33.0413     0.0000    12.0000 </r>
       <r>   -32.8345     0.0000    12.0000 </r>
       <r>   -32.6277     0.0000    12.0000 </r>
       <r>   -32.4209     0.0000    12.0000 </r>
       <r>   -32.2141     0.0000    12.0000 </r>
       <r>   -32.0073     0.0000    12.0000 </r>
       <r>   -31.8005     0.0000    12.0000 </r>
       <r>   -31.5937     0.0000    12.0000 </r>
       <r>   -31.3869     0.0000    12.0000 </r>
       <r>   -31.1801     0.0000    12.0000 </r>
       <r>   -30.9734     0.0000    12.0000 </r>
       <r>   -30.7666     0.0000    12.0000 </r>
       <r>   -30.5598     0.0000    12.0000 </r>
       <r>   -30.3530     0.0000    12.0000 </r>
       <r>   -30.1462     0.0000    12.0000 </r>
       <r>   -29.9394     0.0000    12.0000 </r>
       <r>   -29.7326     0.0000    12.0000 </r>
       <r>   -29.5258     0.0000    12.0000 </r>
       <r>   -29.3190     0.0000    12.0000 </r>
       <r>   -29.1122     0.0000    12.0000 </r>
       <r>   -28.9054     0.0000    12.0000 </r>
       <r>   -28.6986     0.0000    12.0000 </r>
       <r>   -28.4918     0.0000    12.0000 </r>
       <r>   -28.2850     0.0000    12.0000 </r>
       <r>   -28.0782     0.0000    12.0000 </r>
       <r>   -27.8714     0.0000    12.0000 </r>
       <r>   -27.6646     0.0000    12.0000 </r>
       <r>   -27.4578     0.0000    12.0000 </r>
       <r>   -27.2510     0.0000    12.0000 </r>
       <r>   -27.0442     0.0000    12.0000 </r>
       <r>   -26.8374     0.0000    12.0000 </r>
       <r>   -26.6306     0.0000    12.0000 </r>
       <r>   -26.4238     0.0000    12.0000 </r>
       <r>   -26.2170     0.0000    12.0000 </r>
       <r>   -26.0102    -0.0000    12.0000 </r>
       <r>   -25.8034    -0.0000    12.0000 </r>
       <r>   -25.5966    -0.0000    12.0000 </r>
       <r>   -25.3898    -0.0000    12.0000 </r>
       <r>   -25.1830    -0.0000    12.0000 </r>
       <r>   -24.9762    -0.0003    11.9999 </r>
       <r>   -24.7695    -0.0291    11.9939 </r>
       <r>   -24.5627    -0.0845    11.9764 </r>
       <r>   -24.3559     1.8698    12.3631 </r>
       <r>   -24.1491     3.7765    13.1441 </r>
       <r>   -23.9423    14.4404    16.1303 </r>
       <r>   -23.7355    25.2001    21.3416 </r>
       <r>   -23.5287    54.1994    32.5499 </r>
       <r>   -23.3219    46.2662    42.1176 </r>
       <r>   -23.1151    19.8704    46.2267 </r>
       <r>   -22.9083     7.3905    47.7550 </r>
       <r>   -22.7015     1.3257    48.0292 </r>
       <r>   -22.4947    -0.1146    48.0055 </r>
       <r>   -22.2879    -0.0262    48.0001 </r>
       <r>   -22.0811    -0.0003    48.0000 </r>
       <r>   -21.8743    -0.0000    48.0000 </r>
       <r>   -21.6675    -0.0000    48.0000 </r>
       <r>   -21.4607    -0.0000    48.0000 </r>
       <r>   -21.2539     0.0000    48.0000 </r>
       <r>   -21.0471     0.0000    48.0000 </r>
       <r>   -20.8403     0.0000    48.0000 </r>
       <r>   -20.6335     0.0000    48.0000 </r>
       <r>   -20.4267     0.0000    48.0000 </r>
       <r>   -20.2199     0.0000    48.0000 </r>
       <r>   -20.0131     0.0000    48.0000 </r>
       <r>   -19.8063     0.0000    48.0000 </r>
       <r>   -19.5995     0.0000    48.0000 </r>
       <r>   -19.3927     0.0000    48.0000 </r>
       <r>   -19.1859     0.0000    48.0000 </r>
       <r>   -18.9791     0.0000    48.0000 </r>
       <r>   -18.7723     0.0000    48.0000 </r>
       <r>   -18.5656     0.0000    48.0000 </r>
       <r>   -18.3588     0.0000    48.0000 </r>
       <r>   -18.1520     0.0000    48.0000 </r>
       <r>   -17.9452     0.0000    48.0000 </r>
       <r>   -17.7384     0.0000    48.0000 </r>
       <r>   -17.5316     0.0000    48.0000 </r>
       <r>   -17.3248     0.0000    48.0000 </r>
       <r>   -17.1180     0.0000    48.0000 </r>
       <r>   -16.9112     0.0000    48.0000 </r>
       <r>   -16.7044     0.0000    48.0000 </r>
       <r>   -16.4976     0.0000    48.0000 </r>
       <r>   -16.2908     0.0000    48.0000 </r>
       <r>   -16.0840     0.0000    48.0000 </r>
       <r>   -15.8772     0.0000    48.0000 </r>
       <r>   -15.6704     0.0000    48.0000 </r>
       <r>   -15.4636     0.0000    48.0000 </r>
       <r>   -15.2568     0.0000    48.0000 </r>
       <r>   -15.0500     0.0000    48.0000 </r>
       <r>   -14.8432     0.0000    48.0000 </r>
       <r>   -14.6364     0.0000    48.0000 </r>
       <r>   -14.4296     0.0000    48.0000 </r>
       <r>   -14.2228     0.0000    48.0000 </r>
       <r>   -14.0160     0.0000    48.0000 </r>
       <r>   -13.8092     0.0000    48.0000 </r>
       <r>   -13.6024     0.0000    48.0000 </r>
       <r>   -13.3956     0.0000    48.0000 </r>
       <r>   -13.1888     0.0000    48.0000 </r>
       <r>   -12.9820     0.0000    48.0000 </r>
       <r>   -12.7752     0.0000    48.0000 </r>
       <r>   -12.5684     0.0000    48.0000 </r>
       <r>   -12.3617     0.0000    48.0000 </r>
       <r>   -12.1549     0.0000    48.0000 </r>
       <r>   -11.9481     0.0000    48.0000 </r>
       <r>   -11.7413     0.0000    48.0000 </r>
       <r>   -11.5345     0.0000    48.0000 </r>
       <r>   -11.3277     0.0000    48.0000 </r>
       <r>   -11.1209     0.0000    48.0000 </r>
       <r>   -10.9141     0.0000    48.0000 </r>
       <r>   -10.7073     0.0000    48.0000 </r>
       <r>   -10.5005     0.0000    48.0000 </r>
       <r>   -10.2937     0.0000    48.0000 </r>
       <r>   -10.0869     0.0000    48.0000 </r>
       <r>    -9.8801     0.0000    48.0000 </r>
       <r>    -9.6733     0.0000    48.0000 </r>
       <r>    -9.4665     0.0000    48.0000 </r>
       <r>    -9.2597     0.0000    48.0000 </r>
       <r>    -9.0529     0.0000    48.0000 </r>
       <r>    -8.8461     0.0000    48.0000 </r>
       <r>    -8.6393     0.0000    48.0000 </r>
       <r>    -8.4325     0.0000    48.0000 </r>
       <r>    -8.2257     0.0000    48.0000 </r>
       <r>    -8.0189     0.0000    48.0000 </r>
       <r>    -7.8121     0.0000    48.0000 </r>
       <r>    -7.6053     0.0000    48.0000 </r>
       <r>    -7.3985     0.0000    48.0000 </r>
       <r>    -7.1917     0.0000    48.0000 </r>
       <r>    -6.9849     0.0000    48.0000 </r>
       <r>    -6.7781     0.0000    48.0000 </r>
       <r>    -6.5713     0.0000    48.0000 </r>
       <r>    -6.3645     0.0000    48.0000 </r>
       <r>    -6.1578     0.0000    48.0000 </r>
       <r>    -5.9510     0.0000    48.0000 </r>
       <r>    -5.7442     0.0000    48.0000 </r>
       <r>    -5.5374     0.0000    48.0000 </r>
       <r>    -5.3306     0.0000    48.0000 </r>
       <r>    -5.1238     0.0000    48.0000 </r>
       <r>    -4.9170     0.0000    48.0000 </r>
       <r>    -4.7102     0.0000    48.0000 </r>
       <r>    -4.5034     0.0000    48.0000 </r>
       <r>    -4.2966     0.0000    48.0000 </r>
       <r>    -4.0898     0.0000    48.0000 </r>
       <r>    -3.8830     0.0000    48.0000 </r>
       <r>    -3.6762     0.0000    48.0000 </r>
       <r>    -3.4694     0.0000    48.0000 </r>
       <r>    -3.2626     0.0000    48.0000 </r>
       <r>    -3.0558     0.0000    48.0000 </r>
       <r>    -2.8490     0.0000    48.0000 </r>
       <r>    -2.6422     0.0000    48.0000 </r>
       <r>    -2.4354     0.0000    48.0000 </r>
       <r>    -2.2286     0.0000    48.0000 </r>
       <r>    -2.0218    -0.0000    48.0000 </r>
       <r>    -1.8150    -0.0000    48.0000 </r>
       <r>    -1.6082    -0.0000    48.0000 </r>
       <r>    -1.4014    -0.0000    48.0000 </r>
       <r>    -1.1946    -0.0000    48.0000 </r>
       <r>    -0.9878    -0.0000    48.0000 </r>
       <r>    -0.7810    -0.0000    48.0000 </r>
       <r>    -0.5742    -0.0020    47.9996 </r>
       <r>    -0.3674    -0.0174    47.9960 </r>
       <r>    -0.1606     0.1408    48.0251 </r>
       <r>     0.0461     0.8410    48.1990 </r>
       <r>     0.2529     1.3089    48.4697 </r>
       <r>     0.4597     1.8410    48.8504 </r>
       <r>     0.6665     2.1492    49.2948 </r>
       <r>     0.8733     1.9484    49.6978 </r>
       <r>     1.0801     2.6405    50.2438 </r>
       <r>     1.2869     2.9465    50.8532 </r>
       <r>     1.4937     3.2390    51.5230 </r>
       <r>     1.7005     3.6848    52.2850 </r>
       <r>     1.9073     4.2937    53.1729 </r>
       <r>     2.1141     5.3042    54.2698 </r>
       <r>     2.3209     6.4671    55.6072 </r>
       <r>     2.5277     9.2297    57.5158 </r>
       <r>     2.7345    16.2239    60.8709 </r>
       <r>     2.9413    21.6111    65.3400 </r>
       <r>     3.1481    25.0969    70.5299 </r>
       <r>     3.3549    27.3032    76.1762 </r>
       <r>     3.5617    29.4376    82.2638 </r>
       <r>     3.7685    28.9829    88.2573 </r>
       <r>     3.9753    28.0290    94.0536 </r>
       <r>     4.1821    29.5036   100.1549 </r>
       <r>     4.3889    28.3243   106.0122 </r>
       <r>     4.5957    27.7638   111.7537 </r>
       <r>     4.8025    33.0432   118.5869 </r>
       <r>     5.0093    39.4062   126.7360 </r>
       <r>     5.2161    41.1839   135.2527 </r>
       <r>     5.4229    40.4616   143.6200 </r>
       <r>     5.6297    40.0893   151.9104 </r>
       <r>     5.8365    41.2511   160.4409 </r>
       <r>     6.0432    42.9730   169.3276 </r>
       <r>     6.2500    42.9945   178.2187 </r>
       <r>     6.4568    41.8355   186.8702 </r>
       <r>     6.6636    36.6549   194.4503 </r>
       <r>     6.8704    32.2030   201.1098 </r>
       <r>     7.0772    27.6519   206.8281 </r>
       <r>     7.2840    23.1210   211.6094 </r>
       <r>     7.4908    20.1338   215.7730 </r>
       <r>     7.6976    19.7928   219.8661 </r>
       <r>     7.9044    20.1535   224.0338 </r>
       <r>     8.1112    24.6789   229.1373 </r>
       <r>     8.3180    27.4389   234.8116 </r>
       <r>     8.5248    19.0613   238.7534 </r>
       <r>     8.7316     5.8894   239.9713 </r>
       <r>     8.9384     0.2567   240.0244 </r>
       <r>     9.1452    -0.1106   240.0015 </r>
       <r>     9.3520    -0.0074   240.0000 </r>
       <r>     9.5588    -0.0001   240.0000 </r>
       <r>     9.7656    -0.0000   240.0000 </r>
       <r>     9.9724    -0.0000   240.0000 </r>
       <r>    10.1792    -0.0000   240.0000 </r>
       <r>    10.3860     0.0000   240.0000 </r>
       <r>    10.5928     0.0000   240.0000 </r>
       <r>    10.7996     0.0000   240.0000 </r>
       <r>    11.0064     0.0000   240.0000 </r>
       <r>    11.2132     0.0000   240.0000 </r>
       <r>    11.4200     0.0000   240.0000 </r>
       <r>    11.6268     0.0000   240.0000 </r>
      </set>
     </set>
    </array>
   </total>
  </dos>
 </calculation>
 <structure name="finalpos" >
  <crystal>
   <varray name="basis" >
    <v>      -3.10195309      -3.12178959      -3.11004432 </v>
    <v>       1.59046360       1.60387174      -7.85810238 </v>
    <v>       7.94360281      -7.98408452      -1.56566940 </v>
   </varray>
   <i name="volume">    468.61488921 </i>
   <varray name="rec_basis" >
    <v>      -0.13924203      -0.12789074      -0.05428533 </v>
    <v>       0.04255769       0.06308291      -0.10576811 </v>
    <v>       0.06299299      -0.06257137      -0.00002143 </v>
   </varray>
  </crystal>
  <varray name="positions" >
   <v>       0.95515486       0.93573192       0.39587934 </v>
   <v>       0.62676891       0.26849737       0.40248622 </v>
   <v>       0.49008466      -0.00253144      -0.00370292 </v>
   <v>      -0.02486198       0.01444737       0.00170482 </v>
   <v>       0.09076583       0.21586452       0.80628167 </v>
   <v>       0.02862272       0.07081599       0.59958649 </v>
   <v>       0.90556768       0.79396574       0.19854784 </v>
   <v>       0.80395075       0.59229491       0.40014171 </v>
   <v>       0.71673140       0.46555654       0.19429803 </v>
   <v>       0.36296696       0.72595570       0.60245326 </v>
   <v>       0.12646441       0.27396341       0.39883668 </v>
   <v>       0.85235832       0.64307114       0.00126389 </v>
   <v>       0.91835953       0.87366911       0.80345862 </v>
   <v>       0.57877300       0.13140520       0.20095033 </v>
   <v>       0.40744259       0.79120638       0.19636329 </v>
   <v>       0.42981856       0.85474028       0.79851634 </v>
   <v>       0.29709724       0.60174451       0.40459032 </v>
   <v>       0.85135962       0.72800341       0.60165660 </v>
   <v>       0.46275938       0.92674316       0.41078179 </v>
   <v>       0.34367959       0.34544468      -0.00267961 </v>
   <v>       0.24317010       0.53911396       0.79047499 </v>
   <v>       0.19206488       0.38632913       0.60003262 </v>
   <v>       0.07506521       0.15619322       0.19512776 </v>
   <v>       0.72689681       0.51481361       0.80647046 </v>
   <v>       0.68095420       0.40728265       0.60639510 </v>
   <v>       0.59210958       0.20959002       0.78209841 </v>
   <v>       0.54102632       0.06629559       0.61001612 </v>
   <v>       0.34035973       0.66064310      -0.00452812 </v>
   <v>       0.21782246       0.47581552       0.20249795 </v>
  </varray>
 </structure>
</modeling>
