Nb - Mo - Ta - Ti - V SQS               
           1
    -3.160000   -3.160000   -3.160000
     1.580000    1.580000   -7.900000
     7.900000   -7.900000   -1.580000
   Nb   Mo   Ta   Ti   V 
   6   5   6   6   6
Direct configuration=     1
   0.96666667  0.93333333  0.40000000
   0.63333333  0.26666667  0.40000000
   0.50000000  0.00000000  0.00000000
   0.00000000  0.00000000  0.00000000
   0.10000000  0.20000000  0.80000000
   0.03333333  0.06666667  0.60000000
   0.90000000  0.80000000  0.20000000
   0.80000000  0.60000000  0.40000000
   0.73333333  0.46666667  0.20000000
   0.36666667  0.73333333  0.60000000
   0.13333333  0.26666667  0.40000000
   0.83333333  0.66666667  0.00000000
   0.93333333  0.86666667  0.80000000
   0.56666667  0.13333333  0.20000000
   0.40000000  0.80000000  0.20000000
   0.43333333  0.86666667  0.80000000
   0.30000000  0.60000000  0.40000000
   0.86666667  0.73333333  0.60000000
   0.46666667  0.93333333  0.40000000
   0.16666667  0.33333333  0.00000000
   0.26666667  0.53333333  0.80000000
   0.20000000  0.40000000  0.60000000
   0.06666667  0.13333333  0.20000000
   0.76666667  0.53333333  0.80000000
   0.70000000  0.40000000  0.60000000
   0.60000000  0.20000000  0.80000000
   0.53333333  0.06666667  0.60000000
   0.33333333  0.66666667  0.00000000
   0.23333333  0.46666667  0.20000000
Nb - Mo - Ta - Ti - V SQS               
           1
    -3.133923   -3.132791   -3.132744
     1.583733    1.573168   -7.855404
     7.903022   -7.887936   -1.578628
   Nb   Mo   Ta   Ti   V 
   6   5   6   6   6
Direct configuration=     2
   0.96149453  0.93450536  0.39864107
   0.63176114  0.26669624  0.40108224
   0.49696042  0.00145092 -0.00132961
  -0.00144252  0.00157644  0.00090825
   0.09863260  0.20528842  0.79787852
   0.03265531  0.06928184  0.59907774
   0.90303229  0.79730109  0.20130086
   0.80402133  0.59517246  0.39949423
   0.73177391  0.46660970  0.19850426
   0.36998366  0.72992896  0.60103009
   0.13337734  0.27068320  0.39927834
   0.83744472  0.66339539  0.00191939
   0.93002626  0.86814503  0.80027538
   0.56584875  0.13668197  0.19692464
   0.40362753  0.79489541  0.19741122
   0.43811274  0.86126211  0.79847744
   0.30063513  0.60014796  0.40165103
   0.86316620  0.73179834  0.59936468
   0.46624440  0.93202207  0.40401240
   0.16799046  0.33525169  0.00111415
   0.26718074  0.53447057  0.79828521
   0.20064589  0.39647073  0.60062155
   0.06829624  0.13806191  0.20304895
   0.76785256  0.53166522  0.79888304
   0.69637280  0.40338380  0.60211769
   0.59866168  0.20024590  0.79716985
   0.53689257  0.06819335  0.60171625
   0.33364658  0.66252590  0.00029706
   0.22843806  0.46955467  0.20084410
Nb - Mo - Ta - Ti - V SQS               
           1
    -3.111148   -3.109028   -3.108940
     1.586993    1.567201   -7.816457
     7.905661   -7.877399   -1.577430
   Nb   Mo   Ta   Ti   V 
   6   5   6   6   6
Direct configuration=     3
   0.95693855  0.93553473  0.39745254
   0.63037831  0.26672141  0.40202784
   0.49428334  0.00272516 -0.00249255
  -0.00270871  0.00295947  0.00170091
   0.09743378  0.20993154  0.79602146
   0.03206109  0.07157781  0.59827024
   0.90570068  0.79493148  0.20243939
   0.80755391  0.59093573  0.39905534
   0.73039762  0.46656060  0.19719714
   0.37290110  0.72694034  0.60193245
   0.13342192  0.27420910  0.39864536
   0.84106367  0.66052303  0.00359885
   0.92711647  0.86944229  0.80051494
   0.56512878  0.13962315  0.19423520
   0.40680907  0.79041684  0.19515222
   0.44231022  0.85651961  0.79715041
   0.30119775  0.60027678  0.40309375
   0.86007913  0.73045128  0.59881018
   0.46587725  0.93086849  0.40751940
   0.16916183  0.33693482  0.00208672
   0.26763250  0.53546990  0.79678609
   0.20120966  0.39337263  0.60116680
   0.06974534  0.14221039  0.20571063
   0.76889216  0.53020187  0.79790802
   0.69318769  0.40635229  0.60396604
   0.59747830  0.20046353  0.79469648
   0.54003332  0.06953240  0.60321533
   0.33391569  0.65889125  0.00055910
   0.22413288  0.47208877  0.20157971
Nb - Mo - Ta - Ti - V SQS               
           1
    -3.125780   -3.122534   -3.124600
     1.604035    1.575950   -7.867356
     7.994684   -7.955225   -1.593651
   Nb   Mo   Ta   Ti   V 
   6   5   6   6   6
Direct configuration=     4
   0.95346280  0.93623342  0.39676120
   0.62951903  0.26678616  0.40246949
   0.49281015  0.00297094 -0.00408195
  -0.00509104  0.00562863  0.00258041
   0.09655365  0.21314754  0.79481609
   0.03198679  0.07322943  0.59768484
   0.90744630  0.79343425  0.20292175
   0.80957226  0.58848419  0.39903086
   0.72911433  0.46542551  0.19595073
   0.37516912  0.72398109  0.60267998
   0.13284322  0.27636089  0.39854295
   0.84372473  0.65903779  0.00410810
   0.92571758  0.87060591  0.80057484
   0.56561310  0.14265727  0.19175119
   0.40895430  0.78767294  0.19420630
   0.44334115  0.85312722  0.79652518
   0.30240113  0.60050234  0.40453353
   0.85784015  0.72943013  0.59836990
   0.46515405  0.92959042  0.41002710
   0.17193465  0.33857990  0.00301436
   0.26839252  0.53599831  0.79543376
   0.20127651  0.39084459  0.60151686
   0.07098392  0.14561263  0.20780620
   0.76988437  0.52848319  0.79693311
   0.68990919  0.40896205  0.60608067
   0.59635459  0.20111493  0.79179160
   0.54353549  0.07033695  0.60509869
   0.33490334  0.65390538  0.00065667
   0.22002597  0.47452265  0.20221563
Nb - Mo - Ta - Ti - V SQS               
           1
    -3.126150   -3.122876   -3.124997
     1.604466    1.576172   -7.868644
     7.996936   -7.957194   -1.594062
   Nb   Mo   Ta   Ti   V 
   6   5   6   6   6
Direct configuration=     5
   0.95337525  0.93625101  0.39674387
   0.62949741  0.26678778  0.40248055
   0.49277299  0.00297714 -0.00412175
  -0.00515095  0.00569572  0.00260239
   0.09653150  0.21322839  0.79478587
   0.03198493  0.07327095  0.59767016
   0.90749025  0.79339661  0.20293384
   0.80962304  0.58842257  0.39903028
   0.72908194  0.46539700  0.19591954
   0.37522622  0.72390670  0.60269874
   0.13282868  0.27641497  0.39854036
   0.84379174  0.65900044  0.00412087
   0.92568237  0.87063516  0.80057633
   0.56562526  0.14273356  0.19168896
   0.40900824  0.78760398  0.19418265
   0.44336703  0.85304196  0.79650957
   0.30243149  0.60050799  0.40456957
   0.85778372  0.72940449  0.59835888
   0.46513590  0.92955827  0.41008990
   0.17200455  0.33862122  0.00303756
   0.26841162  0.53601160  0.79539989
   0.20127816  0.39078105  0.60152566
   0.07101526  0.14569810  0.20785862
   0.76990929  0.52844001  0.79690872
   0.68982675  0.40902763  0.60613357
   0.59632620  0.20113134  0.79171886
   0.54362377  0.07035713  0.60514583
   0.33492812  0.65378007  0.00065918
   0.21992261  0.47458383  0.20223151
Nb - Mo - Ta - Ti - V SQS               
           1
    -3.124404   -3.120964   -3.125687
     1.602299    1.572483   -7.866388
     7.999930   -7.959267   -1.594937
   Nb   Mo   Ta   Ti   V 
   6   5   6   6   6
Direct configuration=     6
   0.95345010  0.93595824  0.39692689
   0.62980311  0.26696583  0.40213074
   0.49349817  0.00190978 -0.00482059
  -0.00673350  0.00711034  0.00294561
   0.09676491  0.21253481  0.79509920
   0.03253567  0.07298420  0.59771494
   0.90707516  0.79386370  0.20248359
   0.80895218  0.58938915  0.39919713
   0.72864955  0.46477697  0.19593421
   0.37494407  0.72340104  0.60277853
   0.13203662  0.27589095  0.39903769
   0.84338957  0.66011760  0.00336327
   0.92614505  0.87106787  0.80046692
   0.56701686  0.14333423  0.19125761
   0.40872642  0.78800302  0.19490246
   0.44149986  0.85302879  0.79690849
   0.30293646  0.60080281  0.40483124
   0.85798196  0.72951126  0.59839612
   0.46461325  0.92918985  0.40992079
   0.17475241  0.33900997  0.00323534
   0.26856182  0.53580714  0.79508996
   0.20079910  0.39066500  0.60126309
   0.07124111  0.14588620  0.20803874
   0.77007022  0.52800358  0.79659082
   0.68892175  0.40939313  0.60683873
   0.59622854  0.20143012  0.79033398
   0.54508354  0.06994781  0.60604919
   0.33555464  0.65152785  0.00061378
   0.21883474  0.47515543  0.20247155
Nb - Mo - Ta - Ti - V SQS               
           1
    -3.119165   -3.115228   -3.127759
     1.595795    1.561416   -7.859622
     8.008911   -7.965485   -1.597563
   Nb   Mo   Ta   Ti   V 
   6   5   6   6   6
Direct configuration=     7
   0.95367536  0.93507932  0.39747587
   0.63072016  0.26750013  0.40108160
   0.49567656 -0.00129454 -0.00691611
  -0.01148593  0.01135780  0.00397447
   0.09746689  0.21045265  0.79603907
   0.03418920  0.07212300  0.59784936
   0.90582828  0.79526623  0.20113310
   0.80693688  0.59229101  0.39969722
   0.72735300  0.46291617  0.19597836
   0.37409827  0.72188341  0.60301796
   0.12966054  0.27431852  0.40052934
   0.84218012  0.66347147  0.00109087
   0.92753283  0.87236637  0.80013869
   0.57119223  0.14513625  0.18996382
   0.40788000  0.78920086  0.19706106
   0.43589600  0.85299065  0.79810480
   0.30445153  0.60168731  0.40561593
   0.85857673  0.72983161  0.59850777
   0.46304524  0.92808443  0.40941371
   0.18299899  0.34017463  0.00382844
   0.26901290  0.53519337  0.79416050
   0.19936145  0.39031711  0.60047567
   0.07191867  0.14645057  0.20857885
   0.77055398  0.52669352  0.79563755
   0.68620505  0.41049079  0.60895342
   0.59593443  0.20232740  0.78618059
   0.54946589  0.06871773  0.60875856
   0.33743944  0.64476687  0.00047829
   0.21556861  0.47687201  0.20319124
Nb - Mo - Ta - Ti - V SQS               
           1
    -3.119007   -3.115556   -3.129051
     1.589669    1.557476   -7.852753
     8.004339   -7.965536   -1.594856
   Nb   Mo   Ta   Ti   V 
   6   5   6   6   6
Direct configuration=     8
   0.95374930  0.93516303  0.39755482
   0.63056052  0.26757039  0.40145261
   0.49496525 -0.00099710 -0.00653098
  -0.01284035  0.01265104  0.00404678
   0.09718966  0.20970302  0.79664082
   0.03537675  0.07126448  0.59805284
   0.90503325  0.79618500  0.20070752
   0.80661440  0.59304309  0.39994104
   0.72666877  0.46420085  0.19568572
   0.37321687  0.72242102  0.60342427
   0.12942053  0.27425283  0.40077518
   0.84189962  0.66276950  0.00076479
   0.92509519  0.87281107  0.79988850
   0.57136712  0.14514465  0.18940848
   0.40752030  0.78962475  0.19731967
   0.43721369  0.85232822  0.79840955
   0.30394141  0.60132297  0.40530133
   0.85873917  0.73004063  0.59885824
   0.46297540  0.92852197  0.40898708
   0.18881342  0.34069968  0.00378419
   0.26874918  0.53419263  0.79379853
   0.19820997  0.39050702  0.60022288
   0.07324147  0.14620890  0.20868226
   0.77016347  0.52620552  0.79566069
   0.68611186  0.41030160  0.60919679
   0.59591123  0.20268470  0.78463654
   0.55027299  0.06816301  0.60931143
   0.33861968  0.64244514  0.00066392
   0.21453321  0.47723705  0.20335448
Nb - Mo - Ta - Ti - V SQS               
           1
    -3.118660   -3.116277   -3.131883
     1.576246    1.548842   -7.837702
     7.994323   -7.965649   -1.588925
   Nb   Mo   Ta   Ti   V 
   6   5   6   6   6
Direct configuration=     9
   0.95391102  0.93534674  0.39772790
   0.63021019  0.26772497  0.40226582
   0.49340569 -0.00034394 -0.00568671
  -0.01581078  0.01548875  0.00420576
   0.09658320  0.20805911  0.79795953
   0.03798031  0.06938086  0.59849852
   0.90328980  0.79820049  0.19977506
   0.80590596  0.59469344  0.40047570
   0.72516715  0.46701921  0.19504472
   0.37128411  0.72360117  0.60431504
   0.12889455  0.27410905  0.40131403
   0.84128690  0.66122917  0.00004990
   0.91975361  0.87378710  0.79934043
   0.57175087  0.14516243  0.18819127
   0.40673101  0.79055511  0.19788664
   0.44010188  0.85087488  0.79907723
   0.30282486  0.60052344  0.40461169
   0.85909425  0.73049952  0.59962647
   0.46282188  0.92948146  0.40805211
   0.20155181  0.34184999  0.00368698
   0.26817391  0.53199677  0.79300488
   0.19568693  0.39092370  0.59966893
   0.07614013  0.14567844  0.20890877
   0.76930890  0.52513503  0.79571129
   0.68590783  0.40988681  0.60973017
   0.59586131  0.20346694  0.78125237
   0.55204195  0.06694634  0.61052301
   0.34121042  0.63735131  0.00107001
   0.21226366  0.47803839  0.20371245
Nb - Mo - Ta - Ti - V SQS               
           1
    -3.125901   -3.125621   -3.140489
     1.574963    1.548970   -7.849823
     8.001826   -7.980416   -1.591352
   Nb   Mo   Ta   Ti   V 
   6   5   6   6   6
Direct configuration=    10
   0.95413277  0.93554730  0.39764534
   0.63018043  0.26783201  0.40243680
   0.49246357  0.00012820 -0.00548018
  -0.01721784  0.01635045  0.00415526
   0.09634722  0.20768127  0.79828967
   0.03890808  0.06871989  0.59865006
   0.90292159  0.79878542  0.19954798
   0.80529653  0.59491994  0.40060093
   0.72457952  0.46812307  0.19493066
   0.37079500  0.72390147  0.60438764
   0.12885616  0.27428702  0.40127753
   0.84128713  0.66019602  0.00007292
   0.91940432  0.87376768  0.79937529
   0.57183020  0.14522115  0.18842233
   0.40625515  0.79083708  0.19766314
   0.43934661  0.85006984  0.79948094
   0.30206851  0.60080163  0.40441629
   0.85883796  0.73066018  0.59994866
   0.46280768  0.93015697  0.40787719
   0.20874840  0.34214091  0.00347919
   0.26750259  0.53121113  0.79269503
   0.19475800  0.39092613  0.59970064
   0.07717467  0.14582945  0.20881787
   0.76849098  0.52453677  0.79597013
   0.68597780  0.40961939  0.60959663
   0.59544404  0.20376416  0.78029710
   0.55219532  0.06646211  0.61069498
   0.34231211  0.63575644  0.00141826
   0.21162882  0.47843361  0.20363174
Nb - Mo - Ta - Ti - V SQS               
           1
    -3.131001   -3.132203   -3.146551
     1.574060    1.549061   -7.858361
     8.007111   -7.990817   -1.593062
   Nb   Mo   Ta   Ti   V 
   6   5   6   6   6
Direct configuration=    11
   0.95428848  0.93568837  0.39758726
   0.63015935  0.26790735  0.40255707
   0.49180133  0.00046040 -0.00533480
  -0.01820674  0.01695663  0.00411993
   0.09618144  0.20741556  0.79852187
   0.03956009  0.06825495  0.59875653
   0.90266275  0.79919685  0.19938833
   0.80486820  0.59507932  0.40068908
   0.72416617  0.46889959  0.19485056
   0.37045119  0.72411275  0.60443877
   0.12882912  0.27441221  0.40125187
   0.84128786  0.65946922  0.00008904
   0.91915894  0.87375402  0.79939984
   0.57188573  0.14526252  0.18858485
   0.40592086  0.79103539  0.19750600
   0.43881622  0.84950361  0.79976492
   0.30153717  0.60099728  0.40427894
   0.85865761  0.73077329  0.60017531
   0.46279743  0.93063213  0.40775420
   0.21380388  0.34234548  0.00333239
   0.26703166  0.53065837  0.79247711
   0.19410542  0.39092785  0.59972302
   0.07790140  0.14593565  0.20875385
   0.76791657  0.52411597  0.79615222
   0.68602719  0.40943122  0.60950267
   0.59515141  0.20397301  0.77962524
   0.55230321  0.06612150  0.61081589
   0.34308670  0.63463457  0.00166300
   0.21118269  0.47871162  0.20357505
Nb - Mo - Ta - Ti - V SQS               
           1
    -3.131113   -3.134752   -3.147671
     1.570523    1.546283   -7.853564
     7.992113   -7.982917   -1.592757
   Nb   Mo   Ta   Ti   V 
   6   5   6   6   6
Direct configuration=    12
   0.95455045  0.93592263  0.39739572
   0.63024565  0.26813696  0.40251445
   0.49093751  0.00073556 -0.00532469
  -0.01956895  0.01734675  0.00402530
   0.09616889  0.20728289  0.79860393
   0.03999072  0.06787642  0.59880335
   0.90256814  0.79939895  0.19931487
   0.80425817  0.59496249  0.40063783
   0.72377486  0.46956208  0.19496503
   0.37030507  0.72407206  0.60426481
   0.12878412  0.27479610  0.40103439
   0.84159224  0.65845691  0.00033055
   0.91986124  0.87338719  0.79972934
   0.57215065  0.14529546  0.18939131
   0.40557039  0.79119119  0.19705942
   0.43713889  0.84880041  0.80019710
   0.30073224  0.60170518  0.40425173
   0.85811391  0.73083419  0.60036326
   0.46278611  0.93124618  0.40777208
   0.22127074  0.34231795  0.00305158
   0.26607241  0.53032634  0.79225041
   0.19357211  0.39073006  0.59987338
   0.07842846  0.14650587  0.20848396
   0.76672341  0.52353032  0.79650734
   0.68606453  0.40922822  0.60913285
   0.59450163  0.20408154  0.77917104
   0.55209212  0.06575431  0.61078939
   0.34373035  0.63406392  0.00201994
   0.21091726  0.47911855  0.20339031
Nb - Mo - Ta - Ti - V SQS               
           1
    -3.131449   -3.142399   -3.151033
     1.559912    1.537949   -7.839173
     7.947117   -7.959216   -1.591843
   Nb   Mo   Ta   Ti   V 
   6   5   6   6   6
Direct configuration=    13
   0.95533624  0.93662592  0.39682017
   0.63050419  0.26882637  0.40238641
   0.48834655  0.00156163 -0.00529389
  -0.02365434  0.01851784  0.00374167
   0.09613123  0.20688461  0.79885045
   0.04128262  0.06673996  0.59894376
   0.90228429  0.80000571  0.19909425
   0.80242918  0.59461160  0.40048412
   0.72259987  0.47155122  0.19530923
   0.36986752  0.72394978  0.60374224
   0.12864919  0.27594864  0.40038107
   0.84250603  0.65541761  0.00105582
   0.92196691  0.87228604  0.80071890
   0.57294251  0.14539483  0.19181404
   0.40452054  0.79165868  0.19571793
   0.43210882  0.84668901  0.80149617
   0.29831727  0.60383055  0.40417047
   0.85648278  0.73101705  0.60092817
   0.46275099  0.93308989  0.40782592
   0.24366325  0.34223624  0.00220453
   0.26319713  0.52932914  0.79156975
   0.19197269  0.39013619  0.60032533
   0.08000883  0.14821788  0.20767299
   0.76314531  0.52177191  0.79757468
   0.68617802  0.40861852  0.60802175
   0.59255432  0.20440707  0.77780682
   0.55145983  0.06465174  0.61070985
   0.34566043  0.63235082  0.00309194
   0.21012115  0.48034023  0.20283547
Nb - Mo - Ta - Ti - V SQS               
           1
    -3.134787   -3.146855   -3.154356
     1.560825    1.540820   -7.847381
     7.938050   -7.954209   -1.592343
   Nb   Mo   Ta   Ti   V 
   6   5   6   6   6
Direct configuration=    14
   0.95528456  0.93713094  0.39666211
   0.63038803  0.26949149  0.40228426
   0.48736557  0.00138420 -0.00530953
  -0.02532225  0.01879929  0.00345208
   0.09615727  0.20700262  0.79895878
   0.04055191  0.06677168  0.59876231
   0.90190151  0.79993583  0.19907595
   0.80196941  0.59490383  0.40027276
   0.72282113  0.47099041  0.19553455
   0.36960337  0.72363302  0.60337542
   0.12869002  0.27635592  0.39999517
   0.84370075  0.65406250  0.00126993
   0.92108653  0.87117665  0.80166082
   0.57409347  0.14497287  0.19343898
   0.40429115  0.79238915  0.19525442
   0.43218457  0.84612753  0.80192073
   0.29763706  0.60459192  0.40435734
   0.85553366  0.73078368  0.60095340
   0.46291241  0.93328678  0.40801874
   0.25454243  0.34122916  0.00148694
   0.26133258  0.52964498  0.79155478
   0.19204766  0.38980015  0.60037889
   0.07975581  0.14964977  0.20656838
   0.76037590  0.52074109  0.79832673
   0.68605370  0.40838065  0.60726740
   0.59169708  0.20411735  0.77787642
   0.55064319  0.06435915  0.61056661
   0.34539969  0.63424176  0.00310877
   0.21063516  0.48071231  0.20292686
Nb - Mo - Ta - Ti - V SQS               
           1
    -3.144802   -3.160226   -3.164323
     1.563565    1.549431   -7.872005
     7.910850   -7.939187   -1.593843
   Nb   Mo   Ta   Ti   V 
   6   5   6   6   6
Direct configuration=    15
   0.95513010  0.93864432  0.39618769
   0.63004029  0.27148464  0.40197779
   0.48442616  0.00085226 -0.00535633
  -0.03031935  0.01964234  0.00258299
   0.09623511  0.20735628  0.79928410
   0.03836279  0.06686658  0.59821764
   0.90075457  0.79972635  0.19902104
   0.80059224  0.59577944  0.39963832
   0.72348358  0.46930988  0.19621086
   0.36881255  0.72268370  0.60227393
   0.12881319  0.27757642  0.39883659
   0.84727994  0.65000193  0.00191205
   0.91844653  0.86785196  0.80448887
   0.57753901  0.14370871  0.19831775
   0.40360486  0.79457809  0.19386298
   0.43241063  0.84444496  0.80319532
   0.29559865  0.60687339  0.40491885
   0.85268963  0.73008413  0.60102926
   0.46339575  0.93387684  0.40859777
   0.28714187  0.33821364 -0.00067039
   0.25574573  0.53059101  0.79151034
   0.19227212  0.38879317  0.60053956
   0.07900006  0.15394064  0.20325221
   0.75207606  0.51765141  0.80058507
   0.68568260  0.40766776  0.60500228
   0.58912825  0.20324896  0.77808550
   0.54819643  0.06348214  0.61013660
   0.34461871  0.63990831  0.00316006
   0.21217525  0.48182744  0.20320132
Nb - Mo - Ta - Ti - V SQS               
           1
    -3.135466   -3.149858   -3.152661
     1.563642    1.553679   -7.857003
     7.892677   -7.919972   -1.586426
   Nb   Mo   Ta   Ti   V 
   6   5   6   6   6
Direct configuration=    16
   0.95488891  0.93924663  0.39620316
   0.62945405  0.27234359  0.40230005
   0.48418875  0.00014901 -0.00480939
  -0.03186356  0.01980943  0.00219537
   0.09568207  0.20744071  0.79958460
   0.03660859  0.06687975  0.59839574
   0.90067201  0.79965050  0.19899632
   0.80092190  0.59655834  0.39949570
   0.72345887  0.46885241  0.19607218
   0.36773847  0.72281346  0.60234579
   0.12874891  0.27795167  0.39845438
   0.84916161  0.64791762  0.00229132
   0.91759053  0.86711069  0.80498741
   0.57882602  0.14235978  0.19957161
   0.40351540  0.79503891  0.19407374
   0.43278232  0.84426317  0.80283131
   0.29553746  0.60697707  0.40471738
   0.85172054  0.72946447  0.60100006
   0.46340050  0.93337275  0.40891876
   0.29891729  0.33756826 -0.00156403
   0.25349557  0.53153387  0.79165739
   0.19280428  0.38835773  0.60021173
   0.07886874  0.15563097  0.20145997
   0.74804787  0.51628968  0.80164552
   0.68533873  0.40755638  0.60436736
   0.58885501  0.20238814  0.77830377
   0.54715404  0.06332179  0.61013011
   0.34331903  0.64407720  0.00263080
   0.21349942  0.48174268  0.20353191
Nb - Mo - Ta - Ti - V SQS               
           1
    -3.130891   -3.144778   -3.146947
     1.563680    1.555761   -7.849653
     7.883773   -7.910558   -1.582792
   Nb   Mo   Ta   Ti   V 
   6   5   6   6   6
Direct configuration=    17
   0.95477075  0.93954211  0.39621083
   0.62916650  0.27276500  0.40245841
   0.48407168 -0.00019594 -0.00454087
  -0.03262255  0.01989121  0.00200498
   0.09541034  0.20748212  0.79973217
   0.03574637  0.06688609  0.59848316
   0.90063137  0.79961328  0.19898417
   0.80108442  0.59694047  0.39942576
   0.72344640  0.46862794  0.19600402
   0.36721061  0.72287705  0.60238106
   0.12871750  0.27813571  0.39826672
   0.85008521  0.64689528  0.00247737
   0.91716937  0.86674703  0.80523213
   0.57945795  0.14169830  0.20018726
   0.40347177  0.79526503  0.19417730
   0.43296484  0.84417396  0.80265253
   0.29550743  0.60702790  0.40461844
   0.85124379  0.72916037  0.60098561
   0.46340255  0.93312550  0.40907634
   0.30470480  0.33725252 -0.00200263
   0.25239017  0.53199627  0.79172967
   0.19306553  0.38814409  0.60005068
   0.07880501  0.15645995  0.20057998
   0.74606713  0.51562142  0.80216603
   0.68516953  0.40750160  0.60405551
   0.58872017  0.20196583  0.77841084
   0.54664155  0.06324304  0.61012687
   0.34268284  0.64612228  0.00237136
   0.21415031  0.48170127  0.20369429
Nb - Mo - Ta - Ti - V SQS               
           1
    -3.129315   -3.140604   -3.140791
     1.571755    1.569520   -7.858927
     7.911624   -7.933525   -1.577910
   Nb   Mo   Ta   Ti   V 
   6   5   6   6   6
Direct configuration=    18
   0.95450254  0.94002183  0.39644897
   0.62843295  0.27332305  0.40300575
   0.48457920 -0.00119510 -0.00370579
  -0.03331419  0.02006775  0.00160088
   0.09409738  0.20765706  0.80029334
   0.03372778  0.06694671  0.59898094
   0.90120264  0.79950053  0.19898038
   0.80195343  0.59779687  0.39954620
   0.72275191  0.46850152  0.19548783
   0.36555674  0.72347557  0.60279357
   0.12851556  0.27815070  0.39812880
   0.85177445  0.64475240  0.00276825
   0.91764494  0.86673851  0.80489658
   0.58017967  0.13989229  0.20054679
   0.40355578  0.79530071  0.19510032
   0.43250443  0.84487883  0.80166270
   0.29618311  0.60643444  0.40416178
   0.85085555  0.72826644  0.60099079
   0.46314420  0.93211812  0.40942284
   0.31368811  0.33777251 -0.00279677
   0.25056077  0.53301956  0.79197418
   0.19360338  0.38781013  0.59951081
   0.07892185  0.15769764  0.19863129
   0.74211876  0.51410157  0.80327598
   0.68472489  0.40749843  0.60399209
   0.58934570  0.20103016  0.77881604
   0.54549972  0.06321697  0.61024420
   0.34098720  0.65088717  0.00136687
   0.21603490  0.48100428  0.20387442
Nb - Mo - Ta - Ti - V SQS               
           1
    -3.127704   -3.136339   -3.134499
     1.580007    1.583582   -7.868404
     7.940086   -7.956996   -1.572920
   Nb   Mo   Ta   Ti   V 
   6   5   6   6   6
Direct configuration=    19
   0.95422960  0.94051109  0.39669167
   0.62768453  0.27389228  0.40356337
   0.48509698 -0.00221307 -0.00285543
  -0.03402181  0.02024721  0.00118920
   0.09275530  0.20783547  0.80086481
   0.03166347  0.06700827  0.59948769
   0.90178679  0.79938575  0.19897657
   0.80284466  0.59867050  0.39966933
   0.72204049  0.46837196  0.19496186
   0.36386675  0.72408567  0.60321370
   0.12830885  0.27816582  0.39798828
   0.85349774  0.64256815  0.00306406
   0.91813102  0.86672971  0.80455485
   0.58091406  0.13805128  0.20091248
   0.40364293  0.79533788  0.19604057
   0.43203394  0.84559661  0.80065459
   0.29687235  0.60582915  0.40369649
   0.85045620  0.72735481  0.60099567
   0.46287787  0.93109112  0.40977538
   0.32287853  0.33830504 -0.00360402
   0.24869204  0.53406257  0.79222331
   0.19415214  0.38746934  0.59896084
   0.07904201  0.15895814  0.19664675
   0.73807715  0.51255142  0.80440540
   0.68426993  0.40749501  0.60392742
   0.58998384  0.20007663  0.77922855
   0.54433168  0.06319011  0.61036353
   0.33926289  0.65574441  0.00034512
   0.21796140  0.48029435  0.20405796
Nb - Mo - Ta - Ti - V SQS               
           1
    -3.128142   -3.137499   -3.136211
     1.577762    1.579756   -7.865825
     7.932343   -7.950611   -1.574278
   Nb   Mo   Ta   Ti   V 
   6   5   6   6   6
Direct configuration=    20
   0.95430353  0.94037827  0.39662583
   0.62788779  0.27373772  0.40341215
   0.48495636 -0.00193700 -0.00308592
  -0.03382908  0.02019866  0.00130084
   0.09312049  0.20778704  0.80070990
   0.03222544  0.06699163  0.59935037
   0.90162778  0.79941685  0.19897759
   0.80260133  0.59843327  0.39963581
   0.72223449  0.46840731  0.19510452
   0.36432645  0.72392013  0.60309980
   0.12836518  0.27816176  0.39802639
   0.85302977  0.64316079  0.00298399
   0.91799876  0.86673213  0.80464749
   0.58071516  0.13855083  0.20081347
   0.40361886  0.79532758  0.19578562
   0.43216193  0.84540205  0.80092788
   0.29668520  0.60599348  0.40382268
   0.85056556  0.72760229  0.60099445
   0.46295096  0.93136982  0.40967991
   0.32037558  0.33815986 -0.00338560
   0.24920019  0.53377958  0.79215574
   0.19400310  0.38756191  0.59910997
   0.07900911  0.15861643  0.19718472
   0.73917847  0.51297228  0.80409950
   0.68439385  0.40749600  0.60394498
   0.58981055  0.20033529  0.77911676
   0.54464975  0.06319748  0.61033123
   0.33972960  0.65442642  0.00062176
   0.21743715  0.48048683  0.20400818
Nb - Mo - Ta - Ti - V SQS               
           1
    -3.116729   -3.125320   -3.121644
     1.579326    1.585757   -7.848730
     7.938012   -7.955091   -1.566132
   Nb   Mo   Ta   Ti   V 
   6   5   6   6   6
Direct configuration=    21
   0.95414395  0.94035398  0.39677429
   0.62783834  0.27341978  0.40332846
   0.48565942 -0.00309773 -0.00284982
  -0.03307760  0.01983510  0.00106509
   0.09214879  0.20816783  0.80118727
   0.03104732  0.06748396  0.59956456
   0.90265562  0.79895713  0.19909445
   0.80337277  0.59811541  0.39979926
   0.72079572  0.46855902  0.19501796
   0.36335612  0.72414920  0.60317966
   0.12783786  0.27795783  0.39815153
   0.85319235  0.64255249  0.00290514
   0.91873738  0.86733700  0.80428706
   0.58076692  0.13735079  0.20078305
   0.40439618  0.79504515  0.19648220
   0.43107056  0.84712500  0.80018998
   0.29730446  0.60561201  0.40384718
   0.85074414  0.72700852  0.60109176
   0.46277642  0.93072428  0.41001978
   0.32492947  0.33964197 -0.00362562
   0.24816330  0.53430779  0.79221031
   0.19416647  0.38713858  0.59880097
   0.07891099  0.15915887  0.19610486
   0.73668910  0.51184365  0.80468479
   0.68387451  0.40758462  0.60460965
   0.59065898  0.20020140  0.77951806
   0.54370548  0.06328283  0.61051746
   0.33875382  0.65716327 -0.00032137
   0.21871450  0.47968691  0.20358202
Nb - Mo - Ta - Ti - V SQS               
           1
    -3.112123   -3.120406   -3.115765
     1.579958    1.588178   -7.841831
     7.940300   -7.956899   -1.562845
   Nb   Mo   Ta   Ti   V 
   6   5   6   6   6
Direct configuration=    22
   0.95407932  0.94034420  0.39683415
   0.62781804  0.27329127  0.40329468
   0.48594340 -0.00356659 -0.00275473
  -0.03277351  0.01968819  0.00096999
   0.09175556  0.20832176  0.80137981
   0.03057048  0.06768285  0.59965097
   0.90307169  0.79877153  0.19914154
   0.80368509  0.59798712  0.39986516
   0.72021295  0.46862012  0.19498305
   0.36296322  0.72424168  0.60321187
   0.12762412  0.27787541  0.39820196
   0.85325773  0.64230668  0.00287328
   0.91903698  0.86758137  0.80414179
   0.58078696  0.13686588  0.20077065
   0.40471104  0.79493137  0.19676309
   0.43062956  0.84782082  0.79989258
   0.29755505  0.60545794  0.40385703
   0.85081606  0.72676865  0.60113093
   0.46270530  0.93046353  0.41015677
   0.32677538  0.34024130 -0.00372216
   0.24774367  0.53452113  0.79223236
   0.19423225  0.38696743  0.59867632
   0.07887137  0.15937766  0.19566944
   0.73567991  0.51138752  0.80492065
   0.68366436  0.40762061  0.60487769
   0.59100269  0.20014754  0.77967990
   0.54332306  0.06331728  0.61059256
   0.33836037  0.65826873 -0.00070142
   0.21923124  0.47936367  0.20341009
Nb - Mo - Ta - Ti - V SQS               
           1
    -3.109150   -3.118159   -3.110967
     1.585877    1.597879   -7.848036
     7.967172   -7.985388   -1.560587
   Nb   Mo   Ta   Ti   V 
   6   5   6   6   6
Direct configuration=    23
   0.95410854  0.93995589  0.39690888
   0.62793012  0.27234718  0.40288448
   0.48672506 -0.00458140 -0.00294666
  -0.03106826  0.01892177  0.00080474