  30  30   0   0
  0.1562794E+02  0.5455960E-09  0.8183940E-09  0.1124775E-08  0.5000000E-15
  1.000000000000000E-004
  CAR 
 Nb - Mo - Ta - Ti - V SQS               
     11.83092525    -49.92471467  301      6.82800901      1.00000000
    -49.925  0.0000E+00  0.0000E+00
    -49.719  0.0000E+00  0.0000E+00
    -49.513  0.0000E+00  0.0000E+00
    -49.307  0.0000E+00  0.0000E+00
    -49.101  0.0000E+00  0.0000E+00
    -48.895 -0.8382E-33 -0.1725E-33
    -48.690 -0.2573E-25 -0.5296E-26
    -48.484 -0.8908E-19 -0.1834E-19
    -48.278 -0.3573E-13 -0.7354E-14
    -48.072 -0.1718E-08 -0.3536E-09
    -47.866 -0.9652E-05 -0.1987E-05
    -47.660 -0.6136E-02 -0.1265E-02
    -47.454 -0.3920E+00 -0.8195E-01
    -47.249 -0.9288E-01 -0.1011E+00
    -47.043  0.2366E+02  0.4770E+01
    -46.837  0.3181E+02  0.1132E+02
    -46.631  0.4130E+01  0.1217E+02
    -46.425 -0.7771E+00  0.1201E+02
    -46.219 -0.3910E-01  0.1200E+02
    -46.014 -0.1842E-03  0.1200E+02
    -45.808 -0.9960E-07  0.1200E+02
    -45.602 -0.6330E-11  0.1200E+02
    -45.396  0.0000E+00  0.1200E+02
    -45.190  0.0000E+00  0.1200E+02
    -44.984  0.0000E+00  0.1200E+02
    -44.778  0.0000E+00  0.1200E+02
    -44.573  0.0000E+00  0.1200E+02
    -44.367  0.0000E+00  0.1200E+02
    -44.161  0.0000E+00  0.1200E+02
    -43.955  0.0000E+00  0.1200E+02
    -43.749  0.0000E+00  0.1200E+02
    -43.543  0.0000E+00  0.1200E+02
    -43.337  0.0000E+00  0.1200E+02
    -43.132  0.0000E+00  0.1200E+02
    -42.926  0.0000E+00  0.1200E+02
    -42.720  0.0000E+00  0.1200E+02
    -42.514  0.0000E+00  0.1200E+02
    -42.308  0.0000E+00  0.1200E+02
    -42.102  0.0000E+00  0.1200E+02
    -41.896  0.0000E+00  0.1200E+02
    -41.691  0.0000E+00  0.1200E+02
    -41.485  0.0000E+00  0.1200E+02
    -41.279  0.0000E+00  0.1200E+02
    -41.073  0.0000E+00  0.1200E+02
    -40.867  0.0000E+00  0.1200E+02
    -40.661  0.0000E+00  0.1200E+02
    -40.456  0.0000E+00  0.1200E+02
    -40.250  0.0000E+00  0.1200E+02
    -40.044  0.0000E+00  0.1200E+02
    -39.838  0.0000E+00  0.1200E+02
    -39.632  0.0000E+00  0.1200E+02
    -39.426  0.0000E+00  0.1200E+02
    -39.220  0.0000E+00  0.1200E+02
    -39.015  0.0000E+00  0.1200E+02
    -38.809  0.0000E+00  0.1200E+02
    -38.603  0.0000E+00  0.1200E+02
    -38.397  0.0000E+00  0.1200E+02
    -38.191  0.0000E+00  0.1200E+02
    -37.985  0.0000E+00  0.1200E+02
    -37.779  0.0000E+00  0.1200E+02
    -37.574  0.0000E+00  0.1200E+02
    -37.368  0.0000E+00  0.1200E+02
    -37.162  0.0000E+00  0.1200E+02
    -36.956  0.0000E+00  0.1200E+02
    -36.750  0.0000E+00  0.1200E+02
    -36.544  0.0000E+00  0.1200E+02
    -36.338  0.0000E+00  0.1200E+02
    -36.133  0.0000E+00  0.1200E+02
    -35.927  0.0000E+00  0.1200E+02
    -35.721  0.0000E+00  0.1200E+02
    -35.515  0.0000E+00  0.1200E+02
    -35.309  0.0000E+00  0.1200E+02
    -35.103  0.0000E+00  0.1200E+02
    -34.898  0.0000E+00  0.1200E+02
    -34.692  0.0000E+00  0.1200E+02
    -34.486  0.0000E+00  0.1200E+02
    -34.280  0.0000E+00  0.1200E+02
    -34.074  0.0000E+00  0.1200E+02
    -33.868  0.0000E+00  0.1200E+02
    -33.662  0.0000E+00  0.1200E+02
    -33.457  0.0000E+00  0.1200E+02
    -33.251  0.0000E+00  0.1200E+02
    -33.045  0.0000E+00  0.1200E+02
    -32.839  0.0000E+00  0.1200E+02
    -32.633  0.0000E+00  0.1200E+02
    -32.427  0.0000E+00  0.1200E+02
    -32.221  0.0000E+00  0.1200E+02
    -32.016  0.0000E+00  0.1200E+02
    -31.810  0.0000E+00  0.1200E+02
    -31.604  0.0000E+00  0.1200E+02
    -31.398  0.0000E+00  0.1200E+02
    -31.192  0.0000E+00  0.1200E+02
    -30.986  0.0000E+00  0.1200E+02
    -30.780  0.0000E+00  0.1200E+02
    -30.575  0.0000E+00  0.1200E+02
    -30.369  0.0000E+00  0.1200E+02
    -30.163  0.0000E+00  0.1200E+02
    -29.957  0.0000E+00  0.1200E+02
    -29.751  0.0000E+00  0.1200E+02
    -29.545  0.0000E+00  0.1200E+02
    -29.340  0.0000E+00  0.1200E+02
    -29.134  0.0000E+00  0.1200E+02
    -28.928  0.0000E+00  0.1200E+02
    -28.722  0.0000E+00  0.1200E+02
    -28.516  0.0000E+00  0.1200E+02
    -28.310  0.0000E+00  0.1200E+02
    -28.104  0.0000E+00  0.1200E+02
    -27.899  0.0000E+00  0.1200E+02
    -27.693  0.0000E+00  0.1200E+02
    -27.487  0.0000E+00  0.1200E+02
    -27.281  0.0000E+00  0.1200E+02
    -27.075  0.0000E+00  0.1200E+02
    -26.869  0.0000E+00  0.1200E+02
    -26.663  0.0000E+00  0.1200E+02
    -26.458  0.0000E+00  0.1200E+02
    -26.252  0.0000E+00  0.1200E+02
    -26.046  0.0000E+00  0.1200E+02
    -25.840  0.0000E+00  0.1200E+02
    -25.634 -0.4794E-31  0.1200E+02
    -25.428 -0.6893E-24  0.1200E+02
    -25.222 -0.1170E-17  0.1200E+02
    -25.017 -0.2257E-12  0.1200E+02
    -24.811 -0.5174E-08  0.1200E+02
    -24.605 -0.1364E-04  0.1200E+02
    -24.399 -0.4114E-02  0.1200E+02
    -24.193 -0.1380E+00  0.1197E+02
    -23.987  0.1107E+00  0.1199E+02
    -23.781  0.7176E+01  0.1347E+02
    -23.576  0.1568E+02  0.1670E+02
    -23.370  0.1973E+02  0.2076E+02
    -23.164  0.5469E+02  0.3202E+02
    -22.958  0.4605E+02  0.4150E+02
    -22.752  0.2006E+02  0.4562E+02
    -22.546  0.9742E+01  0.4763E+02
    -22.341  0.1968E+01  0.4803E+02
    -22.135 -0.1310E+00  0.4801E+02
    -21.929 -0.3798E-01  0.4800E+02
    -21.723 -0.5945E-03  0.4800E+02
    -21.517 -0.9436E-06  0.4800E+02
    -21.311 -0.1648E-09  0.4800E+02
    -21.105 -0.3452E-14  0.4800E+02
    -20.900  0.0000E+00  0.4800E+02
    -20.694  0.0000E+00  0.4800E+02
    -20.488  0.0000E+00  0.4800E+02
    -20.282  0.0000E+00  0.4800E+02
    -20.076  0.0000E+00  0.4800E+02
    -19.870  0.0000E+00  0.4800E+02
    -19.664  0.0000E+00  0.4800E+02
    -19.459  0.0000E+00  0.4800E+02
    -19.253  0.0000E+00  0.4800E+02
    -19.047  0.0000E+00  0.4800E+02
    -18.841  0.0000E+00  0.4800E+02
    -18.635  0.0000E+00  0.4800E+02
    -18.429  0.0000E+00  0.4800E+02
    -18.223  0.0000E+00  0.4800E+02
    -18.018  0.0000E+00  0.4800E+02
    -17.812  0.0000E+00  0.4800E+02
    -17.606  0.0000E+00  0.4800E+02
    -17.400  0.0000E+00  0.4800E+02
    -17.194  0.0000E+00  0.4800E+02
    -16.988  0.0000E+00  0.4800E+02
    -16.783  0.0000E+00  0.4800E+02
    -16.577  0.0000E+00  0.4800E+02
    -16.371  0.0000E+00  0.4800E+02
    -16.165  0.0000E+00  0.4800E+02
    -15.959  0.0000E+00  0.4800E+02
    -15.753  0.0000E+00  0.4800E+02
    -15.547  0.0000E+00  0.4800E+02
    -15.342  0.0000E+00  0.4800E+02
    -15.136  0.0000E+00  0.4800E+02
    -14.930  0.0000E+00  0.4800E+02
    -14.724  0.0000E+00  0.4800E+02
    -14.518  0.0000E+00  0.4800E+02
    -14.312  0.0000E+00  0.4800E+02
    -14.106  0.0000E+00  0.4800E+02
    -13.901  0.0000E+00  0.4800E+02
    -13.695  0.0000E+00  0.4800E+02
    -13.489  0.0000E+00  0.4800E+02
    -13.283  0.0000E+00  0.4800E+02
    -13.077  0.0000E+00  0.4800E+02
    -12.871  0.0000E+00  0.4800E+02
    -12.665  0.0000E+00  0.4800E+02
    -12.460  0.0000E+00  0.4800E+02
    -12.254  0.0000E+00  0.4800E+02
    -12.048  0.0000E+00  0.4800E+02
    -11.842  0.0000E+00  0.4800E+02
    -11.636  0.0000E+00  0.4800E+02
    -11.430  0.0000E+00  0.4800E+02
    -11.225  0.0000E+00  0.4800E+02
    -11.019  0.0000E+00  0.4800E+02
    -10.813  0.0000E+00  0.4800E+02
    -10.607  0.0000E+00  0.4800E+02
    -10.401  0.0000E+00  0.4800E+02
    -10.195  0.0000E+00  0.4800E+02
     -9.989  0.0000E+00  0.4800E+02
     -9.784  0.0000E+00  0.4800E+02
     -9.578  0.0000E+00  0.4800E+02
     -9.372  0.0000E+00  0.4800E+02
     -9.166  0.0000E+00  0.4800E+02
     -8.960  0.0000E+00  0.4800E+02
     -8.754  0.0000E+00  0.4800E+02
     -8.548  0.0000E+00  0.4800E+02
     -8.343  0.0000E+00  0.4800E+02
     -8.137  0.0000E+00  0.4800E+02
     -7.931  0.0000E+00  0.4800E+02
     -7.725  0.0000E+00  0.4800E+02
     -7.519  0.0000E+00  0.4800E+02
     -7.313  0.0000E+00  0.4800E+02
     -7.107  0.0000E+00  0.4800E+02
     -6.902  0.0000E+00  0.4800E+02
     -6.696  0.0000E+00  0.4800E+02
     -6.490  0.0000E+00  0.4800E+02
     -6.284  0.0000E+00  0.4800E+02
     -6.078  0.0000E+00  0.4800E+02
     -5.872  0.0000E+00  0.4800E+02
     -5.667  0.0000E+00  0.4800E+02
     -5.461  0.0000E+00  0.4800E+02
     -5.255  0.0000E+00  0.4800E+02
     -5.049  0.0000E+00  0.4800E+02
     -4.843  0.0000E+00  0.4800E+02
     -4.637  0.0000E+00  0.4800E+02
     -4.431  0.0000E+00  0.4800E+02
     -4.226  0.0000E+00  0.4800E+02
     -4.020  0.0000E+00  0.4800E+02
     -3.814  0.0000E+00  0.4800E+02
     -3.608  0.0000E+00  0.4800E+02
     -3.402  0.0000E+00  0.4800E+02
     -3.196  0.0000E+00  0.4800E+02
     -2.990  0.0000E+00  0.4800E+02
     -2.785  0.0000E+00  0.4800E+02
     -2.579  0.0000E+00  0.4800E+02
     -2.373  0.0000E+00  0.4800E+02
     -2.167  0.0000E+00  0.4800E+02
     -1.961  0.0000E+00  0.4800E+02
     -1.755 -0.3493E-33  0.4800E+02
     -1.549 -0.6214E-26  0.4800E+02
     -1.344 -0.1312E-19  0.4800E+02
     -1.138 -0.3183E-14  0.4800E+02
     -0.932 -0.9356E-10  0.4800E+02
     -0.726 -0.3235E-06  0.4800E+02
     -0.520 -0.1303E-03  0.4800E+02
     -0.314 -0.5628E-02  0.4800E+02
     -0.108 -0.1358E-02  0.4800E+02
      0.097  0.2759E+00  0.4806E+02
      0.303  0.8904E+00  0.4824E+02
      0.509  0.1589E+01  0.4857E+02
      0.715  0.1931E+01  0.4896E+02
      0.921  0.1473E+01  0.4927E+02
      1.127  0.2113E+01  0.4970E+02
      1.332  0.3093E+01  0.5034E+02
      1.538  0.3522E+01  0.5106E+02
      1.744  0.2778E+01  0.5163E+02
      1.950  0.3404E+01  0.5234E+02
      2.156  0.4860E+01  0.5334E+02
      2.362  0.5112E+01  0.5439E+02
      2.568  0.7316E+01  0.5589E+02
      2.773  0.1156E+02  0.5827E+02
      2.979  0.1788E+02  0.6195E+02
      3.185  0.2163E+02  0.6641E+02
      3.391  0.2532E+02  0.7162E+02
      3.597  0.3066E+02  0.7793E+02
      3.803  0.3063E+02  0.8424E+02
      4.009  0.3112E+02  0.9064E+02
      4.214  0.3127E+02  0.9708E+02
      4.420  0.3121E+02  0.1035E+03
      4.626  0.2712E+02  0.1091E+03
      4.832  0.2269E+02  0.1138E+03
      5.038  0.3051E+02  0.1200E+03
      5.244  0.3801E+02  0.1279E+03
      5.450  0.4404E+02  0.1369E+03
      5.655  0.4450E+02  0.1461E+03
      5.861  0.4248E+02  0.1548E+03
      6.067  0.3870E+02  0.1628E+03
      6.273  0.4129E+02  0.1713E+03
      6.479  0.4685E+02  0.1809E+03
      6.685  0.5008E+02  0.1913E+03
      6.890  0.4629E+02  0.2008E+03
      7.096  0.3986E+02  0.2090E+03
      7.302  0.2732E+02  0.2146E+03
      7.508  0.1728E+02  0.2182E+03
      7.714  0.1240E+02  0.2207E+03
      7.920  0.1359E+02  0.2235E+03
      8.126  0.1741E+02  0.2271E+03
      8.331  0.1950E+02  0.2311E+03
      8.537  0.1987E+02  0.2352E+03
      8.743  0.1488E+02  0.2383E+03
      8.949  0.7442E+01  0.2398E+03
      9.155  0.1144E+01  0.2400E+03
      9.361 -0.1678E+00  0.2400E+03
      9.567 -0.1613E-01  0.2400E+03
      9.772 -0.1637E-03  0.2400E+03
      9.978 -0.2161E-06  0.2400E+03
     10.184 -0.3595E-10  0.2400E+03
     10.390 -0.7076E-15  0.2400E+03
     10.596  0.0000E+00  0.2400E+03
     10.802  0.0000E+00  0.2400E+03
     11.008  0.0000E+00  0.2400E+03
     11.213  0.0000E+00  0.2400E+03
     11.419  0.0000E+00  0.2400E+03
     11.625  0.0000E+00  0.2400E+03
     11.831  0.0000E+00  0.2400E+03
