   30   30    1    1
  0.1562794E+02  0.5455960E-09  0.8183940E-09  0.1124775E-08  0.5000000E-15
  1.000000000000000E-004
  CAR 
 Nb - Mo - Ta - Ti - V SQS               
    198     63    120
 
  0.0000000E+00  0.0000000E+00  0.0000000E+00  0.8000000E-02
    1      -47.117640   1.000000
    2      -47.094653   1.000000
    3      -47.046367   1.000000
    4      -46.988468   1.000000
    5      -46.954209   1.000000
    6      -46.858748   1.000000
    7      -23.917743   1.000000
    8      -23.747763   1.000000
    9      -23.580291   1.000000
   10      -23.533527   1.000000
   11      -23.296155   1.000000
   12      -23.287518   1.000000
   13      -23.280418   1.000000
   14      -23.228683   1.000000
   15      -23.211099   1.000000
   16      -23.190288   1.000000
   17      -23.158534   1.000000
   18      -23.114928   1.000000
   19      -23.079707   1.000000
   20      -23.054399   1.000000
   21      -22.901982   1.000000
   22      -22.881825   1.000000
   23      -22.723266   1.000000
   24      -22.485860   1.000000
   25       -0.018824   1.000000
   26        1.306480   1.000000
   27        1.668112   1.000000
   28        2.441779   1.000000
   29        2.546121   1.000000
   30        2.635957   1.000000
   31        2.733944   1.000000
   32        2.855817   1.000000
   33        2.914665   1.000000
   34        2.980831   1.000000
   35        3.063982   1.000000
   36        3.092494   1.000000
   37        3.158927   1.000000
   38        3.223069   1.000000
   39        3.306124   1.000000
   40        3.365964   1.000000
   41        3.449544   1.000000
   42        3.526269   1.000000
   43        3.634244   1.000000
   44        3.693123   1.000000
   45        3.787444   1.000000
   46        3.826016   1.000000
   47        3.863643   1.000000
   48        3.886553   1.000000
   49        4.081825   1.000000
   50        4.100119   1.000000
   51        4.203626   1.000000
   52        4.238734   1.000000
   53        4.335330   1.000000
   54        4.379255   1.000000
   55        4.507093   1.000000
   56        4.589097   1.000000
   57        4.678077   1.000000
   58        4.731715   1.000000
   59        4.843787   1.000000
   60        4.881826   1.000000
   61        4.968463   1.000000
   62        5.014159   1.000000
   63        5.021541   1.000000
   64        5.122968   1.000000
   65        5.128813   1.000000
   66        5.223730   1.000000
   67        5.237128   1.000000
   68        5.326829   1.000000
   69        5.338944   1.000000
   70        5.398248   1.000000
   71        5.460003   1.000000
   72        5.490349   1.000000
   73        5.549069   1.000000
   74        5.592767   1.000000
   75        5.606201   1.000000
   76        5.627149   1.000000
   77        5.642354   1.000000
   78        5.771424   1.000000
   79        5.837115   1.000000
   80        5.928325   1.000000
   81        6.117240   1.000003
   82        6.177269   1.000021
   83        6.210971   1.000058
   84        6.250237   1.000172
   85        6.314483   1.000851
   86        6.379972   1.003413
   87        6.424389   1.007537
   88        6.465268   1.013910
   89        6.475711   1.015955
   90        6.515379   1.024771
   91        6.539470   1.030113
   92        6.561656   1.033938
   93        6.590699   1.035221
   94        6.667354   0.990881
   95        6.817386   0.544880
   96        6.858879   0.371088
   97        6.931343   0.120884
   98        6.985277   0.013531
   99        7.029012  -0.025640
  100        7.120545  -0.029279
  101        7.192801  -0.013527
  102        7.219971  -0.009083
  103        7.256962  -0.004871
  104        7.276648  -0.003374
  105        7.314901  -0.001544
  106        7.461723  -0.000035
  107        7.708226  -0.000000
  108        7.863542  -0.000000
  109        7.910334  -0.000000
  110        7.997393  -0.000000
  111        8.324010  -0.000000
  112        8.489084  -0.000000
  113        8.640757  -0.000000
  114        8.737450  -0.000000
  115        8.800334  -0.000000
  116        8.808428  -0.000000
  117        8.850102  -0.000000
  118        8.858510  -0.000000
  119        8.930813  -0.000000
  120        8.963509  -0.000000
 
  0.2000000E+00 -0.1387779E-16  0.6591949E-16  0.1600000E-01
    1      -47.113996   1.000000
    2      -47.088181   1.000000
    3      -47.043808   1.000000
    4      -46.987386   1.000000
    5      -46.953620   1.000000
    6      -46.872358   1.000000
    7      -23.814192   1.000000
    8      -23.735434   1.000000
    9      -23.572486   1.000000
   10      -23.527001   1.000000
   11      -23.292365   1.000000
   12      -23.289046   1.000000
   13      -23.280821   1.000000
   14      -23.231436   1.000000
   15      -23.210289   1.000000
   16      -23.195738   1.000000
   17      -23.161120   1.000000
   18      -23.119213   1.000000
   19      -23.090561   1.000000
   20      -23.057254   1.000000
   21      -22.908381   1.000000
   22      -22.888466   1.000000
   23      -22.725793   1.000000
   24      -22.622489   1.000000
   25        0.303045   1.000000
   26        1.590554   1.000000
   27        1.939248   1.000000
   28        2.509566   1.000000
   29        2.768897   1.000000
   30        2.880020   1.000000
   31        2.921946   1.000000
   32        3.029531   1.000000
   33        3.061430   1.000000
   34        3.112364   1.000000
   35        3.248282   1.000000
   36        3.301516   1.000000
   37        3.353016   1.000000
   38        3.448539   1.000000
   39        3.471959   1.000000
   40        3.537151   1.000000
   41        3.591189   1.000000
   42        3.674676   1.000000
   43        3.716909   1.000000
   44        3.763657   1.000000
   45        3.865663   1.000000
   46        3.919601   1.000000
   47        3.986603   1.000000
   48        4.073204   1.000000
   49        4.140857   1.000000
   50        4.178606   1.000000
   51        4.290303   1.000000
   52        4.365361   1.000000
   53        4.388052   1.000000
   54        4.483613   1.000000
   55        4.539378   1.000000
   56        4.611147   1.000000
   57        4.693671   1.000000
   58        4.772500   1.000000
   59        4.888611   1.000000
   60        4.948257   1.000000
   61        5.009657   1.000000
   62        5.140007   1.000000
   63        5.171287   1.000000
   64        5.235199   1.000000
   65        5.264258   1.000000
   66        5.307069   1.000000
   67        5.360982   1.000000
   68        5.416804   1.000000
   69        5.439494   1.000000
   70        5.455957   1.000000
   71        5.521130   1.000000
   72        5.552442   1.000000
   73        5.620644   1.000000
   74        5.644343   1.000000
   75        5.721368   1.000000
   76        5.756373   1.000000
   77        5.780332   1.000000
   78        5.819720   1.000000
   79        5.867632   1.000000
   80        5.901605   1.000000
   81        5.927369   1.000000
   82        6.021623   1.000000
   83        6.079177   1.000001
   84        6.140412   1.000007
   85        6.225295   1.000087
   86        6.276552   1.000340
   87        6.305644   1.000693
   88        6.393236   1.004381
   89        6.482965   1.017462
   90        6.498955   1.020988
   91        6.540633   1.030349
   92        6.555749   1.033088
   93        6.611388   1.031741
   94        6.643485   1.015122
   95        6.721479   0.887501
   96        6.738603   0.839634
   97        6.807537   0.586125
   98        6.846227   0.423266
   99        6.908315   0.188666
  100        6.965410   0.044745
  101        6.989470   0.008107
  102        7.037907  -0.029530
  103        7.131871  -0.026783
  104        7.165105  -0.019185
  105        7.213004  -0.010110
  106        7.228702  -0.007906
  107        7.287183  -0.002744
  108        7.467924  -0.000029
  109        7.625997  -0.000000
  110        7.726905  -0.000000
  111        8.009658  -0.000000
  112        8.044917  -0.000000
  113        8.100241  -0.000000
  114        8.124256  -0.000000
  115        8.224698  -0.000000
  116        8.389373  -0.000000
  117        8.440725  -0.000000
  118        8.499998  -0.000000
  119        8.519438  -0.000000
  120        8.550909  -0.000000
 
  0.4000000E+00 -0.2775558E-16  0.1318390E-15  0.1600000E-01
    1      -47.110156   1.000000
    2      -47.076067   1.000000
    3      -47.036514   1.000000
    4      -46.983878   1.000000
    5      -46.951469   1.000000
    6      -46.900072   1.000000
    7      -23.759485   1.000000
    8      -23.597620   1.000000
    9      -23.543159   1.000000
   10      -23.416131   1.000000
   11      -23.300327   1.000000
   12      -23.292634   1.000000
   13      -23.266107   1.000000
   14      -23.233928   1.000000
   15      -23.209661   1.000000
   16      -23.197812   1.000000
   17      -23.166064   1.000000
   18      -23.129570   1.000000
   19      -23.112892   1.000000
   20      -23.063553   1.000000
   21      -22.997577   1.000000
   22      -22.914059   1.000000
   23      -22.879369   1.000000
   24      -22.719696   1.000000
   25        1.161487   1.000000
   26        2.120456   1.000000
   27        2.456334   1.000000
   28        2.672159   1.000000
   29        2.749936   1.000000
   30        3.097544   1.000000
   31        3.157267   1.000000
   32        3.335267   1.000000
   33        3.430711   1.000000
   34        3.476938   1.000000
   35        3.526363   1.000000
   36        3.560942   1.000000
   37        3.611815   1.000000
   38        3.653881   1.000000
   39        3.747019   1.000000
   40        3.805158   1.000000
   41        3.882248   1.000000
   42        3.917429   1.000000
   43        3.949380   1.000000
   44        4.023910   1.000000
   45        4.122977   1.000000
   46        4.131135   1.000000
   47        4.214969   1.000000
   48        4.255910   1.000000
   49        4.349737   1.000000
   50        4.367212   1.000000
   51        4.506423   1.000000
   52        4.562172   1.000000
   53        4.621132   1.000000
   54        4.702900   1.000000
   55        4.755547   1.000000
   56        4.833176   1.000000
   57        4.906597   1.000000
   58        4.959041   1.000000
   59        4.990704   1.000000
   60        5.055193   1.000000
   61        5.083091   1.000000
   62        5.132205   1.000000
   63        5.193337   1.000000
   64        5.226868   1.000000
   65        5.263565   1.000000
   66        5.343102   1.000000
   67        5.370729   1.000000
   68        5.401690   1.000000
   69        5.440308   1.000000
   70        5.511277   1.000000
   71        5.554720   1.000000
   72        5.618003   1.000000
   73        5.657517   1.000000
   74        5.703798   1.000000
   75        5.735620   1.000000
   76        5.803617   1.000000
   77        5.855239   1.000000
   78        5.881675   1.000000
   79        5.891175   1.000000
   80        5.947238   1.000000
   81        6.041901   1.000000
   82        6.083104   1.000001
   83        6.118316   1.000003
   84        6.165027   1.000014
   85        6.225101   1.000086
   86        6.266132   1.000261
   87        6.340680   1.001530
   88        6.375154   1.003109
   89        6.408279   1.005738
   90        6.438605   1.009451
   91        6.475761   1.015965
   92        6.516239   1.024970
   93        6.538206   1.029853
   94        6.582621   1.035457
   95        6.588256   1.035350
   96        6.664009   0.994989
   97        6.712810   0.908952
   98        6.752886   0.794375
   99        6.786716   0.670664
  100        6.800454   0.615376
  101        6.839682   0.450701
  102        6.890623   0.248904
  103        6.898839   0.220115
  104        6.975711   0.027398
  105        6.988016   0.009944
  106        7.063172  -0.035064
  107        7.114066  -0.030614
  108        7.145548  -0.023635
  109        7.167877  -0.018576
  110        7.240671  -0.006481
  111        7.281768  -0.003054
  112        7.328584  -0.001143
  113        7.618127  -0.000000
  114        7.741274  -0.000000
  115        7.764253  -0.000000
  116        7.906400  -0.000000
  117        7.992699  -0.000000
  118        8.011870  -0.000000
  119        8.136703  -0.000000
  120        8.255964  -0.000000
 
 -0.2775558E-16  0.2000000E+00 -0.2775558E-16  0.1600000E-01
    1      -47.117519   1.000000
    2      -47.094423   1.000000
    3      -47.046313   1.000000
    4      -46.988754   1.000000
    5      -46.954326   1.000000
    6      -46.858745   1.000000
    7      -23.917746   1.000000
    8      -23.746422   1.000000
    9      -23.576125   1.000000
   10      -23.532304   1.000000
   11      -23.296310   1.000000
   12      -23.287564   1.000000
   13      -23.280592   1.000000
   14      -23.228792   1.000000
   15      -23.211104   1.000000
   16      -23.190180   1.000000
   17      -23.158373   1.000000
   18      -23.114841   1.000000
   19      -23.079742   1.000000
   20      -23.054493   1.000000
   21      -22.904555   1.000000
   22      -22.886666   1.000000
   23      -22.723687   1.000000
   24      -22.485869   1.000000
   25        0.116717   1.000000
   26        1.373168   1.000000
   27        1.791590   1.000000
   28        2.010982   1.000000
   29        2.548378   1.000000
   30        2.682920   1.000000
   31        2.754618   1.000000
   32        2.847665   1.000000
   33        2.880245   1.000000
   34        2.965604   1.000000
   35        3.067651   1.000000
   36        3.120703   1.000000
   37        3.157181   1.000000
   38        3.195668   1.000000
   39        3.250285   1.000000
   40        3.300753   1.000000
   41        3.473395   1.000000
   42        3.542256   1.000000
   43        3.622114   1.000000
   44        3.686891   1.000000
   45        3.786983   1.000000
   46        3.877781   1.000000
   47        3.913606   1.000000
   48        4.005069   1.000000
   49        4.052651   1.000000
   50        4.147305   1.000000
   51        4.219834   1.000000
   52        4.283401   1.000000
   53        4.311919   1.000000
   54        4.377456   1.000000
   55        4.451186   1.000000
   56        4.532456   1.000000
   57        4.625636   1.000000
   58        4.789151   1.000000
   59        4.867833   1.000000
   60        4.935364   1.000000
   61        4.974381   1.000000
   62        5.090926   1.000000
   63        5.126231   1.000000
   64        5.175382   1.000000
   65        5.225745   1.000000
   66        5.260006   1.000000
   67        5.322232   1.000000
   68        5.371168   1.000000
   69        5.400336   1.000000
   70        5.428666   1.000000
   71        5.485230   1.000000
   72        5.513581   1.000000
   73        5.554311   1.000000
   74        5.618375   1.000000
   75        5.657471   1.000000
   76        5.693398   1.000000
   77        5.740562   1.000000
   78        5.769287   1.000000
   79        5.878986   1.000000
   80        5.918859   1.000000
   81        6.135913   1.000006
   82        6.160357   1.000012
   83        6.241610   1.000136
   84        6.269892   1.000287
   85        6.311240   1.000790
   86        6.320804   1.000984
   87        6.352979   1.001986
   88        6.402289   1.005162
   89        6.447021   1.010736
   90        6.465478   1.013950
   91        6.510093   1.023548
   92        6.537109   1.029624
   93        6.576729   1.035310
   94        6.617587   1.029724
   95        6.669198   0.988511
   96        6.685926   0.963457
   97        6.755471   0.785700
   98        6.812441   0.565653
   99        6.865826   0.343110
  100        7.161680  -0.019946
  101        7.190141  -0.014025
  102        7.208852  -0.010759
  103        7.316238  -0.001500
  104        7.365255  -0.000484
  105        7.508379  -0.000008
  106        7.548419  -0.000002
  107        7.684636  -0.000000
  108        7.830316  -0.000000
  109        7.903657  -0.000000
  110        7.981090  -0.000000
  111        8.073531  -0.000000
  112        8.184395  -0.000000
  113        8.316010  -0.000000
  114        8.486014  -0.000000
  115        8.562527  -0.000000
  116        8.695053  -0.000000
  117        8.722123  -0.000000
  118        8.782560  -0.000000
  119        8.819371  -0.000000
  120        8.867101  -0.000000
 
  0.2000000E+00  0.2000000E+00  0.6938894E-17  0.1600000E-01
    1      -47.114154   1.000000
    2      -47.088369   1.000000
    3      -47.043841   1.000000
    4      -46.987115   1.000000
    5      -46.953511   1.000000
    6      -46.872361   1.000000
    7      -23.814316   1.000000
    8      -23.736670   1.000000
    9      -23.576952   1.000000
   10      -23.527730   1.000000
   11      -23.292423   1.000000
   12      -23.289017   1.000000
   13      -23.280743   1.000000
   14      -23.231491   1.000000
   15      -23.210196   1.000000
   16      -23.195674   1.000000
   17      -23.161131   1.000000
   18      -23.119248   1.000000
   19      -23.090488   1.000000
   20      -23.057186   1.000000
   21      -22.906439   1.000000
   22      -22.883228   1.000000
   23      -22.725411   1.000000
   24      -22.622474   1.000000
   25        0.307904   1.000000
   26        1.549943   1.000000
   27        1.967356   1.000000
   28        2.482689   1.000000
   29        2.711925   1.000000
   30        2.863319   1.000000
   31        2.886304   1.000000
   32        2.953479   1.000000
   33        3.019000   1.000000
   34        3.111290   1.000000
   35        3.168511   1.000000
   36        3.264797   1.000000
   37        3.350974   1.000000
   38        3.414091   1.000000
   39        3.455073   1.000000
   40        3.511337   1.000000
   41        3.562171   1.000000
   42        3.575020   1.000000
   43        3.763395   1.000000
   44        3.801535   1.000000
   45        3.866246   1.000000
   46        3.948498   1.000000
   47        3.993888   1.000000
   48        4.085192   1.000000
   49        4.204071   1.000000
   50        4.250319   1.000000
   51        4.285516   1.000000
   52        4.378464   1.000000
   53        4.442131   1.000000
   54        4.515313   1.000000
   55        4.581626   1.000000
   56        4.631995   1.000000
   57        4.752223   1.000000
   58        4.828770   1.000000
   59        4.895237   1.000000
   60        4.981265   1.000000
   61        5.031316   1.000000
   62        5.057771   1.000000
   63        5.150659   1.000000
   64        5.170605   1.000000
   65        5.207863   1.000000
   66        5.295540   1.000000
   67        5.330520   1.000000
   68        5.373873   1.000000
   69        5.412578   1.000000
   70        5.440756   1.000000
   71        5.477231   1.000000
   72        5.493868   1.000000
   73        5.525389   1.000000
   74        5.584525   1.000000
   75        5.614225   1.000000
   76        5.679114   1.000000
   77        5.770885   1.000000
   78        5.791259   1.000000
   79        5.881365   1.000000
   80        5.940330   1.000000
   81        5.998412   1.000000
   82        6.066812   1.000001
   83        6.137678   1.000006
   84        6.152376   1.000010
   85        6.215969   1.000066
   86        6.272039   1.000303
   87        6.317729   1.000918
   88        6.407703   1.005681
   89        6.444465   1.010334
   90        6.474935   1.015797
   91        6.510069   1.023542
   92        6.540629   1.030349
   93        6.580878   1.035440
   94        6.611454   1.031722
   95        6.702157   0.932711
   96        6.770766   0.731567
   97        6.804250   0.599750
   98        6.906005   0.196151
   99        6.950697   0.074045
  100        7.001789  -0.005636
  101        7.058944  -0.034627
  102        7.119904  -0.029415
  103        7.188625  -0.014313
  104        7.202976  -0.011725
  105        7.257890  -0.004790
  106        7.348900  -0.000717
  107        7.403125  -0.000184
  108        7.452705  -0.000046
  109        7.511527  -0.000007
  110        7.575438  -0.000001
  111        7.617697  -0.000000
  112        8.065789  -0.000000
  113        8.326464  -0.000000
  114        8.434836  -0.000000
  115        8.513257  -0.000000
  116        8.547397  -0.000000
  117        8.710014  -0.000000
  118        8.774907  -0.000000
  119        8.816671  -0.000000
  120        8.886285  -0.000000
 
  0.4000000E+00  0.2000000E+00  0.4163336E-16  0.1600000E-01
    1      -47.110497   1.000000
    2      -47.076349   1.000000
    3      -47.036490   1.000000
    4      -46.983418   1.000000
    5      -46.951328   1.000000
    6      -46.900078   1.000000
    7      -23.761200   1.000000
    8      -23.601478   1.000000
    9      -23.548524   1.000000
   10      -23.416089   1.000000
   11      -23.300400   1.000000
   12      -23.292543   1.000000
   13      -23.265991   1.000000
   14      -23.233934   1.000000
   15      -23.209619   1.000000
   16      -23.197683   1.000000
   17      -23.166120   1.000000
   18      -23.129589   1.000000
   19      -23.112815   1.000000
   20      -23.063479   1.000000
   21      -22.997540   1.000000
   22      -22.904996   1.000000
   23      -22.876342   1.000000
   24      -22.719181   1.000000
   25        1.064190   1.000000
   26        2.056514   1.000000
   27        2.407059   1.000000
   28        2.602832   1.000000
   29        2.726166   1.000000
   30        2.864798   1.000000
   31        3.145191   1.000000
   32        3.344165   1.000000
   33        3.476419   1.000000
   34        3.507489   1.000000
   35        3.575213   1.000000
   36        3.628847   1.000000
   37        3.657305   1.000000
   38        3.731165   1.000000
   39        3.760210   1.000000
   40        3.830533   1.000000
   41        3.896238   1.000000
   42        3.914181   1.000000
   43        4.008315   1.000000
   44        4.057585   1.000000
   45        4.071422   1.000000
   46        4.121315   1.000000
   47        4.191832   1.000000
   48        4.266572   1.000000
   49        4.340427   1.000000
   50        4.409206   1.000000
   51        4.465878   1.000000
   52        4.534741   1.000000
   53        4.583358   1.000000
   54        4.617721   1.000000
   55        4.691101   1.000000
   56        4.742542   1.000000
   57        4.800132   1.000000
   58        4.887102   1.000000
   59        4.962460   1.000000
   60        5.080941   1.000000
   61        5.112329   1.000000
   62        5.131618   1.000000
   63        5.197439   1.000000
   64        5.254593   1.000000
   65        5.288218   1.000000
   66        5.346946   1.000000
   67        5.370692   1.000000
   68        5.431634   1.000000
   69        5.458135   1.000000
   70        5.512259   1.000000
   71        5.566127   1.000000
   72        5.577976   1.000000
   73        5.623905   1.000000
   74        5.671998   1.000000
   75        5.714359   1.000000
   76        5.758728   1.000000
   77        5.789432   1.000000
   78        5.882791   1.000000
   79        5.917934   1.000000
   80        5.990613   1.000000
   81        6.021965   1.000000
   82        6.092046   1.000001
   83        6.147322   1.000008
   84        6.168152   1.000016
   85        6.189182   1.000030
   86        6.231974   1.000104
   87        6.301818   1.000632
   88        6.324173   1.001062
   89        6.369425   1.002777
   90        6.408604   1.005771
   91        6.435502   1.009006
   92        6.480670   1.016978
   93        6.507625   1.022977
   94        6.538153   1.029842
   95        6.574776   1.035208
   96        6.600604   1.034126
   97        6.650116   1.009530
   98        6.682877   0.968513
   99        6.714078   0.905933
  100        6.741532   0.830735
  101        6.777648   0.705789
  102        6.841833   0.441661
  103        6.898976   0.219644
  104        6.923230   0.143308
  105        6.985997   0.012572
  106        6.991447   0.005684
  107        7.112799  -0.030864
  108        7.220803  -0.008966
  109        7.263405  -0.004331
  110        7.355224  -0.000617
  111        7.429882  -0.000089
  112        7.787984  -0.000000
  113        7.912611  -0.000000
  114        7.978947  -0.000000
  115        8.066262  -0.000000
  116        8.186359  -0.000000
  117        8.252196  -0.000000
  118        8.313051  -0.000000
  119        8.370731  -0.000000
  120        8.412135  -0.000000
 
 -0.4000000E+00  0.2000000E+00  0.0000000E+00  0.1600000E-01
    1      -47.110149   1.000000
    2      -47.076065   1.000000
    3      -47.036512   1.000000
    4      -46.983887   1.000000
    5      -46.951470   1.000000
    6      -46.900072   1.000000
    7      -23.759461   1.000000
    8      -23.597606   1.000000
    9      -23.543123   1.000000
   10      -23.416134   1.000000
   11      -23.300474   1.000000
   12      -23.292629   1.000000
   13      -23.266149   1.000000
   14      -23.233968   1.000000
   15      -23.209519   1.000000
   16      -23.197801   1.000000
   17      -23.165993   1.000000
   18      -23.129573   1.000000
   19      -23.112869   1.000000
   20      -23.063554   1.000000
   21      -22.997564   1.000000
   22      -22.914120   1.000000
   23      -22.879425   1.000000
   24      -22.719713   1.000000
   25        1.429718   1.000000
   26        2.107800   1.000000
   27        2.231908   1.000000
   28        2.523380   1.000000
   29        2.790526   1.000000
   30        3.019620   1.000000
   31        3.122693   1.000000
   32        3.210074   1.000000
   33        3.430542   1.000000
   34        3.455275   1.000000
   35        3.517711   1.000000
   36        3.541194   1.000000
   37        3.593380   1.000000
   38        3.674743   1.000000
   39        3.748887   1.000000
   40        3.817234   1.000000
   41        3.855003   1.000000
   42        3.903415   1.000000
   43        3.978190   1.000000
   44        4.013782   1.000000
   45        4.096882   1.000000
   46        4.202428   1.000000
   47        4.236304   1.000000
   48        4.349162   1.000000
   49        4.413361   1.000000
   50        4.467338   1.000000
   51        4.507470   1.000000
   52        4.552291   1.000000
   53        4.623253   1.000000
   54        4.731359   1.000000
   55        4.820464   1.000000
   56        4.898790   1.000000
   57        4.951465   1.000000
   58        4.982431   1.000000
   59        4.997758   1.000000
   60        5.043438   1.000000
   61        5.059460   1.000000
   62        5.141544   1.000000
   63        5.157212   1.000000
   64        5.218844   1.000000
   65        5.272022   1.000000
   66        5.324922   1.000000
   67        5.376235   1.000000
   68        5.418728   1.000000
   69        5.455858   1.000000
   70        5.471574   1.000000
   71        5.490678   1.000000
   72        5.591675   1.000000
   73        5.618334   1.000000
   74        5.674275   1.000000
   75        5.739143   1.000000
   76        5.751953   1.000000
   77        5.808914   1.000000
   78        5.838525   1.000000
   79        5.920996   1.000000
   80        5.973962   1.000000
   81        6.000480   1.000000
   82        6.053606   1.000000
   83        6.079927   1.000001
   84        6.152993   1.000010
   85        6.242196   1.000138
   86        6.282209   1.000392
   87        6.324187   1.001063
   88        6.371314   1.002883
   89        6.413079   1.006235
   90        6.455569   1.012158
   91        6.503727   1.022079
   92        6.523038   1.026531
   93        6.548187   1.031805
   94        6.584875   1.035445
   95        6.626388   1.025948
   96        6.676707   0.978070
   97        6.717134   0.898488
   98        6.765629   0.750258
   99        6.793286   0.644497
  100        6.810494   0.573800
  101        6.838218   0.456863
  102        6.871753   0.319722
  103        6.894194   0.236224
  104        6.946511   0.083374
  105        6.982661   0.017113
  106        7.022094  -0.021779
  107        7.060564  -0.034815
  108        7.081862  -0.035171
  109        7.192816  -0.013525
  110        7.246603  -0.005853
  111        7.386560  -0.000284
  112        7.418076  -0.000123
  113        7.445683  -0.000056
  114        7.565786  -0.000001
  115        7.842551  -0.000000
  116        8.026737  -0.000000
  117        8.252568  -0.000000
  118        8.265887  -0.000000
  119        8.321695  -0.000000
  120        8.357187  -0.000000
 
 -0.2000000E+00  0.2000000E+00 -0.1040834E-15  0.1600000E-01
    1      -47.113728   1.000000
    2      -47.087862   1.000000
    3      -47.043749   1.000000
    4      -46.987855   1.000000
    5      -46.953797   1.000000
    6      -46.872352   1.000000
    7      -23.814008   1.000000
    8      -23.733472   1.000000
    9      -23.565207   1.000000
   10      -23.525323   1.000000
   11      -23.292445   1.000000
   12      -23.289294   1.000000
   13      -23.281000   1.000000
   14      -23.231524   1.000000
   15      -23.210281   1.000000
   16      -23.195650   1.000000
   17      -23.160918   1.000000
   18      -23.119091   1.000000
   19      -23.090651   1.000000
   20      -23.057370   1.000000
   21      -22.914408   1.000000
   22      -22.894740   1.000000
   23      -22.726407   1.000000
   24      -22.622505   1.000000
   25        0.549755   1.000000
   26        1.699279   1.000000
   27        1.952415   1.000000
   28        2.145656   1.000000
   29        2.695514   1.000000
   30        2.914005   1.000000
   31        3.003687   1.000000
   32        3.071727   1.000000
   33        3.086479   1.000000
   34        3.129767   1.000000
   35        3.263633   1.000000
   36        3.303734   1.000000
   37        3.363546   1.000000
   38        3.398402   1.000000
   39        3.434629   1.000000
   40        3.485450   1.000000
   41        3.530523   1.000000
   42        3.605206   1.000000
   43        3.712975   1.000000
   44        3.774690   1.000000
   45        3.858213   1.000000
   46        3.928184   1.000000
   47        3.998073   1.000000