       N       E                     dE             d eps       ncg     rms          rms(c)
DAV:   1    -0.395090004386E+03   -0.39509E+03   -0.14238E+02 26600   0.338E+01    0.724E+01
DAV:   2    -0.498166143895E+03   -0.10308E+03   -0.32990E+03 26576   0.203E+02    0.116E+02
DAV:   3    -0.383912557413E+03    0.11425E+03   -0.12203E+03 26256   0.215E+02    0.638E+01
DAV:   4    -0.344115639758E+03    0.39797E+02   -0.23416E+02 25480   0.701E+01    0.501E+01
DAV:   5    -0.333983284501E+03    0.10132E+02   -0.76440E+01 27760   0.349E+01    0.446E+01
DAV:   6    -0.324973318338E+03    0.90100E+01   -0.75146E+01 23920   0.386E+01    0.387E+01
DAV:   7    -0.331990469213E+03   -0.70172E+01   -0.14218E+02 25856   0.403E+01    0.397E+01
DAV:   8    -0.322995417574E+03    0.89951E+01   -0.70567E+01 24936   0.405E+01    0.271E+01
DAV:   9    -0.323105745596E+03   -0.11033E+00   -0.61051E+01 24352   0.399E+01    0.208E+01
DAV:  10    -0.322021799480E+03    0.10839E+01   -0.44696E+01 25848   0.335E+01    0.155E+01
DAV:  11    -0.321088650605E+03    0.93315E+00   -0.30825E+01 25336   0.230E+01    0.154E+01
DAV:  12    -0.319661174053E+03    0.14275E+01   -0.16699E+01 24184   0.197E+01    0.992E+00
DAV:  13    -0.318862348990E+03    0.79883E+00   -0.38969E+00 23608   0.888E+00    0.385E+00
DAV:  14    -0.318846705953E+03    0.15643E-01   -0.79429E-01 25976   0.317E+00    0.339E+00
DAV:  15    -0.318884122629E+03   -0.37417E-01   -0.72048E-01 24072   0.376E+00    0.383E+00
DAV:  16    -0.318816474285E+03    0.67648E-01   -0.36984E-01 24376   0.276E+00    0.256E+00
DAV:  17    -0.318780743986E+03    0.35730E-01   -0.22424E-01 25016   0.202E+00    0.147E+00
DAV:  18    -0.318785698023E+03   -0.49540E-02   -0.96291E-02 25256   0.123E+00    0.151E+00
DAV:  19    -0.318778644639E+03    0.70534E-02   -0.40452E-02 25344   0.753E-01    0.106E+00
DAV:  20    -0.318777828520E+03    0.81612E-03   -0.21091E-02 23848   0.572E-01    0.970E-01
DAV:  21    -0.318772726428E+03    0.51021E-02   -0.26342E-02 22184   0.692E-01    0.527E-01
DAV:  22    -0.318772295391E+03    0.43104E-03   -0.57888E-03 23184   0.274E-01    0.408E-01
DAV:  23    -0.318771968957E+03    0.32643E-03   -0.13860E-03 21728   0.154E-01    0.269E-01
DAV:  24    -0.318771858291E+03    0.11067E-03   -0.13920E-03 21400   0.127E-01    0.198E-01
DAV:  25    -0.318771813285E+03    0.45006E-04   -0.95050E-04 19080   0.110E-01
   1 F= -.31877181E+03 E0= -.31876771E+03  d E =-.123066E-01
