 vasp.5.4.4.18Apr17-6-g9f103f2a35 (build Aug 09 2018 16:20:53) complex          
  
 executed on             LinuxIFC date 2020.04.28  21:06:14
 running on   32 total cores
 distrk:  each k-point on   32 cores,    1 groups
 distr:  one band on NCORES_PER_BAND=   4 cores,    8 groups


--------------------------------------------------------------------------------------------------------


 INCAR:
 POTCAR:    PAW_PBE Nb_sv 25May2007               
 POTCAR:    PAW_PBE Mo 08Apr2002                  
 POTCAR:    PAW_PBE Ta 17Jan2003                  
 POTCAR:    PAW_PBE Ti 08Apr2002                  
 POTCAR:    PAW_PBE V 08Apr2002                   
 POTCAR:    PAW_PBE Nb_sv 25May2007               
   VRHFIN =Nb: 4p5s4d                                                           
   LEXCH  = PE                                                                  
   EATOM  =  1555.1913 eV,  114.3033 Ry                                         
                                                                                
   TITEL  = PAW_PBE Nb_sv 25May2007                                             
   LULTRA =        F    use ultrasoft PP ?                                      
   IUNSCR =        1    unscreen: 0-lin 1-nonlin 2-no                           
   RPACOR =    1.800    partial core radius                                     
   POMASS =   92.910; ZVAL   =   13.000    mass and valenz                      
   RCORE  =    2.400    outmost cutoff radius                                   
   RWIGS  =    2.400; RWIGS  =    1.270    wigner-seitz radius (au A)           
   ENMAX  =  293.235; ENMIN  =  219.927 eV                                      
   ICORE  =        3    local potential                                         
   LCOR   =        T    correct aug charges                                     
   LPAW   =        T    paw PP                                                  
   EAUG   =  455.659                                                            
   DEXC   =    0.000                                                            
   RMAX   =    2.456    core radius for proj-oper                               
   RAUG   =    1.300    factor for augmentation sphere                          
   RDEP   =    2.451    radius for radial grids                                 
   RDEPT  =    1.956    core radius for aug-charge                              
                                                                                
   Atomic configuration                                                         
   11 entries                                                                   
     n  l   j            E        occ.                                          
     1  0  0.50    -18805.2457   2.0000                                         
     2  0  0.50     -2630.2869   2.0000                                         
     2  1  1.50     -2348.4046   6.0000                                         
     3  0  0.50      -438.8757   2.0000                                         
     3  1  1.50      -346.7588   6.0000                                         
     3  2  2.50      -196.2560  10.0000                                         
     4  0  0.50       -58.3859   2.0000                                         
     5  0  0.50        -3.9816   1.0000                                         
     4  1  1.50       -34.5141   6.0000                                         
     4  2  2.50        -3.0408   4.0000                                         
     4  3  2.50        -1.3606   0.0000                                         
   Description                                                                  
     l       E           TYP  RCUT    TYP  RCUT                                 
     0    -58.3859094     23  2.200                                             
     0     -3.9816262     23  2.200                                             
     1    -34.5140738     23  2.200                                             
     1     13.6058260     23  2.200                                             
     2     -3.0408010     23  2.200                                             
     2     -0.1283038     23  2.200                                             
     3     -1.3605826     23  2.400                                             
  local pseudopotential read in
  partial core-charges read in
  partial kinetic energy density read in
  atomic valenz-charges read in
  non local Contribution for L=           0  read in
    real space projection operators read in
  non local Contribution for L=           0  read in
    real space projection operators read in
  non local Contribution for L=           1  read in
    real space projection operators read in
  non local Contribution for L=           1  read in
    real space projection operators read in
  non local Contribution for L=           2  read in
    real space projection operators read in
  non local Contribution for L=           2  read in
    real space projection operators read in
    PAW grid and wavefunctions read in
 
   number of l-projection  operators is LMAX  =           6
   number of lm-projection operators is LMMAX =          18
 
 POTCAR:    PAW_PBE Mo 08Apr2002                  
   VRHFIN =Mo: 4p5s4d                                                           
   LEXCH  = PE                                                                  
   EATOM  =   217.5176 eV,   15.9871 Ry                                         
                                                                                
   TITEL  = PAW_PBE Mo 08Apr2002                                                
   LULTRA =        F    use ultrasoft PP ?                                      
   IUNSCR =        1    unscreen: 0-lin 1-nonlin 2-no                           
   RPACOR =    2.200    partial core radius                                     
   POMASS =   95.940; ZVAL   =    6.000    mass and valenz                      
   RCORE  =    2.750    outmost cutoff radius                                   
   RWIGS  =    2.750; RWIGS  =    1.455    wigner-seitz radius (au A)           
   ENMAX  =  224.584; ENMIN  =  168.438 eV                                      
   RCLOC  =    2.111    cutoff for local pot                                    
   LCOR   =        T    correct aug charges                                     
   LPAW   =        T    paw PP                                                  
   EAUG   =  345.278                                                            
   DEXC   =    0.000                                                            
   RMAX   =    2.821    core radius for proj-oper                               
   RAUG   =    1.300    factor for augmentation sphere                          
   RDEP   =    2.815    radius for radial grids                                 
   RDEPT  =    2.211    core radius for aug-charge                              
                                                                                
   Atomic configuration                                                         
   12 entries                                                                   
     n  l   j            E        occ.                                          
     1  0  0.50    -19819.0341   2.0000                                         
     2  0  0.50     -2799.0127   2.0000                                         
     2  1  1.50     -2502.0276   6.0000                                         
     3  0  0.50      -476.4448   2.0000                                         
     3  1  1.50      -379.1496   6.0000                                         
     3  2  2.50      -220.9367  10.0000                                         
     4  0  0.50       -64.3378   2.0000                                         
     4  1  1.50       -38.4773   6.0000                                         
     4  2  2.50        -3.7535   5.0000                                         
     5  0  0.50        -4.0862   1.0000                                         
     5  1  0.50        -2.7701   0.0000                                         
     4  3  2.50        -1.3606   0.0000                                         
   Description                                                                  
     l       E           TYP  RCUT    TYP  RCUT                                 
     2     -3.7534765     23  2.500                                             
     2     -5.1140591     23  2.500                                             
     0     -4.0861560     23  2.600                                             
     0     13.6058260     23  2.600                                             
     1      5.4423304     23  2.750                                             
     1     27.2116520     23  2.750                                             
  local pseudopotential read in
  partial core-charges read in
  partial kinetic energy density read in
  atomic valenz-charges read in
  non local Contribution for L=           2  read in
    real space projection operators read in
  non local Contribution for L=           2  read in
    real space projection operators read in
  non local Contribution for L=           0  read in
    real space projection operators read in
  non local Contribution for L=           0  read in
    real space projection operators read in
  non local Contribution for L=           1  read in
    real space projection operators read in
  non local Contribution for L=           1  read in
    real space projection operators read in
    PAW grid and wavefunctions read in
 
   number of l-projection  operators is LMAX  =           6
   number of lm-projection operators is LMMAX =          18
 
 POTCAR:    PAW_PBE Ta 17Jan2003                  
   VRHFIN =Ta:  6s5d                                                            
   LEXCH  = PE                                                                  
   EATOM  =   130.6506 eV,    9.6025 Ry                                         
                                                                                
   TITEL  = PAW_PBE Ta 17Jan2003                                                
   LULTRA =        F    use ultrasoft PP ?                                      
   IUNSCR =        1    unscreen: 0-lin 1-nonlin 2-no                           
   RPACOR =    2.330    partial core radius                                     
   POMASS =  180.948; ZVAL   =    5.000    mass and valenz                      
   RCORE  =    2.900    outmost cutoff radius                                   
   RWIGS  =    2.840; RWIGS  =    1.503    wigner-seitz radius (au A)           
   ENMAX  =  223.667; ENMIN  =  167.750 eV                                      
   RCLOC  =    2.205    cutoff for local pot                                    
   LCOR   =        T    correct aug charges                                     
   LPAW   =        T    paw PP                                                  
   EAUG   =  332.075                                                            
   DEXC   =    0.000                                                            
   RMAX   =    2.970    core radius for proj-oper                               
   RAUG   =    1.300    factor for augmentation sphere                          
   RDEP   =    3.060    radius for radial grids                                 
   RDEPT  =    2.354    core radius for aug-charge                              
                                                                                
   Atomic configuration                                                         
   16 entries                                                                   
     n  l   j            E        occ.                                          
     1  0  0.50    -67341.2807   2.0000                                         
     2  0  0.50    -11566.9376   2.0000                                         
     2  1  1.50    -10134.1182   6.0000                                         
     3  0  0.50     -2648.5620   2.0000                                         
     3  1  1.50     -2222.6012   6.0000                                         
     3  2  2.50     -1726.3120  10.0000                                         
     4  0  0.50      -538.6961   2.0000                                         
     4  1  1.50      -399.0129   6.0000                                         
     4  2  2.50      -220.3959  10.0000                                         
     4  3  3.50       -23.0374  14.0000                                         
     5  0  0.50       -71.2901   2.0000                                         
     5  1  1.50       -37.8225   6.0000                                         
     5  2  2.50        -2.6455   4.0000                                         
     6  0  0.50        -4.9623   1.0000                                         
     6  1  1.50        -1.3606   0.0000                                         
     5  3  2.50        -1.3606   0.0000                                         
   Description                                                                  
     l       E           TYP  RCUT    TYP  RCUT                                 
     2     -2.6455043     23  2.500                                             
     2     -0.6258895     23  2.500                                             
     0     -4.9622780     23  2.500                                             
     0      4.7531321     23  2.500                                             
     1     -1.3605826     23  2.900                                             
     1     27.2116520     23  2.900                                             
  local pseudopotential read in
  partial core-charges read in
  partial kinetic energy density read in
  atomic valenz-charges read in
  non local Contribution for L=           2  read in
    real space projection operators read in
  non local Contribution for L=           2  read in
    real space projection operators read in
  non local Contribution for L=           0  read in
    real space projection operators read in
  non local Contribution for L=           0  read in
    real space projection operators read in
  non local Contribution for L=           1  read in
    real space projection operators read in
  non local Contribution for L=           1  read in
    real space projection operators read in
    PAW grid and wavefunctions read in
 
   number of l-projection  operators is LMAX  =           6
   number of lm-projection operators is LMMAX =          18
 
 POTCAR:    PAW_PBE Ti 08Apr2002                  
   VRHFIN =Ti: d3 s1                                                            
   LEXCH  = PE                                                                  
   EATOM  =    94.7928 eV,    6.9671 Ry                                         
                                                                                
   TITEL  = PAW_PBE Ti 08Apr2002                                                
   LULTRA =        F    use ultrasoft PP ?                                      
   IUNSCR =        1    unscreen: 0-lin 1-nonlin 2-no                           
   RPACOR =    2.200    partial core radius                                     
   POMASS =   47.880; ZVAL   =    4.000    mass and valenz                      
   RCORE  =    2.800    outmost cutoff radius                                   
   RWIGS  =    2.500; RWIGS  =    1.323    wigner-seitz radius (au A)           
   ENMAX  =  178.330; ENMIN  =  133.747 eV                                      
   RCLOC  =    2.215    cutoff for local pot                                    
   LCOR   =        T    correct aug charges                                     
   LPAW   =        T    paw PP                                                  
   EAUG   =  328.883                                                            
   DEXC   =    0.000                                                            
   RMAX   =    2.868    core radius for proj-oper                               
   RAUG   =    1.300    factor for augmentation sphere                          
   RDEP   =    2.885    radius for radial grids                                 
   RDEPT  =    2.320    core radius for aug-charge                              
                                                                                
   Atomic configuration                                                         
    9 entries                                                                   
     n  l   j            E        occ.                                          
     1  0  0.50     -4865.3608   2.0000                                         
     2  0  0.50      -533.1367   2.0000                                         
     2  1  1.50      -440.5031   6.0000                                         
     3  0  0.50       -59.3186   2.0000                                         
     3  1  1.50       -35.7012   6.0000                                         
     3  2  2.50        -1.9157   3.0000                                         
     4  0  0.50        -3.7291   1.0000                                         
     4  1  1.50        -4.0817   0.0000                                         
     4  3  2.50        -1.3606   0.0000                                         
   Description                                                                  
     l       E           TYP  RCUT    TYP  RCUT                                 
     2     -1.9156924     23  2.800                                             
     2     -0.4062961     23  2.800                                             
     0     -3.7290832     23  2.800                                             
     0     20.4087390     23  2.800                                             
     1     -5.4423304     23  2.800                                             
  local pseudopotential read in
  partial core-charges read in
  partial kinetic energy density read in
  atomic valenz-charges read in
  non local Contribution for L=           2  read in
    real space projection operators read in
  non local Contribution for L=           2  read in
    real space projection operators read in
  non local Contribution for L=           0  read in
    real space projection operators read in
  non local Contribution for L=           0  read in
    real space projection operators read in
  non local Contribution for L=           1  read in
    real space projection operators read in
    PAW grid and wavefunctions read in
 
   number of l-projection  operators is LMAX  =           5
   number of lm-projection operators is LMMAX =          15
 
 POTCAR:    PAW_PBE V 08Apr2002                   
   VRHFIN =V: p6 d4 s1                                                          
   LEXCH  = PE                                                                  
   EATOM  =   170.8679 eV,   12.5584 Ry                                         
                                                                                
   TITEL  = PAW_PBE V 08Apr2002                                                 
   LULTRA =        F    use ultrasoft PP ?                                      
   IUNSCR =        1    unscreen: 0-lin 1-nonlin 2-no                           
   RPACOR =    2.000    partial core radius                                     
   POMASS =   50.941; ZVAL   =    5.000    mass and valenz                      
   RCORE  =    2.700    outmost cutoff radius                                   
   RWIGS  =    2.500; RWIGS  =    1.323    wigner-seitz radius (au A)           
   ENMAX  =  192.543; ENMIN  =  144.408 eV                                      
   RCLOC  =    1.779    cutoff for local pot                                    
   LCOR   =        T    correct aug charges                                     
   LPAW   =        T    paw PP                                                  
   EAUG   =  358.662                                                            
   DEXC   =    0.000                                                            
   RMAX   =    2.768    core radius for proj-oper                               
   RAUG   =    1.300    factor for augmentation sphere                          
   RDEP   =    2.762    radius for radial grids                                 
   RDEPT  =    2.240    core radius for aug-charge                              
                                                                                
   Atomic configuration                                                         
    9 entries                                                                   
     n  l   j            E        occ.                                          
     1  0  0.50     -5360.7193   2.0000                                         
     2  0  0.50      -598.4546   2.0000                                         
     2  1  1.50      -499.0155   6.0000                                         
     3  0  0.50       -66.5711   2.0000                                         
     3  1  1.50       -40.5282   6.0000                                         
     3  2  2.50        -2.4291   4.0000                                         
     4  0  0.50        -3.8743   1.0000                                         
     4  1  0.50        -2.7212   0.0000                                         
     4  3  2.50        -1.3606   0.0000                                         
   Description                                                                  
     l       E           TYP  RCUT    TYP  RCUT                                 
     2     -2.4290901     23  2.700                                             
     2     -3.7896727     23  2.700                                             
     0     -3.8742752     23  2.700                                             
     0     27.2116520     23  2.700                                             
     1     -2.7211652     23  2.700                                             
     1     27.2116520     23  2.700                                             
  local pseudopotential read in
  partial core-charges read in
  partial kinetic energy density read in
  atomic valenz-charges read in
  non local Contribution for L=           2  read in
    real space projection operators read in
  non local Contribution for L=           2  read in
    real space projection operators read in
  non local Contribution for L=           0  read in
    real space projection operators read in
  non local Contribution for L=           0  read in
    real space projection operators read in
  non local Contribution for L=           1  read in
    real space projection operators read in
  non local Contribution for L=           1  read in
    real space projection operators read in
    PAW grid and wavefunctions read in
 
   number of l-projection  operators is LMAX  =           6
   number of lm-projection operators is LMMAX =          18
 
 Optimization of the real space projectors (new method)

 maximal supplied QI-value         = 15.68
 optimisation between [QCUT,QGAM] = [ 12.55, 25.10] = [ 44.09,176.36] Ry 
 Optimized for a Real-space Cutoff    1.56 Angstroem

   l    n(q)    QCUT    max X(q) W(low)/X(q) W(high)/X(q)  e(spline) 
   0     12    12.548    10.201    0.21E-04    0.36E-05    0.83E-07
   0     12    12.548     8.174    0.31E-04    0.62E-05    0.15E-06
   1     11    12.548     3.488    0.79E-05    0.23E-04    0.21E-06
   1     11    12.548     4.917    0.56E-04    0.13E-03    0.11E-05
   2     11    12.548   153.744    0.25E-03    0.10E-03    0.15E-05
   2     11    12.548   126.342    0.25E-03    0.10E-03    0.15E-05
 Optimization of the real space projectors (new method)

 maximal supplied QI-value         = 13.61
 optimisation between [QCUT,QGAM] = [ 12.52, 25.04] = [ 43.88,175.51] Ry 
 Optimized for a Real-space Cutoff    1.56 Angstroem

   l    n(q)    QCUT    max X(q) W(low)/X(q) W(high)/X(q)  e(spline) 
   2     11    12.518    80.908    0.42E-03    0.30E-03    0.14E-05
   2     11    12.518    79.000    0.42E-03    0.30E-03    0.14E-05
   0     12    12.518    52.066    0.58E-04    0.50E-04    0.55E-06
   0     12    12.518    24.514    0.48E-04    0.41E-04    0.46E-06
   1     11    12.518    16.033    0.62E-04    0.13E-03    0.37E-06
   1     11    12.518    11.179    0.47E-04    0.10E-03    0.31E-06
 Optimization of the real space projectors (new method)

 maximal supplied QI-value         = 12.85
 optimisation between [QCUT,QGAM] = [ 12.46, 25.06] = [ 43.51,175.83] Ry 
 Optimized for a Real-space Cutoff    1.56 Angstroem

   l    n(q)    QCUT    max X(q) W(low)/X(q) W(high)/X(q)  e(spline) 
   2     11    12.465    62.315    0.36E-03    0.20E-03    0.15E-05
   2     11    12.465    52.185    0.36E-03    0.20E-03    0.15E-05
   0     12    12.465   103.837    0.22E-04    0.37E-05    0.56E-06
   0     12    12.465    59.728    0.20E-04    0.34E-05    0.51E-06
   1     11    12.465    13.958    0.44E-03    0.81E-03    0.81E-05
   1     11    12.465     8.441    0.31E-03    0.56E-03    0.56E-05
 Optimization of the real space projectors (new method)

 maximal supplied QI-value         = 13.42
 optimisation between [QCUT,QGAM] = [ 12.48, 25.09] = [ 43.60,176.28] Ry 
 Optimized for a Real-space Cutoff    1.56 Angstroem

   l    n(q)    QCUT    max X(q) W(low)/X(q) W(high)/X(q)  e(spline) 
   2     11    12.478    49.363    0.45E-03    0.34E-03    0.89E-06
   2     11    12.478    47.669    0.44E-03    0.33E-03    0.87E-06
   0     12    12.478    26.374    0.17E-03    0.37E-04    0.21E-05
   0     12    12.478    11.549    0.13E-03    0.31E-04    0.17E-05
   1     11    12.478     9.492    0.91E-05    0.64E-04    0.34E-06
 Optimization of the real space projectors (new method)

 maximal supplied QI-value         = 13.98
 optimisation between [QCUT,QGAM] = [ 12.45, 25.03] = [ 43.38,175.46] Ry 
 Optimized for a Real-space Cutoff    1.56 Angstroem

   l    n(q)    QCUT    max X(q) W(low)/X(q) W(high)/X(q)  e(spline) 
   2     11    12.446    96.114    0.19E-03    0.47E-04    0.85E-06
   2     11    12.446    88.986    0.19E-03    0.46E-04    0.86E-06
   0     12    12.446    20.919    0.37E-04    0.64E-04    0.43E-06
   0     12    12.446     9.593    0.25E-04    0.48E-04    0.33E-06
   1     11    12.446    11.615    0.75E-04    0.30E-04    0.59E-06
   1     11    12.446     7.031    0.53E-04    0.23E-04    0.40E-06

 ----------------------------------------------------------------------------- 
|                                                                             |
|  ADVICE TO THIS USER RUNNING 'VASP/VAMP'   (HEAR YOUR MASTER'S VOICE ...):  |
|                                                                             |
|      You enforced a specific xc-type in the INCAR file,                     |
|      a different type was found on the POTCAR file                          |
|          I HOPE YOU KNOW, WHAT YOU ARE  DOING                               |
|                                                                             |
 ----------------------------------------------------------------------------- 

  PAW_PBE Nb_sv 25May2007               :
 energy of atom  1       EATOM=-1555.1913
 kinetic energy error for atom=    0.0037 (will be added to EATOM!!)
  PAW_PBE Mo 08Apr2002                  :
 energy of atom  2       EATOM= -217.5176
 kinetic energy error for atom=    0.0005 (will be added to EATOM!!)
  PAW_PBE Ta 17Jan2003                  :
 energy of atom  3       EATOM= -130.6506
 kinetic energy error for atom=    0.0004 (will be added to EATOM!!)
  PAW_PBE Ti 08Apr2002                  :
 energy of atom  4       EATOM=  -94.7928
 kinetic energy error for atom=    0.0001 (will be added to EATOM!!)
  PAW_PBE V 08Apr2002                   :
 energy of atom  5       EATOM= -170.8679
 kinetic energy error for atom=    0.0002 (will be added to EATOM!!)
 
 
 POSCAR: Nb - Mo - Ta - Ti - V SQS-30 BCC        
  positions in direct lattice
  No initial velocities read in
 exchange correlation table for  LEXCH =       14
   RHO(1)=    0.500       N(1)  =     2000
   RHO(2)=  100.500       N(2)  =     4000

 VTST: version 3.2, (02/03/18)

 CHAIN: initializing optimizer
 
 OPT: Using VASP Conjugate-Gradient optimizer
 CHAIN: Read ICHAIN            0
 
 POSCAR: Nb - Mo - Ta - Ti - V SQS-30 BCC        
  positions in direct lattice
  No initial velocities read in
 


--------------------------------------------------------------------------------------------------------


 ion  position               nearest neighbor table
   1  0.967  0.933  0.400-  18 2.73   7 2.73  24 2.73  20 2.73  20 2.73  19 2.73   6 2.73   2 2.73
                            16 3.15   8 3.15  15 3.15  11 3.15  12 3.15
   2  0.633  0.267  0.400-  18 2.73  26 2.73   9 2.73  12 2.73  12 2.73  28 2.73  15 2.73   1 2.73
                             8 3.15
   3  0.500  0.000  0.000-  13 2.73  21 2.73  17 2.73  15 2.73   4 2.73   4 2.73  27 2.73  16 2.73
                            10 3.15  14 3.15   7 3.15
   4  0.000  0.000  0.000-  10 2.73  29 2.73  24 2.73  14 2.73   3 2.73   3 2.73   7 2.73   5 2.73
                            15 3.15  13 3.15  17 3.15  16 3.15
   5  0.100  0.200  0.800-  25 2.73  17 2.73   6 2.73  21 2.73  23 2.73  27 2.73  27 2.73   4 2.73
                            10 3.15  14 3.15
   6  0.033  0.067  0.600-  26 2.73   5 2.73  14 2.73  28 2.73  28 2.73  12 2.73   1 2.73  11 2.73
                            17 3.15
   7  0.900  0.800  0.200-  30 2.73  15 2.73   1 2.73  13 2.73   8 2.73  16 2.73  16 2.73   4 2.73
                             9 3.15  20 3.15  24 3.15  29 3.15  18 3.15   3 3.15
   8  0.800  0.600  0.400-  20 2.73  12 2.73   9 2.73  19 2.73   7 2.73  18 2.73  18 2.73  26 2.73
                            30 3.15   1 3.15  11 3.15   2 3.15  16 3.15  23 3.15
   9  0.733  0.467  0.200-  16 2.73   8 2.73   2 2.73  30 2.73  30 2.73  13 2.73  10 2.73  24 2.73
                             7 3.15  18 3.15  12 3.15  29 3.15  15 3.15  21 3.15
  10  0.667  0.333  0.000-   4 2.73  27 2.73  21 2.73  21 2.73  25 2.73  15 2.73   9 2.73  29 2.73
                             3 3.15   5 3.15  22 3.15  24 3.15  13 3.15  30 3.15
  11  0.367  0.733  0.600-  26 2.73  18 2.73  22 2.73  19 2.73  19 2.73  20 2.73  17 2.73   6 2.73
                             8 3.15  23 3.15  25 3.15   1 3.15  28 3.15  14 3.15
  12  0.133  0.267  0.400-   8 2.73  23 2.73  30 2.73   2 2.73   2 2.73   6 2.73  24 2.73  20 2.73
                            18 3.15  26 3.15   9 3.15  28 3.15  15 3.15   1 3.15
  13  0.833  0.667  0.000-   3 2.73   7 2.73  29 2.73  29 2.73   9 2.73  14 2.73  25 2.73  21 2.73
                             4 3.15  16 3.15  30 3.15  17 3.15  10 3.15  22 3.15
  14  0.933  0.867  0.800-  27 2.73   4 2.73   6 2.73  17 2.73  13 2.73  17 2.73  19 2.73  22 2.73
                             3 3.15   5 3.15  28 3.15  29 3.15  11 3.15  25 3.15
  15  0.567  0.133  0.200-   7 2.73   3 2.73  24 2.73  20 2.73  10 2.73  24 2.73   2 2.73  30 2.73
                             4 3.15  16 3.15   1 3.15  21 3.15  12 3.15   9 3.15
  16  0.400  0.800  0.200-   9 2.73  24 2.73  20 2.73  29 2.73  18 2.73   7 2.73   7 2.73   3 2.73
                            30 3.15   1 3.15  13 3.15  15 3.15   8 3.15   4 3.15
  17  0.433  0.867  0.800-   5 2.73   3 2.73  28 2.73  14 2.73  29 2.73  14 2.73  11 2.73  25 2.73
                            27 3.15   4 3.15   6 3.15  13 3.15  19 3.15  22 3.15
  18  0.300  0.600  0.400-   1 2.73   2 2.73  30 2.73  11 2.73  16 2.73   8 2.73   8 2.73  23 2.73
                            20 3.15   9 3.15  12 3.15  19 3.15   7 3.15  26 3.15
  19  0.867  0.733  0.600-  23 2.73   8 2.73  25 2.73  11 2.73  11 2.73   1 2.73  14 2.73  28 2.73
                            18 3.15  26 3.15  22 3.15  20 3.15  17 3.15
  20  0.467  0.933  0.400-   8 2.73  16 2.73  15 2.73   1 2.73   1 2.73  11 2.73  28 2.73  12 2.73
                             7 3.15  18 3.15  24 3.15  19 3.15
  21  0.167  0.333  0.000-   3 2.73   5 2.73  10 2.73  10 2.73  22 2.73  24 2.73  30 2.73  13 2.73
                            27 3.15  25 3.15  15 3.15  29 3.15   9 3.15
  22  0.267  0.533  0.800-  27 2.73  23 2.73  11 2.73  25 2.73  25 2.73  21 2.73  29 2.73  14 2.73
                            26 3.15  19 3.15  10 3.15  13 3.15  17 3.15
  23  0.200  0.400  0.600-  28 2.73  19 2.73  22 2.73  12 2.73   5 2.73  26 2.73  26 2.73  18 2.73
                            25 3.15  11 3.15  27 3.15   8 3.15
  24  0.067  0.133  0.200-  16 2.73   4 2.73  15 2.73   1 2.73  15 2.73  21 2.73  12 2.73   9 2.73
                             7 3.15  20 3.15  10 3.15  30 3.15
  25  0.767  0.533  0.800-   5 2.73  26 2.73  19 2.73  22 2.73  22 2.73  10 2.73  13 2.73  17 2.73
                            27 3.15  23 3.15  11 3.15  21 3.15  14 3.15  29 3.15
  26  0.700  0.400  0.600-   6 2.73  11 2.73  25 2.73   2 2.73  27 2.73  23 2.73  23 2.73   8 2.73
                            22 3.15  19 3.15  12 3.15  28 3.15  18 3.15
  27  0.600  0.200  0.800-  22 2.73  14 2.73  28 2.73  10 2.73  26 2.73   5 2.73   5 2.73   3 2.73
                            25 3.15  17 3.15  21 3.15  23 3.15
  28  0.533  0.067  0.600-  23 2.73  27 2.73  17 2.73   6 2.73   6 2.73   2 2.73  20 2.73  19 2.73
                            26 3.15  14 3.15  12 3.15  11 3.15
  29  0.333  0.667  0.000-   4 2.73  16 2.73  13 2.73  13 2.73  30 2.73  17 2.73  22 2.73  10 2.73
                             7 3.15   9 3.15  14 3.15  21 3.15  25 3.15
  30  0.233  0.467  0.200-   7 2.73  18 2.73  12 2.73   9 2.73   9 2.73  29 2.73  21 2.73  15 2.73
                            16 3.15   8 3.15  13 3.15  10 3.15  24 3.15
 
  LATTYP: Found a triclinic cell.
 ALAT       =     5.4559600438
 B/A-ratio  =     2.8722813233
 C/A-ratio  =     2.0615528128
 COS(alpha) =     0.0140733444
 COS(beta)  =     0.0808452083
 COS(gamma) =     0.8703882798
  
  Lattice vectors:
  
 A1 = (   3.1500000000,   3.1500000000,   3.1500000000)
 A2 = (  11.0250000000,  11.0250000000,   1.5750000000)
 A3 = (  -7.8750000000,   7.8750000000,   1.5750000000)


Analysis of symmetry for initial positions (statically):
=====================================================================
 Subroutine PRICEL returns:
 Original cell was already a primitive cell.
 

 Routine SETGRP: Setting up the symmetry group for a 
 triclinic supercell.


 Subroutine GETGRP returns: Found  1 space group operations
 (whereof  1 operations were pure point group operations)
 out of a pool of  2 trial point group operations.


The static configuration has the point symmetry C_1 .


Analysis of symmetry for dynamics (positions and initial velocities):
=====================================================================
 Subroutine PRICEL returns:
 Original cell was already a primitive cell.
 

 Routine SETGRP: Setting up the symmetry group for a 
 triclinic supercell.


 Subroutine GETGRP returns: Found  1 space group operations
 (whereof  1 operations were pure point group operations)
 out of a pool of  2 trial point group operations.


The dynamic configuration has the point symmetry C_1 .


 Subroutine INISYM returns: Found  1 space group operations
 (whereof  1 operations are pure point group operations),
 and found     1 'primitive' translations

 
 
 KPOINTS: k-points                                

Automatic generation of k-mesh.
Space group operators:
 irot       det(A)        alpha          n_x          n_y          n_z        tau_x        tau_y        tau_z
    1     1.000000     0.000001     1.000000     0.000000     0.000000     0.000000     0.000000     0.000000
 
 Subroutine IBZKPT returns following result:
 ===========================================
 
 Found     63 irreducible k-points:
 
 Following reciprocal coordinates:
            Coordinates               Weight
  0.000000  0.000000  0.000000      1.000000
  0.200000 -0.000000  0.000000      2.000000
  0.400000 -0.000000  0.000000      2.000000
 -0.000000  0.200000 -0.000000      2.000000
  0.200000  0.200000  0.000000      2.000000
  0.400000  0.200000  0.000000      2.000000
 -0.400000  0.200000  0.000000      2.000000
 -0.200000  0.200000 -0.000000      2.000000
 -0.000000  0.400000 -0.000000      2.000000
  0.200000  0.400000  0.000000      2.000000
  0.400000  0.400000  0.000000      2.000000
 -0.400000  0.400000 -0.000000      2.000000
 -0.200000  0.400000 -0.000000      2.000000
  0.000000  0.000000  0.200000      2.000000
  0.200000 -0.000000  0.200000      2.000000
  0.400000 -0.000000  0.200000      2.000000
 -0.400000  0.000000  0.200000      2.000000
 -0.200000  0.000000  0.200000      2.000000
 -0.000000  0.200000  0.200000      2.000000
  0.200000  0.200000  0.200000      2.000000
  0.400000  0.200000  0.200000      2.000000
 -0.400000  0.200000  0.200000      2.000000
 -0.200000  0.200000  0.200000      2.000000
 -0.000000  0.400000  0.200000      2.000000
  0.200000  0.400000  0.200000      2.000000
  0.400000  0.400000  0.200000      2.000000
 -0.400000  0.400000  0.200000      2.000000
 -0.200000  0.400000  0.200000      2.000000
  0.000000 -0.400000  0.200000      2.000000
  0.200000 -0.400000  0.200000      2.000000
  0.400000 -0.400000  0.200000      2.000000
 -0.400000 -0.400000  0.200000      2.000000
 -0.200000 -0.400000  0.200000      2.000000
  0.000000 -0.200000  0.200000      2.000000
  0.200000 -0.200000  0.200000      2.000000
  0.400000 -0.200000  0.200000      2.000000
 -0.400000 -0.200000  0.200000      2.000000
 -0.200000 -0.200000  0.200000      2.000000
  0.000000  0.000000  0.400000      2.000000
  0.200000  0.000000  0.400000      2.000000
  0.400000 -0.000000  0.400000      2.000000
 -0.400000  0.000000  0.400000      2.000000
 -0.200000  0.000000  0.400000      2.000000
 -0.000000  0.200000  0.400000      2.000000
  0.200000  0.200000  0.400000      2.000000
  0.400000  0.200000  0.400000      2.000000
 -0.400000  0.200000  0.400000      2.000000
 -0.200000  0.200000  0.400000      2.000000
 -0.000000  0.400000  0.400000      2.000000
  0.200000  0.400000  0.400000      2.000000
  0.400000  0.400000  0.400000      2.000000
 -0.400000  0.400000  0.400000      2.000000
 -0.200000  0.400000  0.400000      2.000000
  0.000000 -0.400000  0.400000      2.000000
  0.200000 -0.400000  0.400000      2.000000
  0.400000 -0.400000  0.400000      2.000000
 -0.400000 -0.400000  0.400000      2.000000
 -0.200000 -0.400000  0.400000      2.000000
  0.000000 -0.200000  0.400000      2.000000
  0.200000 -0.200000  0.400000      2.000000
  0.400000 -0.200000  0.400000      2.000000
 -0.400000 -0.200000  0.400000      2.000000
 -0.200000 -0.200000  0.400000      2.000000
 
 Following cartesian coordinates:
            Coordinates               Weight
  0.000000  0.000000  0.000000      1.000000
 -0.086667 -0.080000 -0.033333      2.000000
 -0.173333 -0.160000 -0.066667      2.000000
  0.026667  0.040000 -0.066667      2.000000
 -0.060000 -0.040000 -0.100000      2.000000
 -0.146667 -0.120000 -0.133333      2.000000
  0.200000  0.200000  0.000000      2.000000
  0.113333  0.120000 -0.033333      2.000000
  0.053333  0.080000 -0.133333      2.000000
 -0.033333 -0.000000 -0.166667      2.000000
 -0.120000 -0.080000 -0.200000      2.000000
  0.226667  0.240000 -0.066667      2.000000
  0.140000  0.160000 -0.100000      2.000000
  0.040000 -0.040000  0.000000      2.000000
 -0.046667 -0.120000 -0.033333      2.000000
 -0.133333 -0.200000 -0.066667      2.000000
  0.213333  0.120000  0.066667      2.000000
  0.126667  0.040000  0.033333      2.000000
  0.066667  0.000000 -0.066667      2.000000
 -0.020000 -0.080000 -0.100000      2.000000
 -0.106667 -0.160000 -0.133333      2.000000
  0.240000  0.160000  0.000000      2.000000
  0.153333  0.080000 -0.033333      2.000000
  0.093333  0.040000 -0.133333      2.000000
  0.006667 -0.040000 -0.166667      2.000000
 -0.080000 -0.120000 -0.200000      2.000000
  0.266667  0.200000 -0.066667      2.000000
  0.180000  0.120000 -0.100000      2.000000
 -0.013333 -0.120000  0.133333      2.000000
 -0.100000 -0.200000  0.100000      2.000000
 -0.186667 -0.280000  0.066667      2.000000
  0.160000  0.040000  0.200000      2.000000
  0.073333 -0.040000  0.166667      2.000000
  0.013333 -0.080000  0.066667      2.000000
 -0.073333 -0.160000  0.033333      2.000000
 -0.160000 -0.240000  0.000000      2.000000
  0.186667  0.080000  0.133333      2.000000
  0.100000 -0.000000  0.100000      2.000000
  0.080000 -0.080000  0.000000      2.000000
 -0.006667 -0.160000 -0.033333      2.000000
 -0.093333 -0.240000 -0.066667      2.000000
  0.253333  0.080000  0.066667      2.000000
  0.166667  0.000000  0.033333      2.000000
  0.106667 -0.040000 -0.066667      2.000000
  0.020000 -0.120000 -0.100000      2.000000
 -0.066667 -0.200000 -0.133333      2.000000
  0.280000  0.120000  0.000000      2.000000
  0.193333  0.040000 -0.033333      2.000000
  0.133333  0.000000 -0.133333      2.000000
  0.046667 -0.080000 -0.166667      2.000000
 -0.040000 -0.160000 -0.200000      2.000000
  0.306667  0.160000 -0.066667      2.000000
  0.220000  0.080000 -0.100000      2.000000
  0.026667 -0.160000  0.133333      2.000000
 -0.060000 -0.240000  0.100000      2.000000
 -0.146667 -0.320000  0.066667      2.000000
  0.200000 -0.000000  0.200000      2.000000
  0.113333 -0.080000  0.166667      2.000000
  0.053333 -0.120000  0.066667      2.000000
 -0.033333 -0.200000  0.033333      2.000000
 -0.120000 -0.280000  0.000000      2.000000
  0.226667  0.040000  0.133333      2.000000
  0.140000 -0.040000  0.100000      2.000000
 


--------------------------------------------------------------------------------------------------------




 Dimension of arrays:
   k-points           NKPTS =     63   k-points in BZ     NKDIM =     63   number of bands    NBANDS=    120
   number of dos      NEDOS =    301   number of ions     NIONS =     30
   non local maximal  LDIM  =      6   non local SUM 2l+1 LMDIM =     18
   total plane-waves  NPLWV = 126000
   max r-space proj   IRMAX =   4326   max aug-charges    IRDMAX=  18758
   dimension x,y,z NGX =    36 NGY =   50 NGZ =   70
   dimension x,y,z NGXF=    72 NGYF=  100 NGZF=  140
   support grid    NGXF=    72 NGYF=  100 NGZF=  140
   ions per type =               6   6   6   6   6
   NGX,Y,Z   is equivalent  to a cutoff of  10.97, 10.16, 10.35 a.u.
   NGXF,Y,Z  is equivalent  to a cutoff of  21.94, 20.31, 20.69 a.u.

 SYSTEM =  Nb - Mo - Ta - Ti - V SQS               
 POSCAR =  Nb - Mo - Ta - Ti - V SQS-30 BCC        

 Startparameter for this run:
   NWRITE =      2    write-flag & timer
   PREC   = normal    normal or accurate (medium, high low for compatibility)
   ISTART =      1    job   : 0-new  1-cont  2-samecut
   ICHARG =      1    charge: 1-file 2-atom 10-const
   ISPIN  =      1    spin polarized calculation?
   LNONCOLLINEAR =      F non collinear calculations
   LSORBIT =      F    spin-orbit coupling
   INIWAV =      1    electr: 0-lowe 1-rand  2-diag
   LASPH  =      F    aspherical Exc in radial PAW
   METAGGA=      F    non-selfconsistent MetaGGA calc.

 Electronic Relaxation 1
   ENCUT  =  600.0 eV  44.10 Ry    6.64 a.u.  10.90 16.35 22.46*2*pi/ulx,y,z
   ENINI  =  600.0     initial cutoff
   ENAUG  =  455.7 eV  augmentation charge cutoff
   NELM   =    100;   NELMIN=  2; NELMDL=  0     # of ELM steps 
   EDIFF  = 0.1E-03   stopping-criterion for ELM
   LREAL  =      T    real-space projection
   NLSPLINE    = F    spline interpolate recip. space projectors
   LCOMPAT=      F    compatible to vasp.4.4
   GGA_COMPAT  = T    GGA compatible to vasp.4.4-vasp.4.6
   LMAXPAW     = -100 max onsite density
   LMAXMIX     =    2 max onsite mixed and CHGCAR
   VOSKOWN=      0    Vosko Wilk Nusair interpolation
   ROPT   =   -0.00050  -0.00050  -0.00050  -0.00050
   ROPT   =   -0.00050
 Ionic relaxation
   EDIFFG = 0.1E-02   stopping-criterion for IOM
   NSW    =      0    number of steps for IOM
   NBLOCK =      1;   KBLOCK =      1    inner block; outer block 
   IBRION =     -1    ionic relax: 0-MD 1-quasi-New 2-CG
   NFREE  =      1    steps in history (QN), initial steepest desc. (CG)
   ISIF   =      2    stress and relaxation
   IWAVPR =     10    prediction:  0-non 1-charg 2-wave 3-comb
   ISYM   =      2    0-nonsym 1-usesym 2-fastsym
   LCORR  =      T    Harris-Foulkes like correction to forces

   POTIM  = 0.5000    time-step for ionic-motion
   TEIN   =    0.0    initial temperature
   TEBEG  =    0.0;   TEEND  =   0.0 temperature during run
   SMASS  =  -3.00    Nose mass-parameter (am)
   estimated Nose-frequenzy (Omega)   =  0.10E-29 period in steps =****** mass=  -0.680E-27a.u.
   SCALEE = 1.0000    scale energy and forces
   NPACO  =    256;   APACO  = 16.0  distance and # of slots for P.C.
   PSTRESS=    0.0 pullay stress

  Mass of Ions in am
   POMASS =  92.91 95.94180.95 47.88 50.94
  Ionic Valenz
   ZVAL   =  13.00  6.00  5.00  4.00  5.00
  Atomic Wigner-Seitz radii
   RWIGS  =  -1.00 -1.00 -1.00 -1.00 -1.00
  virtual crystal weights 
   VCA    =   1.00  1.00  1.00  1.00  1.00
   NELECT =     198.0000    total number of electrons
   NUPDOWN=      -1.0000    fix difference up-down

 DOS related values:
   EMIN   =  10.00;   EMAX   =-10.00  energy-range for DOS
   EFERMI =   0.00
   ISMEAR =     1;   SIGMA  =   0.20  broadening in eV -4-tet -1-fermi 0-gaus

 Electronic relaxation 2 (details)
   IALGO  =     38    algorithm
   LDIAG  =      T    sub-space diagonalisation (order eigenvalues)
   LSUBROT=      F    optimize rotation matrix (better conditioning)
   TURBO    =      0    0=normal 1=particle mesh
   IRESTART =      0    0=no restart 2=restart with 2 vectors
   NREBOOT  =      0    no. of reboots
   NMIN     =      0    reboot dimension
   EREF     =   0.00    reference energy to select bands
   IMIX   =      4    mixing-type and parameters
     AMIX     =   0.40;   BMIX     =  1.00
     AMIX_MAG =   1.60;   BMIX_MAG =  1.00
     AMIN     =   0.10
     WC   =   100.;   INIMIX=   1;  MIXPRE=   1;  MAXMIX= -45

 Intra band minimization:
   WEIMIN = 0.0000     energy-eigenvalue tresh-hold
   EBREAK =  0.21E-06  absolut break condition
   DEPER  =   0.30     relativ break condition  

   TIME   =   0.40     timestep for ELM

  volume/ion in A,a.u.               =      15.63       105.46
  Fermi-wavevector in a.u.,A,eV,Ry     =   1.228256  2.321067 20.525926  1.508613
  Thomas-Fermi vector in A             =   2.363188
 
 Write flags
   LWAVE        =      T    write WAVECAR
   LDOWNSAMPLE  =      F    k-point downsampling of WAVECAR
   LCHARG       =      T    write CHGCAR
   LVTOT        =      F    write LOCPOT, total local potential
   LVHAR        =      F    write LOCPOT, Hartree potential only
   LELF         =      F    write electronic localiz. function (ELF)
   LORBIT       =      0    0 simple, 1 ext, 2 COOP (PROOUT), +10 PAW based schemes


 Dipole corrections
   LMONO  =      F    monopole corrections only (constant potential shift)
   LDIPOL =      F    correct potential (dipole corrections)
   IDIPOL =      0    1-x, 2-y, 3-z, 4-all directions 
   EPSILON=  1.0000000 bulk dielectric constant

 Exchange correlation treatment:
   GGA     =    PS    GGA type
   LEXCH   =    14    internal setting for exchange type
   VOSKOWN=      0    Vosko Wilk Nusair interpolation
   LHFCALC =     F    Hartree Fock is set to
   LHFONE  =     F    Hartree Fock one center treatment
   AEXX    =    0.0000 exact exchange contribution

 Linear response parameters
   LEPSILON=     F    determine dielectric tensor
   LRPA    =     F    only Hartree local field effects (RPA)
   LNABLA  =     F    use nabla operator in PAW spheres
   LVEL    =     F    velocity operator in full k-point grid
   LINTERFAST=   F  fast interpolation
   KINTER  =     0    interpolate to denser k-point grid
   CSHIFT  =0.1000    complex shift for real part using Kramers Kronig
   OMEGAMAX=  -1.0    maximum frequency
   DEG_THRESHOLD= 0.2000000E-02 threshold for treating states as degnerate
   RTIME   =   -0.100 relaxation time in fs
  (WPLASMAI=    0.000 imaginary part of plasma frequency in eV, 0.658/RTIME)
   DFIELD  = 0.0000000 0.0000000 0.0000000 field for delta impulse in time
 
 Orbital magnetization related:
   ORBITALMAG=     F  switch on orbital magnetization
   LCHIMAG   =     F  perturbation theory with respect to B field
   DQ        =  0.001000  dq finite difference perturbation B field
   LLRAUG    =     F  two centre corrections for induced B field



--------------------------------------------------------------------------------------------------------


 Static calculation
 charge density and potential will be updated during run
 non-spin polarized calculation
 Variant of blocked Davidson
 Davidson routine will perform the subspace rotation
 perform sub-space diagonalisation
    after iterative eigenvector-optimisation
 modified Broyden-mixing scheme, WC =      100.0
 initial mixing is a Kerker type mixing with AMIX =  0.4000 and BMIX =      1.0000
 Hartree-type preconditioning will be used
 using additional bands           21
 real space projection scheme for non local part
 use partial core corrections
 calculate Harris-corrections to forces 
   (improved forces if not selfconsistent)
 use gradient corrections 
 use of overlap-Matrix (Vanderbilt PP)
 Methfessel and Paxton  Order N= 1 SIGMA  =   0.20


--------------------------------------------------------------------------------------------------------


  energy-cutoff  :      600.00
  volume of cell :      468.84
      direct lattice vectors                 reciprocal lattice vectors
    -3.150000000 -3.150000000 -3.150000000    -0.137566138 -0.126984127 -0.052910053
     1.575000000  1.575000000 -7.875000000     0.042328042  0.063492063 -0.105820106
     7.875000000 -7.875000000 -1.575000000     0.063492063 -0.063492063  0.000000000

  length of vectors
     5.455960044  8.183940066 11.247749775     0.194547897  0.130463788  0.089791337


 
 old parameters found on file WAVECAR:
  energy-cutoff  :      600.00
  volume of cell :      468.84
      direct lattice vectors                 reciprocal lattice vectors
    -3.150000000 -3.150000000 -3.150000000    -0.137566138 -0.126984127 -0.052910053
     1.575000000  1.575000000 -7.875000000     0.042328042  0.063492063 -0.105820106
     7.875000000 -7.875000000 -1.575000000     0.063492063 -0.063492063  0.000000000

  length of vectors

 
 k-points in units of 2pi/SCALE and weight: k-points                                
   0.00000000  0.00000000  0.00000000       0.008
  -0.08666667 -0.08000000 -0.03333333       0.016
  -0.17333333 -0.16000000 -0.06666667       0.016
   0.02666667  0.04000000 -0.06666667       0.016
  -0.06000000 -0.04000000 -0.10000000       0.016
  -0.14666667 -0.12000000 -0.13333333       0.016
   0.20000000  0.20000000  0.00000000       0.016
   0.11333333  0.12000000 -0.03333333       0.016
   0.05333333  0.08000000 -0.13333333       0.016
  -0.03333333 -0.00000000 -0.16666667       0.016
  -0.12000000 -0.08000000 -0.20000000       0.016
   0.22666667  0.24000000 -0.06666667       0.016
   0.14000000  0.16000000 -0.10000000       0.016
   0.04000000 -0.04000000  0.00000000       0.016
  -0.04666667 -0.12000000 -0.03333333       0.016
  -0.13333333 -0.20000000 -0.06666667       0.016
   0.21333333  0.12000000  0.06666667       0.016
   0.12666667  0.04000000  0.03333333       0.016
   0.06666667  0.00000000 -0.06666667       0.016
  -0.02000000 -0.08000000 -0.10000000       0.016
  -0.10666667 -0.16000000 -0.13333333       0.016
   0.24000000  0.16000000  0.00000000       0.016
   0.15333333  0.08000000 -0.03333333       0.016
   0.09333333  0.04000000 -0.13333333       0.016
   0.00666667 -0.04000000 -0.16666667       0.016
  -0.08000000 -0.12000000 -0.20000000       0.016
   0.26666667  0.20000000 -0.06666667       0.016
   0.18000000  0.12000000 -0.10000000       0.016
  -0.01333333 -0.12000000  0.13333333       0.016
  -0.10000000 -0.20000000  0.10000000       0.016
  -0.18666667 -0.28000000  0.06666667       0.016
   0.16000000  0.04000000  0.20000000       0.016
   0.07333333 -0.04000000  0.16666667       0.016
   0.01333333 -0.08000000  0.06666667       0.016
  -0.07333333 -0.16000000  0.03333333       0.016
  -0.16000000 -0.24000000  0.00000000       0.016
   0.18666667  0.08000000  0.13333333       0.016
   0.10000000 -0.00000000  0.10000000       0.016
   0.08000000 -0.08000000  0.00000000       0.016
  -0.00666667 -0.16000000 -0.03333333       0.016
  -0.09333333 -0.24000000 -0.06666667       0.016
   0.25333333  0.08000000  0.06666667       0.016
   0.16666667  0.00000000  0.03333333       0.016
   0.10666667 -0.04000000 -0.06666667       0.016
   0.02000000 -0.12000000 -0.10000000       0.016
  -0.06666667 -0.20000000 -0.13333333       0.016
   0.28000000  0.12000000  0.00000000       0.016
   0.19333333  0.04000000 -0.03333333       0.016
   0.13333333  0.00000000 -0.13333333       0.016
   0.04666667 -0.08000000 -0.16666667       0.016
  -0.04000000 -0.16000000 -0.20000000       0.016
   0.30666667  0.16000000 -0.06666667       0.016
   0.22000000  0.08000000 -0.10000000       0.016
   0.02666667 -0.16000000  0.13333333       0.016
  -0.06000000 -0.24000000  0.10000000       0.016
  -0.14666667 -0.32000000  0.06666667       0.016
   0.20000000 -0.00000000  0.20000000       0.016
   0.11333333 -0.08000000  0.16666667       0.016
   0.05333333 -0.12000000  0.06666667       0.016
  -0.03333333 -0.20000000  0.03333333       0.016
  -0.12000000 -0.28000000  0.00000000       0.016
   0.22666667  0.04000000  0.13333333       0.016
   0.14000000 -0.04000000  0.10000000       0.016
 
 k-points in reciprocal lattice and weights: k-points                                
   0.00000000  0.00000000  0.00000000       0.008
   0.20000000 -0.00000000  0.00000000       0.016
   0.40000000 -0.00000000  0.00000000       0.016
  -0.00000000  0.20000000 -0.00000000       0.016
   0.20000000  0.20000000  0.00000000       0.016
   0.40000000  0.20000000  0.00000000       0.016
  -0.40000000  0.20000000  0.00000000       0.016
  -0.20000000  0.20000000 -0.00000000       0.016
  -0.00000000  0.40000000 -0.00000000       0.016
   0.20000000  0.40000000  0.00000000       0.016
   0.40000000  0.40000000  0.00000000       0.016
  -0.40000000  0.40000000 -0.00000000       0.016
  -0.20000000  0.40000000 -0.00000000       0.016
   0.00000000  0.00000000  0.20000000       0.016
   0.20000000 -0.00000000  0.20000000       0.016
   0.40000000 -0.00000000  0.20000000       0.016
  -0.40000000  0.00000000  0.20000000       0.016
  -0.20000000  0.00000000  0.20000000       0.016
  -0.00000000  0.20000000  0.20000000       0.016
   0.20000000  0.20000000  0.20000000       0.016
   0.40000000  0.20000000  0.20000000       0.016
  -0.40000000  0.20000000  0.20000000       0.016
  -0.20000000  0.20000000  0.20000000       0.016
  -0.00000000  0.40000000  0.20000000       0.016
   0.20000000  0.40000000  0.20000000       0.016
   0.40000000  0.40000000  0.20000000       0.016
  -0.40000000  0.40000000  0.20000000       0.016
  -0.20000000  0.40000000  0.20000000       0.016
   0.00000000 -0.40000000  0.20000000       0.016
   0.20000000 -0.40000000  0.20000000       0.016
   0.40000000 -0.40000000  0.20000000       0.016
  -0.40000000 -0.40000000  0.20000000       0.016
  -0.20000000 -0.40000000  0.20000000       0.016
   0.00000000 -0.20000000  0.20000000       0.016
   0.20000000 -0.20000000  0.20000000       0.016
   0.40000000 -0.20000000  0.20000000       0.016
  -0.40000000 -0.20000000  0.20000000       0.016
  -0.20000000 -0.20000000  0.20000000       0.016
   0.00000000  0.00000000  0.40000000       0.016
   0.20000000  0.00000000  0.40000000       0.016
   0.40000000 -0.00000000  0.40000000       0.016
  -0.40000000  0.00000000  0.40000000       0.016
  -0.20000000  0.00000000  0.40000000       0.016
  -0.00000000  0.20000000  0.40000000       0.016
   0.20000000  0.20000000  0.40000000       0.016
   0.40000000  0.20000000  0.40000000       0.016
  -0.40000000  0.20000000  0.40000000       0.016
  -0.20000000  0.20000000  0.40000000       0.016
  -0.00000000  0.40000000  0.40000000       0.016
   0.20000000  0.40000000  0.40000000       0.016
   0.40000000  0.40000000  0.40000000       0.016
  -0.40000000  0.40000000  0.40000000       0.016
  -0.20000000  0.40000000  0.40000000       0.016
   0.00000000 -0.40000000  0.40000000       0.016
   0.20000000 -0.40000000  0.40000000       0.016
   0.40000000 -0.40000000  0.40000000       0.016
  -0.40000000 -0.40000000  0.40000000       0.016
  -0.20000000 -0.40000000  0.40000000       0.016
   0.00000000 -0.20000000  0.40000000       0.016
   0.20000000 -0.20000000  0.40000000       0.016
   0.40000000 -0.20000000  0.40000000       0.016
  -0.40000000 -0.20000000  0.40000000       0.016
  -0.20000000 -0.20000000  0.40000000       0.016
 
 position of ions in fractional coordinates (direct lattice) 
   0.96666667  0.93333333  0.40000000
   0.63333333  0.26666667  0.40000000
   0.50000000  0.00000000  0.00000000
   0.00000000  0.00000000  0.00000000
   0.10000000  0.20000000  0.80000000
   0.03333333  0.06666667  0.60000000
   0.90000000  0.80000000  0.20000000
   0.80000000  0.60000000  0.40000000
   0.73333333  0.46666667  0.20000000
   0.66666667  0.33333333  0.00000000
   0.36666667  0.73333333  0.60000000
   0.13333333  0.26666667  0.40000000
   0.83333333  0.66666667  0.00000000
   0.93333333  0.86666667  0.80000000
   0.56666667  0.13333333  0.20000000
   0.40000000  0.80000000  0.20000000
   0.43333333  0.86666667  0.80000000
   0.30000000  0.60000000  0.40000000
   0.86666667  0.73333333  0.60000000
   0.46666667  0.93333333  0.40000000
   0.16666667  0.33333333  0.00000000
   0.26666667  0.53333333  0.80000000
   0.20000000  0.40000000  0.60000000
   0.06666667  0.13333333  0.20000000
   0.76666667  0.53333333  0.80000000
   0.70000000  0.40000000  0.60000000
   0.60000000  0.20000000  0.80000000
   0.53333333  0.06666667  0.60000000
   0.33333333  0.66666667  0.00000000
   0.23333333  0.46666667  0.20000000
 
 position of ions in cartesian coordinates  (Angst):
   1.57499998 -4.72500002-11.02499998
   1.57500002 -4.72499998 -4.72500002
  -1.57500000 -1.57500000 -1.57500000
   0.00000000  0.00000000  0.00000000
   6.30000000 -6.30000000 -3.15000000
   4.72500002 -4.72499998 -1.57500002
   0.00000000 -3.15000000 -9.45000000
   1.57500000 -4.72500000 -7.87500000
   0.00000002 -3.14999998 -6.30000002
  -1.57500002 -1.57500002 -4.72499998
   4.72499998 -4.72500002 -7.87499998
   3.15000002 -3.14999998 -3.15000002
  -1.57499998 -1.57499998 -7.87500002
   4.72500002 -7.87499998-11.02500002
  -0.00000002 -3.15000002 -3.14999998
   1.57500000 -1.57500000 -7.87500000
   6.30000002 -6.29999998 -9.45000002
   3.15000000 -3.15000000 -6.30000000
   3.14999998 -6.30000002 -9.44999998
   3.14999998 -3.15000002 -9.44999998
  -0.00000002 -0.00000002 -3.14999998
   6.29999998 -6.30000002 -6.29999998
   4.72500000 -4.72500000 -4.72500000
   1.57499998 -1.57500002 -1.57499998
   4.72499998 -7.87500002 -7.87499998
   3.15000000 -6.30000000 -6.30000000
   4.72500000 -7.87500000 -4.72500000
   3.15000002 -6.29999998 -3.15000002
   0.00000002  0.00000002 -6.30000002
   1.57500002 -1.57499998 -4.72500002
 


--------------------------------------------------------------------------------------------------------


 k-point  1 :   0.0000 0.0000 0.0000  plane waves:   15647
 k-point  2 :   0.2000-0.0000 0.0000  plane waves:   15644
 k-point  3 :   0.4000-0.0000 0.0000  plane waves:   15658
 k-point  4 :  -0.0000 0.2000-0.0000  plane waves:   15646
 k-point  5 :   0.2000 0.2000 0.0000  plane waves:   15657
 k-point  6 :   0.4000 0.2000 0.0000  plane waves:   15656
 k-point  7 :  -0.4000 0.2000 0.0000  plane waves:   15652
 k-point  8 :  -0.2000 0.2000-0.0000  plane waves:   15649
 k-point  9 :  -0.0000 0.4000-0.0000  plane waves:   15612
 k-point 10 :   0.2000 0.4000 0.0000  plane waves:   15649
 k-point 11 :   0.4000 0.4000 0.0000  plane waves:   15665
 k-point 12 :  -0.4000 0.4000-0.0000  plane waves:   15663
 k-point 13 :  -0.2000 0.4000-0.0000  plane waves:   15635
 k-point 14 :   0.0000 0.0000 0.2000  plane waves:   15650
 k-point 15 :   0.2000-0.0000 0.2000  plane waves:   15639
 k-point 16 :   0.4000-0.0000 0.2000  plane waves:   15678
 k-point 17 :  -0.4000 0.0000 0.2000  plane waves:   15648
 k-point 18 :  -0.2000 0.0000 0.2000  plane waves:   15659
 k-point 19 :  -0.0000 0.2000 0.2000  plane waves:   15630
 k-point 20 :   0.2000 0.2000 0.2000  plane waves:   15654
 k-point 21 :   0.4000 0.2000 0.2000  plane waves:   15657
 k-point 22 :  -0.4000 0.2000 0.2000  plane waves:   15640
 k-point 23 :  -0.2000 0.2000 0.2000  plane waves:   15650
 k-point 24 :  -0.0000 0.4000 0.2000  plane waves:   15628
 k-point 25 :   0.2000 0.4000 0.2000  plane waves:   15643
 k-point 26 :   0.4000 0.4000 0.2000  plane waves:   15654
 k-point 27 :  -0.4000 0.4000 0.2000  plane waves:   15634
 k-point 28 :  -0.2000 0.4000 0.2000  plane waves:   15647
 k-point 29 :   0.0000-0.4000 0.2000  plane waves:   15602
 k-point 30 :   0.2000-0.4000 0.2000  plane waves:   15609
 k-point 31 :   0.4000-0.4000 0.2000  plane waves:   15685
 k-point 32 :  -0.4000-0.4000 0.2000  plane waves:   15669
 k-point 33 :  -0.2000-0.4000 0.2000  plane waves:   15653
 k-point 34 :   0.0000-0.2000 0.2000  plane waves:   15638
 k-point 35 :   0.2000-0.2000 0.2000  plane waves:   15657
 k-point 36 :   0.4000-0.2000 0.2000  plane waves:   15677
 k-point 37 :  -0.4000-0.2000 0.2000  plane waves:   15660
 k-point 38 :  -0.2000-0.2000 0.2000  plane waves:   15636
 k-point 39 :   0.0000 0.0000 0.4000  plane waves:   15669
 k-point 40 :   0.2000 0.0000 0.4000  plane waves:   15641
 k-point 41 :   0.4000-0.0000 0.4000  plane waves:   15660
 k-point 42 :  -0.4000 0.0000 0.4000  plane waves:   15666
 k-point 43 :  -0.2000 0.0000 0.4000  plane waves:   15634
 k-point 44 :  -0.0000 0.2000 0.4000  plane waves:   15620
 k-point 45 :   0.2000 0.2000 0.4000  plane waves:   15622
 k-point 46 :   0.4000 0.2000 0.4000  plane waves:   15659
 k-point 47 :  -0.4000 0.2000 0.4000  plane waves:   15654
 k-point 48 :  -0.2000 0.2000 0.4000  plane waves:   15626
 k-point 49 :  -0.0000 0.4000 0.4000  plane waves:   15627
 k-point 50 :   0.2000 0.4000 0.4000  plane waves:   15631
 k-point 51 :   0.4000 0.4000 0.4000  plane waves:   15639
 k-point 52 :  -0.4000 0.4000 0.4000  plane waves:   15658
 k-point 53 :  -0.2000 0.4000 0.4000  plane waves:   15631
 k-point 54 :   0.0000-0.4000 0.4000  plane waves:   15625
 k-point 55 :   0.2000-0.4000 0.4000  plane waves:   15636
 k-point 56 :   0.4000-0.4000 0.4000  plane waves:   15656
 k-point 57 :  -0.4000-0.4000 0.4000  plane waves:   15664
 k-point 58 :  -0.2000-0.4000 0.4000  plane waves:   15639
 k-point 59 :   0.0000-0.2000 0.4000  plane waves:   15627
 k-point 60 :   0.2000-0.2000 0.4000  plane waves:   15632
 k-point 61 :   0.4000-0.2000 0.4000  plane waves:   15664
 k-point 62 :  -0.4000-0.2000 0.4000  plane waves:   15659
 k-point 63 :  -0.2000-0.2000 0.4000  plane waves:   15642

 maximum and minimum number of plane-waves per node :      3945     3875

 maximum number of plane-waves:     15685
 maximum index in each direction: 
   IXMAX=   11   IYMAX=   16   IZMAX=   22
   IXMIN=  -11   IYMIN=  -16   IZMIN=  -22


 real space projection operators:
  total allocation   :      16942.31 KBytes
  max/ min on nodes  :       4235.72       4235.32


 parallel 3D FFT for wavefunctions:
    minimum data exchange during FFTs selected (reduces bandwidth)
 parallel 3D FFT for charge:
    minimum data exchange during FFTs selected (reduces bandwidth)


 total amount of memory used by VASP MPI-rank0   106088. kBytes
=======================================================================

   base      :      30000. kBytes
   nonlr-proj:       7403. kBytes
   fftplans  :       2328. kBytes
   grid      :       4665. kBytes
   one-center:        124. kBytes
   wavefun   :      61568. kBytes
 
     INWAV:  cpu time    5.4933: real time   12.6660
 Broyden mixing: mesh for mixing (old mesh)
   NGX = 21   NGY = 33   NGZ = 45
  (NGX  = 72   NGY  =100   NGZ  =140)
  gives a total of  31185 points

 initial charge density was supplied:
 number of electron     198.0000011 magnetization 
 keeping initial charge density in first step


--------------------------------------------------------------------------------------------------------


 Maximum index for non-local projection operator         1047
 Maximum index for augmentation-charges         1430 (set IRDMAX)


--------------------------------------------------------------------------------------------------------


 First call to EWALD:  gamma=   0.228
 Maximum number of real-space cells 4x 3x 2
 Maximum number of reciprocal cells 2x 3x 4

    FEWALD:  cpu time    0.0022: real time    0.0023


--------------------------------------- Iteration      1(   1)  ---------------------------------------


    POTLOK:  cpu time    0.0301: real time    0.0484
    SETDIJ:  cpu time    0.0060: real time    0.0061
     EDDAV:  cpu time   29.4143: real time   29.4564
       DOS:  cpu time    0.0038: real time    0.0038
    CHARGE:  cpu time    0.5715: real time    0.5720
    MIXING:  cpu time    0.0017: real time    0.0018
    --------------------------------------------
      LOOP:  cpu time   30.0274: real time   30.0885

 eigenvalue-minimisations  : 26600
 total energy-change (2. order) :-0.3950900E+03  (-0.1423806E+02)
 number of electron     198.0000010 magnetization 
 augmentation part       34.4872507 magnetization 

 Broyden mixing:
  rms(total) = 0.72371E+01    rms(broyden)= 0.72371E+01
  rms(prec ) = 0.10309E+02
  weight for this iteration     100.00

 Free energy of the ion-electron system (eV)
  ---------------------------------------------------
  alpha Z        PSCENC =      1241.80771609
  Ewald energy   TEWEN  =    -11571.07121970
  -Hartree energ DENC   =     -2963.39185252
  -exchange      EXHF   =         0.00000000
  -V(xc)+E(xc)   XCENC  =      -887.70401079
  PAW double counting   =     26052.55560606   -24568.36165333
  entropy T*S    EENTRO =        -0.02018480
  eigenvalues    EBANDS =      -704.81234190
  atomic energy  EATOM  =     13005.90793652
  Solvation  Ediel_sol  =         0.00000000
  ---------------------------------------------------
  free energy    TOTEN  =      -395.09000439 eV

  energy without entropy =     -395.06981958  energy(sigma->0) =     -395.08327612


--------------------------------------------------------------------------------------------------------




--------------------------------------- Iteration      1(   2)  ---------------------------------------


    POTLOK:  cpu time    0.0250: real time    0.0297
    SETDIJ:  cpu time    0.0055: real time    0.0055
     EDDAV:  cpu time   29.2903: real time   29.3169
       DOS:  cpu time    0.0038: real time    0.0038
    CHARGE:  cpu time    0.5615: real time    0.5619
    MIXING:  cpu time    0.0013: real time    0.0013
    --------------------------------------------
      LOOP:  cpu time   29.8874: real time   29.9192

 eigenvalue-minimisations  : 26576
 total energy-change (2. order) :-0.1030761E+03  (-0.3298983E+03)
 number of electron     198.0000024 magnetization 
 augmentation part       45.7916311 magnetization 

 Broyden mixing:
  rms(total) = 0.11602E+02    rms(broyden)= 0.11602E+02
  rms(prec ) = 0.16268E+02
  weight for this iteration     100.00

 eigenvalues of (default mixing * dielectric matrix)
  average eigenvalue GAMMA=   0.3281
  0.3281

 Free energy of the ion-electron system (eV)
  ---------------------------------------------------
  alpha Z        PSCENC =      1241.80771609
  Ewald energy   TEWEN  =    -11571.07121970
  -Hartree energ DENC   =     -3025.23328299
  -exchange      EXHF   =         0.00000000
  -V(xc)+E(xc)   XCENC  =      -884.47942363
  PAW double counting   =     23991.23425289   -22510.86381292
  entropy T*S    EENTRO =         0.00441151
  eigenvalues    EBANDS =      -745.47272165
  atomic energy  EATOM  =     13005.90793652
  Solvation  Ediel_sol  =         0.00000000
  ---------------------------------------------------
  free energy    TOTEN  =      -498.16614390 eV

  energy without entropy =     -498.17055540  energy(sigma->0) =     -498.16761440


--------------------------------------------------------------------------------------------------------




--------------------------------------- Iteration      1(   3)  ---------------------------------------


    POTLOK:  cpu time    0.0251: real time    0.0276
    SETDIJ:  cpu time    0.0060: real time    0.0060
     EDDAV:  cpu time   29.1609: real time   29.1872
       DOS:  cpu time    0.0037: real time    0.0037
    CHARGE:  cpu time    0.5690: real time    0.5694
    MIXING:  cpu time    0.0010: real time    0.0010
    --------------------------------------------
      LOOP:  cpu time   29.7656: real time   29.7949

 eigenvalue-minimisations  : 26256
 total energy-change (2. order) : 0.1142536E+03  (-0.1220262E+03)
 number of electron     197.9999996 magnetization 
 augmentation part       33.7441015 magnetization 

 Broyden mixing:
  rms(total) = 0.63821E+01    rms(broyden)= 0.63821E+01
  rms(prec ) = 0.80306E+01
  weight for this iteration     100.00

 eigenvalues of (default mixing * dielectric matrix)
  average eigenvalue GAMMA=   0.3628
  0.3628  0.3628

 Free energy of the ion-electron system (eV)
  ---------------------------------------------------
  alpha Z        PSCENC =      1241.80771609
  Ewald energy   TEWEN  =    -11571.07121970
  -Hartree energ DENC   =     -2985.65271415
  -exchange      EXHF   =         0.00000000
  -V(xc)+E(xc)   XCENC  =      -886.60541462
  PAW double counting   =     23320.41489350   -21846.64434788
  entropy T*S    EENTRO =        -0.01119349
  eigenvalues    EBANDS =      -662.05821368
  atomic energy  EATOM  =     13005.90793652
  Solvation  Ediel_sol  =         0.00000000
  ---------------------------------------------------
  free energy    TOTEN  =      -383.91255741 eV

  energy without entropy =     -383.90136393  energy(sigma->0) =     -383.90882625


--------------------------------------------------------------------------------------------------------




--------------------------------------- Iteration      1(   4)  ---------------------------------------


    POTLOK:  cpu time    0.0226: real time    0.0237
    SETDIJ:  cpu time    0.0054: real time    0.0054
     EDDAV:  cpu time   28.6140: real time   28.6436
       DOS:  cpu time    0.0037: real time    0.0038
    CHARGE:  cpu time    0.5649: real time    0.5653
    MIXING:  cpu time    0.0010: real time    0.0010
    --------------------------------------------
      LOOP:  cpu time   29.2117: real time   29.2427

 eigenvalue-minimisations  : 25480
 total energy-change (2. order) : 0.3979692E+02  (-0.2341576E+02)
 number of electron     198.0000006 magnetization 
 augmentation part       32.9377785 magnetization 

 Broyden mixing:
  rms(total) = 0.50144E+01    rms(broyden)= 0.50144E+01
  rms(prec ) = 0.58910E+01
  weight for this iteration     100.00

 eigenvalues of (default mixing * dielectric matrix)
  average eigenvalue GAMMA=   0.4227
  0.4824  0.4824  0.3032

 Free energy of the ion-electron system (eV)
  ---------------------------------------------------
  alpha Z        PSCENC =      1241.80771609
  Ewald energy   TEWEN  =    -11571.07121970
  -Hartree energ DENC   =     -2965.11734609
  -exchange      EXHF   =         0.00000000
  -V(xc)+E(xc)   XCENC  =      -887.34219949
  PAW double counting   =     22735.04641300   -21255.32196038
  entropy T*S    EENTRO =        -0.00913865
  eigenvalues    EBANDS =      -648.01584105
  atomic energy  EATOM  =     13005.90793652
  Solvation  Ediel_sol  =         0.00000000
  ---------------------------------------------------
  free energy    TOTEN  =      -344.11563976 eV

  energy without entropy =     -344.10650111  energy(sigma->0) =     -344.11259354


--------------------------------------------------------------------------------------------------------




--------------------------------------- Iteration      1(   5)  ---------------------------------------


    POTLOK:  cpu time    0.0243: real time    0.0294
    SETDIJ:  cpu time    0.0054: real time    0.0054
     EDDAV:  cpu time   30.8303: real time   30.8589
       DOS:  cpu time    0.0039: real time    0.0039
    CHARGE:  cpu time    0.5691: real time    0.5695
    MIXING:  cpu time    0.0012: real time    0.0012
    --------------------------------------------
      LOOP:  cpu time   31.4342: real time   31.4683

 eigenvalue-minimisations  : 27760
 total energy-change (2. order) : 0.1013236E+02  (-0.7643994E+01)
 number of electron     198.0000001 magnetization 
 augmentation part       33.0215216 magnetization 

 Broyden mixing:
  rms(total) = 0.44566E+01    rms(broyden)= 0.44566E+01
  rms(prec ) = 0.52829E+01
  weight for this iteration     100.00

 eigenvalues of (default mixing * dielectric matrix)
  average eigenvalue GAMMA=   0.5794
  0.8366  0.8366  0.3997  0.2448

 Free energy of the ion-electron system (eV)
  ---------------------------------------------------
  alpha Z        PSCENC =      1241.80771609
  Ewald energy   TEWEN  =    -11571.07121970
  -Hartree energ DENC   =     -2965.42138271
  -exchange      EXHF   =         0.00000000
  -V(xc)+E(xc)   XCENC  =      -886.95140790
  PAW double counting   =     22370.14045218   -20885.31964901
  entropy T*S    EENTRO =        -0.02127903
  eigenvalues    EBANDS =      -643.05445093
  atomic energy  EATOM  =     13005.90793652
  Solvation  Ediel_sol  =         0.00000000
  ---------------------------------------------------
  free energy    TOTEN  =      -333.98328450 eV

  energy without entropy =     -333.96200547  energy(sigma->0) =     -333.97619149


--------------------------------------------------------------------------------------------------------




--------------------------------------- Iteration      1(   6)  ---------------------------------------


    POTLOK:  cpu time    0.0236: real time    0.0287
    SETDIJ:  cpu time    0.0055: real time    0.0055
     EDDAV:  cpu time   27.2768: real time   27.3446
       DOS:  cpu time    0.0039: real time    0.0040
    CHARGE:  cpu time    0.5708: real time    0.5721
    MIXING:  cpu time    0.0010: real time    0.0010
    --------------------------------------------
      LOOP:  cpu time   27.8817: real time   27.9558

 eigenvalue-minimisations  : 23920
 total energy-change (2. order) : 0.9009966E+01  (-0.7514641E+01)
 number of electron     198.0000005 magnetization 
 augmentation part       33.5362084 magnetization 

 Broyden mixing:
  rms(total) = 0.38721E+01    rms(broyden)= 0.38721E+01
  rms(prec ) = 0.45017E+01
  weight for this iteration     100.00

 eigenvalues of (default mixing * dielectric matrix)
  average eigenvalue GAMMA=   0.7033
  1.2438  1.2438  0.5077  0.3190  0.2023

 Free energy of the ion-electron system (eV)
  ---------------------------------------------------
  alpha Z        PSCENC =      1241.80771609
  Ewald energy   TEWEN  =    -11571.07121970
  -Hartree energ DENC   =     -2963.98371166
  -exchange      EXHF   =         0.00000000
  -V(xc)+E(xc)   XCENC  =      -886.52513913
  PAW double counting   =     21852.87600492   -20360.78216138
  entropy T*S    EENTRO =        -0.00308601
  eigenvalues    EBANDS =      -643.19965799
  atomic energy  EATOM  =     13005.90793652
  Solvation  Ediel_sol  =         0.00000000
  ---------------------------------------------------
  free energy    TOTEN  =      -324.97331834 eV

  energy without entropy =     -324.97023233  energy(sigma->0) =     -324.97228967


--------------------------------------------------------------------------------------------------------




--------------------------------------- Iteration      1(   7)  ---------------------------------------


    POTLOK:  cpu time    0.0228: real time    0.0230
    SETDIJ:  cpu time    0.0055: real time    0.0055
     EDDAV:  cpu time   28.8134: real time   28.8808
       DOS:  cpu time    0.0039: real time    0.0039
    CHARGE:  cpu time    0.5638: real time    0.5644
    MIXING:  cpu time    0.0011: real time    0.0011
    --------------------------------------------
      LOOP:  cpu time   29.4105: real time   29.4786

 eigenvalue-minimisations  : 25856
 total energy-change (2. order) :-0.7017151E+01  (-0.1421757E+02)
 number of electron     198.0000016 magnetization 
 augmentation part       36.2030375 magnetization 

 Broyden mixing:
  rms(total) = 0.39719E+01    rms(broyden)= 0.39719E+01
  rms(prec ) = 0.58558E+01
  weight for this iteration     100.00

 eigenvalues of (default mixing * dielectric matrix)
  average eigenvalue GAMMA=   0.6903
  2.1938  0.6290  0.6290  0.2939  0.1980  0.1980

 Free energy of the ion-electron system (eV)
  ---------------------------------------------------
  alpha Z        PSCENC =      1241.80771609
  Ewald energy   TEWEN  =    -11571.07121970
  -Hartree energ DENC   =     -2944.07347974
  -exchange      EXHF   =         0.00000000
  -V(xc)+E(xc)   XCENC  =      -886.03332066
  PAW double counting   =     20885.14339587   -19381.40489320
  entropy T*S    EENTRO =        -0.00851654
  eigenvalues    EBANDS =      -682.25808784
  atomic energy  EATOM  =     13005.90793652
  Solvation  Ediel_sol  =         0.00000000
  ---------------------------------------------------
  free energy    TOTEN  =      -331.99046921 eV

  energy without entropy =     -331.98195267  energy(sigma->0) =     -331.98763036


--------------------------------------------------------------------------------------------------------




--------------------------------------- Iteration      1(   8)  ---------------------------------------


    POTLOK:  cpu time    0.0350: real time    0.0396
    SETDIJ:  cpu time    0.0089: real time    0.0089
     EDDAV:  cpu time   28.1295: real time   28.2006
       DOS:  cpu time    0.0038: real time    0.0038
    CHARGE:  cpu time    0.5641: real time    0.5653
    MIXING:  cpu time    0.0011: real time    0.0011
    --------------------------------------------
      LOOP:  cpu time   28.7425: real time   28.8194

 eigenvalue-minimisations  : 24936
 total energy-change (2. order) : 0.8995052E+01  (-0.7056703E+01)
 number of electron     198.0000012 magnetization 
 augmentation part       35.8928646 magnetization 

 Broyden mixing:
  rms(total) = 0.27084E+01    rms(broyden)= 0.27084E+01
  rms(prec ) = 0.38743E+01
  weight for this iteration     100.00

 eigenvalues of (default mixing * dielectric matrix)
  average eigenvalue GAMMA=   0.6595
  2.2066  0.7465  0.4054  0.4054  0.3304  0.3304  0.1919

 Free energy of the ion-electron system (eV)
  ---------------------------------------------------
  alpha Z        PSCENC =      1241.80771609
  Ewald energy   TEWEN  =    -11571.07121970
  -Hartree energ DENC   =     -2935.74797688
  -exchange      EXHF   =         0.00000000
  -V(xc)+E(xc)   XCENC  =      -886.03243455
  PAW double counting   =     20282.45549122   -18776.27181839
  entropy T*S    EENTRO =        -0.00089600
  eigenvalues    EBANDS =      -684.04221588
  atomic energy  EATOM  =     13005.90793652
  Solvation  Ediel_sol  =         0.00000000
  ---------------------------------------------------
  free energy    TOTEN  =      -322.99541757 eV

  energy without entropy =     -322.99452157  energy(sigma->0) =     -322.99511891


--------------------------------------------------------------------------------------------------------




--------------------------------------- Iteration      1(   9)  ---------------------------------------


[...]
    114       8.1152     -0.00000
    115       8.1785     -0.00000
    116       8.2362     -0.00000
    117       8.2981     -0.00000
    118       8.3732     -0.00000
    119       8.4050     -0.00000
    120       8.4428     -0.00000

 k-point    63 :      -0.2000   -0.2000    0.4000
  band No.  band energies     occupation 
      1     -47.1139      2.00000
      2     -47.0889      2.00000
      3     -47.0435      2.00000
      4     -46.9872      2.00000
      5     -46.9535      2.00000
      6     -46.8724      2.00000
      7     -23.8137      2.00000
      8     -23.7371      2.00000
      9     -23.5769      2.00000
     10     -23.5286      2.00000
     11     -23.2921      2.00000
     12     -23.2874      2.00000
     13     -23.2815      2.00000
     14     -23.2318      2.00000
     15     -23.2109      2.00000
     16     -23.1964      2.00000
     17     -23.1614      2.00000
     18     -23.1173      2.00000
     19     -23.0913      2.00000
     20     -23.0570      2.00000
     21     -22.9059      2.00000
     22     -22.8829      2.00000
     23     -22.7261      2.00000
     24     -22.6225      2.00000
     25       0.5721      2.00000
     26       0.8585      2.00000
     27       2.4346      2.00000
     28       2.6308      2.00000
     29       2.6785      2.00000
     30       2.8170      2.00000
     31       2.9128      2.00000
     32       2.9358      2.00000
     33       3.1035      2.00000
     34       3.1483      2.00000
     35       3.2222      2.00000
     36       3.2611      2.00000
     37       3.3059      2.00000
     38       3.3771      2.00000
     39       3.4233      2.00000
     40       3.5123      2.00000
     41       3.5581      2.00000
     42       3.5891      2.00000
     43       3.6879      2.00000
     44       3.7355      2.00000
     45       3.8453      2.00000
     46       3.8716      2.00000
     47       4.0841      2.00000
     48       4.1220      2.00000
     49       4.2108      2.00000
     50       4.2319      2.00000
     51       4.2845      2.00000
     52       4.3603      2.00000
     53       4.3817      2.00000
     54       4.4549      2.00000
     55       4.5236      2.00000
     56       4.6137      2.00000
     57       4.7590      2.00000
     58       4.8538      2.00000
     59       4.9310      2.00000
     60       5.0156      2.00000
     61       5.0443      2.00000
     62       5.0917      2.00000
     63       5.1119      2.00000
     64       5.1747      2.00000
     65       5.2270      2.00000
     66       5.2581      2.00000
     67       5.3084      2.00000
     68       5.3675      2.00000
     69       5.4129      2.00000
     70       5.4348      2.00000
     71       5.5541      2.00000
     72       5.6040      2.00000
     73       5.6318      2.00000
     74       5.6683      2.00000
     75       5.7480      2.00000
     76       5.7867      2.00000
     77       5.8196      2.00000
     78       5.8595      2.00000
     79       5.9236      2.00000
     80       5.9601      2.00000
     81       6.0341      2.00000
     82       6.0964      2.00000
     83       6.1407      2.00001
     84       6.1954      2.00007
     85       6.2267      2.00018
     86       6.2667      2.00053
     87       6.3229      2.00206
     88       6.3280      2.00232
     89       6.3981      2.00958
     90       6.4301      2.01652
     91       6.4682      2.02893
     92       6.4894      2.03769
     93       6.5390      2.06004
     94       6.5855      2.07087
     95       6.5985      2.06887
     96       6.6374      2.03909
     97       6.6631      1.99204
     98       6.6945      1.89598
     99       6.7143      1.81091
    100       6.8428      0.87485
    101       6.9383      0.20580
    102       7.0003     -0.00829
    103       7.0205     -0.04150
    104       7.1090     -0.06319
    105       7.2036     -0.02323
    106       7.3216     -0.00267
    107       7.4111     -0.00030
    108       7.5065     -0.00002
    109       7.7380     -0.00000
    110       7.8526     -0.00000
    111       7.9206     -0.00000
    112       7.9972     -0.00000
    113       8.1241     -0.00000
    114       8.5135     -0.00000
    115       8.5752     -0.00000
    116       8.6382     -0.00000
    117       8.7382     -0.00000
    118       8.7704     -0.00000
    119       8.8198     -0.00000
    120       8.8899     -0.00000


--------------------------------------------------------------------------------------------------------


 soft charge-density along one line, spin component           1
         0         1         2         3         4         5         6         7         8         9
 total charge-density along one line
 
 pseudopotential strength for first ion, spin component:           1
  5.451 -20.796   0.002   0.001   0.000  -0.005  -0.002   0.001
-20.796   9.690   0.003   0.002  -0.001  -0.000  -0.000   0.000
  0.002   0.003 -10.476  -0.001   0.003   6.704   0.001  -0.003
  0.001   0.002  -0.001 -10.475  -0.005   0.001   6.702   0.005
  0.000  -0.001   0.003  -0.005 -10.477  -0.003   0.005   6.705
 -0.005  -0.000   6.704   0.001  -0.003   7.503  -0.001   0.002
 -0.002  -0.000   0.001   6.702   0.005  -0.001   7.504  -0.004
  0.001   0.000  -0.003   0.005   6.705   0.002  -0.004   7.503
  0.002   0.001  -0.000  -0.000   0.002   0.001   0.000  -0.003
 -0.001  -0.000   0.001   0.002  -0.000  -0.001  -0.003   0.000
  0.001   0.000  -0.001   0.001  -0.000   0.001  -0.001  -0.000
 -0.004  -0.001  -0.000  -0.000   0.001   0.000   0.001  -0.001
 -0.000  -0.000  -0.002   0.000  -0.000   0.002  -0.000   0.000
  0.003   0.001  -0.000  -0.000   0.002   0.001   0.001  -0.004
 -0.001  -0.000   0.001   0.003  -0.000  -0.002  -0.004   0.001
  0.001   0.001  -0.001   0.001  -0.000   0.001  -0.002  -0.000
 -0.005  -0.002  -0.000  -0.000   0.001   0.001   0.001  -0.002
 -0.000  -0.000  -0.002   0.000  -0.000   0.003  -0.000   0.000
 total augmentation occupancy for first ion, spin component:           1
  1.997  -0.032  -0.000  -0.000   0.000  -0.000  -0.000   0.000   0.006  -0.004   0.001  -0.009  -0.001  -0.005   0.003  -0.001
 -0.032   1.580  -0.002  -0.002   0.003   0.002   0.001  -0.005   0.016  -0.025  -0.018  -0.040  -0.005  -0.006   0.009   0.007
 -0.000  -0.002   1.998   0.000  -0.000  -0.021  -0.001   0.001   0.008  -0.005  -0.001   0.006  -0.003  -0.005   0.003   0.001
 -0.000  -0.002   0.000   1.999  -0.000  -0.001  -0.021   0.001   0.004  -0.002   0.000   0.008   0.001  -0.003   0.001  -0.000
  0.000   0.003  -0.000  -0.000   1.998   0.001   0.001  -0.021  -0.007   0.006  -0.001  -0.001   0.000   0.003  -0.004   0.000
 -0.000   0.002  -0.021  -0.001   0.001   0.068   0.001  -0.001  -0.008   0.007  -0.000  -0.006   0.003   0.004  -0.003   0.000
 -0.000   0.001  -0.001  -0.021   0.001   0.001   0.068  -0.005  -0.000  -0.005  -0.003  -0.008  -0.000   0.000   0.001   0.001
  0.000  -0.005   0.001   0.001  -0.021  -0.001  -0.005   0.068   0.004  -0.005   0.005  -0.001  -0.005  -0.001   0.002  -0.003
  0.006   0.016   0.008   0.004  -0.007  -0.008  -0.000   0.004   2.883  -0.264  -0.047  -0.020  -0.007  -1.134   0.124   0.019
 -0.004  -0.025  -0.005  -0.002   0.006   0.007  -0.005  -0.005  -0.264   2.906  -0.018   0.034   0.027   0.124  -1.138   0.007
  0.001  -0.018  -0.001   0.000  -0.001  -0.000  -0.003   0.005  -0.047  -0.018   2.660  -0.020   0.017   0.018   0.007  -1.137
 -0.009  -0.040   0.006   0.008  -0.001  -0.006  -0.008  -0.001  -0.020   0.034  -0.020   2.886  -0.039   0.006  -0.011   0.020
 -0.001  -0.005  -0.003   0.001   0.000   0.003  -0.000  -0.005  -0.007   0.027   0.017  -0.039   2.670   0.002  -0.012  -0.009
 -0.005  -0.006  -0.005  -0.003   0.003   0.004   0.000  -0.001  -1.134   0.124   0.018   0.006   0.002   0.461  -0.057  -0.007
  0.003   0.009   0.003   0.001  -0.004  -0.003   0.001   0.002   0.124  -1.138   0.007  -0.011  -0.012  -0.057   0.462  -0.003
 -0.001   0.007   0.001  -0.000   0.000   0.000   0.001  -0.003   0.019   0.007  -1.137   0.020  -0.009  -0.007  -0.003   0.496
  0.009   0.040  -0.004  -0.005   0.001   0.002   0.004  -0.001   0.006  -0.010   0.019  -1.128   0.037  -0.002   0.004  -0.014
  0.001   0.006   0.003  -0.001  -0.000  -0.001  -0.000   0.004   0.002  -0.012  -0.009   0.038  -1.142  -0.000   0.005   0.005


------------------------ aborting loop because EDIFF is reached ----------------------------------------


    CHARGE:  cpu time    0.6460: real time    0.6588
    FORLOC:  cpu time    0.0064: real time    0.0064
    FORNL :  cpu time    4.0503: real time    4.0535
    STRESS:  cpu time   12.1844: real time   12.1954
    FORCOR:  cpu time    0.0479: real time    0.0494
    FORHAR:  cpu time    0.0198: real time    0.0199
    MIXING:  cpu time    0.0025: real time    0.0025
    OFIELD:  cpu time    0.0001: real time    0.0001

  FORCE on cell =-STRESS in cart. coord.  units (eV):
  Direction    XX          YY          ZZ          XY          YZ          ZX
  --------------------------------------------------------------------------------------
  Alpha Z  1241.80772  1241.80772  1241.80772
  Ewald   -3816.50207 -3497.83152 -4256.76735  -129.53485   447.75989   309.77718
  Hartree  1038.92734  1285.15360   623.56875  -109.37678   403.01824   303.53028
  E(xc)    -895.16710  -894.90303  -895.06038    -0.04784    -0.04909    -0.37036
  Local    -362.85788  -928.33158   492.92181   238.95294  -850.52629  -611.43186
  n-local  -277.14409  -277.31342  -277.19114     0.39875     0.18248     1.15837
  augment   329.14720   329.12011   328.93023    -0.03965    -0.03292    -0.34605
  Kinetic  2749.17336  2748.73580  2748.64535    -1.53399    -0.53991    -1.98136
  Fock        0.00000     0.00000     0.00000     0.00000     0.00000     0.00000
  -------------------------------------------------------------------------------------
  Total       7.38448     6.43767     6.85499    -1.18142    -0.18760     0.33620
  in kB      25.23524    21.99967    23.42580    -4.03731    -0.64110     1.14892
  external pressure =       23.55 kB  Pullay stress =        0.00 kB


 VOLUME and BASIS-vectors are now :
 -----------------------------------------------------------------------------
  energy-cutoff  :      600.00
  volume of cell :      468.84
      direct lattice vectors                 reciprocal lattice vectors
    -3.150000000 -3.150000000 -3.150000000    -0.137566138 -0.126984127 -0.052910053
     1.575000000  1.575000000 -7.875000000     0.042328042  0.063492063 -0.105820106
     7.875000000 -7.875000000 -1.575000000     0.063492063 -0.063492063  0.000000000

  length of vectors
     5.455960044  8.183940066 11.247749775     0.194547897  0.130463788  0.089791337


 FORCES acting on ions
    electron-ion (+dipol)            ewald-force                    non-local-force                 convergence-correction
 -----------------------------------------------------------------------------------------------
   0.153E+03 0.416E+02 -.196E+03   -.153E+03 -.410E+02 0.197E+03   0.393E+00 -.243E+00 -.143E+00   -.483E-01 0.419E-01 0.368E-01
   -.816E+02 -.191E+03 0.113E+03   0.821E+02 0.191E+03 -.113E+03   -.244E-02 -.730E-02 -.193E+00   -.589E-01 0.948E-01 -.817E-01
   -.255E+02 0.825E+02 -.281E+02   0.251E+02 -.820E+02 0.281E+02   0.130E+00 -.181E-01 -.217E+00   0.117E+00 -.926E-01 0.695E-02
   -.620E+02 0.107E+03 -.809E+02   0.622E+02 -.107E+03 0.811E+02   -.803E-01 0.694E-01 -.212E+00   0.107E+00 -.838E-01 -.550E-01
   -.235E+02 -.111E+03 0.256E+03   0.236E+02 0.111E+03 -.257E+03   0.166E-01 0.259E+00 -.167E+00   -.135E+00 -.256E+00 0.255E+00
   0.388E+01 0.781E+02 -.282E+02   -.433E+01 -.779E+02 0.278E+02   0.347E+00 0.425E-01 0.371E-01   -.887E-01 0.766E-01 0.177E-01
   0.119E+02 0.485E+02 -.937E+02   -.118E+02 -.490E+02 0.938E+02   -.118E+00 -.138E+00 0.124E+00   0.111E-01 -.176E-01 0.182E-01
   -.165E+02 0.588E+01 0.130E+02   0.162E+02 -.620E+01 -.126E+02   -.249E+00 -.473E-01 0.222E+00   -.285E-01 0.309E-01 0.148E-01
   0.405E+02 -.509E+02 0.433E+02   -.407E+02 0.512E+02 -.431E+02   -.553E-01 0.173E-01 -.132E+00   0.253E-01 -.199E-01 0.128E-01
   -.850E+02 -.642E+02 0.109E+03   0.848E+02 0.649E+02 -.109E+03   0.252E+00 0.186E-01 -.119E+00   0.133E+00 -.170E+00 0.712E-01
   0.324E+02 0.941E+02 -.719E+02   -.324E+02 -.945E+02 0.724E+02   -.948E-01 -.159E+00 -.233E+00   -.920E-01 0.153E+00 -.171E-01
   0.386E+02 -.520E+02 0.874E+02   -.387E+02 0.521E+02 -.878E+02   0.308E+00 -.384E-01 -.215E+00   -.123E-01 0.585E-01 -.211E-01
   0.556E+02 0.378E+02 -.809E+02   -.557E+02 -.377E+02 0.811E+02   -.303E-01 -.507E+00 0.377E+00   0.143E+00 -.985E-01 -.583E-01
   0.532E+02 0.231E+02 -.134E+03   -.530E+02 -.230E+02 0.134E+03   -.117E+00 0.261E+00 0.864E-01   0.373E-01 0.159E-01 -.831E-01
   -.383E+02 -.367E+02 0.128E+02   0.381E+02 0.371E+02 -.129E+02   0.605E-01 0.149E+00 -.270E-01   -.106E-01 0.582E-02 -.210E-01
   0.295E+00 0.614E+02 -.459E+02   -.706E+00 -.613E+02 0.463E+02   -.273E+00 -.150E+00 0.366E+00   -.609E-02 -.106E-01 0.116E-01
   0.102E+03 0.482E+02 -.992E+02   -.102E+03 -.483E+02 0.999E+02   -.355E+00 -.580E-01 0.869E-02   0.868E-01 0.545E-01 -.101E+00
   -.537E+01 0.528E+01 -.367E+01   0.564E+01 -.536E+01 0.335E+01   0.106E+00 -.269E+00 0.170E+00   -.316E-01 0.126E-01 0.261E-02
   -.167E+02 0.473E+02 -.653E+02   0.171E+02 -.473E+02 0.657E+02   -.167E+00 0.734E-01 0.185E+00   -.902E-01 0.105E+00 -.487E-01
   0.310E+02 0.935E+01 -.385E+02   -.304E+02 -.976E+01 0.385E+02   -.904E-02 -.159E+00 0.817E-01   -.220E-01 -.110E-03 0.126E-01
   -.553E+02 -.175E+02 0.957E+02   0.554E+02 0.173E+02 -.961E+02   -.220E+00 0.104E+00 -.635E-01   0.523E-01 -.102E+00 0.372E-01
   -.708E+01 -.869E+01 0.208E+02   0.691E+01 0.852E+01 -.210E+02   -.226E+00 0.116E+00 -.459E-01   0.109E-01 -.530E-02 -.465E-02
   -.278E+02 -.248E+02 0.776E+02   0.276E+02 0.246E+02 -.772E+02   0.113E+00 -.358E-01 0.149E-01   -.100E+00 0.584E-01 0.127E-01
   0.448E+01 -.545E+01 0.558E+02   -.407E+01 0.522E+01 -.564E+02   0.199E+00 0.951E-01 -.211E+00   0.102E-01 0.110E-01 -.336E-02
   -.232E+02 -.361E+02 0.477E+02   0.230E+02 0.358E+02 -.474E+02   0.229E+00 -.185E-01 0.379E+00   0.129E-01 -.212E-01 0.710E-02
   -.833E+02 -.350E+02 0.916E+02   0.842E+02 0.349E+02 -.923E+02   -.151E+00 0.727E-01 0.195E+00   -.140E+00 0.133E+00 0.536E-01
   -.198E+02 -.764E+02 0.611E+02   0.197E+02 0.768E+02 -.614E+02   0.110E+00 -.563E-01 -.511E-02   0.688E-03 -.579E-01 0.945E-01
   -.190E+02 0.279E+02 -.359E+02   0.193E+02 -.285E+02 0.356E+02   -.160E-01 0.985E-01 -.128E+00   -.442E-01 0.381E-01 -.184E-03
   0.483E+02 0.346E+02 -.876E+02   -.486E+02 -.347E+02 0.882E+02   -.572E-01 -.124E+00 0.118E+00   0.117E+00 -.850E-01 -.305E-01
   0.153E+02 -.423E+02 0.500E+01   -.153E+02 0.426E+02 -.505E+01   0.146E+00 0.150E-01 -.103E+00   0.152E-01 -.211E-01 -.103E-01
 -----------------------------------------------------------------------------------------------
   -.139E+00 0.778E+00 -.299E+00   -.746E-13 0.213E-13 0.213E-13   0.189E+00 -.638E+00 0.150E+00   -.302E-01 -.152E+00 0.130E+00
 
 
 POSITION                                       TOTAL-FORCE (eV/Angst)
 -----------------------------------------------------------------------------------
      1.57500     -4.72500    -11.02500         0.109338      0.451700      0.220286
      1.57500     -4.72500     -4.72500         0.366889     -0.178628      0.027782
     -1.57500     -1.57500     -1.57500        -0.104174      0.409566     -0.264995
      0.00000      0.00000      0.00000         0.254378     -0.041836     -0.052058
      6.30000     -6.30000     -3.15000        -0.034802      0.771459     -0.639787
      4.72500     -4.72500     -1.57500        -0.199316      0.299599     -0.370180
      0.00000     -3.15000     -9.45000        -0.042128     -0.589981      0.203254
      1.57500     -4.72500     -7.87500        -0.512233     -0.335049      0.583933
      0.00000     -3.15000     -6.30000        -0.207604      0.275974      0.058947
     -1.57500     -1.57500     -4.72500         0.171317      0.611054     -0.615363
      4.72500     -4.72500     -7.87500        -0.182481     -0.444451      0.269583
      3.15000     -3.15000     -3.15000         0.122462      0.167258     -0.627142
     -1.57500     -1.57500     -7.87500         0.004128     -0.530700      0.526614
      4.72500     -7.87500    -11.02500         0.201714      0.398740     -0.049559
     -0.00000     -3.15000     -3.15000        -0.199750      0.509040     -0.114583
      1.57500     -1.57500     -7.87500        -0.690876     -0.109760      0.781587
      6.30000     -6.30000     -9.45000        -0.900538     -0.149946      0.637653
      3.15000     -3.15000     -6.30000         0.343301     -0.334068     -0.150831
      3.15000     -6.30000     -9.45000         0.091772      0.202429      0.549733
      3.15000     -3.15000     -9.45000         0.577418     -0.560905      0.097264
     -0.00000     -0.00000     -3.15000        -0.034416     -0.163620     -0.443271
      6.30000     -6.30000     -6.30000        -0.390267     -0.057383     -0.226213
      4.72500     -4.72500     -4.72500        -0.181318     -0.115412      0.494788
      1.57500     -1.57500     -1.57500         0.627010     -0.120656     -0.872557
      4.72500     -7.87500     -7.87500         0.039085     -0.334084      0.624000
      3.15000     -6.30000     -6.30000         0.610379      0.078165     -0.395413
      4.72500     -7.87500     -4.72500         0.004845      0.323635     -0.245529
      3.15000     -6.30000     -3.15000         0.196377     -0.440202     -0.489612
      0.00000      0.00000     -6.30000        -0.256371     -0.269673      0.644269
      1.57500     -1.57500     -4.72500         0.215859      0.277735     -0.162599
 -----------------------------------------------------------------------------------
    total drift:                                0.020641     -0.011040     -0.018288


--------------------------------------------------------------------------------------------------------



  FREE ENERGIE OF THE ION-ELECTRON SYSTEM (eV)
  ---------------------------------------------------
  free  energy   TOTEN  =      -318.77181329 eV

  energy  without entropy=     -318.75950668  energy(sigma->0) =     -318.76771108
 


--------------------------------------------------------------------------------------------------------


    POTLOK:  cpu time    0.0282: real time    0.0283


--------------------------------------------------------------------------------------------------------


 stress matrix after NEB project (eV)
      7.38448     -1.18142      0.33620
     -1.18142      6.43767     -0.18760
      0.33620     -0.18760      6.85499
  FORCES: max atom, RMS     1.113577    0.676195
  FORCE total and by dimension    3.703674    0.900538
  Stress total and by dimension   12.085235    7.384479
 writing wavefunctions
     LOOP+:  cpu time  727.7312: real time  736.2934
    4ORBIT:  cpu time    0.0000: real time    0.0000

 total amount of memory used by VASP MPI-rank0   106088. kBytes
=======================================================================

   base      :      30000. kBytes
   nonlr-proj:       7403. kBytes
   fftplans  :       2328. kBytes
   grid      :       4665. kBytes
   one-center:        124. kBytes
   wavefun   :      61568. kBytes
 
  
  
 General timing and accounting informations for this job:
 ========================================================
  
                  Total CPU time used (sec):      737.331
                            User time (sec):      731.413
                          System time (sec):        5.918
                         Elapsed time (sec):      754.352
  
                   Maximum memory used (kb):      155180.
                   Average memory used (kb):           0.
  
                          Minor page faults:        73557
                          Major page faults:           20
                 Voluntary context switches:         2871
