<?xml version="1.0" encoding="ISO-8859-1"?>
<modeling>
 <generator>
  <i name="program" type="string">vasp </i>
  <i name="version" type="string">5.4.4.18Apr17-6-g9f103f2a35  </i>
  <i name="subversion" type="string">(build Aug 09 2018 16:20:53) complex            parallel </i>
  <i name="platform" type="string">LinuxIFC </i>
  <i name="date" type="string">2020 04 28 </i>
  <i name="time" type="string">21:06:14 </i>
 </generator>
 <incar>
  <i type="string" name="SYSTEM"> Nb - Mo - Ta - Ti - V SQS</i>
  <i type="string" name="PREC">normal</i>
  <i type="int" name="ICHARG">     1</i>
  <i type="int" name="NELM">   100</i>
  <i type="int" name="IBRION">     2</i>
  <i name="ENCUT">    600.00000000</i>
  <i type="string" name="LREAL"> Auto</i>
  <i type="int" name="ISMEAR">     1</i>
  <i name="SIGMA">      0.20000000</i>
  <v type="int" name="KPOINT_BSE">    -1     0     0     0</v>
  <i type="int" name="NELM">   100</i>
  <i type="string" name="GGA"> PS</i>
 </incar>
 <structure name="primitive_cell" >
  <crystal>
   <varray name="basis" >
    <v>      -3.15000000      -3.15000000      -3.15000000 </v>
    <v>       1.57500000       1.57500000      -7.87500000 </v>
    <v>       7.87500000      -7.87500000      -1.57500000 </v>
   </varray>
   <i name="volume">    468.83812500 </i>
   <varray name="rec_basis" >
    <v>      -0.13756614      -0.12698413      -0.05291005 </v>
    <v>       0.04232804       0.06349206      -0.10582011 </v>
    <v>       0.06349206      -0.06349206       0.00000000 </v>
   </varray>
  </crystal>
  <varray name="positions" >
   <v>      -0.03333333      -0.06666667       0.40000000 </v>
   <v>       0.30000000      -0.40000000       0.40000000 </v>
   <v>      -0.10000000      -0.20000000       0.20000000 </v>
   <v>       0.06666667       0.13333333       0.20000000 </v>
   <v>       0.46666667      -0.06666667       0.40000000 </v>
   <v>      -0.13333333      -0.26666667      -0.40000000 </v>
   <v>       0.03333333       0.06666667      -0.40000000 </v>
   <v>      -0.36666667       0.26666667       0.40000000 </v>
   <v>       0.40000000      -0.20000000       0.20000000 </v>
   <v>      -0.20000000      -0.40000000       0.40000000 </v>
   <v>      -0.43333333       0.13333333       0.20000000 </v>
   <v>       0.36666667      -0.26666667      -0.40000000 </v>
   <v>       0.13333333       0.26666667       0.40000000 </v>
   <v>      -0.46666667       0.06666667      -0.40000000 </v>
   <v>       0.23333333       0.46666667       0.20000000 </v>
   <v>       0.20000000       0.40000000      -0.40000000 </v>
   <v>       0.00000000       0.00000000       0.00000000 </v>
   <v>      -0.06666667      -0.13333333      -0.20000000 </v>
   <v>      -0.30000000       0.40000000      -0.40000000 </v>
   <v>      -0.26666667       0.46666667       0.20000000 </v>
   <v>       0.33333333      -0.33333333       0.00000000 </v>
   <v>       0.43333333      -0.13333333      -0.20000000 </v>
   <v>      -0.50000000       0.00000000       0.00000000 </v>
   <v>       0.26666667      -0.46666667      -0.20000000 </v>
   <v>      -0.33333333       0.33333333       0.00000000 </v>
   <v>      -0.40000000       0.20000000      -0.20000000 </v>
   <v>      -0.16666667      -0.33333333       0.00000000 </v>
   <v>      -0.23333333      -0.46666667      -0.20000000 </v>
   <v>       0.16666667       0.33333333       0.00000000 </v>
   <v>       0.10000000       0.20000000      -0.20000000 </v>
  </varray>
 </structure>
 <varray name="primitive_index" >
  <v type="int" >        1 </v>
  <v type="int" >       18 </v>
  <v type="int" >        7 </v>
  <v type="int" >       24 </v>
  <v type="int" >       20 </v>
  <v type="int" >       19 </v>
  <v type="int" >        6 </v>
  <v type="int" >        2 </v>
  <v type="int" >       16 </v>
  <v type="int" >        8 </v>
  <v type="int" >       15 </v>
  <v type="int" >       11 </v>
  <v type="int" >       12 </v>
  <v type="int" >       28 </v>
  <v type="int" >       30 </v>
  <v type="int" >       23 </v>
  <v type="int" >        4 </v>
  <v type="int" >       14 </v>
  <v type="int" >       26 </v>
  <v type="int" >        9 </v>
  <v type="int" >       29 </v>
  <v type="int" >       17 </v>
  <v type="int" >        3 </v>
  <v type="int" >       22 </v>
  <v type="int" >       10 </v>
  <v type="int" >       27 </v>
  <v type="int" >       13 </v>
  <v type="int" >       25 </v>
  <v type="int" >       21 </v>
  <v type="int" >        5 </v>
 </varray>
 <kpoints>
  <generation param="Gamma">
   <v type="int" name="divisions">       5        5        5 </v>
   <v name="usershift">      0.00000000       0.00000000       0.00000000 </v>
   <v name="genvec1">      0.20000000       0.00000000       0.00000000 </v>
   <v name="genvec2">      0.00000000       0.20000000      -0.00000000 </v>
   <v name="genvec3">      0.00000000       0.00000000       0.20000000 </v>
   <v name="shift">      0.00000000       0.00000000       0.00000000 </v>
  </generation>
  <varray name="kpointlist" >
   <v>       0.00000000       0.00000000       0.00000000 </v>
   <v>       0.20000000      -0.00000000       0.00000000 </v>
   <v>       0.40000000      -0.00000000       0.00000000 </v>
   <v>      -0.00000000       0.20000000      -0.00000000 </v>
   <v>       0.20000000       0.20000000       0.00000000 </v>
   <v>       0.40000000       0.20000000       0.00000000 </v>
   <v>      -0.40000000       0.20000000       0.00000000 </v>
   <v>      -0.20000000       0.20000000      -0.00000000 </v>
   <v>      -0.00000000       0.40000000      -0.00000000 </v>
   <v>       0.20000000       0.40000000       0.00000000 </v>
   <v>       0.40000000       0.40000000       0.00000000 </v>
   <v>      -0.40000000       0.40000000      -0.00000000 </v>
   <v>      -0.20000000       0.40000000      -0.00000000 </v>
   <v>       0.00000000       0.00000000       0.20000000 </v>
   <v>       0.20000000      -0.00000000       0.20000000 </v>
   <v>       0.40000000      -0.00000000       0.20000000 </v>
   <v>      -0.40000000       0.00000000       0.20000000 </v>
   <v>      -0.20000000       0.00000000       0.20000000 </v>
   <v>      -0.00000000       0.20000000       0.20000000 </v>
   <v>       0.20000000       0.20000000       0.20000000 </v>
   <v>       0.40000000       0.20000000       0.20000000 </v>
   <v>      -0.40000000       0.20000000       0.20000000 </v>
   <v>      -0.20000000       0.20000000       0.20000000 </v>
   <v>      -0.00000000       0.40000000       0.20000000 </v>
   <v>       0.20000000       0.40000000       0.20000000 </v>
   <v>       0.40000000       0.40000000       0.20000000 </v>
   <v>      -0.40000000       0.40000000       0.20000000 </v>
   <v>      -0.20000000       0.40000000       0.20000000 </v>
   <v>       0.00000000      -0.40000000       0.20000000 </v>
   <v>       0.20000000      -0.40000000       0.20000000 </v>
   <v>       0.40000000      -0.40000000       0.20000000 </v>
   <v>      -0.40000000      -0.40000000       0.20000000 </v>
   <v>      -0.20000000      -0.40000000       0.20000000 </v>
   <v>       0.00000000      -0.20000000       0.20000000 </v>
   <v>       0.20000000      -0.20000000       0.20000000 </v>
   <v>       0.40000000      -0.20000000       0.20000000 </v>
   <v>      -0.40000000      -0.20000000       0.20000000 </v>
   <v>      -0.20000000      -0.20000000       0.20000000 </v>
   <v>       0.00000000       0.00000000       0.40000000 </v>
   <v>       0.20000000       0.00000000       0.40000000 </v>
   <v>       0.40000000      -0.00000000       0.40000000 </v>
   <v>      -0.40000000       0.00000000       0.40000000 </v>
   <v>      -0.20000000       0.00000000       0.40000000 </v>
   <v>      -0.00000000       0.20000000       0.40000000 </v>
   <v>       0.20000000       0.20000000       0.40000000 </v>
   <v>       0.40000000       0.20000000       0.40000000 </v>
   <v>      -0.40000000       0.20000000       0.40000000 </v>
   <v>      -0.20000000       0.20000000       0.40000000 </v>
   <v>      -0.00000000       0.40000000       0.40000000 </v>
   <v>       0.20000000       0.40000000       0.40000000 </v>
   <v>       0.40000000       0.40000000       0.40000000 </v>
   <v>      -0.40000000       0.40000000       0.40000000 </v>
   <v>      -0.20000000       0.40000000       0.40000000 </v>
   <v>       0.00000000      -0.40000000       0.40000000 </v>
   <v>       0.20000000      -0.40000000       0.40000000 </v>
   <v>       0.40000000      -0.40000000       0.40000000 </v>
   <v>      -0.40000000      -0.40000000       0.40000000 </v>
   <v>      -0.20000000      -0.40000000       0.40000000 </v>
   <v>       0.00000000      -0.20000000       0.40000000 </v>
   <v>       0.20000000      -0.20000000       0.40000000 </v>
   <v>       0.40000000      -0.20000000       0.40000000 </v>
   <v>      -0.40000000      -0.20000000       0.40000000 </v>
   <v>      -0.20000000      -0.20000000       0.40000000 </v>
  </varray>
  <varray name="weights" >
   <v>       0.00800000 </v>
   <v>       0.01600000 </v>
   <v>       0.01600000 </v>
   <v>       0.01600000 </v>
   <v>       0.01600000 </v>
   <v>       0.01600000 </v>
   <v>       0.01600000 </v>
   <v>       0.01600000 </v>
   <v>       0.01600000 </v>
   <v>       0.01600000 </v>
   <v>       0.01600000 </v>
   <v>       0.01600000 </v>
   <v>       0.01600000 </v>
   <v>       0.01600000 </v>
   <v>       0.01600000 </v>
   <v>       0.01600000 </v>
   <v>       0.01600000 </v>
   <v>       0.01600000 </v>
   <v>       0.01600000 </v>
   <v>       0.01600000 </v>
   <v>       0.01600000 </v>
   <v>       0.01600000 </v>
   <v>       0.01600000 </v>
   <v>       0.01600000 </v>
   <v>       0.01600000 </v>
   <v>       0.01600000 </v>
   <v>       0.01600000 </v>
   <v>       0.01600000 </v>
   <v>       0.01600000 </v>
   <v>       0.01600000 </v>
   <v>       0.01600000 </v>
   <v>       0.01600000 </v>
   <v>       0.01600000 </v>
   <v>       0.01600000 </v>
   <v>       0.01600000 </v>
   <v>       0.01600000 </v>
   <v>       0.01600000 </v>
   <v>       0.01600000 </v>
   <v>       0.01600000 </v>
   <v>       0.01600000 </v>
   <v>       0.01600000 </v>
   <v>       0.01600000 </v>
   <v>       0.01600000 </v>
   <v>       0.01600000 </v>
   <v>       0.01600000 </v>
   <v>       0.01600000 </v>
   <v>       0.01600000 </v>
   <v>       0.01600000 </v>
   <v>       0.01600000 </v>
   <v>       0.01600000 </v>
   <v>       0.01600000 </v>
   <v>       0.01600000 </v>
   <v>       0.01600000 </v>
   <v>       0.01600000 </v>
   <v>       0.01600000 </v>
   <v>       0.01600000 </v>
   <v>       0.01600000 </v>
   <v>       0.01600000 </v>
   <v>       0.01600000 </v>
   <v>       0.01600000 </v>
   <v>       0.01600000 </v>
   <v>       0.01600000 </v>
   <v>       0.01600000 </v>
  </varray>
 </kpoints>
 <parameters>
  <separator name="general" >
   <i type="string" name="SYSTEM">Nb - Mo - Ta - Ti - V SQS</i>
   <i type="logical" name="LCOMPAT"> F  </i>
  </separator>
  <separator name="electronic" >
   <i type="string" name="PREC">normal</i>
   <i name="ENMAX">    600.00000000</i>
   <i name="ENAUG">    455.65900000</i>
   <i name="EDIFF">      0.00010000</i>
   <i type="int" name="IALGO">    38</i>
   <i type="int" name="IWAVPR">    10</i>
   <i type="int" name="NBANDS">   120</i>
   <i name="NELECT">    198.00000000</i>
   <i type="int" name="TURBO">     0</i>
   <i type="int" name="IRESTART">     0</i>
   <i type="int" name="NREBOOT">     0</i>
   <i type="int" name="NMIN">     0</i>
   <i name="EREF">      0.00000000</i>
   <separator name="electronic smearing" >
    <i type="int" name="ISMEAR">     1</i>
    <i name="SIGMA">      0.20000000</i>
    <i name="KSPACING">      0.50000000</i>
    <i type="logical" name="KGAMMA"> T  </i>
   </separator>
   <separator name="electronic projectors" >
    <i type="logical" name="LREAL"> T  </i>
    <v name="ROPT">     -0.00050000     -0.00050000     -0.00050000     -0.00050000     -0.00050000</v>
    <i type="int" name="LMAXPAW">  -100</i>
    <i type="int" name="LMAXMIX">     2</i>
    <i type="logical" name="NLSPLINE"> F  </i>
   </separator>
   <separator name="electronic startup" >
    <i type="int" name="ISTART">     1</i>
    <i type="int" name="ICHARG">     1</i>
    <i type="int" name="INIWAV">     1</i>
   </separator>
   <separator name="electronic spin" >
    <i type="int" name="ISPIN">     1</i>
    <i type="logical" name="LNONCOLLINEAR"> F  </i>
    <v name="MAGMOM">      1.00000000      1.00000000      1.00000000      1.00000000      1.00000000      1.00000000      1.00000000      1.00000000      1.00000000      1.00000000      1.00000000      1.00000000      1.00000000      1.00000000      1.00000000      1.00000000      1.00000000      1.00000000      1.00000000      1.00000000
      1.00000000      1.00000000      1.00000000      1.00000000      1.00000000      1.00000000      1.00000000      1.00000000      1.00000000      1.00000000</v>
    <i name="NUPDOWN">     -1.00000000</i>
    <i type="logical" name="LSORBIT"> F  </i>
    <v name="SAXIS">      0.00000000      0.00000000      1.00000000</v>
    <i type="logical" name="LSPIRAL"> F  </i>
    <v name="QSPIRAL">      0.00000000      0.00000000      0.00000000</v>
    <i type="logical" name="LZEROZ"> F  </i>
   </separator>
   <separator name="electronic exchange-correlation" >
    <i type="logical" name="LASPH"> F  </i>
    <i type="logical" name="LMETAGGA"> F  </i>
   </separator>
   <separator name="electronic convergence" >
    <i type="int" name="NELM">   100</i>
    <i type="int" name="NELMDL">     0</i>
    <i type="int" name="NELMIN">     2</i>
    <i name="ENINI">    600.00000000</i>
    <separator name="electronic convergence detail" >
     <i type="logical" name="LDIAG"> T  </i>
     <i type="logical" name="LSUBROT"> F  </i>
     <i name="WEIMIN">      0.00000000</i>
     <i name="EBREAK">      0.00000021</i>
     <i name="DEPER">      0.30000000</i>
     <i type="int" name="NRMM">     4</i>
     <i name="TIME">      0.40000000</i>
    </separator>
   </separator>
   <separator name="electronic mixer" >
    <i name="AMIX">      0.40000000</i>
    <i name="BMIX">      1.00000000</i>
    <i name="AMIN">      0.10000000</i>
    <i name="AMIX_MAG">      1.60000000</i>
    <i name="BMIX_MAG">      1.00000000</i>
    <separator name="electronic mixer details" >
     <i type="int" name="IMIX">     4</i>
     <i type="logical" name="MIXFIRST"> F  </i>
     <i type="int" name="MAXMIX">   -45</i>
     <i name="WC">    100.00000000</i>
     <i type="int" name="INIMIX">     1</i>
     <i type="int" name="MIXPRE">     1</i>
     <i type="int" name="MREMOVE">     5</i>
    </separator>
   </separator>
   <separator name="electronic dipolcorrection" >
    <i type="logical" name="LDIPOL"> F  </i>
    <i type="logical" name="LMONO"> F  </i>
    <i type="int" name="IDIPOL">     0</i>
    <i name="EPSILON">      1.00000000</i>
    <v name="DIPOL">   -100.00000000   -100.00000000   -100.00000000</v>
    <i name="EFIELD">      0.00000000</i>
   </separator>
  </separator>
  <separator name="grids" >
   <i type="int" name="NGX">    36</i>
   <i type="int" name="NGY">    50</i>
   <i type="int" name="NGZ">    70</i>
   <i type="int" name="NGXF">    72</i>
   <i type="int" name="NGYF">   100</i>
   <i type="int" name="NGZF">   140</i>
   <i type="logical" name="ADDGRID"> F  </i>
  </separator>
  <separator name="ionic" >
   <i type="int" name="NSW">     0</i>
   <i type="int" name="IBRION">    -1</i>
   <i type="int" name="MDALGO">     0</i>
   <i type="int" name="ISIF">     2</i>
   <i name="PSTRESS">      0.00000000</i>
   <i name="EDIFFG">      0.00100000</i>
   <i type="int" name="NFREE">     1</i>
   <i name="POTIM">      0.50000000</i>
   <i name="SMASS">     -3.00000000</i>
   <i name="SCALEE">      1.00000000</i>
  </separator>
  <separator name="ionic md" >
   <i name="TEBEG">      0.00010000</i>
   <i name="TEEND">      0.00010000</i>
   <i type="int" name="NBLOCK">     1</i>
   <i type="int" name="KBLOCK">     1</i>
   <i type="int" name="NPACO">   256</i>
   <i name="APACO">     16.00000000</i>
  </separator>
  <separator name="symmetry" >
   <i type="int" name="ISYM">     2</i>
   <i name="SYMPREC">      0.00001000</i>
  </separator>
  <separator name="dos" >
   <i type="int" name="LORBIT">     0</i>
   <v name="RWIGS">     -1.00000000     -1.00000000     -1.00000000     -1.00000000     -1.00000000</v>
   <i type="int" name="NEDOS">   301</i>
   <i name="EMIN">     10.00000000</i>
   <i name="EMAX">    -10.00000000</i>
   <i name="EFERMI">      0.00000000</i>
  </separator>
  <separator name="writing" >
   <i type="int" name="NWRITE">     2</i>
   <i type="logical" name="LWAVE"> T  </i>
   <i type="logical" name="LDOWNSAMPLE"> F  </i>
   <i type="logical" name="LCHARG"> T  </i>
   <i type="logical" name="LPARD"> F  </i>
   <i type="logical" name="LVTOT"> F  </i>
   <i type="logical" name="LVHAR"> F  </i>
   <i type="logical" name="LELF"> F  </i>
   <i type="logical" name="LOPTICS"> F  </i>
   <v name="STM">      0.00000000      0.00000000      0.00000000      0.00000000      0.00000000      0.00000000      0.00000000</v>
  </separator>
  <separator name="performance" >
   <i type="int" name="NPAR">     8</i>
   <i type="int" name="NSIM">     4</i>
   <i type="int" name="NBLK">    -1</i>
   <i type="logical" name="LPLANE"> T  </i>
   <i type="logical" name="LSCALAPACK"> T  </i>
   <i type="logical" name="LSCAAWARE"> F  </i>
   <i type="logical" name="LSCALU"> F  </i>
   <i type="logical" name="LASYNC"> F  </i>
   <i type="logical" name="LORBITALREAL"> F  </i>
  </separator>
  <separator name="miscellaneous" >
   <i type="int" name="IDIOT">     3</i>
   <i type="int" name="ISPECIAL">     0</i>
   <i type="logical" name="LMUSIC"> F  </i>
   <v name="POMASS">     92.91000000     95.94000000    180.94800000     47.88000000     50.94100000</v>
   <v name="DARWINR">      0.00000000      0.00000000      0.00000000      0.00000000      0.00000000</v>
   <v name="DARWINV">      1.00000000      1.00000000      1.00000000      1.00000000      1.00000000</v>
   <i type="logical" name="LCORR"> T  </i>
  </separator>
  <i type="logical" name="GGA_COMPAT"> T  </i>
  <i type="logical" name="LBERRY"> F  </i>
  <i type="int" name="ICORELEVEL">     0</i>
  <i type="logical" name="LDAU"> F  </i>
  <i type="int" name="I_CONSTRAINED_M">     0</i>
  <separator name="electronic exchange-correlation" >
   <i type="string" name="GGA">PS</i>
   <i type="int" name="VOSKOWN">     0</i>
   <i type="logical" name="LHFCALC"> F  </i>
   <i type="string" name="PRECFOCK"></i>
   <i type="logical" name="LSYMGRAD"> F  </i>
   <i type="logical" name="LHFONE"> F  </i>
   <i type="logical" name="LRHFCALC"> F  </i>
   <i type="logical" name="LTHOMAS"> F  </i>
   <i type="logical" name="LMODELHF"> F  </i>
   <i name="ENCUT4O">     -1.00000000</i>
   <i type="int" name="EXXOEP">     0</i>
   <i type="int" name="FOURORBIT">     0</i>
   <i name="AEXX">      0.00000000</i>
   <i name="HFALPHA">      0.00000000</i>
   <i name="MCALPHA">      0.00000000</i>
   <i name="ALDAX">      1.00000000</i>
   <i name="AGGAX">      1.00000000</i>
   <i name="ALDAC">      1.00000000</i>
   <i name="AGGAC">      1.00000000</i>
   <i type="int" name="NKREDX">     1</i>
   <i type="int" name="NKREDY">     1</i>
   <i type="int" name="NKREDZ">     1</i>
   <i type="logical" name="SHIFTRED"> F  </i>
   <i type="logical" name="ODDONLY"> F  </i>
   <i type="logical" name="EVENONLY"> F  </i>
   <i type="int" name="LMAXFOCK">     0</i>
   <i type="int" name="NMAXFOCKAE">     0</i>
   <i type="logical" name="LFOCKAEDFT"> F  </i>
   <i name="HFSCREEN">      0.00000000</i>
   <i name="HFSCREENC">      0.00000000</i>
   <i type="int" name="NBANDSGWLOW">     0</i>
  </separator>
  <separator name="vdW DFT" >
   <i type="logical" name="LUSE_VDW"> F  </i>
   <i name="Zab_VDW">     -0.84910000</i>
   <i name="PARAM1">      0.12340000</i>
   <i name="PARAM2">      1.00000000</i>
   <i name="PARAM3">      0.00000000</i>
  </separator>
  <separator name="model GW" >
   <i type="int" name="MODEL_GW">     0</i>
   <i name="MODEL_EPS0">      9.37676250</i>
   <i name="MODEL_ALPHA">      1.00000000</i>
  </separator>
  <separator name="linear response parameters" >
   <i type="logical" name="LEPSILON"> F  </i>
   <i type="logical" name="LRPA"> F  </i>
   <i type="logical" name="LNABLA"> F  </i>
   <i type="logical" name="LVEL"> F  </i>
   <i type="int" name="KINTER">     0</i>
   <i name="CSHIFT">      0.10000000</i>
   <i name="OMEGAMAX">     -1.00000000</i>
   <i name="DEG_THRESHOLD">      0.00200000</i>
   <i name="RTIME">     -0.10000000</i>
   <i name="WPLASMAI">      0.00000000</i>
   <v name="DFIELD">      0.00000000      0.00000000      0.00000000</v>
   <v name="WPLASMA">      0.00000000      0.00000000      0.00000000      0.00000000      0.00000000      0.00000000      0.00000000      0.00000000      0.00000000</v>
  </separator>
  <separator name="orbital magnetization" >
   <i type="logical" name="NUCIND"> F  </i>
   <v name="MAGPOS">      0.00000000      0.00000000      0.00000000</v>
   <i type="logical" name="LNICSALL"> T  </i>
   <i type="logical" name="ORBITALMAG"> F  </i>
   <i type="logical" name="LMAGBLOCH"> F  </i>
   <i type="logical" name="LCHIMAG"> F  </i>
   <i type="logical" name="LGAUGE"> T  </i>
   <i type="int" name="MAGATOM">     0</i>
   <v name="MAGDIPOL">      0.00000000      0.00000000      0.00000000</v>
   <v name="AVECCONST">      0.00000000      0.00000000      0.00000000</v>
  </separator>
  <separator name="response functions" >
   <i type="logical" name="LADDER"> F  </i>
   <i type="logical" name="LRPAFORCE"> F  </i>
   <i type="logical" name="LFXC"> F  </i>
   <i type="logical" name="LHARTREE"> T  </i>
   <i type="int" name="IBSE">     0</i>
   <v type="int" name="KPOINT">    -1     0     0     0</v>
   <i type="logical" name="LTCTE"> F  </i>
   <i type="logical" name="LTETE"> F  </i>
   <i type="logical" name="LTRIPLET"> F  </i>
   <i type="logical" name="LFXCEPS"> F  </i>
   <i type="logical" name="LFXHEG"> F  </i>
   <i type="int" name="NATURALO">     2</i>
   <i type="logical" name="L2ORDER"> F  </i>
   <i type="logical" name="LMP2LT"> F  </i>
   <i type="logical" name="LUSEW"> F  </i>
   <i name="ENCUTGW">     -2.00000000</i>
   <i name="ENCUTGWSOFT">     -2.00000000</i>
   <i name="ENCUTLF">     -1.00000000</i>
   <i type="int" name="LMAXMP2">    -1</i>
   <i name="SCISSOR">      0.00000000</i>
   <i type="int" name="NOMEGA">     0</i>
   <i type="int" name="NOMEGAR">     0</i>
   <i type="int" name="NBANDSGW">    -1</i>
   <i type="int" name="NBANDSO">    -1</i>
   <i type="int" name="NBANDSV">    -1</i>
   <i type="int" name="NELM">   100</i>
   <i type="int" name="NELMHF">     1</i>
   <i type="int" name="DIM">     3</i>
   <i type="int" name="ANTIRES">     0</i>
   <i name="OMEGAMAX">    -30.00000000</i>
   <i name="OMEGAMIN">    -30.00000000</i>
   <i name="OMEGATL">   -200.00000000</i>
   <i type="int" name="OMEGAGRID">   140</i>
   <i name="CSHIFT">     -0.10000000</i>
   <i type="logical" name="SELFENERGY"> F  </i>
   <i type="logical" name="LSPECTRAL"> F  </i>
   <i type="logical" name="LSPECTRALGW"> F  </i>
   <i type="logical" name="LSINGLES"> F  </i>
   <i type="logical" name="LFERMIGW"> F  </i>
   <i type="logical" name="ODDONLYGW"> F  </i>
   <i type="logical" name="EVENONLYGW"> F  </i>
   <i type="int" name="NKREDLFX">     1</i>
   <i type="int" name="NKREDLFY">     1</i>
   <i type="int" name="NKREDLFZ">     1</i>
   <i type="int" name="MAXMEM">  2800</i>
   <i type="int" name="TELESCOPE">     0</i>
   <i type="int" name="TAUPAR">     1</i>
   <i type="int" name="OMEGAPAR">    -1</i>
   <i name="LAMBDA">      1.00000000</i>
  </separator>
  <separator name="External order field" >
   <i name="OFIELD_KAPPA">      0.00000000</i>
   <v name="OFIELD_K">      0.00000000      0.00000000      0.00000000</v>
   <i name="OFIELD_Q6_NEAR">      0.00000000</i>
   <i name="OFIELD_Q6_FAR">      0.00000000</i>
   <i name="OFIELD_A">      0.00000000</i>
  </separator>
  <separator name="solvation model" >
   <i type="logical" name="LSOL"> F  </i>
  </separator>
 </parameters>
 <atominfo>
  <atoms>      30 </atoms>
  <types>       5 </types>
  <array name="atoms" >
   <dimension dim="1">ion</dimension>
   <field type="string">element</field>
   <field type="int">atomtype</field>
   <set>
    <rc><c>Nb</c><c>   1</c></rc>
    <rc><c>Nb</c><c>   1</c></rc>
    <rc><c>Nb</c><c>   1</c></rc>
    <rc><c>Nb</c><c>   1</c></rc>
    <rc><c>Nb</c><c>   1</c></rc>
    <rc><c>Nb</c><c>   1</c></rc>
    <rc><c>Mo</c><c>   2</c></rc>
    <rc><c>Mo</c><c>   2</c></rc>
    <rc><c>Mo</c><c>   2</c></rc>
    <rc><c>Mo</c><c>   2</c></rc>
    <rc><c>Mo</c><c>   2</c></rc>
    <rc><c>Mo</c><c>   2</c></rc>
    <rc><c>Ta</c><c>   3</c></rc>
    <rc><c>Ta</c><c>   3</c></rc>
    <rc><c>Ta</c><c>   3</c></rc>
    <rc><c>Ta</c><c>   3</c></rc>
    <rc><c>Ta</c><c>   3</c></rc>
    <rc><c>Ta</c><c>   3</c></rc>
    <rc><c>Ti</c><c>   4</c></rc>
    <rc><c>Ti</c><c>   4</c></rc>
    <rc><c>Ti</c><c>   4</c></rc>
    <rc><c>Ti</c><c>   4</c></rc>
    <rc><c>Ti</c><c>   4</c></rc>
    <rc><c>Ti</c><c>   4</c></rc>
    <rc><c>V </c><c>   5</c></rc>
    <rc><c>V </c><c>   5</c></rc>
    <rc><c>V </c><c>   5</c></rc>
    <rc><c>V </c><c>   5</c></rc>
    <rc><c>V </c><c>   5</c></rc>
    <rc><c>V </c><c>   5</c></rc>
   </set>
  </array>
  <array name="atomtypes" >
   <dimension dim="1">type</dimension>
   <field type="int">atomspertype</field>
   <field type="string">element</field>
   <field>mass</field>
   <field>valence</field>
   <field type="string">pseudopotential</field>
   <set>
    <rc><c>   6</c><c>Nb</c><c>     92.91000000</c><c>     13.00000000</c><c>  PAW_PBE Nb_sv 25May2007               </c></rc>
    <rc><c>   6</c><c>Mo</c><c>     95.94000000</c><c>      6.00000000</c><c>  PAW_PBE Mo 08Apr2002                  </c></rc>
    <rc><c>   6</c><c>Ta</c><c>    180.94800000</c><c>      5.00000000</c><c>  PAW_PBE Ta 17Jan2003                  </c></rc>
    <rc><c>   6</c><c>Ti</c><c>     47.88000000</c><c>      4.00000000</c><c>  PAW_PBE Ti 08Apr2002                  </c></rc>
    <rc><c>   6</c><c>V </c><c>     50.94100000</c><c>      5.00000000</c><c>  PAW_PBE V 08Apr2002                   </c></rc>
   </set>
  </array>
 </atominfo>
 <structure name="initialpos" >
  <crystal>
   <varray name="basis" >
    <v>      -3.15000000      -3.15000000      -3.15000000 </v>
    <v>       1.57500000       1.57500000      -7.87500000 </v>
    <v>       7.87500000      -7.87500000      -1.57500000 </v>
   </varray>
   <i name="volume">    468.83812500 </i>
   <varray name="rec_basis" >
    <v>      -0.13756614      -0.12698413      -0.05291005 </v>
    <v>       0.04232804       0.06349206      -0.10582011 </v>
    <v>       0.06349206      -0.06349206       0.00000000 </v>
   </varray>
  </crystal>
  <varray name="positions" >
   <v>       0.96666667       0.93333333       0.40000000 </v>
   <v>       0.63333333       0.26666667       0.40000000 </v>
   <v>       0.50000000       0.00000000       0.00000000 </v>
   <v>       0.00000000       0.00000000       0.00000000 </v>
   <v>       0.10000000       0.20000000       0.80000000 </v>
   <v>       0.03333333       0.06666667       0.60000000 </v>
   <v>       0.90000000       0.80000000       0.20000000 </v>
   <v>       0.80000000       0.60000000       0.40000000 </v>
   <v>       0.73333333       0.46666667       0.20000000 </v>
   <v>       0.66666667       0.33333333       0.00000000 </v>
   <v>       0.36666667       0.73333333       0.60000000 </v>
   <v>       0.13333333       0.26666667       0.40000000 </v>
   <v>       0.83333333       0.66666667       0.00000000 </v>
   <v>       0.93333333       0.86666667       0.80000000 </v>
   <v>       0.56666667       0.13333333       0.20000000 </v>
   <v>       0.40000000       0.80000000       0.20000000 </v>
   <v>       0.43333333       0.86666667       0.80000000 </v>
   <v>       0.30000000       0.60000000       0.40000000 </v>
   <v>       0.86666667       0.73333333       0.60000000 </v>
   <v>       0.46666667       0.93333333       0.40000000 </v>
   <v>       0.16666667       0.33333333       0.00000000 </v>
   <v>       0.26666667       0.53333333       0.80000000 </v>
   <v>       0.20000000       0.40000000       0.60000000 </v>
   <v>       0.06666667       0.13333333       0.20000000 </v>
   <v>       0.76666667       0.53333333       0.80000000 </v>
   <v>       0.70000000       0.40000000       0.60000000 </v>
   <v>       0.60000000       0.20000000       0.80000000 </v>
   <v>       0.53333333       0.06666667       0.60000000 </v>
   <v>       0.33333333       0.66666667       0.00000000 </v>
   <v>       0.23333333       0.46666667       0.20000000 </v>
  </varray>
 </structure>
 <calculation>
  <scstep>
   <time name="dav">   29.41   29.46</time>
   <time name="total">   30.03   30.09</time>
   <energy>
    <i name="alphaZ">   1241.80771609 </i>
    <i name="ewald"> -11571.07121970 </i>
    <i name="hartreedc">  -2963.39185252 </i>
    <i name="XCdc">   -887.70401079 </i>
    <i name="pawpsdc">  26052.55560606 </i>
    <i name="pawaedc"> -24568.36165333 </i>
    <i name="eentropy">     -0.02018480 </i>
    <i name="bandstr">   -704.81234190 </i>
    <i name="atom">  13005.90793652 </i>
    <i name="e_fr_energy">   -395.09000439 </i>
    <i name="e_wo_entrp">   -395.06981958 </i>
    <i name="e_0_energy">   -395.08327612 </i>
   </energy>
  </scstep>
  <scstep>
   <time name="dav">   29.29   29.32</time>
   <time name="total">   29.89   29.92</time>
   <energy>
    <i name="e_fr_energy">   -498.16614390 </i>
    <i name="e_wo_entrp">   -498.17055540 </i>
    <i name="e_0_energy">   -498.16761440 </i>
   </energy>
  </scstep>
  <scstep>
   <time name="dav">   29.16   29.19</time>
   <time name="total">   29.77   29.79</time>
   <energy>
    <i name="e_fr_energy">   -383.91255741 </i>
    <i name="e_wo_entrp">   -383.90136393 </i>
    <i name="e_0_energy">   -383.90882625 </i>
   </energy>
  </scstep>
  <scstep>
   <time name="dav">   28.61   28.64</time>
   <time name="total">   29.21   29.24</time>
   <energy>
    <i name="e_fr_energy">   -344.11563976 </i>
    <i name="e_wo_entrp">   -344.10650111 </i>
    <i name="e_0_energy">   -344.11259354 </i>
   </energy>
  </scstep>
  <scstep>
   <time name="dav">   30.83   30.86</time>
   <time name="total">   31.43   31.47</time>
   <energy>
    <i name="e_fr_energy">   -333.98328450 </i>
    <i name="e_wo_entrp">   -333.96200547 </i>
    <i name="e_0_energy">   -333.97619149 </i>
   </energy>
  </scstep>
  <scstep>
   <time name="dav">   27.28   27.34</time>
   <time name="total">   27.88   27.96</time>
   <energy>
    <i name="e_fr_energy">   -324.97331834 </i>
    <i name="e_wo_entrp">   -324.97023233 </i>
    <i name="e_0_energy">   -324.97228967 </i>
   </energy>
  </scstep>
  <scstep>
   <time name="dav">   28.81   28.88</time>
   <time name="total">   29.41   29.48</time>
   <energy>
    <i name="e_fr_energy">   -331.99046921 </i>
    <i name="e_wo_entrp">   -331.98195267 </i>
    <i name="e_0_energy">   -331.98763036 </i>
   </energy>
  </scstep>
  <scstep>
   <time name="dav">   28.13   28.20</time>
   <time name="total">   28.74   28.82</time>
   <energy>
    <i name="e_fr_energy">   -322.99541757 </i>
    <i name="e_wo_entrp">   -322.99452157 </i>
    <i name="e_0_energy">   -322.99511891 </i>
   </energy>
  </scstep>
  <scstep>
   <time name="dav">   27.29   27.31</time>
   <time name="total">   27.89   27.91</time>
   <energy>
    <i name="e_fr_energy">   -323.10574560 </i>
    <i name="e_wo_entrp">   -323.07881508 </i>
    <i name="e_0_energy">   -323.09676876 </i>
   </energy>
  </scstep>
  <scstep>
   <time name="dav">   28.81   28.83</time>
   <time name="total">   29.40   29.44</time>
   <energy>
    <i name="e_fr_energy">   -322.02179948 </i>
    <i name="e_wo_entrp">   -322.01731975 </i>
    <i name="e_0_energy">   -322.02030624 </i>
   </energy>
  </scstep>
  <scstep>
   <time name="dav">   28.34   28.37</time>
   <time name="total">   28.94   28.97</time>
   <energy>
    <i name="e_fr_energy">   -321.08865061 </i>
    <i name="e_wo_entrp">   -321.08389116 </i>
    <i name="e_0_energy">   -321.08706412 </i>
   </energy>
  </scstep>
  <scstep>
   <time name="dav">   27.17   27.20</time>
   <time name="total">   27.77   27.80</time>
   <energy>
    <i name="e_fr_energy">   -319.66117405 </i>
    <i name="e_wo_entrp">   -319.64397390 </i>
    <i name="e_0_energy">   -319.65544067 </i>
   </energy>
  </scstep>
  <scstep>
   <time name="dav">   26.76   26.78</time>
   <time name="total">   27.35   27.38</time>
   <energy>
    <i name="e_fr_energy">   -318.86234899 </i>
    <i name="e_wo_entrp">   -318.85116414 </i>
    <i name="e_0_energy">   -318.85862071 </i>
   </energy>
  </scstep>
  <scstep>
   <time name="dav">   28.95   28.98</time>
   <time name="total">   29.56   29.59</time>
   <energy>
    <i name="e_fr_energy">   -318.84670595 </i>
    <i name="e_wo_entrp">   -318.83447244 </i>
    <i name="e_0_energy">   -318.84262811 </i>
   </energy>
  </scstep>
  <scstep>
   <time name="dav">   27.07   27.09</time>
   <time name="total">   27.66   27.69</time>
   <energy>
    <i name="e_fr_energy">   -318.88412263 </i>
    <i name="e_wo_entrp">   -318.86860643 </i>
    <i name="e_0_energy">   -318.87895056 </i>
   </energy>
  </scstep>
  <scstep>
   <time name="dav">   27.35   27.38</time>
   <time name="total">   27.95   27.98</time>
   <energy>
    <i name="e_fr_energy">   -318.81647429 </i>
    <i name="e_wo_entrp">   -318.80568239 </i>
    <i name="e_0_energy">   -318.81287699 </i>
   </energy>
  </scstep>
  <scstep>
   <time name="dav">   28.02   28.05</time>
   <time name="total">   28.63   28.66</time>
   <energy>
    <i name="e_fr_energy">   -318.78074399 </i>
    <i name="e_wo_entrp">   -318.76824840 </i>
    <i name="e_0_energy">   -318.77657879 </i>
   </energy>
  </scstep>
  <scstep>
   <time name="dav">   28.27   28.29</time>
   <time name="total">   28.86   28.89</time>
   <energy>
    <i name="e_fr_energy">   -318.78569802 </i>
    <i name="e_wo_entrp">   -318.77332846 </i>
    <i name="e_0_energy">   -318.78157483 </i>
   </energy>
  </scstep>
  <scstep>
   <time name="dav">   28.33   28.36</time>
   <time name="total">   28.92   28.95</time>
   <energy>
    <i name="e_fr_energy">   -318.77864464 </i>
    <i name="e_wo_entrp">   -318.76650378 </i>
    <i name="e_0_energy">   -318.77459769 </i>
   </energy>
  </scstep>
  <scstep>
   <time name="dav">   27.01   27.04</time>
   <time name="total">   27.61   27.65</time>
   <energy>
    <i name="e_fr_energy">   -318.77782852 </i>
    <i name="e_wo_entrp">   -318.76542573 </i>
    <i name="e_0_energy">   -318.77369426 </i>
   </energy>
  </scstep>
  <scstep>
   <time name="dav">   25.39   25.42</time>
   <time name="total">   26.00   26.02</time>
   <energy>
    <i name="e_fr_energy">   -318.77272643 </i>
    <i name="e_wo_entrp">   -318.76028146 </i>
    <i name="e_0_energy">   -318.76857810 </i>
   </energy>
  </scstep>
  <scstep>
   <time name="dav">   26.39   26.43</time>
   <time name="total">   26.98   27.03</time>
   <energy>
    <i name="e_fr_energy">   -318.77229539 </i>
    <i name="e_wo_entrp">   -318.75986046 </i>
    <i name="e_0_energy">   -318.76815041 </i>
   </energy>
  </scstep>
  <scstep>
   <time name="dav">   25.11   25.13</time>
   <time name="total">   25.72   25.75</time>
   <energy>
    <i name="e_fr_energy">   -318.77196896 </i>
    <i name="e_wo_entrp">   -318.75961176 </i>
    <i name="e_0_energy">   -318.76784989 </i>
   </energy>
  </scstep>
  <scstep>
   <time name="dav">   24.65   24.68</time>
   <time name="total">   25.25   25.28</time>
   <energy>
    <i name="e_fr_energy">   -318.77185829 </i>
    <i name="e_wo_entrp">   -318.75941411 </i>
    <i name="e_0_energy">   -318.76771023 </i>
   </energy>
  </scstep>
  <scstep>
   <time name="dav">   22.48   22.50</time>
   <time name="total">   22.51   22.53</time>
   <energy>
    <i name="alphaZ">   1241.80771609 </i>
    <i name="ewald"> -11571.07121970 </i>
    <i name="hartreedc">  -2948.28825752 </i>
    <i name="XCdc">   -885.87125965 </i>
    <i name="pawpsdc">  19643.04492984 </i>
    <i name="pawaedc"> -18133.70078895 </i>
    <i name="eentropy">     -0.01230660 </i>
    <i name="bandstr">   -670.58856330 </i>
    <i name="atom">  13005.90793652 </i>
    <i name="e_fr_energy">   -318.77181329 </i>
    <i name="e_wo_entrp">   -318.75950668 </i>
    <i name="e_0_energy">   -318.76771108 </i>
   </energy>
  </scstep>
  <structure>
   <crystal>
    <varray name="basis" >
     <v>      -3.15000000      -3.15000000      -3.15000000 </v>
     <v>       1.57500000       1.57500000      -7.87500000 </v>
     <v>       7.87500000      -7.87500000      -1.57500000 </v>
    </varray>
    <i name="volume">    468.83812500 </i>
    <varray name="rec_basis" >
     <v>      -0.13756614      -0.12698413      -0.05291005 </v>
     <v>       0.04232804       0.06349206      -0.10582011 </v>
     <v>       0.06349206      -0.06349206       0.00000000 </v>
    </varray>
   </crystal>
   <varray name="positions" >
    <v>       0.96666667       0.93333333       0.40000000 </v>
    <v>       0.63333333       0.26666667       0.40000000 </v>
    <v>       0.50000000       0.00000000       0.00000000 </v>
    <v>       0.00000000       0.00000000       0.00000000 </v>
    <v>       0.10000000       0.20000000       0.80000000 </v>
    <v>       0.03333333       0.06666667       0.60000000 </v>
    <v>       0.90000000       0.80000000       0.20000000 </v>
    <v>       0.80000000       0.60000000       0.40000000 </v>
    <v>       0.73333333       0.46666667       0.20000000 </v>
    <v>       0.66666667       0.33333333       0.00000000 </v>
    <v>       0.36666667       0.73333333       0.60000000 </v>
    <v>       0.13333333       0.26666667       0.40000000 </v>
    <v>       0.83333333       0.66666667       0.00000000 </v>
    <v>       0.93333333       0.86666667       0.80000000 </v>
    <v>       0.56666667       0.13333333       0.20000000 </v>
    <v>       0.40000000       0.80000000       0.20000000 </v>
    <v>       0.43333333       0.86666667       0.80000000 </v>
    <v>       0.30000000       0.60000000       0.40000000 </v>
    <v>       0.86666667       0.73333333       0.60000000 </v>
    <v>       0.46666667       0.93333333       0.40000000 </v>
    <v>       0.16666667       0.33333333       0.00000000 </v>
    <v>       0.26666667       0.53333333       0.80000000 </v>
    <v>       0.20000000       0.40000000       0.60000000 </v>
    <v>       0.06666667       0.13333333       0.20000000 </v>
    <v>       0.76666667       0.53333333       0.80000000 </v>
    <v>       0.70000000       0.40000000       0.60000000 </v>
    <v>       0.60000000       0.20000000       0.80000000 </v>
    <v>       0.53333333       0.06666667       0.60000000 </v>
    <v>       0.33333333       0.66666667       0.00000000 </v>
    <v>       0.23333333       0.46666667       0.20000000 </v>
   </varray>
  </structure>
  <varray name="forces" >
   <v>       0.10933754       0.45170019       0.22028574 </v>
   <v>       0.36688913      -0.17862823       0.02778173 </v>
   <v>      -0.10417415       0.40956644      -0.26499516 </v>
   <v>       0.25437833      -0.04183594      -0.05205798 </v>
   <v>      -0.03480157       0.77145883      -0.63978674 </v>
   <v>      -0.19931630       0.29959896      -0.37018049 </v>
   <v>      -0.04212781      -0.58998057       0.20325386 </v>
   <v>      -0.51223333      -0.33504857       0.58393264 </v>
   <v>      -0.20760379       0.27597358       0.05894725 </v>
   <v>       0.17131722       0.61105411      -0.61536270 </v>
   <v>      -0.18248079      -0.44445087       0.26958274 </v>
   <v>       0.12246163       0.16725810      -0.62714151 </v>
   <v>       0.00412772      -0.53069983       0.52661372 </v>
   <v>       0.20171430       0.39873990      -0.04955948 </v>
   <v>      -0.19974964       0.50903958      -0.11458320 </v>
   <v>      -0.69087595      -0.10976037       0.78158717 </v>
   <v>      -0.90053825      -0.14994641       0.63765281 </v>
   <v>       0.34330110      -0.33406766      -0.15083104 </v>
   <v>       0.09177199       0.20242859       0.54973260 </v>
   <v>       0.57741811      -0.56090474       0.09726374 </v>
   <v>      -0.03441554      -0.16362029      -0.44327085 </v>
   <v>      -0.39026745      -0.05738268      -0.22621303 </v>
   <v>      -0.18131761      -0.11541185       0.49478798 </v>
   <v>       0.62700957      -0.12065626      -0.87255700 </v>
   <v>       0.03908540      -0.33408393       0.62400008 </v>
   <v>       0.61037929       0.07816512      -0.39541256 </v>
   <v>       0.00484523       0.32363491      -0.24552865 </v>
   <v>       0.19637743      -0.44020175      -0.48961161 </v>
   <v>      -0.25637120      -0.26967328       0.64426919 </v>
   <v>       0.21585941       0.27773492      -0.16259925 </v>
  </varray>
  <varray name="stress" >
   <v>      25.23524316      -4.03730692       1.14891860 </v>
   <v>      -4.03730695      21.99966984      -0.64110253 </v>
   <v>       1.14891856      -0.64110263      23.42579986 </v>
  </varray>
  <energy>
   <i name="e_fr_energy">   -318.77181329 </i>
   <i name="e_wo_entrp">   -318.76771108 </i>
   <i name="e_0_energy">     -0.01230660 </i>
  </energy>
  <time name="totalsc">  727.73  736.29</time>
  <eigenvalues>
   <array>
    <dimension dim="1">band</dimension>
    <dimension dim="2">kpoint</dimension>
    <dimension dim="3">spin</dimension>
    <field>eigene</field>
    <field>occ</field>
    <set>
     <set comment="spin 1">
      <set comment="kpoint 1">
       <r>  -47.1176    1.0000 </r>
       <r>  -47.0947    1.0000 </r>
       <r>  -47.0464    1.0000 </r>
       <r>  -46.9885    1.0000 </r>
       <r>  -46.9542    1.0000 </r>
       <r>  -46.8587    1.0000 </r>
       <r>  -23.9177    1.0000 </r>
       <r>  -23.7478    1.0000 </r>
       <r>  -23.5803    1.0000 </r>
       <r>  -23.5335    1.0000 </r>
       <r>  -23.2962    1.0000 </r>
       <r>  -23.2875    1.0000 </r>
       <r>  -23.2804    1.0000 </r>
       <r>  -23.2287    1.0000 </r>
       <r>  -23.2111    1.0000 </r>
       <r>  -23.1903    1.0000 </r>
       <r>  -23.1585    1.0000 </r>
       <r>  -23.1149    1.0000 </r>
       <r>  -23.0797    1.0000 </r>
       <r>  -23.0544    1.0000 </r>
       <r>  -22.9020    1.0000 </r>
       <r>  -22.8818    1.0000 </r>
       <r>  -22.7233    1.0000 </r>
       <r>  -22.4859    1.0000 </r>
       <r>   -0.0188    1.0000 </r>
       <r>    1.3065    1.0000 </r>
       <r>    1.6681    1.0000 </r>
       <r>    2.4418    1.0000 </r>
       <r>    2.5461    1.0000 </r>
       <r>    2.6360    1.0000 </r>
       <r>    2.7339    1.0000 </r>
       <r>    2.8558    1.0000 </r>
       <r>    2.9147    1.0000 </r>
       <r>    2.9808    1.0000 </r>
       <r>    3.0640    1.0000 </r>
       <r>    3.0925    1.0000 </r>
       <r>    3.1589    1.0000 </r>
       <r>    3.2231    1.0000 </r>
       <r>    3.3061    1.0000 </r>
       <r>    3.3660    1.0000 </r>
       <r>    3.4495    1.0000 </r>
       <r>    3.5263    1.0000 </r>
       <r>    3.6342    1.0000 </r>
       <r>    3.6931    1.0000 </r>
       <r>    3.7874    1.0000 </r>
       <r>    3.8260    1.0000 </r>
       <r>    3.8636    1.0000 </r>
       <r>    3.8866    1.0000 </r>
       <r>    4.0818    1.0000 </r>
       <r>    4.1001    1.0000 </r>
       <r>    4.2036    1.0000 </r>
       <r>    4.2387    1.0000 </r>
       <r>    4.3353    1.0000 </r>
       <r>    4.3793    1.0000 </r>
       <r>    4.5071    1.0000 </r>
       <r>    4.5891    1.0000 </r>
       <r>    4.6781    1.0000 </r>
       <r>    4.7317    1.0000 </r>
       <r>    4.8438    1.0000 </r>
       <r>    4.8818    1.0000 </r>
       <r>    4.9685    1.0000 </r>
       <r>    5.0142    1.0000 </r>
       <r>    5.0215    1.0000 </r>
       <r>    5.1230    1.0000 </r>
       <r>    5.1288    1.0000 </r>
       <r>    5.2237    1.0000 </r>
       <r>    5.2371    1.0000 </r>
       <r>    5.3268    1.0000 </r>
       <r>    5.3389    1.0000 </r>
       <r>    5.3982    1.0000 </r>
       <r>    5.4600    1.0000 </r>
       <r>    5.4903    1.0000 </r>
       <r>    5.5491    1.0000 </r>
       <r>    5.5928    1.0000 </r>
       <r>    5.6062    1.0000 </r>
       <r>    5.6271    1.0000 </r>
       <r>    5.6424    1.0000 </r>
       <r>    5.7714    1.0000 </r>
       <r>    5.8371    1.0000 </r>
       <r>    5.9283    1.0000 </r>
       <r>    6.1172    1.0000 </r>
       <r>    6.1773    1.0000 </r>
       <r>    6.2110    1.0001 </r>
       <r>    6.2502    1.0002 </r>
       <r>    6.3145    1.0009 </r>
       <r>    6.3800    1.0034 </r>
       <r>    6.4244    1.0075 </r>
       <r>    6.4653    1.0139 </r>
       <r>    6.4757    1.0160 </r>
       <r>    6.5154    1.0248 </r>
       <r>    6.5395    1.0301 </r>
       <r>    6.5617    1.0339 </r>
       <r>    6.5907    1.0352 </r>
       <r>    6.6674    0.9909 </r>
       <r>    6.8174    0.5449 </r>
       <r>    6.8589    0.3711 </r>
       <r>    6.9313    0.1209 </r>
       <r>    6.9853    0.0135 </r>
       <r>    7.0290   -0.0256 </r>
       <r>    7.1205   -0.0293 </r>
       <r>    7.1928   -0.0135 </r>
       <r>    7.2200   -0.0091 </r>
       <r>    7.2570   -0.0049 </r>
       <r>    7.2766   -0.0034 </r>
       <r>    7.3149   -0.0015 </r>
       <r>    7.4617   -0.0000 </r>
       <r>    7.7082   -0.0000 </r>
       <r>    7.8635   -0.0000 </r>
       <r>    7.9103   -0.0000 </r>
       <r>    7.9974   -0.0000 </r>
       <r>    8.3240   -0.0000 </r>
       <r>    8.4891   -0.0000 </r>
       <r>    8.6408   -0.0000 </r>
       <r>    8.7374   -0.0000 </r>
       <r>    8.8003   -0.0000 </r>
       <r>    8.8084   -0.0000 </r>
       <r>    8.8501   -0.0000 </r>
       <r>    8.8585   -0.0000 </r>
       <r>    8.9308   -0.0000 </r>
       <r>    8.9635   -0.0000 </r>
      </set>
      <set comment="kpoint 2">
       <r>  -47.1140    1.0000 </r>
       <r>  -47.0882    1.0000 </r>
       <r>  -47.0438    1.0000 </r>
       <r>  -46.9874    1.0000 </r>
       <r>  -46.9536    1.0000 </r>
       <r>  -46.8724    1.0000 </r>
       <r>  -23.8142    1.0000 </r>
       <r>  -23.7354    1.0000 </r>
       <r>  -23.5725    1.0000 </r>
       <r>  -23.5270    1.0000 </r>
       <r>  -23.2924    1.0000 </r>
       <r>  -23.2890    1.0000 </r>
       <r>  -23.2808    1.0000 </r>
       <r>  -23.2314    1.0000 </r>
       <r>  -23.2103    1.0000 </r>
       <r>  -23.1957    1.0000 </r>
       <r>  -23.1611    1.0000 </r>
       <r>  -23.1192    1.0000 </r>
       <r>  -23.0906    1.0000 </r>
       <r>  -23.0573    1.0000 </r>
       <r>  -22.9084    1.0000 </r>
       <r>  -22.8885    1.0000 </r>
       <r>  -22.7258    1.0000 </r>
       <r>  -22.6225    1.0000 </r>
       <r>    0.3030    1.0000 </r>
       <r>    1.5906    1.0000 </r>
       <r>    1.9392    1.0000 </r>
       <r>    2.5096    1.0000 </r>
       <r>    2.7689    1.0000 </r>
       <r>    2.8800    1.0000 </r>
       <r>    2.9219    1.0000 </r>
       <r>    3.0295    1.0000 </r>
       <r>    3.0614    1.0000 </r>
       <r>    3.1124    1.0000 </r>
       <r>    3.2483    1.0000 </r>
       <r>    3.3015    1.0000 </r>
       <r>    3.3530    1.0000 </r>
       <r>    3.4485    1.0000 </r>
       <r>    3.4720    1.0000 </r>
       <r>    3.5372    1.0000 </r>
       <r>    3.5912    1.0000 </r>
       <r>    3.6747    1.0000 </r>
       <r>    3.7169    1.0000 </r>
       <r>    3.7637    1.0000 </r>
       <r>    3.8657    1.0000 </r>
       <r>    3.9196    1.0000 </r>
       <r>    3.9866    1.0000 </r>
       <r>    4.0732    1.0000 </r>
       <r>    4.1409    1.0000 </r>
       <r>    4.1786    1.0000 </r>
       <r>    4.2903    1.0000 </r>
       <r>    4.3654    1.0000 </r>
       <r>    4.3881    1.0000 </r>
       <r>    4.4836    1.0000 </r>
       <r>    4.5394    1.0000 </r>
       <r>    4.6111    1.0000 </r>
       <r>    4.6937    1.0000 </r>
       <r>    4.7725    1.0000 </r>
       <r>    4.8886    1.0000 </r>
       <r>    4.9483    1.0000 </r>
       <r>    5.0097    1.0000 </r>
       <r>    5.1400    1.0000 </r>
       <r>    5.1713    1.0000 </r>
       <r>    5.2352    1.0000 </r>
       <r>    5.2643    1.0000 </r>
       <r>    5.3071    1.0000 </r>
       <r>    5.3610    1.0000 </r>
       <r>    5.4168    1.0000 </r>
       <r>    5.4395    1.0000 </r>
       <r>    5.4560    1.0000 </r>
       <r>    5.5211    1.0000 </r>
       <r>    5.5524    1.0000 </r>
       <r>    5.6206    1.0000 </r>
       <r>    5.6443    1.0000 </r>
       <r>    5.7214    1.0000 </r>
       <r>    5.7564    1.0000 </r>
       <r>    5.7803    1.0000 </r>
       <r>    5.8197    1.0000 </r>
       <r>    5.8676    1.0000 </r>
       <r>    5.9016    1.0000 </r>
       <r>    5.9274    1.0000 </r>
       <r>    6.0216    1.0000 </r>
       <r>    6.0792    1.0000 </r>
       <r>    6.1404    1.0000 </r>
       <r>    6.2253    1.0001 </r>
       <r>    6.2766    1.0003 </r>
       <r>    6.3056    1.0007 </r>
       <r>    6.3932    1.0044 </r>
       <r>    6.4830    1.0175 </r>
       <r>    6.4990    1.0210 </r>
       <r>    6.5406    1.0303 </r>
       <r>    6.5557    1.0331 </r>
       <r>    6.6114    1.0317 </r>
       <r>    6.6435    1.0151 </r>
       <r>    6.7215    0.8875 </r>
       <r>    6.7386    0.8396 </r>
       <r>    6.8075    0.5861 </r>
       <r>    6.8462    0.4233 </r>
       <r>    6.9083    0.1887 </r>
       <r>    6.9654    0.0447 </r>
       <r>    6.9895    0.0081 </r>
       <r>    7.0379   -0.0295 </r>
       <r>    7.1319   -0.0268 </r>
       <r>    7.1651   -0.0192 </r>
       <r>    7.2130   -0.0101 </r>
       <r>    7.2287   -0.0079 </r>
       <r>    7.2872   -0.0027 </r>
       <r>    7.4679   -0.0000 </r>
       <r>    7.6260   -0.0000 </r>
       <r>    7.7269   -0.0000 </r>
       <r>    8.0097   -0.0000 </r>
       <r>    8.0449   -0.0000 </r>
       <r>    8.1002   -0.0000 </r>
       <r>    8.1243   -0.0000 </r>
       <r>    8.2247   -0.0000 </r>
       <r>    8.3894   -0.0000 </r>
       <r>    8.4407   -0.0000 </r>
       <r>    8.5000   -0.0000 </r>
       <r>    8.5194   -0.0000 </r>
       <r>    8.5509   -0.0000 </r>
      </set>
      <set comment="kpoint 3">
       <r>  -47.1102    1.0000 </r>
       <r>  -47.0761    1.0000 </r>
       <r>  -47.0365    1.0000 </r>
       <r>  -46.9839    1.0000 </r>
       <r>  -46.9515    1.0000 </r>
       <r>  -46.9001    1.0000 </r>
       <r>  -23.7595    1.0000 </r>
       <r>  -23.5976    1.0000 </r>
       <r>  -23.5432    1.0000 </r>
       <r>  -23.4161    1.0000 </r>
       <r>  -23.3003    1.0000 </r>
       <r>  -23.2926    1.0000 </r>
       <r>  -23.2661    1.0000 </r>
       <r>  -23.2339    1.0000 </r>
       <r>  -23.2097    1.0000 </r>
       <r>  -23.1978    1.0000 </r>
       <r>  -23.1661    1.0000 </r>
       <r>  -23.1296    1.0000 </r>
       <r>  -23.1129    1.0000 </r>
       <r>  -23.0636    1.0000 </r>
       <r>  -22.9976    1.0000 </r>
       <r>  -22.9141    1.0000 </r>
       <r>  -22.8794    1.0000 </r>
       <r>  -22.7197    1.0000 </r>
       <r>    1.1615    1.0000 </r>
       <r>    2.1205    1.0000 </r>
       <r>    2.4563    1.0000 </r>
       <r>    2.6722    1.0000 </r>
       <r>    2.7499    1.0000 </r>
       <r>    3.0975    1.0000 </r>
       <r>    3.1573    1.0000 </r>
       <r>    3.3353    1.0000 </r>
       <r>    3.4307    1.0000 </r>
       <r>    3.4769    1.0000 </r>
       <r>    3.5264    1.0000 </r>
       <r>    3.5609    1.0000 </r>
       <r>    3.6118    1.0000 </r>
       <r>    3.6539    1.0000 </r>
       <r>    3.7470    1.0000 </r>
       <r>    3.8052    1.0000 </r>
       <r>    3.8822    1.0000 </r>
       <r>    3.9174    1.0000 </r>
       <r>    3.9494    1.0000 </r>
       <r>    4.0239    1.0000 </r>
       <r>    4.1230    1.0000 </r>
       <r>    4.1311    1.0000 </r>
       <r>    4.2150    1.0000 </r>
       <r>    4.2559    1.0000 </r>
       <r>    4.3497    1.0000 </r>
       <r>    4.3672    1.0000 </r>
       <r>    4.5064    1.0000 </r>
       <r>    4.5622    1.0000 </r>
       <r>    4.6211    1.0000 </r>
       <r>    4.7029    1.0000 </r>
       <r>    4.7555    1.0000 </r>
       <r>    4.8332    1.0000 </r>
       <r>    4.9066    1.0000 </r>
       <r>    4.9590    1.0000 </r>
       <r>    4.9907    1.0000 </r>
       <r>    5.0552    1.0000 </r>
       <r>    5.0831    1.0000 </r>
       <r>    5.1322    1.0000 </r>
       <r>    5.1933    1.0000 </r>
       <r>    5.2269    1.0000 </r>
       <r>    5.2636    1.0000 </r>
       <r>    5.3431    1.0000 </r>
       <r>    5.3707    1.0000 </r>
       <r>    5.4017    1.0000 </r>
       <r>    5.4403    1.0000 </r>
       <r>    5.5113    1.0000 </r>
       <r>    5.5547    1.0000 </r>
       <r>    5.6180    1.0000 </r>
       <r>    5.6575    1.0000 </r>
       <r>    5.7038    1.0000 </r>
       <r>    5.7356    1.0000 </r>
       <r>    5.8036    1.0000 </r>
       <r>    5.8552    1.0000 </r>
       <r>    5.8817    1.0000 </r>
       <r>    5.8912    1.0000 </r>
       <r>    5.9472    1.0000 </r>
       <r>    6.0419    1.0000 </r>
       <r>    6.0831    1.0000 </r>
       <r>    6.1183    1.0000 </r>
       <r>    6.1650    1.0000 </r>
       <r>    6.2251    1.0001 </r>
       <r>    6.2661    1.0003 </r>
       <r>    6.3407    1.0015 </r>
       <r>    6.3752    1.0031 </r>
       <r>    6.4083    1.0057 </r>
       <r>    6.4386    1.0095 </r>
       <r>    6.4758    1.0160 </r>
       <r>    6.5162    1.0250 </r>
       <r>    6.5382    1.0299 </r>
       <r>    6.5826    1.0355 </r>
       <r>    6.5883    1.0354 </r>
       <r>    6.6640    0.9950 </r>
       <r>    6.7128    0.9090 </r>
       <r>    6.7529    0.7944 </r>
       <r>    6.7867    0.6707 </r>
       <r>    6.8005    0.6154 </r>
       <r>    6.8397    0.4507 </r>
       <r>    6.8906    0.2489 </r>
       <r>    6.8988    0.2201 </r>
       <r>    6.9757    0.0274 </r>
       <r>    6.9880    0.0099 </r>
       <r>    7.0632   -0.0351 </r>
       <r>    7.1141   -0.0306 </r>
       <r>    7.1455   -0.0236 </r>
       <r>    7.1679   -0.0186 </r>
       <r>    7.2407   -0.0065 </r>
       <r>    7.2818   -0.0031 </r>
       <r>    7.3286   -0.0011 </r>
       <r>    7.6181   -0.0000 </r>
       <r>    7.7413   -0.0000 </r>
       <r>    7.7643   -0.0000 </r>
       <r>    7.9064   -0.0000 </r>
       <r>    7.9927   -0.0000 </r>
       <r>    8.0119   -0.0000 </r>
       <r>    8.1367   -0.0000 </r>
       <r>    8.2560   -0.0000 </r>
      </set>
      <set comment="kpoint 4">
       <r>  -47.1175    1.0000 </r>
       <r>  -47.0944    1.0000 </r>
       <r>  -47.0463    1.0000 </r>
       <r>  -46.9888    1.0000 </r>
       <r>  -46.9543    1.0000 </r>
       <r>  -46.8587    1.0000 </r>
       <r>  -23.9177    1.0000 </r>
       <r>  -23.7464    1.0000 </r>
       <r>  -23.5761    1.0000 </r>
       <r>  -23.5323    1.0000 </r>
       <r>  -23.2963    1.0000 </r>
       <r>  -23.2876    1.0000 </r>
       <r>  -23.2806    1.0000 </r>
       <r>  -23.2288    1.0000 </r>
       <r>  -23.2111    1.0000 </r>
       <r>  -23.1902    1.0000 </r>
       <r>  -23.1584    1.0000 </r>
       <r>  -23.1148    1.0000 </r>
       <r>  -23.0797    1.0000 </r>
       <r>  -23.0545    1.0000 </r>
       <r>  -22.9046    1.0000 </r>
       <r>  -22.8867    1.0000 </r>
       <r>  -22.7237    1.0000 </r>
       <r>  -22.4859    1.0000 </r>
       <r>    0.1167    1.0000 </r>
       <r>    1.3732    1.0000 </r>
       <r>    1.7916    1.0000 </r>
       <r>    2.0110    1.0000 </r>
       <r>    2.5484    1.0000 </r>
       <r>    2.6829    1.0000 </r>
       <r>    2.7546    1.0000 </r>
       <r>    2.8477    1.0000 </r>
       <r>    2.8802    1.0000 </r>
       <r>    2.9656    1.0000 </r>
       <r>    3.0677    1.0000 </r>
       <r>    3.1207    1.0000 </r>
       <r>    3.1572    1.0000 </r>
       <r>    3.1957    1.0000 </r>
       <r>    3.2503    1.0000 </r>
       <r>    3.3008    1.0000 </r>
       <r>    3.4734    1.0000 </r>
       <r>    3.5423    1.0000 </r>
       <r>    3.6221    1.0000 </r>
       <r>    3.6869    1.0000 </r>
       <r>    3.7870    1.0000 </r>
       <r>    3.8778    1.0000 </r>
       <r>    3.9136    1.0000 </r>
       <r>    4.0051    1.0000 </r>
       <r>    4.0527    1.0000 </r>
       <r>    4.1473    1.0000 </r>
       <r>    4.2198    1.0000 </r>
       <r>    4.2834    1.0000 </r>
       <r>    4.3119    1.0000 </r>
       <r>    4.3775    1.0000 </r>
       <r>    4.4512    1.0000 </r>
       <r>    4.5325    1.0000 </r>
       <r>    4.6256    1.0000 </r>
       <r>    4.7892    1.0000 </r>
       <r>    4.8678    1.0000 </r>
       <r>    4.9354    1.0000 </r>
       <r>    4.9744    1.0000 </r>
       <r>    5.0909    1.0000 </r>
       <r>    5.1262    1.0000 </r>
       <r>    5.1754    1.0000 </r>
       <r>    5.2257    1.0000 </r>
       <r>    5.2600    1.0000 </r>
       <r>    5.3222    1.0000 </r>
       <r>    5.3712    1.0000 </r>
       <r>    5.4003    1.0000 </r>
       <r>    5.4287    1.0000 </r>
       <r>    5.4852    1.0000 </r>
       <r>    5.5136    1.0000 </r>
       <r>    5.5543    1.0000 </r>
       <r>    5.6184    1.0000 </r>
       <r>    5.6575    1.0000 </r>
       <r>    5.6934    1.0000 </r>
       <r>    5.7406    1.0000 </r>
       <r>    5.7693    1.0000 </r>
       <r>    5.8790    1.0000 </r>
       <r>    5.9189    1.0000 </r>
       <r>    6.1359    1.0000 </r>
       <r>    6.1604    1.0000 </r>
       <r>    6.2416    1.0001 </r>
       <r>    6.2699    1.0003 </r>
       <r>    6.3112    1.0008 </r>
       <r>    6.3208    1.0010 </r>
       <r>    6.3530    1.0020 </r>
       <r>    6.4023    1.0052 </r>
       <r>    6.4470    1.0107 </r>
       <r>    6.4655    1.0139 </r>
       <r>    6.5101    1.0235 </r>
       <r>    6.5371    1.0296 </r>
       <r>    6.5767    1.0353 </r>
       <r>    6.6176    1.0297 </r>
       <r>    6.6692    0.9885 </r>
       <r>    6.6859    0.9635 </r>
       <r>    6.7555    0.7857 </r>
       <r>    6.8124    0.5657 </r>
       <r>    6.8658    0.3431 </r>
       <r>    7.1617   -0.0199 </r>
       <r>    7.1901   -0.0140 </r>
       <r>    7.2089   -0.0108 </r>
       <r>    7.3162   -0.0015 </r>
       <r>    7.3653   -0.0005 </r>
       <r>    7.5084   -0.0000 </r>
       <r>    7.5484   -0.0000 </r>
       <r>    7.6846   -0.0000 </r>
       <r>    7.8303   -0.0000 </r>
       <r>    7.9037   -0.0000 </r>
       <r>    7.9811   -0.0000 </r>
       <r>    8.0735   -0.0000 </r>
       <r>    8.1844   -0.0000 </r>
       <r>    8.3160   -0.0000 </r>
       <r>    8.4860   -0.0000 </r>
       <r>    8.5625   -0.0000 </r>
       <r>    8.6951   -0.0000 </r>
       <r>    8.7221   -0.0000 </r>
       <r>    8.7826   -0.0000 </r>
       <r>    8.8194   -0.0000 </r>
       <r>    8.8671   -0.0000 </r>
      </set>
      <set comment="kpoint 5">
       <r>  -47.1142    1.0000 </r>
       <r>  -47.0884    1.0000 </r>
       <r>  -47.0438    1.0000 </r>
       <r>  -46.9871    1.0000 </r>
       <r>  -46.9535    1.0000 </r>
       <r>  -46.8724    1.0000 </r>
       <r>  -23.8143    1.0000 </r>
       <r>  -23.7367    1.0000 </r>
       <r>  -23.5770    1.0000 </r>
       <r>  -23.5277    1.0000 </r>
       <r>  -23.2924    1.0000 </r>
       <r>  -23.2890    1.0000 </r>
       <r>  -23.2807    1.0000 </r>
       <r>  -23.2315    1.0000 </r>
       <r>  -23.2102    1.0000 </r>
       <r>  -23.1957    1.0000 </r>
       <r>  -23.1611    1.0000 </r>
       <r>  -23.1192    1.0000 </r>
       <r>  -23.0905    1.0000 </r>
       <r>  -23.0572    1.0000 </r>
       <r>  -22.9064    1.0000 </r>
       <r>  -22.8832    1.0000 </r>
       <r>  -22.7254    1.0000 </r>
       <r>  -22.6225    1.0000 </r>
       <r>    0.3079    1.0000 </r>
       <r>    1.5499    1.0000 </r>
       <r>    1.9674    1.0000 </r>
       <r>    2.4827    1.0000 </r>
       <r>    2.7119    1.0000 </r>
       <r>    2.8633    1.0000 </r>
       <r>    2.8863    1.0000 </r>
       <r>    2.9535    1.0000 </r>
       <r>    3.0190    1.0000 </r>
       <r>    3.1113    1.0000 </r>
       <r>    3.1685    1.0000 </r>
       <r>    3.2648    1.0000 </r>
       <r>    3.3510    1.0000 </r>
       <r>    3.4141    1.0000 </r>
       <r>    3.4551    1.0000 </r>
       <r>    3.5113    1.0000 </r>
       <r>    3.5622    1.0000 </r>
       <r>    3.5750    1.0000 </r>
       <r>    3.7634    1.0000 </r>
       <r>    3.8015    1.0000 </r>
       <r>    3.8662    1.0000 </r>
       <r>    3.9485    1.0000 </r>
       <r>    3.9939    1.0000 </r>
       <r>    4.0852    1.0000 </r>
       <r>    4.2041    1.0000 </r>
       <r>    4.2503    1.0000 </r>
       <r>    4.2855    1.0000 </r>
       <r>    4.3785    1.0000 </r>
       <r>    4.4421    1.0000 </r>
       <r>    4.5153    1.0000 </r>
       <r>    4.5816    1.0000 </r>
       <r>    4.6320    1.0000 </r>
       <r>    4.7522    1.0000 </r>
       <r>    4.8288    1.0000 </r>
       <r>    4.8952    1.0000 </r>
       <r>    4.9813    1.0000 </r>
       <r>    5.0313    1.0000 </r>
       <r>    5.0578    1.0000 </r>
       <r>    5.1507    1.0000 </r>
       <r>    5.1706    1.0000 </r>
       <r>    5.2079    1.0000 </r>
       <r>    5.2955    1.0000 </r>
       <r>    5.3305    1.0000 </r>
       <r>    5.3739    1.0000 </r>
       <r>    5.4126    1.0000 </r>
       <r>    5.4408    1.0000 </r>
       <r>    5.4772    1.0000 </r>
       <r>    5.4939    1.0000 </r>
       <r>    5.5254    1.0000 </r>
       <r>    5.5845    1.0000 </r>
       <r>    5.6142    1.0000 </r>
       <r>    5.6791    1.0000 </r>
       <r>    5.7709    1.0000 </r>
       <r>    5.7913    1.0000 </r>
       <r>    5.8814    1.0000 </r>
       <r>    5.9403    1.0000 </r>
       <r>    5.9984    1.0000 </r>
       <r>    6.0668    1.0000 </r>
       <r>    6.1377    1.0000 </r>
       <r>    6.1524    1.0000 </r>
       <r>    6.2160    1.0001 </r>
       <r>    6.2720    1.0003 </r>
       <r>    6.3177    1.0009 </r>
       <r>    6.4077    1.0057 </r>
       <r>    6.4445    1.0103 </r>
       <r>    6.4749    1.0158 </r>
       <r>    6.5101    1.0235 </r>
       <r>    6.5406    1.0303 </r>
       <r>    6.5809    1.0354 </r>
       <r>    6.6115    1.0317 </r>
       <r>    6.7022    0.9327 </r>
       <r>    6.7708    0.7316 </r>
       <r>    6.8043    0.5997 </r>
       <r>    6.9060    0.1962 </r>
       <r>    6.9507    0.0740 </r>
       <r>    7.0018   -0.0056 </r>
       <r>    7.0589   -0.0346 </r>
       <r>    7.1199   -0.0294 </r>
       <r>    7.1886   -0.0143 </r>
       <r>    7.2030   -0.0117 </r>
       <r>    7.2579   -0.0048 </r>
       <r>    7.3489   -0.0007 </r>
       <r>    7.4031   -0.0002 </r>
       <r>    7.4527   -0.0000 </r>
       <r>    7.5115   -0.0000 </r>
       <r>    7.5754   -0.0000 </r>
       <r>    7.6177   -0.0000 </r>
       <r>    8.0658   -0.0000 </r>
       <r>    8.3265   -0.0000 </r>
       <r>    8.4348   -0.0000 </r>
       <r>    8.5133   -0.0000 </r>
       <r>    8.5474   -0.0000 </r>
       <r>    8.7100   -0.0000 </r>
       <r>    8.7749   -0.0000 </r>
       <r>    8.8167   -0.0000 </r>
       <r>    8.8863   -0.0000 </r>
      </set>
      <set comment="kpoint 6">
       <r>  -47.1105    1.0000 </r>
       <r>  -47.0763    1.0000 </r>
       <r>  -47.0365    1.0000 </r>
       <r>  -46.9834    1.0000 </r>
       <r>  -46.9513    1.0000 </r>
       <r>  -46.9001    1.0000 </r>
       <r>  -23.7612    1.0000 </r>
       <r>  -23.6015    1.0000 </r>
       <r>  -23.5485    1.0000 </r>
       <r>  -23.4161    1.0000 </r>
       <r>  -23.3004    1.0000 </r>
       <r>  -23.2925    1.0000 </r>
       <r>  -23.2660    1.0000 </r>
       <r>  -23.2339    1.0000 </r>
       <r>  -23.2096    1.0000 </r>
       <r>  -23.1977    1.0000 </r>
       <r>  -23.1661    1.0000 </r>
       <r>  -23.1296    1.0000 </r>
       <r>  -23.1128    1.0000 </r>
       <r>  -23.0635    1.0000 </r>
       <r>  -22.9975    1.0000 </r>
       <r>  -22.9050    1.0000 </r>
       <r>  -22.8763    1.0000 </r>
       <r>  -22.7192    1.0000 </r>
       <r>    1.0642    1.0000 </r>
       <r>    2.0565    1.0000 </r>
       <r>    2.4071    1.0000 </r>
       <r>    2.6028    1.0000 </r>
       <r>    2.7262    1.0000 </r>
       <r>    2.8648    1.0000 </r>
       <r>    3.1452    1.0000 </r>
       <r>    3.3442    1.0000 </r>
       <r>    3.4764    1.0000 </r>
       <r>    3.5075    1.0000 </r>
       <r>    3.5752    1.0000 </r>
       <r>    3.6288    1.0000 </r>
       <r>    3.6573    1.0000 </r>
       <r>    3.7312    1.0000 </r>
       <r>    3.7602    1.0000 </r>
       <r>    3.8305    1.0000 </r>
       <r>    3.8962    1.0000 </r>
       <r>    3.9142    1.0000 </r>
       <r>    4.0083    1.0000 </r>
       <r>    4.0576    1.0000 </r>
       <r>    4.0714    1.0000 </r>
       <r>    4.1213    1.0000 </r>
       <r>    4.1918    1.0000 </r>
       <r>    4.2666    1.0000 </r>
       <r>    4.3404    1.0000 </r>
       <r>    4.4092    1.0000 </r>
       <r>    4.4659    1.0000 </r>
       <r>    4.5347    1.0000 </r>
       <r>    4.5834    1.0000 </r>
       <r>    4.6177    1.0000 </r>
       <r>    4.6911    1.0000 </r>
       <r>    4.7425    1.0000 </r>
       <r>    4.8001    1.0000 </r>
       <r>    4.8871    1.0000 </r>
       <r>    4.9625    1.0000 </r>
       <r>    5.0809    1.0000 </r>
       <r>    5.1123    1.0000 </r>
       <r>    5.1316    1.0000 </r>
       <r>    5.1974    1.0000 </r>
       <r>    5.2546    1.0000 </r>
       <r>    5.2882    1.0000 </r>
       <r>    5.3469    1.0000 </r>
       <r>    5.3707    1.0000 </r>
       <r>    5.4316    1.0000 </r>
       <r>    5.4581    1.0000 </r>
       <r>    5.5123    1.0000 </r>
       <r>    5.5661    1.0000 </r>
       <r>    5.5780    1.0000 </r>
       <r>    5.6239    1.0000 </r>
       <r>    5.6720    1.0000 </r>
       <r>    5.7144    1.0000 </r>
       <r>    5.7587    1.0000 </r>
       <r>    5.7894    1.0000 </r>
       <r>    5.8828    1.0000 </r>
       <r>    5.9179    1.0000 </r>
       <r>    5.9906    1.0000 </r>
       <r>    6.0220    1.0000 </r>
       <r>    6.0920    1.0000 </r>
       <r>    6.1473    1.0000 </r>
       <r>    6.1682    1.0000 </r>
       <r>    6.1892    1.0000 </r>
       <r>    6.2320    1.0001 </r>
       <r>    6.3018    1.0006 </r>
       <r>    6.3242    1.0011 </r>
       <r>    6.3694    1.0028 </r>
       <r>    6.4086    1.0058 </r>
       <r>    6.4355    1.0090 </r>
       <r>    6.4807    1.0170 </r>
       <r>    6.5076    1.0230 </r>
       <r>    6.5382    1.0298 </r>
       <r>    6.5748    1.0352 </r>
       <r>    6.6006    1.0341 </r>
       <r>    6.6501    1.0095 </r>
       <r>    6.6829    0.9685 </r>
       <r>    6.7141    0.9059 </r>
       <r>    6.7415    0.8307 </r>
       <r>    6.7776    0.7058 </r>
       <r>    6.8418    0.4417 </r>
       <r>    6.8990    0.2196 </r>
       <r>    6.9232    0.1433 </r>
       <r>    6.9860    0.0126 </r>
       <r>    6.9914    0.0057 </r>
       <r>    7.1128   -0.0309 </r>
       <r>    7.2208   -0.0090 </r>
       <r>    7.2634   -0.0043 </r>
       <r>    7.3552   -0.0006 </r>
       <r>    7.4299   -0.0001 </r>
       <r>    7.7880   -0.0000 </r>
       <r>    7.9126   -0.0000 </r>
       <r>    7.9789   -0.0000 </r>
       <r>    8.0663   -0.0000 </r>
       <r>    8.1864   -0.0000 </r>
       <r>    8.2522   -0.0000 </r>
       <r>    8.3131   -0.0000 </r>
       <r>    8.3707   -0.0000 </r>
       <r>    8.4121   -0.0000 </r>
      </set>
      <set comment="kpoint 7">
       <r>  -47.1101    1.0000 </r>
       <r>  -47.0761    1.0000 </r>
       <r>  -47.0365    1.0000 </r>
       <r>  -46.9839    1.0000 </r>
       <r>  -46.9515    1.0000 </r>
       <r>  -46.9001    1.0000 </r>
       <r>  -23.7595    1.0000 </r>
       <r>  -23.5976    1.0000 </r>
       <r>  -23.5431    1.0000 </r>
       <r>  -23.4161    1.0000 </r>
       <r>  -23.3005    1.0000 </r>
       <r>  -23.2926    1.0000 </r>
       <r>  -23.2661    1.0000 </r>
       <r>  -23.2340    1.0000 </r>
       <r>  -23.2095    1.0000 </r>
       <r>  -23.1978    1.0000 </r>
       <r>  -23.1660    1.0000 </r>
       <r>  -23.1296    1.0000 </r>
       <r>  -23.1129    1.0000 </r>
       <r>  -23.0636    1.0000 </r>
       <r>  -22.9976    1.0000 </r>
       <r>  -22.9141    1.0000 </r>
       <r>  -22.8794    1.0000 </r>
       <r>  -22.7197    1.0000 </r>
       <r>    1.4297    1.0000 </r>
       <r>    2.1078    1.0000 </r>
       <r>    2.2319    1.0000 </r>
       <r>    2.5234    1.0000 </r>
       <r>    2.7905    1.0000 </r>
       <r>    3.0196    1.0000 </r>
       <r>    3.1227    1.0000 </r>
       <r>    3.2101    1.0000 </r>
       <r>    3.4305    1.0000 </r>
       <r>    3.4553    1.0000 </r>
       <r>    3.5177    1.0000 </r>
       <r>    3.5412    1.0000 </r>
       <r>    3.5934    1.0000 </r>
       <r>    3.6747    1.0000 </r>
       <r>    3.7489    1.0000 </r>
       <r>    3.8172    1.0000 </r>
       <r>    3.8550    1.0000 </r>
       <r>    3.9034    1.0000 </r>
       <r>    3.9782    1.0000 </r>
       <r>    4.0138    1.0000 </r>
       <r>    4.0969    1.0000 </r>
       <r>    4.2024    1.0000 </r>
       <r>    4.2363    1.0000 </r>
       <r>    4.3492    1.0000 </r>
       <r>    4.4134    1.0000 </r>
       <r>    4.4673    1.0000 </r>
       <r>    4.5075    1.0000 </r>
       <r>    4.5523    1.0000 </r>
       <r>    4.6233    1.0000 </r>
       <r>    4.7314    1.0000 </r>
       <r>    4.8205    1.0000 </r>
       <r>    4.8988    1.0000 </r>
       <r>    4.9515    1.0000 </r>
       <r>    4.9824    1.0000 </r>
       <r>    4.9978    1.0000 </r>
       <r>    5.0434    1.0000 </r>
       <r>    5.0595    1.0000 </r>
       <r>    5.1415    1.0000 </r>
       <r>    5.1572    1.0000 </r>
       <r>    5.2188    1.0000 </r>
       <r>    5.2720    1.0000 </r>
       <r>    5.3249    1.0000 </r>
       <r>    5.3762    1.0000 </r>
       <r>    5.4187    1.0000 </r>
       <r>    5.4559    1.0000 </r>
       <r>    5.4716    1.0000 </r>
       <r>    5.4907    1.0000 </r>
       <r>    5.5917    1.0000 </r>
       <r>    5.6183    1.0000 </r>
       <r>    5.6743    1.0000 </r>
       <r>    5.7391    1.0000 </r>
       <r>    5.7520    1.0000 </r>
       <r>    5.8089    1.0000 </r>
       <r>    5.8385    1.0000 </r>
       <r>    5.9210    1.0000 </r>
       <r>    5.9740    1.0000 </r>
       <r>    6.0005    1.0000 </r>
       <r>    6.0536    1.0000 </r>
       <r>    6.0799    1.0000 </r>
       <r>    6.1530    1.0000 </r>
       <r>    6.2422    1.0001 </r>
       <r>    6.2822    1.0004 </r>
       <r>    6.3242    1.0011 </r>
       <r>    6.3713    1.0029 </r>
       <r>    6.4131    1.0062 </r>
       <r>    6.4556    1.0122 </r>
       <r>    6.5037    1.0221 </r>
       <r>    6.5230    1.0265 </r>
       <r>    6.5482    1.0318 </r>
       <r>    6.5849    1.0354 </r>
       <r>    6.6264    1.0259 </r>
       <r>    6.6767    0.9781 </r>
       <r>    6.7171    0.8985 </r>
       <r>    6.7656    0.7503 </r>
       <r>    6.7933    0.6445 </r>
       <r>    6.8105    0.5738 </r>
       <r>    6.8382    0.4569 </r>
       <r>    6.8718    0.3197 </r>
       <r>    6.8942    0.2362 </r>
       <r>    6.9465    0.0834 </r>
       <r>    6.9827    0.0171 </r>
       <r>    7.0221   -0.0218 </r>
       <r>    7.0606   -0.0348 </r>
       <r>    7.0819   -0.0352 </r>
       <r>    7.1928   -0.0135 </r>
       <r>    7.2466   -0.0059 </r>
       <r>    7.3866   -0.0003 </r>
       <r>    7.4181   -0.0001 </r>
       <r>    7.4457   -0.0001 </r>
       <r>    7.5658   -0.0000 </r>
       <r>    7.8426   -0.0000 </r>
       <r>    8.0267   -0.0000 </r>
       <r>    8.2526   -0.0000 </r>
       <r>    8.2659   -0.0000 </r>
       <r>    8.3217   -0.0000 </r>
       <r>    8.3572   -0.0000 </r>
      </set>
      <set comment="kpoint 8">
       <r>  -47.1137    1.0000 </r>
       <r>  -47.0879    1.0000 </r>
       <r>  -47.0437    1.0000 </r>
       <r>  -46.9879    1.0000 </r>
       <r>  -46.9538    1.0000 </r>
       <r>  -46.8724    1.0000 </r>
       <r>  -23.8140    1.0000 </r>
       <r>  -23.7335    1.0000 </r>
       <r>  -23.5652    1.0000 </r>
       <r>  -23.5253    1.0000 </r>
       <r>  -23.2924    1.0000 </r>
       <r>  -23.2893    1.0000 </r>
       <r>  -23.2810    1.0000 </r>
       <r>  -23.2315    1.0000 </r>
       <r>  -23.2103    1.0000 </r>
       <r>  -23.1957    1.0000 </r>
       <r>  -23.1609    1.0000 </r>
       <r>  -23.1191    1.0000 </r>
       <r>  -23.0907    1.0000 </r>
       <r>  -23.0574    1.0000 </r>
       <r>  -22.9144    1.0000 </r>
       <r>  -22.8947    1.0000 </r>
       <r>  -22.7264    1.0000 </r>
       <r>  -22.6225    1.0000 </r>
       <r>    0.5498    1.0000 </r>
       <r>    1.6993    1.0000 </r>
       <r>    1.9524    1.0000 </r>
       <r>    2.1457    1.0000 </r>
       <r>    2.6955    1.0000 </r>
       <r>    2.9140    1.0000 </r>
       <r>    3.0037    1.0000 </r>
       <r>    3.0717    1.0000 </r>
       <r>    3.0865    1.0000 </r>
       <r>    3.1298    1.0000 </r>
       <r>    3.2636    1.0000 </r>
       <r>    3.3037    1.0000 </r>
       <r>    3.3635    1.0000 </r>
       <r>    3.3984    1.0000 </r>
       <r>    3.4346    1.0000 </r>
       <r>    3.4854    1.0000 </r>
       <r>    3.5305    1.0000 </r>
       <r>    3.6052    1.0000 </r>
       <r>    3.7130    1.0000 </r>
       <r>    3.7747    1.0000 </r>
       <r>    3.8582    1.0000 </r>
       <r>    3.9282    1.0000 </r>
       <r>    3.9981    1.0000 </r>
       <r>    4.1176    1.0000 </r>
       <r>    4.1616    1.0000 </r>
       <r>    4.2217    1.0000 </r>
       <r>    4.2658    1.0000 </r>
       <r>    4.3358    1.0000 </r>
       <r>    4.3969    1.0000 </r>
       <r>    4.4872    1.0000 </r>
       <r>    4.5664    1.0000 </r>
       <r>    4.6488    1.0000 </r>
       <r>    4.8064    1.0000 </r>
       <r>    4.8572    1.0000 </r>
       <r>    4.9288    1.0000 </r>
       <r>    4.9881    1.0000 </r>
       <r>    5.0830    1.0000 </r>
       <r>    5.1347    1.0000 </r>
       <r>    5.1600    1.0000 </r>
       <r>    5.2545    1.0000 </r>
       <r>    5.3351    1.0000 </r>
       <r>    5.3423    1.0000 </r>
       <r>    5.4368    1.0000 </r>
       <r>    5.4515    1.0000 </r>
       <r>    5.4980    1.0000 </r>
       <r>    5.5169    1.0000 </r>
       <r>    5.6123    1.0000 </r>
       <r>    5.6582    1.0000 </r>
       <r>    5.6612    1.0000 </r>
       <r>    5.7095    1.0000 </r>
       <r>    5.7594    1.0000 </r>
       <r>    5.8034    1.0000 </r>
       <r>    5.8456    1.0000 </r>
       <r>    5.8597    1.0000 </r>
       <r>    5.8811    1.0000 </r>
       <r>    5.9501    1.0000 </r>
       <r>    5.9714    1.0000 </r>
       <r>    6.0090    1.0000 </r>
       <r>    6.0507    1.0000 </r>
       <r>    6.1079    1.0000 </r>
       <r>    6.1918    1.0000 </r>
       <r>    6.2969    1.0006 </r>
       <r>    6.3210    1.0010 </r>
       <r>    6.3754    1.0031 </r>
       <r>    6.4302    1.0083 </r>
       <r>    6.4640    1.0137 </r>
       <r>    6.5064    1.0227 </r>
       <r>    6.5685    1.0347 </r>
       <r>    6.6160    1.0303 </r>
       <r>    6.6755    0.9799 </r>
       <r>    6.7061    0.9242 </r>
       <r>    6.7397    0.8362 </r>
       <r>    6.7791    0.7003 </r>
       <r>    6.7958    0.6343 </r>
       <r>    6.8150    0.5550 </r>
       <r>    6.8996    0.2175 </r>
       <r>    6.9439    0.0894 </r>
       <r>    6.9664    0.0430 </r>
       <r>    7.0044   -0.0081 </r>
       <r>    7.0307   -0.0265 </r>
       <r>    7.0752   -0.0354 </r>
       <r>    7.1380   -0.0254 </r>
       <r>    7.1791   -0.0162 </r>
       <r>    7.3699   -0.0004 </r>
       <r>    7.4933   -0.0000 </r>
       <r>    7.5527   -0.0000 </r>
       <r>    7.6314   -0.0000 </r>
       <r>    7.7534   -0.0000 </r>
       <r>    8.0626   -0.0000 </r>
       <r>    8.0832   -0.0000 </r>
       <r>    8.1256   -0.0000 </r>
       <r>    8.2123   -0.0000 </r>
       <r>    8.3046   -0.0000 </r>
       <r>    8.3865   -0.0000 </r>
       <r>    8.4406   -0.0000 </r>
       <r>    8.5734   -0.0000 </r>
      </set>
      <set comment="kpoint 9">
       <r>  -47.1173    1.0000 </r>
       <r>  -47.0940    1.0000 </r>
       <r>  -47.0462    1.0000 </r>
       <r>  -46.9892    1.0000 </r>
       <r>  -46.9545    1.0000 </r>
       <r>  -46.8587    1.0000 </r>
       <r>  -23.9178    1.0000 </r>
       <r>  -23.7444    1.0000 </r>
       <r>  -23.5697    1.0000 </r>
       <r>  -23.5296    1.0000 </r>
       <r>  -23.2966    1.0000 </r>
       <r>  -23.2876    1.0000 </r>
       <r>  -23.2809    1.0000 </r>
       <r>  -23.2290    1.0000 </r>
       <r>  -23.2111    1.0000 </r>
       <r>  -23.1900    1.0000 </r>
       <r>  -23.1581    1.0000 </r>
       <r>  -23.1147    1.0000 </r>
       <r>  -23.0798    1.0000 </r>
       <r>  -23.0546    1.0000 </r>
       <r>  -22.9120    1.0000 </r>
       <r>  -22.8916    1.0000 </r>
       <r>  -22.7243    1.0000 </r>
       <r>  -22.4859    1.0000 </r>
       <r>    0.4707    1.0000 </r>
       <r>    1.2576    1.0000 </r>
       <r>    1.6190    1.0000 </r>
       <r>    2.0960    1.0000 </r>
       <r>    2.4176    1.0000 </r>
       <r>    2.6344    1.0000 </r>
       <r>    2.7588    1.0000 </r>
       <r>    2.8305    1.0000 </r>
       <r>    2.8826    1.0000 </r>
       <r>    2.9459    1.0000 </r>
       <r>    3.0392    1.0000 </r>
       <r>    3.1499    1.0000 </r>
       <r>    3.1798    1.0000 </r>
       <r>    3.2484    1.0000 </r>
       <r>    3.2714    1.0000 </r>
       <r>    3.3386    1.0000 </r>
       <r>    3.4538    1.0000 </r>
       <r>    3.5223    1.0000 </r>
       <r>    3.5987    1.0000 </r>
       <r>    3.7206    1.0000 </r>
       <r>    3.7647    1.0000 </r>
       <r>    3.8298    1.0000 </r>
       <r>    3.8642    1.0000 </r>
       <r>    3.9243    1.0000 </r>
       <r>    3.9939    1.0000 </r>
       <r>    4.1163    1.0000 </r>
       <r>    4.1961    1.0000 </r>
       <r>    4.2452    1.0000 </r>
       <r>    4.2845    1.0000 </r>
       <r>    4.3328    1.0000 </r>
       <r>    4.4737    1.0000 </r>
       <r>    4.5935    1.0000 </r>
       <r>    4.8394    1.0000 </r>
       <r>    4.9183    1.0000 </r>
       <r>    4.9668    1.0000 </r>
       <r>    5.0369    1.0000 </r>
       <r>    5.0863    1.0000 </r>
       <r>    5.1504    1.0000 </r>
       <r>    5.2306    1.0000 </r>
       <r>    5.2709    1.0000 </r>
       <r>    5.2915    1.0000 </r>
       <r>    5.3270    1.0000 </r>
       <r>    5.4051    1.0000 </r>
       <r>    5.4395    1.0000 </r>
       <r>    5.4652    1.0000 </r>
       <r>    5.5014    1.0000 </r>
       <r>    5.5273    1.0000 </r>
       <r>    5.5488    1.0000 </r>
       <r>    5.6212    1.0000 </r>
       <r>    5.6582    1.0000 </r>
       <r>    5.6941    1.0000 </r>
       <r>    5.7386    1.0000 </r>
       <r>    5.7494    1.0000 </r>
       <r>    5.8448    1.0000 </r>
       <r>    5.8836    1.0000 </r>
       <r>    5.9964    1.0000 </r>
       <r>    6.0796    1.0000 </r>
       <r>    6.1744    1.0000 </r>
       <r>    6.2138    1.0001 </r>
       <r>    6.2713    1.0003 </r>
       <r>    6.2967    1.0006 </r>
       <r>    6.3681    1.0027 </r>
[...]
       <r>    5.0443    1.0000 </r>
       <r>    5.0917    1.0000 </r>
       <r>    5.1119    1.0000 </r>
       <r>    5.1747    1.0000 </r>
       <r>    5.2270    1.0000 </r>
       <r>    5.2581    1.0000 </r>
       <r>    5.3084    1.0000 </r>
       <r>    5.3675    1.0000 </r>
       <r>    5.4129    1.0000 </r>
       <r>    5.4348    1.0000 </r>
       <r>    5.5541    1.0000 </r>
       <r>    5.6040    1.0000 </r>
       <r>    5.6318    1.0000 </r>
       <r>    5.6683    1.0000 </r>
       <r>    5.7480    1.0000 </r>
       <r>    5.7867    1.0000 </r>
       <r>    5.8196    1.0000 </r>
       <r>    5.8595    1.0000 </r>
       <r>    5.9236    1.0000 </r>
       <r>    5.9601    1.0000 </r>
       <r>    6.0341    1.0000 </r>
       <r>    6.0964    1.0000 </r>
       <r>    6.1407    1.0000 </r>
       <r>    6.1954    1.0000 </r>
       <r>    6.2267    1.0001 </r>
       <r>    6.2667    1.0003 </r>
       <r>    6.3229    1.0010 </r>
       <r>    6.3280    1.0012 </r>
       <r>    6.3981    1.0048 </r>
       <r>    6.4301    1.0083 </r>
       <r>    6.4682    1.0145 </r>
       <r>    6.4894    1.0188 </r>
       <r>    6.5390    1.0300 </r>
       <r>    6.5855    1.0354 </r>
       <r>    6.5985    1.0344 </r>
       <r>    6.6374    1.0195 </r>
       <r>    6.6631    0.9960 </r>
       <r>    6.6945    0.9480 </r>
       <r>    6.7143    0.9055 </r>
       <r>    6.8428    0.4374 </r>
       <r>    6.9383    0.1029 </r>
       <r>    7.0003   -0.0041 </r>
       <r>    7.0205   -0.0207 </r>
       <r>    7.1090   -0.0316 </r>
       <r>    7.2036   -0.0116 </r>
       <r>    7.3216   -0.0013 </r>
       <r>    7.4111   -0.0001 </r>
       <r>    7.5065   -0.0000 </r>
       <r>    7.7380   -0.0000 </r>
       <r>    7.8526   -0.0000 </r>
       <r>    7.9206   -0.0000 </r>
       <r>    7.9972   -0.0000 </r>
       <r>    8.1241   -0.0000 </r>
       <r>    8.5135   -0.0000 </r>
       <r>    8.5752   -0.0000 </r>
       <r>    8.6382   -0.0000 </r>
       <r>    8.7382   -0.0000 </r>
       <r>    8.7704   -0.0000 </r>
       <r>    8.8198   -0.0000 </r>
       <r>    8.8899   -0.0000 </r>
      </set>
     </set>
    </set>
   </array>
  </eigenvalues>
  <separator name="orbital magnetization" >
   <v name="MAGDIPOLOUT">      0.00000000      0.00000000      0.00000000</v>
  </separator>
  <dos>
   <i name="efermi">      6.82800901 </i>
   <total>
    <array>
     <dimension dim="1">gridpoints</dimension>
     <dimension dim="2">spin</dimension>
     <field>energy</field>
     <field>total</field>
     <field>integrated</field>
     <set>
      <set comment="spin 1">
       <r>   -49.9247     0.0000     0.0000 </r>
       <r>   -49.7189     0.0000     0.0000 </r>
       <r>   -49.5130     0.0000     0.0000 </r>
       <r>   -49.3072     0.0000     0.0000 </r>
       <r>   -49.1013     0.0000     0.0000 </r>
       <r>   -48.8955    -0.0000    -0.0000 </r>
       <r>   -48.6896    -0.0000    -0.0000 </r>
       <r>   -48.4837    -0.0000    -0.0000 </r>
       <r>   -48.2779    -0.0000    -0.0000 </r>
       <r>   -48.0720    -0.0000    -0.0000 </r>
       <r>   -47.8662    -0.0000    -0.0000 </r>
       <r>   -47.6603    -0.0061    -0.0013 </r>
       <r>   -47.4545    -0.3920    -0.0820 </r>
       <r>   -47.2486    -0.0929    -0.1011 </r>
       <r>   -47.0428    23.6639     4.7702 </r>
       <r>   -46.8369    31.8080    11.3179 </r>
       <r>   -46.6311     4.1298    12.1681 </r>
       <r>   -46.4252    -0.7771    12.0081 </r>
       <r>   -46.2194    -0.0391    12.0000 </r>
       <r>   -46.0135    -0.0002    12.0000 </r>
       <r>   -45.8077    -0.0000    12.0000 </r>
       <r>   -45.6018    -0.0000    12.0000 </r>
       <r>   -45.3960     0.0000    12.0000 </r>
       <r>   -45.1901     0.0000    12.0000 </r>
       <r>   -44.9843     0.0000    12.0000 </r>
       <r>   -44.7784     0.0000    12.0000 </r>
       <r>   -44.5726     0.0000    12.0000 </r>
       <r>   -44.3667     0.0000    12.0000 </r>
       <r>   -44.1609     0.0000    12.0000 </r>
       <r>   -43.9550     0.0000    12.0000 </r>
       <r>   -43.7492     0.0000    12.0000 </r>
       <r>   -43.5433     0.0000    12.0000 </r>
       <r>   -43.3374     0.0000    12.0000 </r>
       <r>   -43.1316     0.0000    12.0000 </r>
       <r>   -42.9257     0.0000    12.0000 </r>
       <r>   -42.7199     0.0000    12.0000 </r>
       <r>   -42.5140     0.0000    12.0000 </r>
       <r>   -42.3082     0.0000    12.0000 </r>
       <r>   -42.1023     0.0000    12.0000 </r>
       <r>   -41.8965     0.0000    12.0000 </r>
       <r>   -41.6906     0.0000    12.0000 </r>
       <r>   -41.4848     0.0000    12.0000 </r>
       <r>   -41.2789     0.0000    12.0000 </r>
       <r>   -41.0731     0.0000    12.0000 </r>
       <r>   -40.8672     0.0000    12.0000 </r>
       <r>   -40.6614     0.0000    12.0000 </r>
       <r>   -40.4555     0.0000    12.0000 </r>
       <r>   -40.2497     0.0000    12.0000 </r>
       <r>   -40.0438     0.0000    12.0000 </r>
       <r>   -39.8380     0.0000    12.0000 </r>
       <r>   -39.6321     0.0000    12.0000 </r>
       <r>   -39.4263     0.0000    12.0000 </r>
       <r>   -39.2204     0.0000    12.0000 </r>
       <r>   -39.0146     0.0000    12.0000 </r>
       <r>   -38.8087     0.0000    12.0000 </r>
       <r>   -38.6028     0.0000    12.0000 </r>
       <r>   -38.3970     0.0000    12.0000 </r>
       <r>   -38.1911     0.0000    12.0000 </r>
       <r>   -37.9853     0.0000    12.0000 </r>
       <r>   -37.7794     0.0000    12.0000 </r>
       <r>   -37.5736     0.0000    12.0000 </r>
       <r>   -37.3677     0.0000    12.0000 </r>
       <r>   -37.1619     0.0000    12.0000 </r>
       <r>   -36.9560     0.0000    12.0000 </r>
       <r>   -36.7502     0.0000    12.0000 </r>
       <r>   -36.5443     0.0000    12.0000 </r>
       <r>   -36.3385     0.0000    12.0000 </r>
       <r>   -36.1326     0.0000    12.0000 </r>
       <r>   -35.9268     0.0000    12.0000 </r>
       <r>   -35.7209     0.0000    12.0000 </r>
       <r>   -35.5151     0.0000    12.0000 </r>
       <r>   -35.3092     0.0000    12.0000 </r>
       <r>   -35.1034     0.0000    12.0000 </r>
       <r>   -34.8975     0.0000    12.0000 </r>
       <r>   -34.6917     0.0000    12.0000 </r>
       <r>   -34.4858     0.0000    12.0000 </r>
       <r>   -34.2800     0.0000    12.0000 </r>
       <r>   -34.0741     0.0000    12.0000 </r>
       <r>   -33.8682     0.0000    12.0000 </r>
       <r>   -33.6624     0.0000    12.0000 </r>
       <r>   -33.4565     0.0000    12.0000 </r>
       <r>   -33.2507     0.0000    12.0000 </r>
       <r>   -33.0448     0.0000    12.0000 </r>
       <r>   -32.8390     0.0000    12.0000 </r>
       <r>   -32.6331     0.0000    12.0000 </r>
       <r>   -32.4273     0.0000    12.0000 </r>
       <r>   -32.2214     0.0000    12.0000 </r>
       <r>   -32.0156     0.0000    12.0000 </r>
       <r>   -31.8097     0.0000    12.0000 </r>
       <r>   -31.6039     0.0000    12.0000 </r>
       <r>   -31.3980     0.0000    12.0000 </r>
       <r>   -31.1922     0.0000    12.0000 </r>
       <r>   -30.9863     0.0000    12.0000 </r>
       <r>   -30.7805     0.0000    12.0000 </r>
       <r>   -30.5746     0.0000    12.0000 </r>
       <r>   -30.3688     0.0000    12.0000 </r>
       <r>   -30.1629     0.0000    12.0000 </r>
       <r>   -29.9571     0.0000    12.0000 </r>
       <r>   -29.7512     0.0000    12.0000 </r>
       <r>   -29.5454     0.0000    12.0000 </r>
       <r>   -29.3395     0.0000    12.0000 </r>
       <r>   -29.1336     0.0000    12.0000 </r>
       <r>   -28.9278     0.0000    12.0000 </r>
       <r>   -28.7219     0.0000    12.0000 </r>
       <r>   -28.5161     0.0000    12.0000 </r>
       <r>   -28.3102     0.0000    12.0000 </r>
       <r>   -28.1044     0.0000    12.0000 </r>
       <r>   -27.8985     0.0000    12.0000 </r>
       <r>   -27.6927     0.0000    12.0000 </r>
       <r>   -27.4868     0.0000    12.0000 </r>
       <r>   -27.2810     0.0000    12.0000 </r>
       <r>   -27.0751     0.0000    12.0000 </r>
       <r>   -26.8693     0.0000    12.0000 </r>
       <r>   -26.6634     0.0000    12.0000 </r>
       <r>   -26.4576     0.0000    12.0000 </r>
       <r>   -26.2517     0.0000    12.0000 </r>
       <r>   -26.0459     0.0000    12.0000 </r>
       <r>   -25.8400     0.0000    12.0000 </r>
       <r>   -25.6342    -0.0000    12.0000 </r>
       <r>   -25.4283    -0.0000    12.0000 </r>
       <r>   -25.2225    -0.0000    12.0000 </r>
       <r>   -25.0166    -0.0000    12.0000 </r>
       <r>   -24.8108    -0.0000    12.0000 </r>
       <r>   -24.6049    -0.0000    12.0000 </r>
       <r>   -24.3991    -0.0041    11.9992 </r>
       <r>   -24.1932    -0.1380    11.9707 </r>
       <r>   -23.9873     0.1107    11.9935 </r>
       <r>   -23.7815     7.1765    13.4708 </r>
       <r>   -23.5756    15.6760    16.6978 </r>
       <r>   -23.3698    19.7266    20.7585 </r>
       <r>   -23.1639    54.6865    32.0158 </r>
       <r>   -22.9581    46.0525    41.4958 </r>
       <r>   -22.7522    20.0557    45.6244 </r>
       <r>   -22.5464     9.7417    47.6297 </r>
       <r>   -22.3405     1.9684    48.0349 </r>
       <r>   -22.1347    -0.1310    48.0079 </r>
       <r>   -21.9288    -0.0380    48.0001 </r>
       <r>   -21.7230    -0.0006    48.0000 </r>
       <r>   -21.5171    -0.0000    48.0000 </r>
       <r>   -21.3113    -0.0000    48.0000 </r>
       <r>   -21.1054    -0.0000    48.0000 </r>
       <r>   -20.8996     0.0000    48.0000 </r>
       <r>   -20.6937     0.0000    48.0000 </r>
       <r>   -20.4879     0.0000    48.0000 </r>
       <r>   -20.2820     0.0000    48.0000 </r>
       <r>   -20.0762     0.0000    48.0000 </r>
       <r>   -19.8703     0.0000    48.0000 </r>
       <r>   -19.6645     0.0000    48.0000 </r>
       <r>   -19.4586     0.0000    48.0000 </r>
       <r>   -19.2527     0.0000    48.0000 </r>
       <r>   -19.0469     0.0000    48.0000 </r>
       <r>   -18.8410     0.0000    48.0000 </r>
       <r>   -18.6352     0.0000    48.0000 </r>
       <r>   -18.4293     0.0000    48.0000 </r>
       <r>   -18.2235     0.0000    48.0000 </r>
       <r>   -18.0176     0.0000    48.0000 </r>
       <r>   -17.8118     0.0000    48.0000 </r>
       <r>   -17.6059     0.0000    48.0000 </r>
       <r>   -17.4001     0.0000    48.0000 </r>
       <r>   -17.1942     0.0000    48.0000 </r>
       <r>   -16.9884     0.0000    48.0000 </r>
       <r>   -16.7825     0.0000    48.0000 </r>
       <r>   -16.5767     0.0000    48.0000 </r>
       <r>   -16.3708     0.0000    48.0000 </r>
       <r>   -16.1650     0.0000    48.0000 </r>
       <r>   -15.9591     0.0000    48.0000 </r>
       <r>   -15.7533     0.0000    48.0000 </r>
       <r>   -15.5474     0.0000    48.0000 </r>
       <r>   -15.3416     0.0000    48.0000 </r>
       <r>   -15.1357     0.0000    48.0000 </r>
       <r>   -14.9299     0.0000    48.0000 </r>
       <r>   -14.7240     0.0000    48.0000 </r>
       <r>   -14.5181     0.0000    48.0000 </r>
       <r>   -14.3123     0.0000    48.0000 </r>
       <r>   -14.1064     0.0000    48.0000 </r>
       <r>   -13.9006     0.0000    48.0000 </r>
       <r>   -13.6947     0.0000    48.0000 </r>
       <r>   -13.4889     0.0000    48.0000 </r>
       <r>   -13.2830     0.0000    48.0000 </r>
       <r>   -13.0772     0.0000    48.0000 </r>
       <r>   -12.8713     0.0000    48.0000 </r>
       <r>   -12.6655     0.0000    48.0000 </r>
       <r>   -12.4596     0.0000    48.0000 </r>
       <r>   -12.2538     0.0000    48.0000 </r>
       <r>   -12.0479     0.0000    48.0000 </r>
       <r>   -11.8421     0.0000    48.0000 </r>
       <r>   -11.6362     0.0000    48.0000 </r>
       <r>   -11.4304     0.0000    48.0000 </r>
       <r>   -11.2245     0.0000    48.0000 </r>
       <r>   -11.0187     0.0000    48.0000 </r>
       <r>   -10.8128     0.0000    48.0000 </r>
       <r>   -10.6070     0.0000    48.0000 </r>
       <r>   -10.4011     0.0000    48.0000 </r>
       <r>   -10.1953     0.0000    48.0000 </r>
       <r>    -9.9894     0.0000    48.0000 </r>
       <r>    -9.7835     0.0000    48.0000 </r>
       <r>    -9.5777     0.0000    48.0000 </r>
       <r>    -9.3718     0.0000    48.0000 </r>
       <r>    -9.1660     0.0000    48.0000 </r>
       <r>    -8.9601     0.0000    48.0000 </r>
       <r>    -8.7543     0.0000    48.0000 </r>
       <r>    -8.5484     0.0000    48.0000 </r>
       <r>    -8.3426     0.0000    48.0000 </r>
       <r>    -8.1367     0.0000    48.0000 </r>
       <r>    -7.9309     0.0000    48.0000 </r>
       <r>    -7.7250     0.0000    48.0000 </r>
       <r>    -7.5192     0.0000    48.0000 </r>
       <r>    -7.3133     0.0000    48.0000 </r>
       <r>    -7.1075     0.0000    48.0000 </r>
       <r>    -6.9016     0.0000    48.0000 </r>
       <r>    -6.6958     0.0000    48.0000 </r>
       <r>    -6.4899     0.0000    48.0000 </r>
       <r>    -6.2841     0.0000    48.0000 </r>
       <r>    -6.0782     0.0000    48.0000 </r>
       <r>    -5.8724     0.0000    48.0000 </r>
       <r>    -5.6665     0.0000    48.0000 </r>
       <r>    -5.4607     0.0000    48.0000 </r>
       <r>    -5.2548     0.0000    48.0000 </r>
       <r>    -5.0489     0.0000    48.0000 </r>
       <r>    -4.8431     0.0000    48.0000 </r>
       <r>    -4.6372     0.0000    48.0000 </r>
       <r>    -4.4314     0.0000    48.0000 </r>
       <r>    -4.2255     0.0000    48.0000 </r>
       <r>    -4.0197     0.0000    48.0000 </r>
       <r>    -3.8138     0.0000    48.0000 </r>
       <r>    -3.6080     0.0000    48.0000 </r>
       <r>    -3.4021     0.0000    48.0000 </r>
       <r>    -3.1963     0.0000    48.0000 </r>
       <r>    -2.9904     0.0000    48.0000 </r>
       <r>    -2.7846     0.0000    48.0000 </r>
       <r>    -2.5787     0.0000    48.0000 </r>
       <r>    -2.3729     0.0000    48.0000 </r>
       <r>    -2.1670     0.0000    48.0000 </r>
       <r>    -1.9612     0.0000    48.0000 </r>
       <r>    -1.7553    -0.0000    48.0000 </r>
       <r>    -1.5495    -0.0000    48.0000 </r>
       <r>    -1.3436    -0.0000    48.0000 </r>
       <r>    -1.1378    -0.0000    48.0000 </r>
       <r>    -0.9319    -0.0000    48.0000 </r>
       <r>    -0.7261    -0.0000    48.0000 </r>
       <r>    -0.5202    -0.0001    48.0000 </r>
       <r>    -0.3144    -0.0056    47.9988 </r>
       <r>    -0.1085    -0.0014    47.9985 </r>
       <r>     0.0974     0.2759    48.0553 </r>
       <r>     0.3032     0.8904    48.2386 </r>
       <r>     0.5091     1.5890    48.5657 </r>
       <r>     0.7149     1.9308    48.9632 </r>
       <r>     0.9208     1.4733    49.2665 </r>
       <r>     1.1266     2.1127    49.7014 </r>
       <r>     1.3325     3.0930    50.3381 </r>
       <r>     1.5383     3.5217    51.0630 </r>
       <r>     1.7442     2.7781    51.6349 </r>
       <r>     1.9500     3.4039    52.3356 </r>
       <r>     2.1559     4.8603    53.3361 </r>
       <r>     2.3617     5.1118    54.3884 </r>
       <r>     2.5676     7.3157    55.8943 </r>
       <r>     2.7734    11.5614    58.2743 </r>
       <r>     2.9793    17.8800    61.9549 </r>
       <r>     3.1851    21.6264    66.4067 </r>
       <r>     3.3910    25.3199    71.6189 </r>
       <r>     3.5968    30.6628    77.9309 </r>
       <r>     3.8027    30.6257    84.2353 </r>
       <r>     4.0085    31.1207    90.6415 </r>
       <r>     4.2144    31.2749    97.0795 </r>
       <r>     4.4202    31.2068   103.5035 </r>
       <r>     4.6261    27.1232   109.0869 </r>
       <r>     4.8320    22.6899   113.7576 </r>
       <r>     5.0378    30.5130   120.0388 </r>
       <r>     5.2437    38.0148   127.8642 </r>
       <r>     5.4495    44.0357   136.9291 </r>
       <r>     5.6554    44.5022   146.0900 </r>
       <r>     5.8612    42.4792   154.8344 </r>
       <r>     6.0671    38.7045   162.8018 </r>
       <r>     6.2729    41.2889   171.3012 </r>
       <r>     6.4788    46.8510   180.9456 </r>
       <r>     6.6846    50.0797   191.2546 </r>
       <r>     6.8905    46.2868   200.7828 </r>
       <r>     7.0963    39.8636   208.9888 </r>
       <r>     7.3022    27.3240   214.6136 </r>
       <r>     7.5080    17.2756   218.1698 </r>
       <r>     7.7139    12.4014   220.7226 </r>
       <r>     7.9197    13.5881   223.5198 </r>
       <r>     8.1256    17.4093   227.1035 </r>
       <r>     8.3314    19.4966   231.1169 </r>
       <r>     8.5373    19.8672   235.2066 </r>
       <r>     8.7431    14.8834   238.2704 </r>
       <r>     8.9490     7.4418   239.8023 </r>
       <r>     9.1548     1.1445   240.0379 </r>
       <r>     9.3607    -0.1678   240.0034 </r>
       <r>     9.5666    -0.0161   240.0000 </r>
       <r>     9.7724    -0.0002   240.0000 </r>
       <r>     9.9783    -0.0000   240.0000 </r>
       <r>    10.1841    -0.0000   240.0000 </r>
       <r>    10.3900    -0.0000   240.0000 </r>
       <r>    10.5958     0.0000   240.0000 </r>
       <r>    10.8017     0.0000   240.0000 </r>
       <r>    11.0075     0.0000   240.0000 </r>
       <r>    11.2134     0.0000   240.0000 </r>
       <r>    11.4192     0.0000   240.0000 </r>
       <r>    11.6251     0.0000   240.0000 </r>
       <r>    11.8309     0.0000   240.0000 </r>
      </set>
     </set>
    </array>
   </total>
  </dos>
 </calculation>
 <structure name="finalpos" >
  <crystal>
   <varray name="basis" >
    <v>      -3.15000000      -3.15000000      -3.15000000 </v>
    <v>       1.57500000       1.57500000      -7.87500000 </v>
    <v>       7.87500000      -7.87500000      -1.57500000 </v>
   </varray>
   <i name="volume">    468.83812500 </i>
   <varray name="rec_basis" >
    <v>      -0.13756614      -0.12698413      -0.05291005 </v>
    <v>       0.04232804       0.06349206      -0.10582011 </v>
    <v>       0.06349206      -0.06349206       0.00000000 </v>
   </varray>
  </crystal>
  <varray name="positions" >
   <v>       0.96666667       0.93333333       0.40000000 </v>
   <v>       0.63333333       0.26666667       0.40000000 </v>
   <v>       0.50000000       0.00000000       0.00000000 </v>
   <v>       0.00000000       0.00000000       0.00000000 </v>
   <v>       0.10000000       0.20000000       0.80000000 </v>
   <v>       0.03333333       0.06666667       0.60000000 </v>
   <v>       0.90000000       0.80000000       0.20000000 </v>
   <v>       0.80000000       0.60000000       0.40000000 </v>
   <v>       0.73333333       0.46666667       0.20000000 </v>
   <v>       0.66666667       0.33333333       0.00000000 </v>
   <v>       0.36666667       0.73333333       0.60000000 </v>
   <v>       0.13333333       0.26666667       0.40000000 </v>
   <v>       0.83333333       0.66666667       0.00000000 </v>
   <v>       0.93333333       0.86666667       0.80000000 </v>
   <v>       0.56666667       0.13333333       0.20000000 </v>
   <v>       0.40000000       0.80000000       0.20000000 </v>
   <v>       0.43333333       0.86666667       0.80000000 </v>
   <v>       0.30000000       0.60000000       0.40000000 </v>
   <v>       0.86666667       0.73333333       0.60000000 </v>
   <v>       0.46666667       0.93333333       0.40000000 </v>
   <v>       0.16666667       0.33333333       0.00000000 </v>
   <v>       0.26666667       0.53333333       0.80000000 </v>
   <v>       0.20000000       0.40000000       0.60000000 </v>
   <v>       0.06666667       0.13333333       0.20000000 </v>
   <v>       0.76666667       0.53333333       0.80000000 </v>
   <v>       0.70000000       0.40000000       0.60000000 </v>
   <v>       0.60000000       0.20000000       0.80000000 </v>
   <v>       0.53333333       0.06666667       0.60000000 </v>
   <v>       0.33333333       0.66666667       0.00000000 </v>
   <v>       0.23333333       0.46666667       0.20000000 </v>
  </varray>
 </structure>
</modeling>
