  30  30   0   0
  0.1669312E+02  0.6440000E-09  0.8365806E-09  0.1018253E-08  0.5000000E-15
  1.000000000000000E-004
  CAR 
 Nb - Mo - Ta - Ti - W SQS               
     11.94083960    -50.25676690  301      6.61780170      1.00000000
    -50.257  0.0000E+00  0.0000E+00
    -50.049  0.0000E+00  0.0000E+00
    -49.842  0.0000E+00  0.0000E+00
    -49.635  0.0000E+00  0.0000E+00
    -49.427  0.0000E+00  0.0000E+00
    -49.220 -0.5279E-33 -0.1094E-33
    -49.013 -0.1947E-25 -0.4037E-26
    -48.805 -0.8143E-19 -0.1688E-19
    -48.598 -0.3805E-13 -0.7888E-14
    -48.391 -0.2058E-08 -0.4266E-09
    -48.184 -0.1247E-04 -0.2586E-05
    -47.976 -0.8155E-02 -0.1693E-02
    -47.769 -0.4999E+00 -0.1053E+00
    -47.562  0.4849E+00 -0.4805E-02
    -47.354  0.2829E+02  0.5860E+01
    -47.147  0.2875E+02  0.1182E+02
    -46.940  0.1455E+01  0.1212E+02
    -46.732 -0.5715E+00  0.1200E+02
    -46.525 -0.1511E-01  0.1200E+02
    -46.318 -0.3859E-04  0.1200E+02
    -46.110 -0.1085E-07  0.1200E+02
    -45.903 -0.3433E-12  0.1200E+02
    -45.696  0.0000E+00  0.1200E+02
    -45.488  0.0000E+00  0.1200E+02
    -45.281  0.0000E+00  0.1200E+02
    -45.074  0.0000E+00  0.1200E+02
    -44.866  0.0000E+00  0.1200E+02
    -44.659  0.0000E+00  0.1200E+02
    -44.452  0.0000E+00  0.1200E+02
    -44.244  0.0000E+00  0.1200E+02
    -44.037  0.0000E+00  0.1200E+02
    -43.830  0.0000E+00  0.1200E+02
    -43.622  0.0000E+00  0.1200E+02
    -43.415  0.0000E+00  0.1200E+02
    -43.208  0.0000E+00  0.1200E+02
    -43.000  0.0000E+00  0.1200E+02
    -42.793  0.0000E+00  0.1200E+02
    -42.586  0.0000E+00  0.1200E+02
    -42.378  0.0000E+00  0.1200E+02
    -42.171  0.0000E+00  0.1200E+02
    -41.964  0.0000E+00  0.1200E+02
    -41.756  0.0000E+00  0.1200E+02
    -41.549  0.0000E+00  0.1200E+02
    -41.342  0.0000E+00  0.1200E+02
    -41.134  0.0000E+00  0.1200E+02
    -40.927  0.0000E+00  0.1200E+02
    -40.720  0.0000E+00  0.1200E+02
    -40.512  0.0000E+00  0.1200E+02
    -40.305  0.0000E+00  0.1200E+02
    -40.098  0.0000E+00  0.1200E+02
    -39.890  0.0000E+00  0.1200E+02
    -39.683  0.0000E+00  0.1200E+02
    -39.476  0.0000E+00  0.1200E+02
    -39.269  0.0000E+00  0.1200E+02
    -39.061  0.0000E+00  0.1200E+02
    -38.854  0.0000E+00  0.1200E+02
    -38.647  0.0000E+00  0.1200E+02
    -38.439  0.0000E+00  0.1200E+02
    -38.232  0.0000E+00  0.1200E+02
    -38.025  0.0000E+00  0.1200E+02
    -37.817  0.0000E+00  0.1200E+02
    -37.610  0.0000E+00  0.1200E+02
    -37.403  0.0000E+00  0.1200E+02
    -37.195  0.0000E+00  0.1200E+02
    -36.988  0.0000E+00  0.1200E+02
    -36.781  0.0000E+00  0.1200E+02
    -36.573  0.0000E+00  0.1200E+02
    -36.366  0.0000E+00  0.1200E+02
    -36.159  0.0000E+00  0.1200E+02
    -35.951  0.0000E+00  0.1200E+02
    -35.744  0.0000E+00  0.1200E+02
    -35.537  0.0000E+00  0.1200E+02
    -35.329  0.0000E+00  0.1200E+02
    -35.122  0.0000E+00  0.1200E+02
    -34.915  0.0000E+00  0.1200E+02
    -34.707  0.0000E+00  0.1200E+02
    -34.500  0.0000E+00  0.1200E+02
    -34.293  0.0000E+00  0.1200E+02
    -34.085  0.0000E+00  0.1200E+02
    -33.878  0.0000E+00  0.1200E+02
    -33.671  0.0000E+00  0.1200E+02
    -33.463  0.0000E+00  0.1200E+02
    -33.256  0.0000E+00  0.1200E+02
    -33.049  0.0000E+00  0.1200E+02
    -32.841  0.0000E+00  0.1200E+02
    -32.634  0.0000E+00  0.1200E+02
    -32.427  0.0000E+00  0.1200E+02
    -32.219  0.0000E+00  0.1200E+02
    -32.012  0.0000E+00  0.1200E+02
    -31.805  0.0000E+00  0.1200E+02
    -31.597  0.0000E+00  0.1200E+02
    -31.390  0.0000E+00  0.1200E+02
    -31.183  0.0000E+00  0.1200E+02
    -30.976  0.0000E+00  0.1200E+02
    -30.768  0.0000E+00  0.1200E+02
    -30.561  0.0000E+00  0.1200E+02
    -30.354  0.0000E+00  0.1200E+02
    -30.146  0.0000E+00  0.1200E+02
    -29.939  0.0000E+00  0.1200E+02
    -29.732  0.0000E+00  0.1200E+02
    -29.524  0.0000E+00  0.1200E+02
    -29.317  0.0000E+00  0.1200E+02
    -29.110  0.0000E+00  0.1200E+02
    -28.902  0.0000E+00  0.1200E+02
    -28.695  0.0000E+00  0.1200E+02
    -28.488  0.0000E+00  0.1200E+02
    -28.280  0.0000E+00  0.1200E+02
    -28.073  0.0000E+00  0.1200E+02
    -27.866  0.0000E+00  0.1200E+02
    -27.658  0.0000E+00  0.1200E+02
    -27.451  0.0000E+00  0.1200E+02
    -27.244  0.0000E+00  0.1200E+02
    -27.036  0.0000E+00  0.1200E+02
    -26.829  0.0000E+00  0.1200E+02
    -26.622  0.0000E+00  0.1200E+02
    -26.414  0.0000E+00  0.1200E+02
    -26.207  0.0000E+00  0.1200E+02
    -26.000  0.0000E+00  0.1200E+02
    -25.792  0.0000E+00  0.1200E+02
    -25.585 -0.1303E-27  0.1200E+02
    -25.378 -0.9522E-21  0.1200E+02
    -25.170 -0.7977E-15  0.1200E+02
    -24.963 -0.7345E-10  0.1200E+02
    -24.756 -0.7824E-06  0.1200E+02
    -24.548 -0.9205E-03  0.1200E+02
    -24.341 -0.1113E+00  0.1198E+02
    -24.134 -0.7177E+00  0.1183E+02
    -23.926  0.9067E+01  0.1371E+02
    -23.719  0.2505E+02  0.1890E+02
    -23.512  0.5556E+02  0.3042E+02
    -23.304  0.5320E+02  0.4145E+02
    -23.097  0.2487E+02  0.4660E+02
    -22.890  0.7229E+01  0.4810E+02
    -22.682 -0.3779E+00  0.4803E+02
    -22.475 -0.1200E+00  0.4800E+02
    -22.268 -0.1415E-02  0.4800E+02
    -22.061 -0.1597E-05  0.4800E+02
    -21.853 -0.1918E-09  0.4800E+02
    -21.646 -0.2142E-14  0.4800E+02
    -21.439  0.0000E+00  0.4800E+02
    -21.231  0.0000E+00  0.4800E+02
    -21.024  0.0000E+00  0.4800E+02
    -20.817  0.0000E+00  0.4800E+02
    -20.609  0.0000E+00  0.4800E+02
    -20.402  0.0000E+00  0.4800E+02
    -20.195  0.0000E+00  0.4800E+02
    -19.987  0.0000E+00  0.4800E+02
    -19.780  0.0000E+00  0.4800E+02
    -19.573  0.0000E+00  0.4800E+02
    -19.365  0.0000E+00  0.4800E+02
    -19.158  0.0000E+00  0.4800E+02
    -18.951  0.0000E+00  0.4800E+02
    -18.743  0.0000E+00  0.4800E+02
    -18.536  0.0000E+00  0.4800E+02
    -18.329  0.0000E+00  0.4800E+02
    -18.121  0.0000E+00  0.4800E+02
    -17.914  0.0000E+00  0.4800E+02
    -17.707  0.0000E+00  0.4800E+02
    -17.499  0.0000E+00  0.4800E+02
    -17.292  0.0000E+00  0.4800E+02
    -17.085  0.0000E+00  0.4800E+02
    -16.877  0.0000E+00  0.4800E+02
    -16.670  0.0000E+00  0.4800E+02
    -16.463  0.0000E+00  0.4800E+02
    -16.255  0.0000E+00  0.4800E+02
    -16.048  0.0000E+00  0.4800E+02
    -15.841  0.0000E+00  0.4800E+02
    -15.633  0.0000E+00  0.4800E+02
    -15.426  0.0000E+00  0.4800E+02
    -15.219  0.0000E+00  0.4800E+02
    -15.011  0.0000E+00  0.4800E+02
    -14.804  0.0000E+00  0.4800E+02
    -14.597  0.0000E+00  0.4800E+02
    -14.389  0.0000E+00  0.4800E+02
    -14.182  0.0000E+00  0.4800E+02
    -13.975  0.0000E+00  0.4800E+02
    -13.768  0.0000E+00  0.4800E+02
    -13.560  0.0000E+00  0.4800E+02
    -13.353  0.0000E+00  0.4800E+02
    -13.146  0.0000E+00  0.4800E+02
    -12.938  0.0000E+00  0.4800E+02
    -12.731  0.0000E+00  0.4800E+02
    -12.524  0.0000E+00  0.4800E+02
    -12.316  0.0000E+00  0.4800E+02
    -12.109  0.0000E+00  0.4800E+02
    -11.902  0.0000E+00  0.4800E+02
    -11.694  0.0000E+00  0.4800E+02
    -11.487  0.0000E+00  0.4800E+02
    -11.280  0.0000E+00  0.4800E+02
    -11.072  0.0000E+00  0.4800E+02
    -10.865  0.0000E+00  0.4800E+02
    -10.658  0.0000E+00  0.4800E+02
    -10.450  0.0000E+00  0.4800E+02
    -10.243  0.0000E+00  0.4800E+02
    -10.036  0.0000E+00  0.4800E+02
     -9.828  0.0000E+00  0.4800E+02
     -9.621  0.0000E+00  0.4800E+02
     -9.414  0.0000E+00  0.4800E+02
     -9.206  0.0000E+00  0.4800E+02
     -8.999  0.0000E+00  0.4800E+02
     -8.792  0.0000E+00  0.4800E+02
     -8.584  0.0000E+00  0.4800E+02
     -8.377  0.0000E+00  0.4800E+02
     -8.170  0.0000E+00  0.4800E+02
     -7.962  0.0000E+00  0.4800E+02
     -7.755  0.0000E+00  0.4800E+02
     -7.548  0.0000E+00  0.4800E+02
     -7.340  0.0000E+00  0.4800E+02
     -7.133  0.0000E+00  0.4800E+02
     -6.926  0.0000E+00  0.4800E+02
     -6.718  0.0000E+00  0.4800E+02
     -6.511  0.0000E+00  0.4800E+02
     -6.304  0.0000E+00  0.4800E+02
     -6.096  0.0000E+00  0.4800E+02
     -5.889  0.0000E+00  0.4800E+02
     -5.682  0.0000E+00  0.4800E+02
     -5.474  0.0000E+00  0.4800E+02
     -5.267  0.0000E+00  0.4800E+02
     -5.060  0.0000E+00  0.4800E+02
     -4.853  0.0000E+00  0.4800E+02
     -4.645  0.0000E+00  0.4800E+02
     -4.438  0.0000E+00  0.4800E+02
     -4.231  0.0000E+00  0.4800E+02
     -4.023  0.0000E+00  0.4800E+02
     -3.816  0.0000E+00  0.4800E+02
     -3.609  0.0000E+00  0.4800E+02
     -3.401  0.0000E+00  0.4800E+02
     -3.194  0.0000E+00  0.4800E+02
     -2.987  0.0000E+00  0.4800E+02
     -2.779  0.0000E+00  0.4800E+02
     -2.572  0.0000E+00  0.4800E+02
     -2.365 -0.6878E-33  0.4800E+02
     -2.157 -0.1252E-25  0.4800E+02
     -1.950 -0.2612E-19  0.4800E+02
     -1.743 -0.6027E-14  0.4800E+02
     -1.535 -0.1611E-09  0.4800E+02
     -1.328 -0.4869E-06  0.4800E+02
     -1.121 -0.1670E-03  0.4800E+02
     -0.913 -0.6341E-02  0.4800E+02
     -0.706 -0.2985E-02  0.4800E+02
     -0.499  0.3370E+00  0.4807E+02
     -0.291  0.1136E+01  0.4830E+02
     -0.084  0.1689E+01  0.4865E+02
      0.123  0.1624E+01  0.4899E+02
      0.331  0.2040E+01  0.4941E+02
      0.538  0.2481E+01  0.4993E+02
      0.745  0.2921E+01  0.5053E+02
      0.953  0.2904E+01  0.5114E+02
      1.160  0.3634E+01  0.5189E+02
      1.367  0.4928E+01  0.5291E+02
      1.575  0.4037E+01  0.5375E+02
      1.782  0.4249E+01  0.5463E+02
      1.989  0.5846E+01  0.5584E+02
      2.197  0.9072E+01  0.5772E+02
      2.404  0.1341E+02  0.6050E+02
      2.611  0.1736E+02  0.6410E+02
      2.819  0.2140E+02  0.6854E+02
      3.026  0.2422E+02  0.7356E+02
      3.233  0.2822E+02  0.7941E+02
      3.441  0.3288E+02  0.8623E+02
      3.648  0.3298E+02  0.9306E+02
      3.855  0.3303E+02  0.9991E+02
      4.062  0.3145E+02  0.1064E+03
      4.270  0.2199E+02  0.1110E+03
      4.477  0.1995E+02  0.1151E+03
      4.684  0.3434E+02  0.1222E+03
      4.892  0.4549E+02  0.1317E+03
      5.099  0.4740E+02  0.1415E+03
      5.306  0.4126E+02  0.1501E+03
      5.514  0.3748E+02  0.1578E+03
      5.721  0.3881E+02  0.1659E+03
      5.928  0.4329E+02  0.1749E+03
      6.136  0.4639E+02  0.1845E+03
      6.343  0.4373E+02  0.1935E+03
      6.550  0.3880E+02  0.2016E+03
      6.758  0.3419E+02  0.2087E+03
      6.965  0.2667E+02  0.2142E+03
      7.172  0.1774E+02  0.2179E+03
      7.380  0.1481E+02  0.2209E+03
      7.587  0.1345E+02  0.2237E+03
      7.794  0.1388E+02  0.2266E+03
      8.002  0.1637E+02  0.2300E+03
      8.209  0.2075E+02  0.2343E+03
      8.416  0.2568E+02  0.2396E+03
      8.624  0.2939E+02  0.2457E+03
      8.831  0.2923E+02  0.2518E+03
      9.038  0.1774E+02  0.2555E+03
      9.246  0.3018E+01  0.2561E+03
      9.453 -0.3792E+00  0.2560E+03
      9.660 -0.4061E-01  0.2560E+03
      9.868 -0.3848E-03  0.2560E+03
     10.075 -0.4331E-06  0.2560E+03
     10.282 -0.5852E-10  0.2560E+03
     10.490 -0.8911E-15  0.2560E+03
     10.697  0.0000E+00  0.2560E+03
     10.904  0.0000E+00  0.2560E+03
     11.112  0.0000E+00  0.2560E+03
     11.319  0.0000E+00  0.2560E+03
     11.526  0.0000E+00  0.2560E+03
     11.734  0.0000E+00  0.2560E+03
     11.941  0.0000E+00  0.2560E+03
