   30   30    1    1
  0.1669312E+02  0.6440000E-09  0.8365805E-09  0.1018253E-08  0.5000000E-15
  1.000000000000000E-004
  CAR 
 Nb - Mo - Ta - Ti - W SQS               
    204     63    128
 
  0.0000000E+00  0.0000000E+00  0.0000000E+00  0.8000000E-02
    1      -47.429603   1.000000
    2      -47.420158   1.000000
    3      -47.387583   1.000000
    4      -47.331433   1.000000
    5      -47.293266   1.000000
    6      -47.231393   1.000000
    7      -23.942810   1.000000
    8      -23.877913   1.000000
    9      -23.817866   1.000000
   10      -23.715525   1.000000
   11      -23.611577   1.000000
   12      -23.595319   1.000000
   13      -23.581895   1.000000
   14      -23.553263   1.000000
   15      -23.534127   1.000000
   16      -23.506273   1.000000
   17      -23.497738   1.000000
   18      -23.484051   1.000000
   19      -23.410923   1.000000
   20      -23.384937   1.000000
   21      -23.289920   1.000000
   22      -23.257457   1.000000
   23      -23.192800   1.000000
   24      -23.059185   1.000000
   25       -0.636154   1.000000
   26        1.237156   1.000000
   27        1.738055   1.000000
   28        1.896055   1.000000
   29        2.111733   1.000000
   30        2.235844   1.000000
   31        2.294126   1.000000
   32        2.389599   1.000000
   33        2.505459   1.000000
   34        2.707083   1.000000
   35        2.748891   1.000000
   36        2.872828   1.000000
   37        2.888689   1.000000
   38        2.941942   1.000000
   39        3.017434   1.000000
   40        3.123378   1.000000
   41        3.169616   1.000000
   42        3.195613   1.000000
   43        3.233101   1.000000
   44        3.267926   1.000000
   45        3.310391   1.000000
   46        3.325365   1.000000
   47        3.415768   1.000000
   48        3.482270   1.000000
   49        3.511121   1.000000
   50        3.614608   1.000000
   51        3.636406   1.000000
   52        3.717779   1.000000
   53        3.791491   1.000000
   54        3.983067   1.000000
   55        4.172425   1.000000
   56        4.271527   1.000000
   57        4.419313   1.000000
   58        4.438003   1.000000
   59        4.576390   1.000000
   60        4.628696   1.000000
   61        4.655741   1.000000
   62        4.696755   1.000000
   63        4.738189   1.000000
   64        4.797394   1.000000
   65        4.835909   1.000000
   66        4.857480   1.000000
   67        4.908438   1.000000
   68        4.928077   1.000000
   69        4.987247   1.000000
   70        5.022240   1.000000
   71        5.077642   1.000000
   72        5.094345   1.000000
   73        5.176645   1.000000
   74        5.250194   1.000000
   75        5.343527   1.000000
   76        5.368254   1.000000
   77        5.483682   1.000000
   78        5.564015   1.000000
   79        5.644654   1.000000
   80        5.681604   1.000000
   81        5.711967   1.000000
   82        5.927560   1.000006
   83        6.073698   1.000409
   84        6.105988   1.000886
   85        6.205738   1.006547
   86        6.263743   1.015599
   87        6.293002   1.021960
   88        6.355753   1.034458
   89        6.379499   1.035280
   90        6.403226   1.031131
   91        6.481850   0.952607
   92        6.521024   0.861120
   93        6.543883   0.790350
   94        6.558426   0.739386
   95        6.580447   0.655045
   96        6.612567   0.522143
   97        6.646982   0.377974
   98        6.676297   0.263834
   99        6.724765   0.111384
  100        6.862827  -0.035458
  101        6.917420  -0.027736
  102        6.950692  -0.020121
  103        6.962231  -0.017593
  104        6.984362  -0.013203
  105        7.036693  -0.005822
  106        7.100962  -0.001673
  107        7.114420  -0.001248
  108        7.195466  -0.000172
  109        7.263670  -0.000024
  110        7.341603  -0.000002
  111        7.449618  -0.000000
  112        7.519182  -0.000000
  113        7.578521  -0.000000
  114        7.597714  -0.000000
  115        7.668537  -0.000000
  116        7.779106  -0.000000
  117        7.941014  -0.000000
  118        8.061076  -0.000000
  119        8.109337  -0.000000
  120        8.236775  -0.000000
  121        8.249820  -0.000000
  122        8.257944  -0.000000
  123        8.274608  -0.000000
  124        8.329326  -0.000000
  125        8.357193  -0.000000
  126        8.446025  -0.000000
  127        8.452937  -0.000000
  128        8.463881  -0.000000
 
  0.2000000E+00  0.6938894E-17  0.1387779E-16  0.1600000E-01
    1      -47.429369   1.000000
    2      -47.420286   1.000000
    3      -47.387573   1.000000
    4      -47.331432   1.000000
    5      -47.293302   1.000000
    6      -47.231393   1.000000
    7      -23.943794   1.000000
    8      -23.877905   1.000000
    9      -23.818903   1.000000
   10      -23.715536   1.000000
   11      -23.611811   1.000000
   12      -23.595914   1.000000
   13      -23.582573   1.000000
   14      -23.553874   1.000000
   15      -23.534064   1.000000
   16      -23.506064   1.000000
   17      -23.497521   1.000000
   18      -23.483846   1.000000
   19      -23.411046   1.000000
   20      -23.384752   1.000000
   21      -23.288901   1.000000
   22      -23.257999   1.000000
   23      -23.192673   1.000000
   24      -23.059058   1.000000
   25       -0.403421   1.000000
   26        1.223755   1.000000
   27        1.844589   1.000000
   28        1.971631   1.000000
   29        2.136169   1.000000
   30        2.259109   1.000000
   31        2.381715   1.000000
   32        2.537610   1.000000
   33        2.573675   1.000000
   34        2.685012   1.000000
   35        2.802515   1.000000
   36        2.840294   1.000000
   37        2.936709   1.000000
   38        3.007845   1.000000
   39        3.059333   1.000000
   40        3.156230   1.000000
   41        3.188271   1.000000
   42        3.237810   1.000000
   43        3.296791   1.000000
   44        3.352244   1.000000
   45        3.413702   1.000000
   46        3.445119   1.000000
   47        3.482602   1.000000
   48        3.614166   1.000000
   49        3.713672   1.000000
   50        3.764310   1.000000
   51        3.840994   1.000000
   52        3.928792   1.000000
   53        3.957314   1.000000
   54        4.000314   1.000000
   55        4.193437   1.000000
   56        4.401588   1.000000
   57        4.435870   1.000000
   58        4.487007   1.000000
   59        4.536003   1.000000
   60        4.571117   1.000000
   61        4.627615   1.000000
   62        4.664931   1.000000
   63        4.726682   1.000000
   64        4.792772   1.000000
   65        4.827733   1.000000
   66        4.871349   1.000000
   67        4.909573   1.000000
   68        4.942547   1.000000
   69        5.000325   1.000000
   70        5.034655   1.000000
   71        5.056787   1.000000
   72        5.117396   1.000000
   73        5.146268   1.000000
   74        5.205006   1.000000
   75        5.280671   1.000000
   76        5.353596   1.000000
   77        5.405007   1.000000
   78        5.488155   1.000000
   79        5.536064   1.000000
   80        5.609335   1.000000
   81        5.718192   1.000000
   82        5.783135   1.000000
   83        5.864416   1.000001
   84        5.920477   1.000005
   85        5.957626   1.000016
   86        5.994006   1.000047
   87        6.023657   1.000110
   88        6.076569   1.000439
   89        6.105976   1.000886
   90        6.148955   1.002257
   91        6.188280   1.004822
   92        6.248047   1.012628
   93        6.295349   1.022500
   94        6.332246   1.030713
   95        6.350889   1.033864
   96        6.417816   1.025120
   97        6.453607   0.995221
   98        6.474737   0.965110
   99        6.564500   0.716902
  100        6.583332   0.643480
  101        6.614050   0.515870
  102        6.738731   0.077912
  103        6.794474  -0.008409
  104        6.835463  -0.032031
  105        6.884333  -0.033915
  106        6.918536  -0.027487
  107        7.007293  -0.009439
  108        7.049289  -0.004653
  109        7.094585  -0.001915
  110        7.156166  -0.000471
  111        7.292695  -0.000010
  112        7.331749  -0.000003
  113        7.646609  -0.000000
  114        7.703280  -0.000000
  115        7.738101  -0.000000
  116        7.790289  -0.000000
  117        7.955889  -0.000000
  118        8.187945  -0.000000
  119        8.386731  -0.000000
  120        8.451262  -0.000000
  121        8.472134  -0.000000
  122        8.502108  -0.000000
  123        8.584085  -0.000000
  124        8.652254  -0.000000
  125        8.686068  -0.000000
  126        8.769581  -0.000000
  127        8.802919  -0.000000
  128        8.908458  -0.000000
 
  0.4000000E+00  0.1387779E-16  0.2775558E-16  0.1600000E-01
    1      -47.428988   1.000000
    2      -47.420491   1.000000
    3      -47.387563   1.000000
    4      -47.331434   1.000000
    5      -47.293361   1.000000
    6      -47.231395   1.000000
    7      -23.945407   1.000000
    8      -23.878036   1.000000
    9      -23.820421   1.000000
   10      -23.715589   1.000000
   11      -23.612224   1.000000
   12      -23.596999   1.000000
   13      -23.583719   1.000000
   14      -23.554634   1.000000
   15      -23.534021   1.000000
   16      -23.505784   1.000000
   17      -23.497318   1.000000
   18      -23.483697   1.000000
   19      -23.411288   1.000000
   20      -23.384478   1.000000
   21      -23.287357   1.000000
   22      -23.258823   1.000000
   23      -23.192535   1.000000
   24      -23.058921   1.000000
   25        0.237717   1.000000
   26        1.211395   1.000000
   27        1.338032   1.000000
   28        1.872169   1.000000
   29        2.152429   1.000000
   30        2.439244   1.000000
   31        2.502431   1.000000
   32        2.671255   1.000000
   33        2.696835   1.000000
   34        2.791989   1.000000
   35        2.901700   1.000000
   36        3.102616   1.000000
   37        3.235567   1.000000
   38        3.293396   1.000000
   39        3.306859   1.000000
   40        3.404127   1.000000
   41        3.472465   1.000000
   42        3.498517   1.000000
   43        3.556064   1.000000
   44        3.614793   1.000000
   45        3.659479   1.000000
   46        3.729500   1.000000
   47        3.788149   1.000000
   48        3.808595   1.000000
   49        3.846048   1.000000
   50        3.876175   1.000000
   51        3.985682   1.000000
   52        4.006969   1.000000
   53        4.101581   1.000000
   54        4.151979   1.000000
   55        4.197074   1.000000
   56        4.280361   1.000000
   57        4.419336   1.000000
   58        4.434513   1.000000
   59        4.508855   1.000000
   60        4.566624   1.000000
   61        4.658812   1.000000
   62        4.666822   1.000000
   63        4.690101   1.000000
   64        4.748565   1.000000
   65        4.785138   1.000000
   66        4.830841   1.000000
   67        4.881153   1.000000
   68        4.900202   1.000000
   69        4.931671   1.000000
   70        4.961560   1.000000
   71        4.983228   1.000000
   72        5.032863   1.000000
   73        5.101308   1.000000
   74        5.119823   1.000000
   75        5.173263   1.000000
   76        5.248313   1.000000
   77        5.279333   1.000000
   78        5.303182   1.000000
   79        5.329318   1.000000
   80        5.388467   1.000000
   81        5.417554   1.000000
   82        5.499973   1.000000
   83        5.602668   1.000000
   84        5.646831   1.000000
   85        5.701287   1.000000
   86        5.780867   1.000000
   87        5.805663   1.000000
   88        5.854980   1.000000
   89        5.884133   1.000001
   90        5.921931   1.000005
   91        5.959650   1.000017
   92        5.978229   1.000030
   93        6.009655   1.000074
   94        6.063641   1.000318
   95        6.080112   1.000479
   96        6.116695   1.001130
   97        6.176762   1.003899
   98        6.216996   1.007891
   99        6.245423   1.012168
  100        6.290223   1.021324
  101        6.407256   1.029769
  102        6.445441   1.004213
  103        6.473944   0.966428
  104        6.532257   0.827860
  105        6.584715   0.637898
  106        6.595844   0.592295
  107        6.637689   0.416310
  108        6.661637   0.319367
  109        6.739204   0.076865
  110        6.872289  -0.035130
  111        6.942158  -0.022062
  112        7.052281  -0.004405
  113        7.408691  -0.000000
  114        7.580653  -0.000000
  115        7.912230  -0.000000
  116        8.101229  -0.000000
  117        8.318065  -0.000000
  118        8.414107  -0.000000
  119        8.429778  -0.000000
  120        8.503294  -0.000000
  121        8.622034  -0.000000
  122        8.677263  -0.000000
  123        8.742572  -0.000000
  124        8.781165  -0.000000
  125        8.867068  -0.000000
  126        8.932969  -0.000000
  127        8.981517  -0.000000
  128        9.069542  -0.000000
 
  0.0000000E+00  0.2000000E+00  0.0000000E+00  0.1600000E-01
    1      -47.429379   1.000000
    2      -47.420379   1.000000
    3      -47.387597   1.000000
    4      -47.331447   1.000000
    5      -47.293227   1.000000
    6      -47.231403   1.000000
    7      -23.942884   1.000000
    8      -23.877394   1.000000
    9      -23.817265   1.000000
   10      -23.716867   1.000000
   11      -23.611485   1.000000
   12      -23.595161   1.000000
   13      -23.582056   1.000000
   14      -23.553305   1.000000
   15      -23.534042   1.000000
   16      -23.506222   1.000000
   17      -23.497745   1.000000
   18      -23.483754   1.000000
   19      -23.411007   1.000000
   20      -23.384784   1.000000
   21      -23.289116   1.000000
   22      -23.257817   1.000000
   23      -23.192759   1.000000
   24      -23.059462   1.000000
   25       -0.506009   1.000000
   26        1.161977   1.000000
   27        1.441774   1.000000
   28        1.792447   1.000000
   29        2.004430   1.000000
   30        2.265060   1.000000
   31        2.351101   1.000000
   32        2.466074   1.000000
   33        2.625895   1.000000
   34        2.653626   1.000000
   35        2.709482   1.000000
   36        2.763377   1.000000
   37        2.836306   1.000000
   38        2.943111   1.000000
   39        3.023293   1.000000
   40        3.104505   1.000000
   41        3.141370   1.000000
   42        3.218022   1.000000
   43        3.233788   1.000000
   44        3.329525   1.000000
   45        3.419663   1.000000
   46        3.458652   1.000000
   47        3.540135   1.000000
   48        3.575621   1.000000
   49        3.600332   1.000000
   50        3.638391   1.000000
   51        3.732395   1.000000
   52        3.771630   1.000000
   53        3.867832   1.000000
   54        3.885210   1.000000
   55        4.073031   1.000000
   56        4.215203   1.000000
   57        4.429554   1.000000
   58        4.469137   1.000000
   59        4.560521   1.000000
   60        4.586158   1.000000
   61        4.616903   1.000000
   62        4.657357   1.000000
   63        4.720825   1.000000
   64        4.786293   1.000000
   65        4.814187   1.000000
   66        4.901000   1.000000
   67        4.928700   1.000000
   68        4.955089   1.000000
   69        4.994355   1.000000
   70        5.020017   1.000000
   71        5.088020   1.000000
   72        5.134728   1.000000
   73        5.193914   1.000000
   74        5.231985   1.000000
   75        5.275776   1.000000
   76        5.397354   1.000000
   77        5.473246   1.000000
   78        5.547739   1.000000
   79        5.625760   1.000000
   80        5.663892   1.000000
   81        5.810183   1.000000
   82        5.930416   1.000007
   83        6.010237   1.000075
   84        6.046471   1.000204
   85        6.060628   1.000294
   86        6.098346   1.000742
   87        6.163682   1.003033
   88        6.189097   1.004893
   89        6.253091   1.013543
   90        6.329875   1.030238
   91        6.368632   1.035391
   92        6.417692   1.025184
   93        6.588326   0.623231
   94        6.635333   0.426133
   95        6.659324   0.328434
   96        6.681512   0.244985
   97        6.734726   0.087005
   98        6.789330  -0.003360
   99        6.806941  -0.018535
  100        6.888031  -0.033397
  101        6.914243  -0.028437
  102        6.964580  -0.017096
  103        6.982048  -0.013629
  104        7.023627  -0.007268
  105        7.080089  -0.002579
  106        7.105354  -0.001522
  107        7.189426  -0.000202
  108        7.223422  -0.000080
  109        7.252763  -0.000034
  110        7.349011  -0.000001
  111        7.391646  -0.000000
  112        7.448723  -0.000000
  113        7.477692  -0.000000
  114        7.810215  -0.000000
  115        7.900894  -0.000000
  116        7.974354  -0.000000
  117        8.028317  -0.000000
  118        8.094286  -0.000000
  119        8.159211  -0.000000
  120        8.188513  -0.000000
  121        8.213751  -0.000000
  122        8.288967  -0.000000
  123        8.368108  -0.000000
  124        8.387060  -0.000000
  125        8.448605  -0.000000
  126        8.569008  -0.000000
  127        8.629071  -0.000000
  128        8.771054  -0.000000
 
  0.2000000E+00  0.2000000E+00  0.1387779E-16  0.1600000E-01
    1      -47.429301   1.000000
    2      -47.420359   1.000000
    3      -47.387564   1.000000
    4      -47.331434   1.000000
    5      -47.293306   1.000000
    6      -47.231393   1.000000
    7      -23.943191   1.000000
    8      -23.877822   1.000000
    9      -23.818831   1.000000
   10      -23.716848   1.000000
   11      -23.611833   1.000000
   12      -23.595766   1.000000
   13      -23.582772   1.000000
   14      -23.553665   1.000000
   15      -23.534200   1.000000
   16      -23.506144   1.000000
   17      -23.497549   1.000000
   18      -23.483621   1.000000
   19      -23.411114   1.000000
   20      -23.384849   1.000000
   21      -23.288449   1.000000
   22      -23.257879   1.000000
   23      -23.192769   1.000000
   24      -23.059292   1.000000
   25       -0.326344   1.000000
   26        1.155009   1.000000
   27        1.586087   1.000000
   28        2.046910   1.000000
   29        2.272087   1.000000
   30        2.342604   1.000000
   31        2.424168   1.000000
   32        2.511760   1.000000
   33        2.615908   1.000000
   34        2.702900   1.000000
   35        2.790891   1.000000
   36        2.864197   1.000000
   37        2.927932   1.000000
   38        2.963685   1.000000
   39        3.040991   1.000000
   40        3.063270   1.000000
   41        3.147905   1.000000
   42        3.212133   1.000000
   43        3.283259   1.000000
   44        3.364640   1.000000
   45        3.419983   1.000000
   46        3.499950   1.000000
   47        3.549973   1.000000
   48        3.586906   1.000000
   49        3.680423   1.000000
   50        3.728326   1.000000
   51        3.831742   1.000000
   52        3.900030   1.000000
   53        3.943025   1.000000
   54        4.038205   1.000000
   55        4.241488   1.000000
   56        4.285355   1.000000
   57        4.400879   1.000000
   58        4.486101   1.000000
   59        4.532977   1.000000
   60        4.618294   1.000000
   61        4.648823   1.000000
   62        4.686481   1.000000
   63        4.711455   1.000000
   64        4.760382   1.000000
   65        4.790246   1.000000
   66        4.861855   1.000000
   67        4.909820   1.000000
   68        4.927950   1.000000
   69        4.954230   1.000000
   70        5.036579   1.000000
   71        5.117117   1.000000
   72        5.135401   1.000000
   73        5.152795   1.000000
   74        5.261815   1.000000
   75        5.299646   1.000000
   76        5.376092   1.000000
   77        5.436897   1.000000
   78        5.538034   1.000000
   79        5.572907   1.000000
   80        5.603329   1.000000
   81        5.648937   1.000000
   82        5.707249   1.000000
   83        5.772383   1.000000
   84        5.863013   1.000001
   85        5.911457   1.000004
   86        5.960250   1.000017
   87        5.999767   1.000056
   88        6.052548   1.000239
   89        6.140890   1.001909
   90        6.168189   1.003311
   91        6.237086   1.010780
   92        6.261982   1.015248
   93        6.281167   1.019287
   94        6.339593   1.032095
   95        6.382662   1.035062
   96        6.440727   1.008781
   97        6.476961   0.961333
   98        6.515166   0.877249
   99        6.542736   0.794186
  100        6.578770   0.661721
  101        6.632806   0.436707
  102        6.683233   0.238880
  103        6.783154   0.003419
  104        6.804528  -0.016798
  105        6.881496  -0.034270
  106        6.932197  -0.024363
  107        7.017870  -0.007986
  108        7.101658  -0.001648
  109        7.173832  -0.000303
  110        7.285143  -0.000013
  111        7.298980  -0.000008
  112        7.480412  -0.000000
  113        7.619893  -0.000000
  114        7.646863  -0.000000
  115        7.886769  -0.000000
  116        8.005351  -0.000000
  117        8.066401  -0.000000
  118        8.177662  -0.000000
  119        8.234349  -0.000000
  120        8.281988  -0.000000
  121        8.300465  -0.000000
  122        8.338698  -0.000000
  123        8.483792  -0.000000
  124        8.539074  -0.000000
  125        8.681986  -0.000000
  126        8.759019  -0.000000
  127        8.904876  -0.000000
  128        8.953804  -0.000000
 
  0.4000000E+00  0.2000000E+00  0.2775558E-16  0.1600000E-01
    1      -47.428970   1.000000
    2      -47.420517   1.000000
    3      -47.387543   1.000000
    4      -47.331432   1.000000
    5      -47.293376   1.000000
    6      -47.231392   1.000000
    7      -23.944586   1.000000
    8      -23.878017   1.000000
    9      -23.820534   1.000000
   10      -23.716925   1.000000
   11      -23.612310   1.000000
   12      -23.596724   1.000000
   13      -23.583825   1.000000
   14      -23.554517   1.000000
   15      -23.534188   1.000000
   16      -23.505860   1.000000
   17      -23.497315   1.000000
   18      -23.483354   1.000000
   19      -23.411262   1.000000
   20      -23.384643   1.000000
   21      -23.286995   1.000000
   22      -23.258580   1.000000
   23      -23.192595   1.000000
   24      -23.059113   1.000000
   25        0.262050   1.000000
   26        1.211950   1.000000
   27        1.404979   1.000000
   28        1.996538   1.000000
   29        2.148172   1.000000
   30        2.282369   1.000000
   31        2.551949   1.000000
   32        2.655319   1.000000
   33        2.771430   1.000000
   34        2.821892   1.000000
   35        2.943065   1.000000
   36        3.149762   1.000000
   37        3.203255   1.000000
   38        3.254022   1.000000
   39        3.301923   1.000000
   40        3.353162   1.000000
   41        3.380596   1.000000
   42        3.445451   1.000000
   43        3.470745   1.000000
   44        3.523437   1.000000
   45        3.616098   1.000000
   46        3.640582   1.000000
   47        3.703206   1.000000
   48        3.759727   1.000000
   49        3.851423   1.000000
   50        3.878351   1.000000
   51        3.955202   1.000000
   52        3.993769   1.000000
   53        4.016905   1.000000
   54        4.081710   1.000000
   55        4.151034   1.000000
   56        4.253198   1.000000
   57        4.370265   1.000000
   58        4.480206   1.000000
   59        4.542584   1.000000
   60        4.607130   1.000000
   61        4.646688   1.000000
   62        4.699193   1.000000
   63        4.748917   1.000000
   64        4.792423   1.000000
   65        4.836682   1.000000
   66        4.872305   1.000000
   67        4.931017   1.000000
   68        4.948685   1.000000
   69        5.003523   1.000000
   70        5.016407   1.000000
   71        5.073332   1.000000
   72        5.124156   1.000000
   73        5.142179   1.000000
   74        5.229970   1.000000
   75        5.250986   1.000000
   76        5.304225   1.000000
   77        5.318829   1.000000
   78        5.351478   1.000000
   79        5.409363   1.000000
   80        5.478016   1.000000
   81        5.490754   1.000000
   82        5.524957   1.000000
   83        5.587202   1.000000
   84        5.610734   1.000000
   85        5.630933   1.000000
   86        5.678038   1.000000
   87        5.714608   1.000000
   88        5.790955   1.000000
   89        5.832258   1.000000
   90        5.854007   1.000000
   91        5.902449   1.000003
   92        5.933118   1.000007
   93        5.978925   1.000030
   94        6.017560   1.000093
   95        6.034548   1.000148
   96        6.078412   1.000459
   97        6.151322   1.002369
   98        6.168023   1.003300
   99        6.212325   1.007310
  100        6.237659   1.010872
  101        6.297521   1.023001
  102        6.346685   1.033264
  103        6.387566   1.034538
  104        6.446571   1.003051
  105        6.522807   0.856043
  106        6.587709   0.625747
  107        6.655720   0.342709
  108        6.703544   0.171527
  109        6.783524   0.002990
  110        6.953953  -0.019394
  111        7.091248  -0.002053
  112        7.257899  -0.000029
  113        7.551458  -0.000000
  114        7.813256  -0.000000
  115        8.045257  -0.000000
  116        8.167138  -0.000000
  117        8.292198  -0.000000
  118        8.358094  -0.000000
  119        8.391476  -0.000000
  120        8.543958  -0.000000
  121        8.606512  -0.000000
  122        8.626887  -0.000000
  123        8.703877  -0.000000
  124        8.750520  -0.000000
  125        8.811204  -0.000000
  126        8.868417  -0.000000
  127        8.931513  -0.000000
  128        9.039651  -0.000000
 
 -0.4000000E+00  0.2000000E+00 -0.2775558E-16  0.1600000E-01
    1      -47.428841   1.000000
    2      -47.420638   1.000000
    3      -47.387565   1.000000
    4      -47.331442   1.000000
    5      -47.293342   1.000000
    6      -47.231401   1.000000
    7      -23.945136   1.000000
    8      -23.877766   1.000000
    9      -23.820034   1.000000
   10      -23.716995   1.000000
   11      -23.612265   1.000000
   12      -23.596826   1.000000
   13      -23.583830   1.000000
   14      -23.554535   1.000000
   15      -23.534033   1.000000
   16      -23.505789   1.000000
   17      -23.497371   1.000000
   18      -23.483480   1.000000
   19      -23.411295   1.000000
   20      -23.384479   1.000000
   21      -23.286784   1.000000
   22      -23.258931   1.000000
   23      -23.192564   1.000000
   24      -23.059188   1.000000
   25        0.424166   1.000000
   26        1.164240   1.000000
   27        1.323038   1.000000
   28        1.788142   1.000000
   29        1.946819   1.000000
   30        2.377681   1.000000
   31        2.450406   1.000000
   32        2.604105   1.000000
   33        2.787310   1.000000
   34        2.850800   1.000000
   35        2.996815   1.000000
   36        3.093996   1.000000
   37        3.160195   1.000000
   38        3.196545   1.000000
   39        3.303842   1.000000
   40        3.320579   1.000000
   41        3.409929   1.000000
   42        3.462777   1.000000
   43        3.584323   1.000000
   44        3.633287   1.000000
   45        3.725465   1.000000
   46        3.740659   1.000000
   47        3.803480   1.000000
   48        3.817804   1.000000
   49        3.895624   1.000000
   50        3.938442   1.000000
   51        3.993667   1.000000
   52        4.063180   1.000000
   53        4.124353   1.000000
   54        4.199509   1.000000
   55        4.252448   1.000000
   56        4.307736   1.000000
   57        4.412665   1.000000
   58        4.479934   1.000000
   59        4.559710   1.000000
   60        4.594932   1.000000
   61        4.645118   1.000000
   62        4.677501   1.000000
   63        4.723530   1.000000
   64        4.771965   1.000000
   65        4.784068   1.000000
   66        4.818041   1.000000
   67        4.837093   1.000000
   68        4.889982   1.000000
   69        4.927574   1.000000
   70        4.958216   1.000000
   71        4.987237   1.000000
   72        5.028942   1.000000
   73        5.071212   1.000000
   74        5.147797   1.000000
   75        5.185207   1.000000
   76        5.226534   1.000000
   77        5.283826   1.000000
   78        5.365193   1.000000
   79        5.401843   1.000000
   80        5.450291   1.000000
   81        5.461788   1.000000
   82        5.513872   1.000000
   83        5.563847   1.000000
   84        5.618255   1.000000
   85        5.663021   1.000000
   86        5.699640   1.000000
   87        5.735859   1.000000
   88        5.796668   1.000000
   89        5.851422   1.000000
   90        5.884329   1.000001
   91        5.928954   1.000006
   92        5.962209   1.000018
   93        6.015595   1.000088
   94        6.045887   1.000200
   95        6.072797   1.000400
   96        6.136144   1.001727
   97        6.182005   1.004299
   98        6.229586   1.009626
   99        6.282985   1.019690
  100        6.323394   1.028879
  101        6.340073   1.032179
  102        6.389357   1.034287
  103        6.426142   1.020241
  104        6.473285   0.967510
  105        6.540460   0.801708
  106        6.583577   0.642491
  107        6.634121   0.431200
  108        6.664611   0.307821
  109        6.702860   0.173646
  110        6.759958   0.036419
  111        6.928144  -0.025300
  112        7.001321  -0.010338
  113        7.520701  -0.000000
  114        7.923773  -0.000000
  115        8.071668  -0.000000
  116        8.278423  -0.000000
  117        8.300553  -0.000000
  118        8.434964  -0.000000
  119        8.482618  -0.000000
  120        8.530889  -0.000000
  121        8.639437  -0.000000