 vasp.5.4.4.18Apr17-6-g9f103f2a35 (build Aug 09 2018 16:20:53) complex          
  
 executed on             LinuxIFC date 2020.04.12  14:16:29
 running on   32 total cores
 distrk:  each k-point on   32 cores,    1 groups
 distr:  one band on NCORES_PER_BAND=   4 cores,    8 groups


--------------------------------------------------------------------------------------------------------


 INCAR:
 POTCAR:    PAW_PBE Nb_sv 25May2007               
 POTCAR:    PAW_PBE Mo 08Apr2002                  
 POTCAR:    PAW_PBE Ta 17Jan2003                  
 POTCAR:    PAW_PBE Ti 08Apr2002                  
 POTCAR:    PAW_PBE W 08Apr2002                   
 POTCAR:    PAW_PBE Nb_sv 25May2007               
   VRHFIN =Nb: 4p5s4d                                                           
   LEXCH  = PE                                                                  
   EATOM  =  1555.1913 eV,  114.3033 Ry                                         
                                                                                
   TITEL  = PAW_PBE Nb_sv 25May2007                                             
   LULTRA =        F    use ultrasoft PP ?                                      
   IUNSCR =        1    unscreen: 0-lin 1-nonlin 2-no                           
   RPACOR =    1.800    partial core radius                                     
   POMASS =   92.910; ZVAL   =   13.000    mass and valenz                      
   RCORE  =    2.400    outmost cutoff radius                                   
   RWIGS  =    2.400; RWIGS  =    1.270    wigner-seitz radius (au A)           
   ENMAX  =  293.235; ENMIN  =  219.927 eV                                      
   ICORE  =        3    local potential                                         
   LCOR   =        T    correct aug charges                                     
   LPAW   =        T    paw PP                                                  
   EAUG   =  455.659                                                            
   DEXC   =    0.000                                                            
   RMAX   =    2.456    core radius for proj-oper                               
   RAUG   =    1.300    factor for augmentation sphere                          
   RDEP   =    2.451    radius for radial grids                                 
   RDEPT  =    1.956    core radius for aug-charge                              
                                                                                
   Atomic configuration                                                         
   11 entries                                                                   
     n  l   j            E        occ.                                          
     1  0  0.50    -18805.2457   2.0000                                         
     2  0  0.50     -2630.2869   2.0000                                         
     2  1  1.50     -2348.4046   6.0000                                         
     3  0  0.50      -438.8757   2.0000                                         
     3  1  1.50      -346.7588   6.0000                                         
     3  2  2.50      -196.2560  10.0000                                         
     4  0  0.50       -58.3859   2.0000                                         
     5  0  0.50        -3.9816   1.0000                                         
     4  1  1.50       -34.5141   6.0000                                         
     4  2  2.50        -3.0408   4.0000                                         
     4  3  2.50        -1.3606   0.0000                                         
   Description                                                                  
     l       E           TYP  RCUT    TYP  RCUT                                 
     0    -58.3859094     23  2.200                                             
     0     -3.9816262     23  2.200                                             
     1    -34.5140738     23  2.200                                             
     1     13.6058260     23  2.200                                             
     2     -3.0408010     23  2.200                                             
     2     -0.1283038     23  2.200                                             
     3     -1.3605826     23  2.400                                             
  local pseudopotential read in
  partial core-charges read in
  partial kinetic energy density read in
  atomic valenz-charges read in
  non local Contribution for L=           0  read in
    real space projection operators read in
  non local Contribution for L=           0  read in
    real space projection operators read in
  non local Contribution for L=           1  read in
    real space projection operators read in
  non local Contribution for L=           1  read in
    real space projection operators read in
  non local Contribution for L=           2  read in
    real space projection operators read in
  non local Contribution for L=           2  read in
    real space projection operators read in
    PAW grid and wavefunctions read in
 
   number of l-projection  operators is LMAX  =           6
   number of lm-projection operators is LMMAX =          18
 
 POTCAR:    PAW_PBE Mo 08Apr2002                  
   VRHFIN =Mo: 4p5s4d                                                           
   LEXCH  = PE                                                                  
   EATOM  =   217.5176 eV,   15.9871 Ry                                         
                                                                                
   TITEL  = PAW_PBE Mo 08Apr2002                                                
   LULTRA =        F    use ultrasoft PP ?                                      
   IUNSCR =        1    unscreen: 0-lin 1-nonlin 2-no                           
   RPACOR =    2.200    partial core radius                                     
   POMASS =   95.940; ZVAL   =    6.000    mass and valenz                      
   RCORE  =    2.750    outmost cutoff radius                                   
   RWIGS  =    2.750; RWIGS  =    1.455    wigner-seitz radius (au A)           
   ENMAX  =  224.584; ENMIN  =  168.438 eV                                      
   RCLOC  =    2.111    cutoff for local pot                                    
   LCOR   =        T    correct aug charges                                     
   LPAW   =        T    paw PP                                                  
   EAUG   =  345.278                                                            
   DEXC   =    0.000                                                            
   RMAX   =    2.821    core radius for proj-oper                               
   RAUG   =    1.300    factor for augmentation sphere                          
   RDEP   =    2.815    radius for radial grids                                 
   RDEPT  =    2.211    core radius for aug-charge                              
                                                                                
   Atomic configuration                                                         
   12 entries                                                                   
     n  l   j            E        occ.                                          
     1  0  0.50    -19819.0341   2.0000                                         
     2  0  0.50     -2799.0127   2.0000                                         
     2  1  1.50     -2502.0276   6.0000                                         
     3  0  0.50      -476.4448   2.0000                                         
     3  1  1.50      -379.1496   6.0000                                         
     3  2  2.50      -220.9367  10.0000                                         
     4  0  0.50       -64.3378   2.0000                                         
     4  1  1.50       -38.4773   6.0000                                         
     4  2  2.50        -3.7535   5.0000                                         
     5  0  0.50        -4.0862   1.0000                                         
     5  1  0.50        -2.7701   0.0000                                         
     4  3  2.50        -1.3606   0.0000                                         
   Description                                                                  
     l       E           TYP  RCUT    TYP  RCUT                                 
     2     -3.7534765     23  2.500                                             
     2     -5.1140591     23  2.500                                             
     0     -4.0861560     23  2.600                                             
     0     13.6058260     23  2.600                                             
     1      5.4423304     23  2.750                                             
     1     27.2116520     23  2.750                                             
  local pseudopotential read in
  partial core-charges read in
  partial kinetic energy density read in
  atomic valenz-charges read in
  non local Contribution for L=           2  read in
    real space projection operators read in
  non local Contribution for L=           2  read in
    real space projection operators read in
  non local Contribution for L=           0  read in
    real space projection operators read in
  non local Contribution for L=           0  read in
    real space projection operators read in
  non local Contribution for L=           1  read in
    real space projection operators read in
  non local Contribution for L=           1  read in
    real space projection operators read in
    PAW grid and wavefunctions read in
 
   number of l-projection  operators is LMAX  =           6
   number of lm-projection operators is LMMAX =          18
 
 POTCAR:    PAW_PBE Ta 17Jan2003                  
   VRHFIN =Ta:  6s5d                                                            
   LEXCH  = PE                                                                  
   EATOM  =   130.6506 eV,    9.6025 Ry                                         
                                                                                
   TITEL  = PAW_PBE Ta 17Jan2003                                                
   LULTRA =        F    use ultrasoft PP ?                                      
   IUNSCR =        1    unscreen: 0-lin 1-nonlin 2-no                           
   RPACOR =    2.330    partial core radius                                     
   POMASS =  180.948; ZVAL   =    5.000    mass and valenz                      
   RCORE  =    2.900    outmost cutoff radius                                   
   RWIGS  =    2.840; RWIGS  =    1.503    wigner-seitz radius (au A)           
   ENMAX  =  223.667; ENMIN  =  167.750 eV                                      
   RCLOC  =    2.205    cutoff for local pot                                    
   LCOR   =        T    correct aug charges                                     
   LPAW   =        T    paw PP                                                  
   EAUG   =  332.075                                                            
   DEXC   =    0.000                                                            
   RMAX   =    2.970    core radius for proj-oper                               
   RAUG   =    1.300    factor for augmentation sphere                          
   RDEP   =    3.060    radius for radial grids                                 
   RDEPT  =    2.354    core radius for aug-charge                              
                                                                                
   Atomic configuration                                                         
   16 entries                                                                   
     n  l   j            E        occ.                                          
     1  0  0.50    -67341.2807   2.0000                                         
     2  0  0.50    -11566.9376   2.0000                                         
     2  1  1.50    -10134.1182   6.0000                                         
     3  0  0.50     -2648.5620   2.0000                                         
     3  1  1.50     -2222.6012   6.0000                                         
     3  2  2.50     -1726.3120  10.0000                                         
     4  0  0.50      -538.6961   2.0000                                         
     4  1  1.50      -399.0129   6.0000                                         
     4  2  2.50      -220.3959  10.0000                                         
     4  3  3.50       -23.0374  14.0000                                         
     5  0  0.50       -71.2901   2.0000                                         
     5  1  1.50       -37.8225   6.0000                                         
     5  2  2.50        -2.6455   4.0000                                         
     6  0  0.50        -4.9623   1.0000                                         
     6  1  1.50        -1.3606   0.0000                                         
     5  3  2.50        -1.3606   0.0000                                         
   Description                                                                  
     l       E           TYP  RCUT    TYP  RCUT                                 
     2     -2.6455043     23  2.500                                             
     2     -0.6258895     23  2.500                                             
     0     -4.9622780     23  2.500                                             
     0      4.7531321     23  2.500                                             
     1     -1.3605826     23  2.900                                             
     1     27.2116520     23  2.900                                             
  local pseudopotential read in
  partial core-charges read in
  partial kinetic energy density read in
  atomic valenz-charges read in
  non local Contribution for L=           2  read in
    real space projection operators read in
  non local Contribution for L=           2  read in
    real space projection operators read in
  non local Contribution for L=           0  read in
    real space projection operators read in
  non local Contribution for L=           0  read in
    real space projection operators read in
  non local Contribution for L=           1  read in
    real space projection operators read in
  non local Contribution for L=           1  read in
    real space projection operators read in
    PAW grid and wavefunctions read in
 
   number of l-projection  operators is LMAX  =           6
   number of lm-projection operators is LMMAX =          18
 
 POTCAR:    PAW_PBE Ti 08Apr2002                  
   VRHFIN =Ti: d3 s1                                                            
   LEXCH  = PE                                                                  
   EATOM  =    94.7928 eV,    6.9671 Ry                                         
                                                                                
   TITEL  = PAW_PBE Ti 08Apr2002                                                
   LULTRA =        F    use ultrasoft PP ?                                      
   IUNSCR =        1    unscreen: 0-lin 1-nonlin 2-no                           
   RPACOR =    2.200    partial core radius                                     
   POMASS =   47.880; ZVAL   =    4.000    mass and valenz                      
   RCORE  =    2.800    outmost cutoff radius                                   
   RWIGS  =    2.500; RWIGS  =    1.323    wigner-seitz radius (au A)           
   ENMAX  =  178.330; ENMIN  =  133.747 eV                                      
   RCLOC  =    2.215    cutoff for local pot                                    
   LCOR   =        T    correct aug charges                                     
   LPAW   =        T    paw PP                                                  
   EAUG   =  328.883                                                            
   DEXC   =    0.000                                                            
   RMAX   =    2.868    core radius for proj-oper                               
   RAUG   =    1.300    factor for augmentation sphere                          
   RDEP   =    2.885    radius for radial grids                                 
   RDEPT  =    2.320    core radius for aug-charge                              
                                                                                
   Atomic configuration                                                         
    9 entries                                                                   
     n  l   j            E        occ.                                          
     1  0  0.50     -4865.3608   2.0000                                         
     2  0  0.50      -533.1367   2.0000                                         
     2  1  1.50      -440.5031   6.0000                                         
     3  0  0.50       -59.3186   2.0000                                         
     3  1  1.50       -35.7012   6.0000                                         
     3  2  2.50        -1.9157   3.0000                                         
     4  0  0.50        -3.7291   1.0000                                         
     4  1  1.50        -4.0817   0.0000                                         
     4  3  2.50        -1.3606   0.0000                                         
   Description                                                                  
     l       E           TYP  RCUT    TYP  RCUT                                 
     2     -1.9156924     23  2.800                                             
     2     -0.4062961     23  2.800                                             
     0     -3.7290832     23  2.800                                             
     0     20.4087390     23  2.800                                             
     1     -5.4423304     23  2.800                                             
  local pseudopotential read in
  partial core-charges read in
  partial kinetic energy density read in
  atomic valenz-charges read in
  non local Contribution for L=           2  read in
    real space projection operators read in
  non local Contribution for L=           2  read in
    real space projection operators read in
  non local Contribution for L=           0  read in
    real space projection operators read in
  non local Contribution for L=           0  read in
    real space projection operators read in
  non local Contribution for L=           1  read in
    real space projection operators read in
    PAW grid and wavefunctions read in
 
   number of l-projection  operators is LMAX  =           5
   number of lm-projection operators is LMMAX =          15
 
 POTCAR:    PAW_PBE W 08Apr2002                   
   VRHFIN =W : 6s5d                                                             
   LEXCH  = PE                                                                  
   EATOM  =   204.6103 eV,   15.0384 Ry                                         
                                                                                
   TITEL  = PAW_PBE W 08Apr2002                                                 
   LULTRA =        F    use ultrasoft PP ?                                      
   IUNSCR =        1    unscreen: 0-lin 1-nonlin 2-no                           
   RPACOR =    2.330    partial core radius                                     
   POMASS =  183.850; ZVAL   =    6.000    mass and valenz                      
   RCORE  =    2.750    outmost cutoff radius                                   
   RWIGS  =    2.750; RWIGS  =    1.455    wigner-seitz radius (au A)           
   ENMAX  =  223.057; ENMIN  =  167.293 eV                                      
   RCLOC  =    2.147    cutoff for local pot                                    
   LCOR   =        T    correct aug charges                                     
   LPAW   =        T    paw PP                                                  
   EAUG   =  373.438                                                            
   DEXC   =    0.000                                                            
   RMAX   =    2.801    core radius for proj-oper                               
   RAUG   =    1.300    factor for augmentation sphere                          
   RDEP   =    2.886    radius for radial grids                                 
   RDEPT  =    2.230    core radius for aug-charge                              
                                                                                
   Atomic configuration                                                         
   16 entries                                                                   
     n  l   j            E        occ.                                          
     1  0  0.50    -69465.5836   2.0000                                         
     2  0  0.50    -11986.2642   2.0000                                         
     2  1  1.50    -10479.8616   6.0000                                         
     3  0  0.50     -2759.0758   2.0000                                         
     3  1  1.50     -2313.1857   6.0000                                         
     3  2  2.50     -1801.1185  10.0000                                         
     4  0  0.50      -567.6791   2.0000                                         
     4  1  1.50      -421.4694   6.0000                                         
     4  2  2.50      -236.3473  10.0000                                         
     4  3  3.50       -31.2666  14.0000                                         
     5  0  0.50       -77.1085   2.0000                                         
     5  1  1.50       -41.3856   6.0000                                         
     5  2  2.50        -3.3185   5.0000                                         
     6  0  0.50        -5.1438   1.0000                                         
     6  1  0.50        -3.8096   0.0000                                         
     5  3  2.50        -1.3606   0.0000                                         
   Description                                                                  
     l       E           TYP  RCUT    TYP  RCUT                                 
     2     -3.3185288     23  2.500                                             
     2     -1.5965414     23  2.500                                             
     0     -5.1438054     23  2.500                                             
     0      4.9117504     23  2.500                                             
     1      2.7211652     23  2.750                                             
     1     27.2116520     23  2.750                                             
  local pseudopotential read in
  partial core-charges read in
  partial kinetic energy density read in
  atomic valenz-charges read in
  non local Contribution for L=           2  read in
    real space projection operators read in
  non local Contribution for L=           2  read in
    real space projection operators read in
  non local Contribution for L=           0  read in
    real space projection operators read in
  non local Contribution for L=           0  read in
    real space projection operators read in
  non local Contribution for L=           1  read in
    real space projection operators read in
  non local Contribution for L=           1  read in
    real space projection operators read in
    PAW grid and wavefunctions read in
 
   number of l-projection  operators is LMAX  =           6
   number of lm-projection operators is LMMAX =          18
 
 Optimization of the real space projectors (new method)

 maximal supplied QI-value         = 15.68
 optimisation between [QCUT,QGAM] = [ 10.20, 20.39] = [ 29.11,116.42] Ry 
 Optimized for a Real-space Cutoff    1.60 Angstroem

   l    n(q)    QCUT    max X(q) W(low)/X(q) W(high)/X(q)  e(spline) 
   0     10    10.195    10.201    0.19E-04    0.50E-05    0.39E-07
   0     10    10.195     8.174    0.27E-04    0.89E-05    0.77E-07
   1      9    10.195     3.488    0.83E-04    0.69E-04    0.10E-06
   1      9    10.195     4.917    0.46E-03    0.32E-03    0.50E-06
   2      9    10.195   153.744    0.18E-03    0.91E-03    0.79E-06
   2      9    10.195   126.342    0.18E-03    0.90E-03    0.79E-06
 Optimization of the real space projectors (new method)

 maximal supplied QI-value         = 13.61
 optimisation between [QCUT,QGAM] = [ 10.20, 20.41] = [ 29.16,116.64] Ry 
 Optimized for a Real-space Cutoff    1.55 Angstroem

   l    n(q)    QCUT    max X(q) W(low)/X(q) W(high)/X(q)  e(spline) 
   2      9    10.205    80.908    0.50E-03    0.10E-02    0.77E-06
   2      9    10.205    79.000    0.50E-03    0.10E-02    0.77E-06
   0      9    10.205    52.066    0.67E-04    0.52E-04    0.18E-06
   0      9    10.205    24.514    0.55E-04    0.43E-04    0.15E-06
   1      9    10.205    16.033    0.32E-03    0.32E-03    0.31E-06
   1      9    10.205    11.179    0.26E-03    0.25E-03    0.25E-06
 Optimization of the real space projectors (new method)

 maximal supplied QI-value         = 12.85
 optimisation between [QCUT,QGAM] = [ 10.15, 20.43] = [ 28.86,116.90] Ry 
 Optimized for a Real-space Cutoff    1.65 Angstroem

   l    n(q)    QCUT    max X(q) W(low)/X(q) W(high)/X(q)  e(spline) 
   2      9    10.152    62.315    0.60E-04    0.31E-03    0.56E-06
   2      9    10.152    52.185    0.60E-04    0.31E-03    0.56E-06
   0     10    10.152   103.837    0.42E-04    0.36E-04    0.14E-06
   0     10    10.152    59.728    0.37E-04    0.32E-04    0.13E-06
   1     10    10.152    13.958    0.22E-03    0.17E-03    0.20E-06
   1     10    10.152     8.441    0.16E-03    0.13E-03    0.14E-06
 Optimization of the real space projectors (new method)

 maximal supplied QI-value         = 13.42
 optimisation between [QCUT,QGAM] = [ 10.20, 20.39] = [ 29.12,116.47] Ry 
 Optimized for a Real-space Cutoff    1.60 Angstroem

   l    n(q)    QCUT    max X(q) W(low)/X(q) W(high)/X(q)  e(spline) 
   2      9    10.197    49.363    0.30E-03    0.51E-03    0.44E-06
   2      9    10.197    47.669    0.29E-03    0.50E-03    0.43E-06
   0     10    10.197    26.374    0.13E-03    0.16E-03    0.99E-07
   0     10    10.197    11.549    0.10E-03    0.13E-03    0.84E-07
   1      9    10.197     9.492    0.22E-04    0.44E-04    0.50E-07
 Optimization of the real space projectors (new method)

 maximal supplied QI-value         = 13.61
 optimisation between [QCUT,QGAM] = [ 10.20, 20.41] = [ 29.16,116.64] Ry 
 Optimized for a Real-space Cutoff    1.55 Angstroem

   l    n(q)    QCUT    max X(q) W(low)/X(q) W(high)/X(q)  e(spline) 
   2      9    10.205   130.855    0.41E-03    0.84E-03    0.64E-06
   2      9    10.205   114.007    0.41E-03    0.84E-03    0.64E-06
   0      9    10.205    84.709    0.58E-04    0.61E-04    0.12E-06
   0      9    10.205    49.163    0.53E-04    0.55E-04    0.11E-06
   1      9    10.205    15.765    0.16E-03    0.32E-03    0.27E-06
   1      9    10.205    10.638    0.14E-03    0.24E-03    0.21E-06

 ----------------------------------------------------------------------------- 
|                                                                             |
|  ADVICE TO THIS USER RUNNING 'VASP/VAMP'   (HEAR YOUR MASTER'S VOICE ...):  |
|                                                                             |
|      You enforced a specific xc-type in the INCAR file,                     |
|      a different type was found on the POTCAR file                          |
|          I HOPE YOU KNOW, WHAT YOU ARE  DOING                               |
|                                                                             |
 ----------------------------------------------------------------------------- 

  PAW_PBE Nb_sv 25May2007               :
 energy of atom  1       EATOM=-1555.1913
 kinetic energy error for atom=    0.0212 (will be added to EATOM!!)
  PAW_PBE Mo 08Apr2002                  :
 energy of atom  2       EATOM= -217.5176
 kinetic energy error for atom=    0.0025 (will be added to EATOM!!)
  PAW_PBE Ta 17Jan2003                  :
 energy of atom  3       EATOM= -130.6506
 kinetic energy error for atom=    0.0018 (will be added to EATOM!!)
  PAW_PBE Ti 08Apr2002                  :
 energy of atom  4       EATOM=  -94.7928
 kinetic energy error for atom=    0.0005 (will be added to EATOM!!)
  PAW_PBE W 08Apr2002                   :
 energy of atom  5       EATOM= -204.6103
 kinetic energy error for atom=    0.0024 (will be added to EATOM!!)
 
 
 POSCAR: Nb - Mo - Ta - Ti - W SQS-30 BCC        
  positions in direct lattice
  No initial velocities read in
 exchange correlation table for  LEXCH =       14
   RHO(1)=    0.500       N(1)  =     2000
   RHO(2)=  100.500       N(2)  =     4000

 VTST: version 3.2, (02/03/18)

 CHAIN: initializing optimizer
 
 OPT: Using VASP QUASI-newton optimizer
 CHAIN: Read ICHAIN            0
 
 POSCAR: Nb - Mo - Ta - Ti - W SQS-30 BCC        
  positions in direct lattice
  No initial velocities read in
 


--------------------------------------------------------------------------------------------------------


 ion  position               nearest neighbor table
   1  0.000  0.000  0.000-  12 2.79  13 2.79  21 2.79  28 2.79  24 2.79  14 2.79   4 2.79   5 2.79
                            25 3.22   7 3.22   7 3.22
   2  0.833  0.000  0.333-  28 2.79  29 2.79  23 2.79  13 2.79   4 2.79   9 2.79  14 2.79  27 2.79
                            16 3.22   8 3.22   8 3.22  15 3.22
   3  0.100  0.400  0.600-  27 2.79  10 2.79  21 2.79   9 2.79   5 2.79  17 2.79  11 2.79  22 2.79
                            29 3.22  18 3.22  18 3.22
   4  0.200  0.800  0.200-   8 2.79  25 2.79  17 2.79  22 2.79  26 2.79   7 2.79   2 2.79   1 2.79
                            29 3.22  28 3.22  28 3.22  13 3.22
   5  0.800  0.200  0.800-   6 2.79  15 2.79  18 2.79  30 2.79   3 2.79   7 2.79  19 2.79   1 2.79
                            27 3.22  14 3.22  11 3.22  12 3.22
   6  0.933  0.400  0.933-   5 2.79  11 2.79  14 2.79  21 2.79  26 2.79  10 2.79  13 2.79  25 2.79
                            30 3.22  12 3.22  30 3.22  16 3.22
   7  0.500  0.000  0.000-  14 2.79  24 2.79   4 2.79   5 2.79  12 2.79  13 2.79  21 2.79  28 2.79
                            15 3.22   8 3.22  26 3.22  30 3.22   1 3.22   1 3.22
   8  0.333  0.000  0.333-   4 2.79  23 2.79  29 2.79  14 2.79  28 2.79  27 2.79  13 2.79   9 2.79
                             7 3.22  17 3.22  20 3.22   2 3.22   2 3.22  19 3.22
   9  0.467  0.200  0.467-  18 2.79  15 2.79  16 2.79   3 2.79  19 2.79   2 2.79  20 2.79   8 2.79
                            21 3.22  17 3.22  27 3.22  27 3.22  23 3.22  14 3.22
  10  0.233  0.600  0.733-   3 2.79  23 2.79  12 2.79  30 2.79   6 2.79  18 2.79  29 2.79  24 2.79
                            17 3.22  21 3.22  19 3.22  11 3.22  11 3.22  25 3.22
  11  0.733  0.600  0.733-  18 2.79   6 2.79  29 2.79  24 2.79  30 2.79   3 2.79  23 2.79  12 2.79
                            22 3.22   5 3.22  15 3.22  10 3.22  10 3.22  26 3.22
  12  0.867  0.800  0.867-   1 2.79  25 2.79  26 2.79  10 2.79  19 2.79   7 2.79  15 2.79  11 2.79
                            28 3.22   6 3.22  24 3.22  24 3.22   5 3.22  29 3.22
  13  0.133  0.200  0.133-   1 2.79  16 2.79  30 2.79   2 2.79   7 2.79   6 2.79   8 2.79  20 2.79
                            21 3.22  25 3.22  14 3.22  14 3.22   4 3.22  27 3.22
  14  0.633  0.200  0.133-   7 2.79   6 2.79  20 2.79  30 2.79   8 2.79   1 2.79   2 2.79  16 2.79
                             5 3.22  26 3.22  13 3.22  13 3.22  28 3.22   9 3.22
  15  0.667  0.000  0.667-   5 2.79   9 2.79  27 2.79  24 2.79  21 2.79  29 2.79  12 2.79  23 2.79
                             7 3.22  18 3.22  11 3.22  19 3.22  19 3.22   2 3.22
  16  0.767  0.400  0.267-  22 2.79   9 2.79  13 2.79  25 2.79  26 2.79  17 2.79  27 2.79  14 2.79
                            18 3.22  28 3.22   2 3.22  20 3.22  20 3.22   6 3.22
  17  0.400  0.600  0.400-  23 2.79  20 2.79   4 2.79  28 2.79  29 2.79   3 2.79  16 2.79  18 2.79
                            10 3.22  26 3.22   8 3.22   9 3.22  22 3.22  22 3.22
  18  0.600  0.400  0.600-   9 2.79  11 2.79   5 2.79  21 2.79  27 2.79  22 2.79  10 2.79  17 2.79
                            30 3.22  16 3.22  15 3.22  23 3.22   3 3.22   3 3.22
  19  0.167  0.000  0.667-  21 2.79  27 2.79   9 2.79  12 2.79   5 2.79  23 2.79  24 2.79  29 2.79
                            10 3.22  15 3.22  15 3.22   8 3.22
  20  0.267  0.400  0.267-  17 2.79  27 2.79  14 2.79  22 2.79   9 2.79  26 2.79  25 2.79  13 2.79
                             8 3.22  16 3.22  16 3.22  30 3.22
  21  0.300  0.200  0.800-  30 2.79  19 2.79   3 2.79   6 2.79  18 2.79   1 2.79  15 2.79   7 2.79
                             9 3.22  13 3.22  10 3.22
  22  0.900  0.600  0.400-  29 2.79  16 2.79  28 2.79   4 2.79  23 2.79  18 2.79  20 2.79   3 2.79
                            11 3.22  25 3.22  27 3.22  17 3.22  17 3.22
  23  0.533  0.800  0.533-  17 2.79   8 2.79  10 2.79  22 2.79   2 2.79  19 2.79  11 2.79  15 2.79
                            28 3.22  18 3.22  29 3.22  29 3.22   9 3.22
  24  0.367  0.800  0.867-   7 2.79  26 2.79  25 2.79  11 2.79  15 2.79   1 2.79  19 2.79  10 2.79
                            30 3.22  12 3.22  12 3.22
  25  0.067  0.600  0.067-   4 2.79  12 2.79  24 2.79  28 2.79  16 2.79  20 2.79  30 2.79   6 2.79
                            22 3.22  26 3.22   1 3.22  13 3.22  26 3.22  10 3.22
  26  0.567  0.600  0.067-  28 2.79  12 2.79  24 2.79   6 2.79   4 2.79  16 2.79  20 2.79  30 2.79
                            17 3.22  25 3.22   7 3.22  14 3.22  25 3.22  11 3.22
  27  0.967  0.200  0.467-   3 2.79  19 2.79  20 2.79  18 2.79  15 2.79   8 2.79  16 2.79   2 2.79
                             5 3.22  22 3.22   9 3.22   9 3.22  29 3.22  13 3.22
  28  0.700  0.800  0.200-   2 2.79  26 2.79  22 2.79  25 2.79  17 2.79   1 2.79   8 2.79   7 2.79
                            23 3.22  12 3.22  16 3.22   4 3.22   4 3.22  14 3.22
  29  0.033  0.800  0.533-  22 2.79   2 2.79  11 2.79  17 2.79   8 2.79  15 2.79  10 2.79  19 2.79
                             4 3.22   3 3.22  23 3.22  23 3.22  27 3.22  12 3.22
  30  0.433  0.400  0.933-  21 2.79   5 2.79  11 2.79  10 2.79  14 2.79  13 2.79  25 2.79  26 2.79
                            18 3.22   6 3.22   7 3.22  24 3.22   6 3.22  20 3.22
 

IMPORTANT INFORMATION: All symmetrisations will be switched off!
NOSYMM: (Re-)initialisation of all symmetry stuff for point group C_1.

 
 
 KPOINTS: k-points                                

Automatic generation of k-mesh.
Space group operators:
 irot       det(A)        alpha          n_x          n_y          n_z        tau_x        tau_y        tau_z
    1     1.000000     0.000001     1.000000     0.000000     0.000000     0.000000     0.000000     0.000000
 
 Subroutine IBZKPT returns following result:
 ===========================================
 
 Found     63 irreducible k-points:
 
 Following reciprocal coordinates:
            Coordinates               Weight
  0.000000  0.000000  0.000000      1.000000
  0.200000  0.000000  0.000000      2.000000
  0.400000  0.000000  0.000000      2.000000
  0.000000  0.200000  0.000000      2.000000
  0.200000  0.200000  0.000000      2.000000
  0.400000  0.200000  0.000000      2.000000
 -0.400000  0.200000 -0.000000      2.000000
 -0.200000  0.200000 -0.000000      2.000000
  0.000000  0.400000  0.000000      2.000000
  0.200000  0.400000  0.000000      2.000000
  0.400000  0.400000  0.000000      2.000000
 -0.400000  0.400000 -0.000000      2.000000
 -0.200000  0.400000 -0.000000      2.000000
  0.000000  0.000000  0.200000      2.000000
  0.200000  0.000000  0.200000      2.000000
  0.400000  0.000000  0.200000      2.000000
 -0.400000 -0.000000  0.200000      2.000000
 -0.200000 -0.000000  0.200000      2.000000
  0.000000  0.200000  0.200000      2.000000
  0.200000  0.200000  0.200000      2.000000
  0.400000  0.200000  0.200000      2.000000
 -0.400000  0.200000  0.200000      2.000000
 -0.200000  0.200000  0.200000      2.000000
  0.000000  0.400000  0.200000      2.000000
  0.200000  0.400000  0.200000      2.000000
  0.400000  0.400000  0.200000      2.000000
 -0.400000  0.400000  0.200000      2.000000
 -0.200000  0.400000  0.200000      2.000000
  0.000000 -0.400000  0.200000      2.000000
  0.200000 -0.400000  0.200000      2.000000
  0.400000 -0.400000  0.200000      2.000000
 -0.400000 -0.400000  0.200000      2.000000
 -0.200000 -0.400000  0.200000      2.000000
  0.000000 -0.200000  0.200000      2.000000
  0.200000 -0.200000  0.200000      2.000000
  0.400000 -0.200000  0.200000      2.000000
 -0.400000 -0.200000  0.200000      2.000000
 -0.200000 -0.200000  0.200000      2.000000
  0.000000  0.000000  0.400000      2.000000
  0.200000  0.000000  0.400000      2.000000
  0.400000  0.000000  0.400000      2.000000
 -0.400000 -0.000000  0.400000      2.000000
 -0.200000 -0.000000  0.400000      2.000000
  0.000000  0.200000  0.400000      2.000000
  0.200000  0.200000  0.400000      2.000000
  0.400000  0.200000  0.400000      2.000000
 -0.400000  0.200000  0.400000      2.000000
 -0.200000  0.200000  0.400000      2.000000
  0.000000  0.400000  0.400000      2.000000
  0.200000  0.400000  0.400000      2.000000
  0.400000  0.400000  0.400000      2.000000
 -0.400000  0.400000  0.400000      2.000000
 -0.200000  0.400000  0.400000      2.000000
  0.000000 -0.400000  0.400000      2.000000
  0.200000 -0.400000  0.400000      2.000000
  0.400000 -0.400000  0.400000      2.000000
 -0.400000 -0.400000  0.400000      2.000000
 -0.200000 -0.400000  0.400000      2.000000
  0.000000 -0.200000  0.400000      2.000000
  0.200000 -0.200000  0.400000      2.000000
  0.400000 -0.200000  0.400000      2.000000
 -0.400000 -0.200000  0.400000      2.000000
 -0.200000 -0.200000  0.400000      2.000000
 
 Following cartesian coordinates:
            Coordinates               Weight
  0.000000  0.000000  0.000000      1.000000
 -0.013333 -0.033333  0.100000      2.000000
 -0.026667 -0.066667  0.200000      2.000000
  0.080000  0.000000  0.000000      2.000000
  0.066667 -0.033333  0.100000      2.000000
  0.053333 -0.066667  0.200000      2.000000
  0.106667  0.066667 -0.200000      2.000000
  0.093333  0.033333 -0.100000      2.000000
  0.160000  0.000000  0.000000      2.000000
  0.146667 -0.033333  0.100000      2.000000
  0.133333 -0.066667  0.200000      2.000000
  0.186667  0.066667 -0.200000      2.000000
  0.173333  0.033333 -0.100000      2.000000
 -0.013333  0.066667  0.000000      2.000000
 -0.026667  0.033333  0.100000      2.000000
 -0.040000  0.000000  0.200000      2.000000
  0.013333  0.133333 -0.200000      2.000000
 -0.000000  0.100000 -0.100000      2.000000
  0.066667  0.066667  0.000000      2.000000
  0.053333  0.033333  0.100000      2.000000
  0.040000  0.000000  0.200000      2.000000
  0.093333  0.133333 -0.200000      2.000000
  0.080000  0.100000 -0.100000      2.000000
  0.146667  0.066667  0.000000      2.000000
  0.133333  0.033333  0.100000      2.000000
  0.120000  0.000000  0.200000      2.000000
  0.173333  0.133333 -0.200000      2.000000
  0.160000  0.100000 -0.100000      2.000000
 -0.173333  0.066667  0.000000      2.000000
 -0.186667  0.033333  0.100000      2.000000
 -0.200000  0.000000  0.200000      2.000000
 -0.146667  0.133333 -0.200000      2.000000
 -0.160000  0.100000 -0.100000      2.000000
 -0.093333  0.066667  0.000000      2.000000
 -0.106667  0.033333  0.100000      2.000000
 -0.120000  0.000000  0.200000      2.000000
 -0.066667  0.133333 -0.200000      2.000000
 -0.080000  0.100000 -0.100000      2.000000
 -0.026667  0.133333  0.000000      2.000000
 -0.040000  0.100000  0.100000      2.000000
 -0.053333  0.066667  0.200000      2.000000
 -0.000000  0.200000 -0.200000      2.000000
 -0.013333  0.166667 -0.100000      2.000000
  0.053333  0.133333  0.000000      2.000000
  0.040000  0.100000  0.100000      2.000000
  0.026667  0.066667  0.200000      2.000000
  0.080000  0.200000 -0.200000      2.000000
  0.066667  0.166667 -0.100000      2.000000
  0.133333  0.133333  0.000000      2.000000
  0.120000  0.100000  0.100000      2.000000
  0.106667  0.066667  0.200000      2.000000
  0.160000  0.200000 -0.200000      2.000000
  0.146667  0.166667 -0.100000      2.000000
 -0.186667  0.133333  0.000000      2.000000
 -0.200000  0.100000  0.100000      2.000000
 -0.213333  0.066667  0.200000      2.000000
 -0.160000  0.200000 -0.200000      2.000000
 -0.173333  0.166667 -0.100000      2.000000
 -0.106667  0.133333  0.000000      2.000000
 -0.120000  0.100000  0.100000      2.000000
 -0.133333  0.066667  0.200000      2.000000
 -0.080000  0.200000 -0.200000      2.000000
 -0.093333  0.166667 -0.100000      2.000000
 


--------------------------------------------------------------------------------------------------------




 Dimension of arrays:
   k-points           NKPTS =     63   k-points in BZ     NKDIM =     63   number of bands    NBANDS=    128
   number of dos      NEDOS =    301   number of ions     NIONS =     30
   non local maximal  LDIM  =      6   non local SUM 2l+1 LMDIM =     18
   total plane-waves  NPLWV =  67200
   max r-space proj   IRMAX =   2567   max aug-charges    IRDMAX=   9466
   dimension x,y,z NGX =    32 NGY =   42 NGZ =   50
   dimension x,y,z NGXF=    64 NGYF=   84 NGZF=  100
   support grid    NGXF=    64 NGYF=   84 NGZF=  100
   ions per type =               6   6   6   6   6
   NGX,Y,Z   is equivalent  to a cutoff of   8.26,  8.35,  8.16 a.u.
   NGXF,Y,Z  is equivalent  to a cutoff of  16.52, 16.69, 16.33 a.u.

 SYSTEM =  Nb - Mo - Ta - Ti - W SQS               
 POSCAR =  Nb - Mo - Ta - Ti - W SQS-30 BCC        

 Startparameter for this run:
   NWRITE =      2    write-flag & timer
   PREC   = normal    normal or accurate (medium, high low for compatibility)
   ISTART =      0    job   : 0-new  1-cont  2-samecut
   ICHARG =      2    charge: 1-file 2-atom 10-const
   ISPIN  =      1    spin polarized calculation?
   LNONCOLLINEAR =      F non collinear calculations
   LSORBIT =      F    spin-orbit coupling
   INIWAV =      1    electr: 0-lowe 1-rand  2-diag
   LASPH  =      F    aspherical Exc in radial PAW
   METAGGA=      F    non-selfconsistent MetaGGA calc.

 Electronic Relaxation 1
   ENCUT  =  400.0 eV  29.40 Ry    5.42 a.u.  10.50 13.64 16.61*2*pi/ulx,y,z
   ENINI  =  400.0     initial cutoff
   ENAUG  =  455.7 eV  augmentation charge cutoff
   NELM   =     60;   NELMIN=  2; NELMDL= -5     # of ELM steps 
   EDIFF  = 0.1E-03   stopping-criterion for ELM
   LREAL  =      T    real-space projection
   NLSPLINE    = F    spline interpolate recip. space projectors
   LCOMPAT=      F    compatible to vasp.4.4
   GGA_COMPAT  = T    GGA compatible to vasp.4.4-vasp.4.6
   LMAXPAW     = -100 max onsite density
   LMAXMIX     =    2 max onsite mixed and CHGCAR
   VOSKOWN=      0    Vosko Wilk Nusair interpolation
   ROPT   =   -0.00050  -0.00050  -0.00050  -0.00050
   ROPT   =   -0.00050
 Ionic relaxation
   EDIFFG = 0.1E-02   stopping-criterion for IOM
   NSW    =      0    number of steps for IOM
   NBLOCK =      1;   KBLOCK =      1    inner block; outer block 
   IBRION =     -1    ionic relax: 0-MD 1-quasi-New 2-CG
   NFREE  =      0    steps in history (QN), initial steepest desc. (CG)
   ISIF   =      2    stress and relaxation
   IWAVPR =     10    prediction:  0-non 1-charg 2-wave 3-comb
   ISYM   =      0    0-nonsym 1-usesym 2-fastsym
   LCORR  =      T    Harris-Foulkes like correction to forces

   POTIM  = 0.5000    time-step for ionic-motion
   TEIN   =    0.0    initial temperature
   TEBEG  =    0.0;   TEEND  =   0.0 temperature during run
   SMASS  =  -3.00    Nose mass-parameter (am)
   estimated Nose-frequenzy (Omega)   =  0.10E-29 period in steps =****** mass=  -0.948E-27a.u.
   SCALEE = 1.0000    scale energy and forces
   NPACO  =    256;   APACO  = 16.0  distance and # of slots for P.C.
   PSTRESS=    0.0 pullay stress

  Mass of Ions in am
   POMASS =  92.91 95.94180.95 47.88183.85
  Ionic Valenz
   ZVAL   =  13.00  6.00  5.00  4.00  6.00
  Atomic Wigner-Seitz radii
   RWIGS  =  -1.00 -1.00 -1.00 -1.00 -1.00
  virtual crystal weights 
   VCA    =   1.00  1.00  1.00  1.00  1.00
   NELECT =     204.0000    total number of electrons
   NUPDOWN=      -1.0000    fix difference up-down

 DOS related values:
   EMIN   =  10.00;   EMAX   =-10.00  energy-range for DOS
   EFERMI =   0.00
   ISMEAR =     1;   SIGMA  =   0.20  broadening in eV -4-tet -1-fermi 0-gaus

 Electronic relaxation 2 (details)
   IALGO  =     38    algorithm
   LDIAG  =      T    sub-space diagonalisation (order eigenvalues)
   LSUBROT=      F    optimize rotation matrix (better conditioning)
   TURBO    =      0    0=normal 1=particle mesh
   IRESTART =      0    0=no restart 2=restart with 2 vectors
   NREBOOT  =      0    no. of reboots
   NMIN     =      0    reboot dimension
   EREF     =   0.00    reference energy to select bands
   IMIX   =      4    mixing-type and parameters
     AMIX     =   0.40;   BMIX     =  1.00
     AMIX_MAG =   1.60;   BMIX_MAG =  1.00
     AMIN     =   0.10
     WC   =   100.;   INIMIX=   1;  MIXPRE=   1;  MAXMIX= -45

 Intra band minimization:
   WEIMIN = 0.0000     energy-eigenvalue tresh-hold
   EBREAK =  0.20E-06  absolut break condition
   DEPER  =   0.30     relativ break condition  

   TIME   =   0.40     timestep for ELM

  volume/ion in A,a.u.               =      16.69       112.65
  Fermi-wavevector in a.u.,A,eV,Ry     =   1.213571  2.293317 20.038049  1.472755
  Thomas-Fermi vector in A             =   2.349019
 
 Write flags
   LWAVE        =      T    write WAVECAR
   LDOWNSAMPLE  =      F    k-point downsampling of WAVECAR
   LCHARG       =      T    write CHGCAR
   LVTOT        =      F    write LOCPOT, total local potential
   LVHAR        =      F    write LOCPOT, Hartree potential only
   LELF         =      F    write electronic localiz. function (ELF)
   LORBIT       =      0    0 simple, 1 ext, 2 COOP (PROOUT), +10 PAW based schemes


 Dipole corrections
   LMONO  =      F    monopole corrections only (constant potential shift)
   LDIPOL =      F    correct potential (dipole corrections)
   IDIPOL =      0    1-x, 2-y, 3-z, 4-all directions 
   EPSILON=  1.0000000 bulk dielectric constant

 Exchange correlation treatment:
   GGA     =    PS    GGA type
   LEXCH   =    14    internal setting for exchange type
   VOSKOWN=      0    Vosko Wilk Nusair interpolation
   LHFCALC =     F    Hartree Fock is set to
   LHFONE  =     F    Hartree Fock one center treatment
   AEXX    =    0.0000 exact exchange contribution

 Linear response parameters
   LEPSILON=     F    determine dielectric tensor
   LRPA    =     F    only Hartree local field effects (RPA)
   LNABLA  =     F    use nabla operator in PAW spheres
   LVEL    =     F    velocity operator in full k-point grid
   LINTERFAST=   F  fast interpolation
   KINTER  =     0    interpolate to denser k-point grid
   CSHIFT  =0.1000    complex shift for real part using Kramers Kronig
   OMEGAMAX=  -1.0    maximum frequency
   DEG_THRESHOLD= 0.2000000E-02 threshold for treating states as degnerate
   RTIME   =   -0.100 relaxation time in fs
  (WPLASMAI=    0.000 imaginary part of plasma frequency in eV, 0.658/RTIME)
   DFIELD  = 0.0000000 0.0000000 0.0000000 field for delta impulse in time
 
 Orbital magnetization related:
   ORBITALMAG=     F  switch on orbital magnetization
   LCHIMAG   =     F  perturbation theory with respect to B field
   DQ        =  0.001000  dq finite difference perturbation B field
   LLRAUG    =     F  two centre corrections for induced B field



--------------------------------------------------------------------------------------------------------


 Static calculation
 charge density and potential will be updated during run
 non-spin polarized calculation
 Variant of blocked Davidson
 Davidson routine will perform the subspace rotation
 perform sub-space diagonalisation
    after iterative eigenvector-optimisation
 modified Broyden-mixing scheme, WC =      100.0
 initial mixing is a Kerker type mixing with AMIX =  0.4000 and BMIX =      1.0000
 Hartree-type preconditioning will be used
 using additional bands           26
 real space projection scheme for non local part
 use partial core corrections
 calculate Harris-corrections to forces 
   (improved forces if not selfconsistent)
 use gradient corrections 
 use of overlap-Matrix (Vanderbilt PP)
 Methfessel and Paxton  Order N= 1 SIGMA  =   0.20


--------------------------------------------------------------------------------------------------------


  energy-cutoff  :      400.00
  volume of cell :      500.79
      direct lattice vectors                 reciprocal lattice vectors
     0.000000000  0.000000000  6.440000000    -0.020703934 -0.051759834  0.155279503
     8.050000000  1.610000000  1.610000000     0.124223602  0.000000000  0.000000000
     0.000000000  9.660000000  3.220000000    -0.020703934  0.103519669  0.000000000

  length of vectors
     6.440000000  8.365805401 10.182534066     0.164983203  0.124223602  0.105569762


 
 k-points in units of 2pi/SCALE and weight: k-points                                
   0.00000000  0.00000000  0.00000000       0.008
  -0.01333333 -0.03333333  0.10000000       0.016
  -0.02666667 -0.06666667  0.20000000       0.016
   0.08000000  0.00000000  0.00000000       0.016
   0.06666667 -0.03333333  0.10000000       0.016
   0.05333333 -0.06666667  0.20000000       0.016
   0.10666667  0.06666667 -0.20000000       0.016
   0.09333333  0.03333333 -0.10000000       0.016
   0.16000000  0.00000000  0.00000000       0.016
   0.14666667 -0.03333333  0.10000000       0.016
   0.13333333 -0.06666667  0.20000000       0.016
   0.18666667  0.06666667 -0.20000000       0.016
   0.17333333  0.03333333 -0.10000000       0.016
  -0.01333333  0.06666667  0.00000000       0.016
  -0.02666667  0.03333333  0.10000000       0.016
  -0.04000000  0.00000000  0.20000000       0.016
   0.01333333  0.13333333 -0.20000000       0.016
  -0.00000000  0.10000000 -0.10000000       0.016
   0.06666667  0.06666667  0.00000000       0.016
   0.05333333  0.03333333  0.10000000       0.016
   0.04000000  0.00000000  0.20000000       0.016
   0.09333333  0.13333333 -0.20000000       0.016
   0.08000000  0.10000000 -0.10000000       0.016
   0.14666667  0.06666667  0.00000000       0.016
   0.13333333  0.03333333  0.10000000       0.016
   0.12000000  0.00000000  0.20000000       0.016
   0.17333333  0.13333333 -0.20000000       0.016
   0.16000000  0.10000000 -0.10000000       0.016
  -0.17333333  0.06666667  0.00000000       0.016
  -0.18666667  0.03333333  0.10000000       0.016
  -0.20000000  0.00000000  0.20000000       0.016
  -0.14666667  0.13333333 -0.20000000       0.016
  -0.16000000  0.10000000 -0.10000000       0.016
  -0.09333333  0.06666667  0.00000000       0.016
  -0.10666667  0.03333333  0.10000000       0.016
  -0.12000000  0.00000000  0.20000000       0.016
  -0.06666667  0.13333333 -0.20000000       0.016
  -0.08000000  0.10000000 -0.10000000       0.016
  -0.02666667  0.13333333  0.00000000       0.016
  -0.04000000  0.10000000  0.10000000       0.016
  -0.05333333  0.06666667  0.20000000       0.016
  -0.00000000  0.20000000 -0.20000000       0.016
  -0.01333333  0.16666667 -0.10000000       0.016
   0.05333333  0.13333333  0.00000000       0.016
   0.04000000  0.10000000  0.10000000       0.016
   0.02666667  0.06666667  0.20000000       0.016
   0.08000000  0.20000000 -0.20000000       0.016
   0.06666667  0.16666667 -0.10000000       0.016
   0.13333333  0.13333333  0.00000000       0.016
   0.12000000  0.10000000  0.10000000       0.016
   0.10666667  0.06666667  0.20000000       0.016
   0.16000000  0.20000000 -0.20000000       0.016
   0.14666667  0.16666667 -0.10000000       0.016
  -0.18666667  0.13333333  0.00000000       0.016
  -0.20000000  0.10000000  0.10000000       0.016
  -0.21333333  0.06666667  0.20000000       0.016
  -0.16000000  0.20000000 -0.20000000       0.016
  -0.17333333  0.16666667 -0.10000000       0.016
  -0.10666667  0.13333333  0.00000000       0.016
  -0.12000000  0.10000000  0.10000000       0.016
  -0.13333333  0.06666667  0.20000000       0.016
  -0.08000000  0.20000000 -0.20000000       0.016
  -0.09333333  0.16666667 -0.10000000       0.016
 
 k-points in reciprocal lattice and weights: k-points                                
   0.00000000  0.00000000  0.00000000       0.008
   0.20000000  0.00000000  0.00000000       0.016
   0.40000000  0.00000000  0.00000000       0.016
   0.00000000  0.20000000  0.00000000       0.016
   0.20000000  0.20000000  0.00000000       0.016
   0.40000000  0.20000000  0.00000000       0.016
  -0.40000000  0.20000000 -0.00000000       0.016
  -0.20000000  0.20000000 -0.00000000       0.016
   0.00000000  0.40000000  0.00000000       0.016
   0.20000000  0.40000000  0.00000000       0.016
   0.40000000  0.40000000  0.00000000       0.016
  -0.40000000  0.40000000 -0.00000000       0.016
  -0.20000000  0.40000000 -0.00000000       0.016
   0.00000000  0.00000000  0.20000000       0.016
   0.20000000  0.00000000  0.20000000       0.016
   0.40000000  0.00000000  0.20000000       0.016
  -0.40000000 -0.00000000  0.20000000       0.016
  -0.20000000 -0.00000000  0.20000000       0.016
   0.00000000  0.20000000  0.20000000       0.016
   0.20000000  0.20000000  0.20000000       0.016
   0.40000000  0.20000000  0.20000000       0.016
  -0.40000000  0.20000000  0.20000000       0.016
  -0.20000000  0.20000000  0.20000000       0.016
   0.00000000  0.40000000  0.20000000       0.016
   0.20000000  0.40000000  0.20000000       0.016
   0.40000000  0.40000000  0.20000000       0.016
  -0.40000000  0.40000000  0.20000000       0.016
  -0.20000000  0.40000000  0.20000000       0.016
   0.00000000 -0.40000000  0.20000000       0.016
   0.20000000 -0.40000000  0.20000000       0.016
   0.40000000 -0.40000000  0.20000000       0.016
  -0.40000000 -0.40000000  0.20000000       0.016
  -0.20000000 -0.40000000  0.20000000       0.016
   0.00000000 -0.20000000  0.20000000       0.016
   0.20000000 -0.20000000  0.20000000       0.016
   0.40000000 -0.20000000  0.20000000       0.016
  -0.40000000 -0.20000000  0.20000000       0.016
  -0.20000000 -0.20000000  0.20000000       0.016
   0.00000000  0.00000000  0.40000000       0.016
   0.20000000  0.00000000  0.40000000       0.016
   0.40000000  0.00000000  0.40000000       0.016
  -0.40000000 -0.00000000  0.40000000       0.016
  -0.20000000 -0.00000000  0.40000000       0.016
   0.00000000  0.20000000  0.40000000       0.016
   0.20000000  0.20000000  0.40000000       0.016
   0.40000000  0.20000000  0.40000000       0.016
  -0.40000000  0.20000000  0.40000000       0.016
  -0.20000000  0.20000000  0.40000000       0.016
   0.00000000  0.40000000  0.40000000       0.016
   0.20000000  0.40000000  0.40000000       0.016
   0.40000000  0.40000000  0.40000000       0.016
  -0.40000000  0.40000000  0.40000000       0.016
  -0.20000000  0.40000000  0.40000000       0.016
   0.00000000 -0.40000000  0.40000000       0.016
   0.20000000 -0.40000000  0.40000000       0.016
   0.40000000 -0.40000000  0.40000000       0.016
  -0.40000000 -0.40000000  0.40000000       0.016
  -0.20000000 -0.40000000  0.40000000       0.016
   0.00000000 -0.20000000  0.40000000       0.016
   0.20000000 -0.20000000  0.40000000       0.016
   0.40000000 -0.20000000  0.40000000       0.016
  -0.40000000 -0.20000000  0.40000000       0.016
  -0.20000000 -0.20000000  0.40000000       0.016
 
 position of ions in fractional coordinates (direct lattice) 
   0.00000000  0.00000000  0.00000000
   0.83333333  0.00000000  0.33333333
   0.10000000  0.40000000  0.60000000
   0.20000000  0.80000000  0.20000000
   0.80000000  0.20000000  0.80000000
   0.93333333  0.40000000  0.93333333
   0.50000000  0.00000000  0.00000000
   0.33333333  0.00000000  0.33333333
   0.46666667  0.20000000  0.46666667
   0.23333333  0.60000000  0.73333333
   0.73333333  0.60000000  0.73333333
   0.86666667  0.80000000  0.86666667
   0.13333333  0.20000000  0.13333333
   0.63333333  0.20000000  0.13333333
   0.66666667  0.00000000  0.66666667
   0.76666667  0.40000000  0.26666667
   0.40000000  0.60000000  0.40000000
   0.60000000  0.40000000  0.60000000
   0.16666667  0.00000000  0.66666667
   0.26666667  0.40000000  0.26666667
   0.30000000  0.20000000  0.80000000
   0.90000000  0.60000000  0.40000000
   0.53333333  0.80000000  0.53333333
   0.36666667  0.80000000  0.86666667
   0.06666667  0.60000000  0.06666667
   0.56666667  0.60000000  0.06666667
   0.96666667  0.20000000  0.46666667
   0.70000000  0.80000000  0.20000000
   0.03333333  0.80000000  0.53333333
   0.43333333  0.40000000  0.93333333
 
 position of ions in cartesian coordinates  (Angst):
   0.00000000  0.00000000  0.00000000
   0.00000000  3.21999997  6.43999997
   3.22000000  6.44000000  3.22000000
   6.44000000  3.22000000  3.22000000
   1.61000000  8.05000000  8.05000000
   3.22000000  9.65999997  9.65999997
   0.00000000  0.00000000  3.22000000
   0.00000000  3.21999997  3.21999997
   1.61000000  4.83000003  4.83000003
   4.83000000  8.04999997  4.82999997
   4.83000000  8.04999997  8.04999997
   6.44000000  9.66000003  9.66000003
   1.61000000  1.60999997  1.60999997
   1.61000000  1.60999997  4.82999997
   0.00000000  6.44000003  6.44000003
   3.22000000  3.22000003  6.44000003
   4.83000000  4.83000000  4.83000000
   3.22000000  6.44000000  6.44000000
   0.00000000  6.44000003  3.22000003
   3.22000000  3.22000003  3.22000003
   1.61000000  8.05000000  4.83000000
   4.83000000  4.83000000  8.05000000
   6.44000000  6.43999997  6.43999997
   6.44000000  9.66000003  6.44000003
   4.83000000  1.61000003  1.61000003
   4.83000000  1.61000003  4.83000003
   1.61000000  4.83000003  8.05000003
   6.44000000  3.22000000  6.44000000
   6.44000000  6.43999997  3.21999997
   3.22000000  9.65999997  6.43999997
 


--------------------------------------------------------------------------------------------------------


 k-point  1 :   0.0000 0.0000 0.0000  plane waves:    9153
 k-point  2 :   0.2000 0.0000 0.0000  plane waves:    9104
 k-point  3 :   0.4000 0.0000 0.0000  plane waves:    9077
 k-point  4 :   0.0000 0.2000 0.0000  plane waves:    9118
 k-point  5 :   0.2000 0.2000 0.0000  plane waves:    9128
 k-point  6 :   0.4000 0.2000 0.0000  plane waves:    9082
 k-point  7 :  -0.4000 0.2000-0.0000  plane waves:    9079
 k-point  8 :  -0.2000 0.2000-0.0000  plane waves:    9097
 k-point  9 :   0.0000 0.4000 0.0000  plane waves:    9113
 k-point 10 :   0.2000 0.4000 0.0000  plane waves:    9097
 k-point 11 :   0.4000 0.4000 0.0000  plane waves:    9100
 k-point 12 :  -0.4000 0.4000-0.0000  plane waves:    9086
 k-point 13 :  -0.2000 0.4000-0.0000  plane waves:    9102
 k-point 14 :   0.0000 0.0000 0.2000  plane waves:    9105
 k-point 15 :   0.2000 0.0000 0.2000  plane waves:    9110
 k-point 16 :   0.4000 0.0000 0.2000  plane waves:    9103
 k-point 17 :  -0.4000-0.0000 0.2000  plane waves:    9086
 k-point 18 :  -0.2000-0.0000 0.2000  plane waves:    9101
 k-point 19 :   0.0000 0.2000 0.2000  plane waves:    9105
 k-point 20 :   0.2000 0.2000 0.2000  plane waves:    9112
 k-point 21 :   0.4000 0.2000 0.2000  plane waves:    9106
 k-point 22 :  -0.4000 0.2000 0.2000  plane waves:    9076
 k-point 23 :  -0.2000 0.2000 0.2000  plane waves:    9103
 k-point 24 :   0.0000 0.4000 0.2000  plane waves:    9097
 k-point 25 :   0.2000 0.4000 0.2000  plane waves:    9109
 k-point 26 :   0.4000 0.4000 0.2000  plane waves:    9094
 k-point 27 :  -0.4000 0.4000 0.2000  plane waves:    9081
 k-point 28 :  -0.2000 0.4000 0.2000  plane waves:    9088
 k-point 29 :   0.0000-0.4000 0.2000  plane waves:    9106
 k-point 30 :   0.2000-0.4000 0.2000  plane waves:    9101
 k-point 31 :   0.4000-0.4000 0.2000  plane waves:    9095
 k-point 32 :  -0.4000-0.4000 0.2000  plane waves:    9083
 k-point 33 :  -0.2000-0.4000 0.2000  plane waves:    9091
 k-point 34 :   0.0000-0.2000 0.2000  plane waves:    9105
 k-point 35 :   0.2000-0.2000 0.2000  plane waves:    9098
 k-point 36 :   0.4000-0.2000 0.2000  plane waves:    9083
 k-point 37 :  -0.4000-0.2000 0.2000  plane waves:    9084
 k-point 38 :  -0.2000-0.2000 0.2000  plane waves:    9107
 k-point 39 :   0.0000 0.0000 0.4000  plane waves:    9121
 k-point 40 :   0.2000 0.0000 0.4000  plane waves:    9113
 k-point 41 :   0.4000 0.0000 0.4000  plane waves:    9096
 k-point 42 :  -0.4000-0.0000 0.4000  plane waves:    9079
 k-point 43 :  -0.2000-0.0000 0.4000  plane waves:    9103
 k-point 44 :   0.0000 0.2000 0.4000  plane waves:    9100
 k-point 45 :   0.2000 0.2000 0.4000  plane waves:    9114
 k-point 46 :   0.4000 0.2000 0.4000  plane waves:    9084
 k-point 47 :  -0.4000 0.2000 0.4000  plane waves:    9078
 k-point 48 :  -0.2000 0.2000 0.4000  plane waves:    9086
 k-point 49 :   0.0000 0.4000 0.4000  plane waves:    9082
 k-point 50 :   0.2000 0.4000 0.4000  plane waves:    9102
 k-point 51 :   0.4000 0.4000 0.4000  plane waves:    9079
 k-point 52 :  -0.4000 0.4000 0.4000  plane waves:    9082
 k-point 53 :  -0.2000 0.4000 0.4000  plane waves:    9088
 k-point 54 :   0.0000-0.4000 0.4000  plane waves:    9078
 k-point 55 :   0.2000-0.4000 0.4000  plane waves:    9076
 k-point 56 :   0.4000-0.4000 0.4000  plane waves:    9088
 k-point 57 :  -0.4000-0.4000 0.4000  plane waves:    9083
 k-point 58 :  -0.2000-0.4000 0.4000  plane waves:    9094
 k-point 59 :   0.0000-0.2000 0.4000  plane waves:    9109
 k-point 60 :   0.2000-0.2000 0.4000  plane waves:    9100
 k-point 61 :   0.4000-0.2000 0.4000  plane waves:    9098
 k-point 62 :  -0.4000-0.2000 0.4000  plane waves:    9094
 k-point 63 :  -0.2000-0.2000 0.4000  plane waves:    9099

 maximum and minimum number of plane-waves per node :      2307     2243

 maximum number of plane-waves:      9153
 maximum index in each direction: 
   IXMAX=   10   IYMAX=   14   IZMAX=   16
   IXMIN=  -10   IYMIN=  -14   IZMIN=  -17


 real space projection operators:
  total allocation   :       8970.42 KBytes
  max/ min on nodes  :       2247.33       2238.30


 parallel 3D FFT for wavefunctions:
    minimum data exchange during FFTs selected (reduces bandwidth)
 parallel 3D FFT for charge:
    minimum data exchange during FFTs selected (reduces bandwidth)


 total amount of memory used by VASP MPI-rank0    76538. kBytes
=======================================================================

   base      :      30000. kBytes
   nonlr-proj:       4050. kBytes
   fftplans  :       1098. kBytes
   grid      :       2043. kBytes
   one-center:        124. kBytes
   wavefun   :      39223. kBytes
 
     INWAV:  cpu time    0.0000: real time    0.0002
 Broyden mixing: mesh for mixing (old mesh)
   NGX = 21   NGY = 27   NGZ = 33
  (NGX  = 64   NGY  = 84   NGZ  =100)
  gives a total of  18711 points

 initial charge density was supplied:
 charge density of overlapping atoms calculated
 number of electron     204.0000000 magnetization 
 keeping initial charge density in first step


--------------------------------------------------------------------------------------------------------


 Maximum index for non-local projection operator          617
 Maximum index for augmentation-charges          497 (set IRDMAX)


--------------------------------------------------------------------------------------------------------


 First call to EWALD:  gamma=   0.223
 Maximum number of real-space cells 3x 3x 2
 Maximum number of reciprocal cells 2x 3x 3

    FEWALD:  cpu time    0.0027: real time    0.0030


--------------------------------------- Iteration      1(   1)  ---------------------------------------


    POTLOK:  cpu time    0.0186: real time    0.0258
    SETDIJ:  cpu time    0.0070: real time    0.0070
     EDDAV:  cpu time   10.6761: real time   10.7865
       DOS:  cpu time    0.0039: real time    0.0039
    --------------------------------------------
      LOOP:  cpu time   10.7055: real time   10.8231

 eigenvalue-minimisations  : 16208
 total energy-change (2. order) : 0.1598998E+04  (-0.7517172E+04)
 number of electron     204.0000000 magnetization 
 augmentation part      204.0000000 magnetization 

 Free energy of the ion-electron system (eV)
  ---------------------------------------------------
  alpha Z        PSCENC =      1343.16923251
  Ewald energy   TEWEN  =    -11979.72277562
  -Hartree energ DENC   =     -3034.53633360
  -exchange      EXHF   =         0.00000000
  -V(xc)+E(xc)   XCENC  =      -904.53944975
  PAW double counting   =     12303.85264859   -10739.97191893
  entropy T*S    EENTRO =         0.00320388
  eigenvalues    EBANDS =      1399.89097777
  atomic energy  EATOM  =     13210.85262565
  Solvation  Ediel_sol  =         0.00000000
  ---------------------------------------------------
  free energy    TOTEN  =      1598.99821048 eV

  energy without entropy =     1598.99500660  energy(sigma->0) =     1598.99714252


--------------------------------------------------------------------------------------------------------




--------------------------------------- Iteration      1(   2)  ---------------------------------------


     EDDAV:  cpu time   10.6321: real time   10.6512
       DOS:  cpu time    0.0042: real time    0.0041
    --------------------------------------------
      LOOP:  cpu time   10.6363: real time   10.6553

 eigenvalue-minimisations  : 16128
 total energy-change (2. order) :-0.1653716E+04  (-0.1591481E+04)
 number of electron     204.0000000 magnetization 
 augmentation part      204.0000000 magnetization 

 Free energy of the ion-electron system (eV)
  ---------------------------------------------------
  alpha Z        PSCENC =      1343.16923251
  Ewald energy   TEWEN  =    -11979.72277562
  -Hartree energ DENC   =     -3034.53633360
  -exchange      EXHF   =         0.00000000
  -V(xc)+E(xc)   XCENC  =      -904.53944975
  PAW double counting   =     12303.85264859   -10739.97191893
  entropy T*S    EENTRO =         0.00647407
  eigenvalues    EBANDS =      -253.82829199
  atomic energy  EATOM  =     13210.85262565
  Solvation  Ediel_sol  =         0.00000000
  ---------------------------------------------------
  free energy    TOTEN  =       -54.71778908 eV

  energy without entropy =      -54.72426315  energy(sigma->0) =      -54.71994711


--------------------------------------------------------------------------------------------------------




--------------------------------------- Iteration      1(   3)  ---------------------------------------


     EDDAV:  cpu time   16.9379: real time   16.9597
       DOS:  cpu time    0.0041: real time    0.0041
    --------------------------------------------
      LOOP:  cpu time   16.9421: real time   16.9638

 eigenvalue-minimisations  : 28408
 total energy-change (2. order) :-0.2808814E+03  (-0.2638118E+03)
 number of electron     204.0000000 magnetization 
 augmentation part      204.0000000 magnetization 

 Free energy of the ion-electron system (eV)
  ---------------------------------------------------
  alpha Z        PSCENC =      1343.16923251
  Ewald energy   TEWEN  =    -11979.72277562
  -Hartree energ DENC   =     -3034.53633360
  -exchange      EXHF   =         0.00000000
  -V(xc)+E(xc)   XCENC  =      -904.53944975
  PAW double counting   =     12303.85264859   -10739.97191893
  entropy T*S    EENTRO =         0.01065408
  eigenvalues    EBANDS =      -534.71386071
  atomic energy  EATOM  =     13210.85262565
  Solvation  Ediel_sol  =         0.00000000
  ---------------------------------------------------
  free energy    TOTEN  =      -335.59917780 eV

  energy without entropy =     -335.60983188  energy(sigma->0) =     -335.60272916


--------------------------------------------------------------------------------------------------------




--------------------------------------- Iteration      1(   4)  ---------------------------------------


     EDDAV:  cpu time   15.5332: real time   15.5641
       DOS:  cpu time    0.0041: real time    0.0041
    --------------------------------------------
      LOOP:  cpu time   15.5373: real time   15.5682

 eigenvalue-minimisations  : 25816
 total energy-change (2. order) :-0.3143972E+02  (-0.2953743E+02)
 number of electron     204.0000000 magnetization 
 augmentation part      204.0000000 magnetization 

 Free energy of the ion-electron system (eV)
  ---------------------------------------------------
  alpha Z        PSCENC =      1343.16923251
  Ewald energy   TEWEN  =    -11979.72277562
  -Hartree energ DENC   =     -3034.53633360
  -exchange      EXHF   =         0.00000000
  -V(xc)+E(xc)   XCENC  =      -904.53944975
  PAW double counting   =     12303.85264859   -10739.97191893
  entropy T*S    EENTRO =         0.00995682
  eigenvalues    EBANDS =      -566.15287904
  atomic energy  EATOM  =     13210.85262565
  Solvation  Ediel_sol  =         0.00000000
  ---------------------------------------------------
  free energy    TOTEN  =      -367.03889339 eV

  energy without entropy =     -367.04885021  energy(sigma->0) =     -367.04221233


--------------------------------------------------------------------------------------------------------




--------------------------------------- Iteration      1(   5)  ---------------------------------------


     EDDAV:  cpu time   16.7636: real time   16.7860
       DOS:  cpu time    0.0043: real time    0.0042
    CHARGE:  cpu time    0.3004: real time    0.3006
    MIXING:  cpu time    0.0020: real time    0.0013
    --------------------------------------------
      LOOP:  cpu time   17.0702: real time   17.0921

 eigenvalue-minimisations  : 28264
 total energy-change (2. order) :-0.2651167E+01  (-0.2611767E+01)
 number of electron     204.0000014 magnetization 
 augmentation part       22.9347354 magnetization 

 Broyden mixing:
  rms(total) = 0.76218E+01    rms(broyden)= 0.76217E+01
  rms(prec ) = 0.80992E+01
  weight for this iteration     100.00

 Free energy of the ion-electron system (eV)
  ---------------------------------------------------
  alpha Z        PSCENC =      1343.16923251
  Ewald energy   TEWEN  =    -11979.72277562
  -Hartree energ DENC   =     -3034.53633360
  -exchange      EXHF   =         0.00000000
  -V(xc)+E(xc)   XCENC  =      -904.53944975
  PAW double counting   =     12303.85264859   -10739.97191893
  entropy T*S    EENTRO =         0.00981101
  eigenvalues    EBANDS =      -568.80390049
  atomic energy  EATOM  =     13210.85262565
  Solvation  Ediel_sol  =         0.00000000
  ---------------------------------------------------
  free energy    TOTEN  =      -369.69006065 eV

  energy without entropy =     -369.69987166  energy(sigma->0) =     -369.69333099


--------------------------------------------------------------------------------------------------------




--------------------------------------- Iteration      1(   6)  ---------------------------------------


    POTLOK:  cpu time    0.0188: real time    0.0249
    SETDIJ:  cpu time    0.0067: real time    0.0067
     EDDAV:  cpu time   14.4196: real time   14.4380
       DOS:  cpu time    0.0041: real time    0.0041
    CHARGE:  cpu time    0.3002: real time    0.3004
    MIXING:  cpu time    0.0008: real time    0.0009
    --------------------------------------------
      LOOP:  cpu time   14.7502: real time   14.7750

 eigenvalue-minimisations  : 23488
 total energy-change (2. order) : 0.1160259E+02  (-0.1096184E+02)
 number of electron     204.0000017 magnetization 
 augmentation part       30.4944507 magnetization 

 Broyden mixing:
  rms(total) = 0.36385E+01    rms(broyden)= 0.36385E+01
  rms(prec ) = 0.52861E+01
  weight for this iteration     100.00

 eigenvalues of (default mixing * dielectric matrix)
  average eigenvalue GAMMA=   1.2837
  1.2837

 Free energy of the ion-electron system (eV)
  ---------------------------------------------------
  alpha Z        PSCENC =      1343.16923251
  Ewald energy   TEWEN  =    -11979.72277562
  -Hartree energ DENC   =     -2950.14595412
  -exchange      EXHF   =         0.00000000
  -V(xc)+E(xc)   XCENC  =      -902.16608853
  PAW double counting   =     16129.69284950   -14572.95678880
  entropy T*S    EENTRO =        -0.00452921
  eigenvalues    EBANDS =      -636.80604587
  atomic energy  EATOM  =     13210.85262565
  Solvation  Ediel_sol  =         0.00000000
  ---------------------------------------------------
  free energy    TOTEN  =      -358.08747450 eV

  energy without entropy =     -358.08294529  energy(sigma->0) =     -358.08596477


--------------------------------------------------------------------------------------------------------




--------------------------------------- Iteration      1(   7)  ---------------------------------------


    POTLOK:  cpu time    0.0095: real time    0.0104
    SETDIJ:  cpu time    0.0034: real time    0.0034
     EDDAV:  cpu time   14.3550: real time   14.3734
       DOS:  cpu time    0.0039: real time    0.0039
    CHARGE:  cpu time    0.3008: real time    0.3010
    MIXING:  cpu time    0.0006: real time    0.0006
    --------------------------------------------
      LOOP:  cpu time   14.6732: real time   14.6927

 eigenvalue-minimisations  : 23464
 total energy-change (2. order) :-0.1303970E+02  (-0.3605647E+02)
 number of electron     204.0000015 magnetization 
 augmentation part       24.5223514 magnetization 

 Broyden mixing:
  rms(total) = 0.27101E+01    rms(broyden)= 0.27101E+01
  rms(prec ) = 0.48796E+01
  weight for this iteration     100.00

 eigenvalues of (default mixing * dielectric matrix)
  average eigenvalue GAMMA=   1.0264
  1.6486  0.4043

 Free energy of the ion-electron system (eV)
  ---------------------------------------------------
  alpha Z        PSCENC =      1343.16923251
  Ewald energy   TEWEN  =    -11979.72277562
  -Hartree energ DENC   =     -2850.68823772
  -exchange      EXHF   =         0.00000000
  -V(xc)+E(xc)   XCENC  =      -903.37303900
  PAW double counting   =     17573.54425798   -16025.83830871
  entropy T*S    EENTRO =         0.00742720
  eigenvalues    EBANDS =      -739.07835207
  atomic energy  EATOM  =     13210.85262565
  Solvation  Ediel_sol  =         0.00000000
  ---------------------------------------------------
  free energy    TOTEN  =      -371.12716979 eV

  energy without entropy =     -371.13459699  energy(sigma->0) =     -371.12964552


--------------------------------------------------------------------------------------------------------




--------------------------------------- Iteration      1(   8)  ---------------------------------------


    POTLOK:  cpu time    0.0108: real time    0.0119
    SETDIJ:  cpu time    0.0034: real time    0.0034
     EDDAV:  cpu time   13.6917: real time   13.7090
       DOS:  cpu time    0.0042: real time    0.0042
    CHARGE:  cpu time    0.3001: real time    0.3003
    MIXING:  cpu time    0.0006: real time    0.0006
    --------------------------------------------
      LOOP:  cpu time   14.0108: real time   14.0294

 eigenvalue-minimisations  : 22104
 total energy-change (2. order) : 0.1858988E+02  (-0.3906781E+01)
 number of electron     204.0000014 magnetization 
 augmentation part       25.3848526 magnetization 

 Broyden mixing:
  rms(total) = 0.15105E+01    rms(broyden)= 0.15105E+01
  rms(prec ) = 0.26335E+01
  weight for this iteration     100.00

 eigenvalues of (default mixing * dielectric matrix)
  average eigenvalue GAMMA=   0.9298
  1.7780  0.5057  0.5057

 Free energy of the ion-electron system (eV)
  ---------------------------------------------------
  alpha Z        PSCENC =      1343.16923251
  Ewald energy   TEWEN  =    -11979.72277562
  -Hartree energ DENC   =     -2845.29075718
  -exchange      EXHF   =         0.00000000
  -V(xc)+E(xc)   XCENC  =      -901.41335094
  PAW double counting   =     19468.14566936   -17920.90376617
  entropy T*S    EENTRO =         0.00730108
  eigenvalues    EBANDS =      -727.38146648
  atomic energy  EATOM  =     13210.85262565
  Solvation  Ediel_sol  =         0.00000000
  ---------------------------------------------------
  free energy    TOTEN  =      -352.53728780 eV

  energy without entropy =     -352.54458888  energy(sigma->0) =     -352.53972149


--------------------------------------------------------------------------------------------------------




--------------------------------------- Iteration      1(   9)  ---------------------------------------


    POTLOK:  cpu time    0.0129: real time    0.0146
    SETDIJ:  cpu time    0.0034: real time    0.0034
     EDDAV:  cpu time   14.2387: real time   14.2564
       DOS:  cpu time    0.0039: real time    0.0039
    CHARGE:  cpu time    0.3008: real time    0.3010
    MIXING:  cpu time    0.0006: real time    0.0006
    --------------------------------------------
      LOOP:  cpu time   14.5603: real time   14.5798

 eigenvalue-minimisations  : 23216
 total energy-change (2. order) : 0.5183356E+01  (-0.1054380E+01)
 number of electron     204.0000014 magnetization 
 augmentation part       26.0311093 magnetization 

 Broyden mixing:
  rms(total) = 0.88830E+00    rms(broyden)= 0.88828E+00
  rms(prec ) = 0.15766E+01
  weight for this iteration     100.00

 eigenvalues of (default mixing * dielectric matrix)
  average eigenvalue GAMMA=   0.8589
  1.8309  0.6142  0.6142  0.3764

 Free energy of the ion-electron system (eV)
  ---------------------------------------------------
  alpha Z        PSCENC =      1343.16923251
  Ewald energy   TEWEN  =    -11979.72277562
  -Hartree energ DENC   =     -2854.55073101
  -exchange      EXHF   =         0.00000000
  -V(xc)+E(xc)   XCENC  =      -900.35091839
  PAW double counting   =     20024.70931135   -18475.37107864
  entropy T*S    EENTRO =         0.00176956
  eigenvalues    EBANDS =      -716.09136697
  atomic energy  EATOM  =     13210.85262565
  Solvation  Ediel_sol  =         0.00000000
  ---------------------------------------------------
  free energy    TOTEN  =      -347.35393158 eV

  energy without entropy =     -347.35570113  energy(sigma->0) =     -347.35452143


--------------------------------------------------------------------------------------------------------




--------------------------------------- Iteration      1(  10)  ---------------------------------------


    POTLOK:  cpu time    0.0095: real time    0.0101
    SETDIJ:  cpu time    0.0034: real time    0.0034
     EDDAV:  cpu time   14.9753: real time   14.9946
       DOS:  cpu time    0.0041: real time    0.0041
    CHARGE:  cpu time    0.3017: real time    0.3019
    MIXING:  cpu time    0.0008: real time    0.0008
    --------------------------------------------
      LOOP:  cpu time   15.2957: real time   15.3150

 eigenvalue-minimisations  : 24640
 total energy-change (2. order) : 0.1066836E+01  (-0.5489541E+00)
 number of electron     204.0000014 magnetization 
 augmentation part       26.7210559 magnetization 

 Broyden mixing:
  rms(total) = 0.50757E+00    rms(broyden)= 0.50756E+00
  rms(prec ) = 0.81829E+00
  weight for this iteration     100.00

 eigenvalues of (default mixing * dielectric matrix)
  average eigenvalue GAMMA=   0.8144
  1.8904  0.7079  0.7079  0.4328  0.3331

 Free energy of the ion-electron system (eV)
  ---------------------------------------------------
  alpha Z        PSCENC =      1343.16923251
  Ewald energy   TEWEN  =    -11979.72277562
  -Hartree energ DENC   =     -2859.33025574
  -exchange      EXHF   =         0.00000000
  -V(xc)+E(xc)   XCENC  =      -899.80648946
  PAW double counting   =     20310.09354181   -18758.72765326
  entropy T*S    EENTRO =        -0.00354629
[...]
  band No.  band energies     occupation 
      1     -47.4290      2.00000
      2     -47.4207      2.00000
      3     -47.3875      2.00000
      4     -47.3314      2.00000
      5     -47.2933      2.00000
      6     -47.2314      2.00000
      7     -23.9434      2.00000
      8     -23.8773      2.00000
      9     -23.8188      2.00000
     10     -23.7175      2.00000
     11     -23.6114      2.00000
     12     -23.5959      2.00000
     13     -23.5835      2.00000
     14     -23.5536      2.00000
     15     -23.5340      2.00000
     16     -23.5039      2.00000
     17     -23.4997      2.00000
     18     -23.4831      2.00000
     19     -23.4110      2.00000
     20     -23.3846      2.00000
     21     -23.2880      2.00000
     22     -23.2580      2.00000
     23     -23.1927      2.00000
     24     -23.0598      2.00000
     25       0.0036      2.00000
     26       0.4326      2.00000
     27       1.6547      2.00000
     28       2.0731      2.00000
     29       2.1919      2.00000
     30       2.3589      2.00000
     31       2.4604      2.00000
     32       2.5632      2.00000
     33       2.5740      2.00000
     34       2.6789      2.00000
     35       2.8770      2.00000
     36       2.9191      2.00000
     37       2.9779      2.00000
     38       3.0042      2.00000
     39       3.1374      2.00000
     40       3.1528      2.00000
     41       3.2213      2.00000
     42       3.2562      2.00000
     43       3.3391      2.00000
     44       3.3587      2.00000
     45       3.4141      2.00000
     46       3.4482      2.00000
     47       3.5597      2.00000
     48       3.6261      2.00000
     49       3.7076      2.00000
     50       3.7909      2.00000
     51       3.8397      2.00000
     52       3.9426      2.00000
     53       3.9687      2.00000
     54       4.0764      2.00000
     55       4.1035      2.00000
     56       4.1618      2.00000
     57       4.2174      2.00000
     58       4.2548      2.00000
     59       4.5503      2.00000
     60       4.5965      2.00000
     61       4.6661      2.00000
     62       4.7524      2.00000
     63       4.7822      2.00000
     64       4.8355      2.00000
     65       4.9004      2.00000
     66       4.9765      2.00000
     67       5.0359      2.00000
     68       5.0604      2.00000
     69       5.0898      2.00000
     70       5.1443      2.00000
     71       5.1714      2.00000
     72       5.1886      2.00000
     73       5.2228      2.00000
     74       5.2515      2.00000
     75       5.3359      2.00000
     76       5.3756      2.00000
     77       5.4312      2.00000
     78       5.4972      2.00000
     79       5.5620      2.00000
     80       5.6495      2.00000
     81       5.6857      2.00000
     82       5.7134      2.00000
     83       5.7731      2.00000
     84       5.7927      2.00000
     85       5.8473      2.00000
     86       5.8648      2.00000
     87       5.9251      2.00001
     88       5.9784      2.00006
     89       6.0151      2.00017
     90       6.0702      2.00075
     91       6.0969      2.00143
     92       6.1530      2.00491
     93       6.1831      2.00877
     94       6.2121      2.01458
     95       6.2608      2.03004
     96       6.3105      2.05198
     97       6.3891      2.06866
     98       6.4451      2.00917
     99       6.4655      1.95896
    100       6.5292      1.67423
    101       6.5859      1.26627
    102       6.6686      0.58507
    103       6.7086      0.31233
    104       6.7263      0.21512
    105       6.8118     -0.04350
    106       6.9720     -0.03116
    107       7.0276     -0.01360
    108       7.0936     -0.00391
    109       7.3541     -0.00000
    110       7.3991     -0.00000
    111       7.5389     -0.00000
    112       7.6999     -0.00000
    113       7.7727     -0.00000
    114       7.8489     -0.00000
    115       7.9177     -0.00000
    116       7.9918     -0.00000
    117       8.0922     -0.00000
    118       8.1019     -0.00000
    119       8.1944     -0.00000
    120       8.2560     -0.00000
    121       8.3397     -0.00000
    122       8.4174     -0.00000
    123       8.5503     -0.00000
    124       8.6055     -0.00000
    125       8.6405     -0.00000
    126       8.6848     -0.00000
    127       8.7661     -0.00000
    128       8.8174     -0.00000


--------------------------------------------------------------------------------------------------------


 soft charge-density along one line, spin component           1
         0         1         2         3         4         5         6         7         8         9
 total charge-density along one line
 
 pseudopotential strength for first ion, spin component:           1
  5.567 -20.983  -0.002  -0.002  -0.003   0.006   0.003   0.006
-20.983   9.860  -0.004  -0.002  -0.004   0.000   0.000   0.000
 -0.002  -0.004 -10.514   0.001   0.001   6.781  -0.000  -0.001
 -0.002  -0.002   0.001 -10.512  -0.001  -0.000   6.778   0.001
 -0.003  -0.004   0.001  -0.001 -10.514  -0.001   0.001   6.780
  0.006   0.000   6.781  -0.000  -0.001   7.445   0.000   0.001
  0.003   0.000  -0.000   6.778   0.001   0.000   7.446  -0.001
  0.006   0.000  -0.001   0.001   6.780   0.001  -0.001   7.445
  0.001   0.000  -0.002  -0.000  -0.003   0.003   0.000   0.003
  0.000   0.000  -0.001  -0.003  -0.000   0.002   0.003   0.000
  0.000   0.001   0.001  -0.002   0.001  -0.001   0.002  -0.002
 -0.001  -0.000  -0.000  -0.002  -0.001   0.000   0.003   0.002
 -0.000   0.000   0.002  -0.000  -0.003  -0.002   0.000   0.003
  0.001   0.000  -0.003  -0.000  -0.004   0.004   0.000   0.004
  0.001   0.000  -0.001  -0.003  -0.000   0.002   0.004   0.000
  0.001   0.001   0.001  -0.003   0.002  -0.002   0.003  -0.002
 -0.001  -0.000  -0.000  -0.003  -0.001   0.000   0.004   0.002
 -0.000   0.000   0.002  -0.000  -0.004  -0.003   0.000   0.004
 total augmentation occupancy for first ion, spin component:           1
  1.996  -0.036  -0.000   0.000  -0.000  -0.000   0.000   0.000   0.001   0.002   0.001  -0.006   0.000  -0.001  -0.002  -0.001
 -0.036   1.485  -0.002   0.003   0.000   0.006  -0.004   0.007   0.017   0.022  -0.024  -0.004  -0.012  -0.008  -0.013   0.010
 -0.000  -0.002   1.998  -0.000   0.000  -0.025  -0.000  -0.000   0.004   0.009   0.005  -0.002   0.006  -0.002  -0.004  -0.003
  0.000   0.003  -0.000   1.998   0.000  -0.000  -0.024  -0.001  -0.000  -0.008  -0.003   0.001  -0.001   0.000   0.004   0.002
 -0.000   0.000   0.000   0.000   1.999  -0.000  -0.001  -0.025  -0.012   0.001   0.002   0.008  -0.006   0.006  -0.000  -0.001
 -0.000   0.006  -0.025  -0.000  -0.000   0.069   0.001   0.000  -0.001  -0.020  -0.006   0.007  -0.010   0.001   0.011   0.004
  0.000  -0.004  -0.000  -0.024  -0.001   0.001   0.066   0.002   0.002   0.026   0.006   0.005   0.001  -0.001  -0.013   0.000
  0.000   0.007  -0.000  -0.001  -0.025   0.000   0.002   0.069   0.032  -0.000  -0.006  -0.018   0.013  -0.015  -0.001   0.001
  0.001   0.017   0.004  -0.000  -0.012  -0.001   0.002   0.032   2.887   0.017   0.010   0.074   0.002  -1.145  -0.017  -0.001
  0.002   0.022   0.009  -0.008   0.001  -0.020   0.026  -0.000   0.017   2.912   0.009   0.033  -0.000  -0.017  -1.146  -0.008
  0.001  -0.024   0.005  -0.003   0.002  -0.006   0.006  -0.006   0.010   0.009   2.482  -0.016  -0.001  -0.001  -0.008  -1.061
 -0.006  -0.004  -0.002   0.001   0.008   0.007   0.005  -0.018   0.074   0.033  -0.016   2.947  -0.038  -0.031  -0.010   0.006
  0.000  -0.012   0.006  -0.001  -0.006  -0.010   0.001   0.013   0.002  -0.000  -0.001  -0.038   2.512  -0.001   0.010   0.006
 -0.001  -0.008  -0.002   0.000   0.006   0.001  -0.001  -0.015  -1.145  -0.017  -0.001  -0.031  -0.001   0.468   0.010  -0.001
 -0.002  -0.013  -0.004   0.004  -0.000   0.011  -0.013  -0.001  -0.017  -1.146  -0.008  -0.010   0.010   0.010   0.465   0.005
 -0.001   0.010  -0.003   0.002  -0.001   0.004   0.000   0.001  -0.001  -0.008  -1.061   0.006   0.006  -0.001   0.005   0.463
  0.004  -0.005   0.000  -0.000  -0.003  -0.003  -0.001   0.010  -0.031  -0.010   0.006  -1.158   0.015   0.013   0.003  -0.002
 -0.000  -0.000  -0.005   0.000   0.004   0.007  -0.000  -0.003  -0.001   0.010   0.006   0.015  -1.071   0.000  -0.008  -0.005


------------------------ aborting loop because EDIFF is reached ----------------------------------------


    CHARGE:  cpu time    0.3018: real time    0.3020
    FORLOC:  cpu time    0.0035: real time    0.0035
    FORNL :  cpu time    1.8840: real time    1.8860
    STRESS:  cpu time    5.6747: real time    5.6805
    FORCOR:  cpu time    0.0143: real time    0.0151
    FORHAR:  cpu time    0.0056: real time    0.0056
    MIXING:  cpu time    0.0010: real time    0.0010
    OFIELD:  cpu time    0.0001: real time    0.0001

  FORCE on cell =-STRESS in cart. coord.  units (eV):
  Direction    XX          YY          ZZ          XY          YZ          ZX
  --------------------------------------------------------------------------------------
  Alpha Z  1343.16923  1343.16923  1343.16923
  Ewald   -3979.31876 -3956.38789 -4044.04697   -72.24090   146.89737   -21.62048
  Hartree   971.20252   980.09134   917.18748   -80.28891   115.25162   -20.08495
  E(xc)    -915.34680  -915.26866  -915.34800     0.39652     0.06449    -0.01121
  Local    -301.62626  -334.07534  -182.95765   154.58929  -263.62272    41.32925
  n-local  -346.68479  -347.74300  -344.49872     3.13869    -1.35667    -0.62920
  augment   246.69147   246.81902   246.32537    -0.65100     0.30883     0.18389
  Kinetic  2961.39889  2962.69719  2959.71278    -3.92558     2.24390     0.44659
  Fock        0.00000     0.00000     0.00000     0.00000     0.00000     0.00000
  -------------------------------------------------------------------------------------
  Total     -20.51449   -20.69811   -20.45647     1.01811    -0.21318    -0.38612
  in kB     -65.63153   -66.21897   -65.44591     3.25722    -0.68202    -1.23530
  external pressure =      -65.77 kB  Pullay stress =        0.00 kB


 VOLUME and BASIS-vectors are now :
 -----------------------------------------------------------------------------
  energy-cutoff  :      400.00
  volume of cell :      500.79
      direct lattice vectors                 reciprocal lattice vectors
     0.000000000  0.000000000  6.440000000    -0.020703934 -0.051759834  0.155279503
     8.050000000  1.610000000  1.610000000     0.124223602  0.000000000  0.000000000
     0.000000000  9.660000000  3.220000000    -0.020703934  0.103519669  0.000000000

  length of vectors
     6.440000000  8.365805401 10.182534066     0.164983203  0.124223602  0.105569762


 FORCES acting on ions
    electron-ion (+dipol)            ewald-force                    non-local-force                 convergence-correction
 -----------------------------------------------------------------------------------------------
   0.911E+02 0.111E+03 -.429E+02   -.916E+02 -.112E+03 0.421E+02   -.159E+00 -.327E+00 0.376E+00   0.562E-02 -.736E-02 0.138E-01
   -.411E+02 -.234E+03 0.896E+02   0.409E+02 0.235E+03 -.895E+02   -.583E-01 -.685E-01 -.157E+00   0.722E-02 0.559E-02 -.343E-01
   -.827E+02 0.218E+03 -.825E+02   0.823E+02 -.219E+03 0.824E+02   0.264E+00 0.247E+00 0.166E-01   -.235E-01 -.787E-01 -.141E-01
   0.212E+03 -.496E+02 -.128E+03   -.212E+03 0.483E+02 0.129E+03   0.969E-01 0.522E+00 -.283E+00   -.958E-01 0.279E-01 -.132E-01
   0.740E+02 0.162E+03 0.203E+03   -.740E+02 -.162E+03 -.204E+03   -.111E+00 -.319E+00 0.411E+00   0.410E-01 -.478E-02 0.210E-01
   -.159E+03 -.133E+03 -.821E+02   0.160E+03 0.133E+03 0.820E+02   -.941E-01 -.427E+00 0.577E-01   0.102E-01 0.146E-01 0.887E-02
   0.113E+02 0.268E+02 0.197E+02   -.116E+02 -.270E+02 -.194E+02   -.277E-01 0.145E+00 0.191E+00   0.702E-02 0.120E-01 -.820E-02
   -.243E+02 -.769E+02 -.414E+02   0.244E+02 0.774E+02 0.413E+02   0.148E-01 0.732E-01 0.306E-01   0.271E-01 0.146E-01 0.161E-01
   -.168E+01 -.360E+01 0.252E+01   0.153E+01 0.367E+01 -.254E+01   -.176E+00 -.110E-01 -.773E-01   0.138E-01 -.988E-02 -.374E-01
   -.948E+02 0.351E+02 -.876E+02   0.949E+02 -.352E+02 0.876E+02   0.187E-01 0.235E+00 -.821E-01   -.609E-02 0.780E-02 0.129E-01
   -.124E+03 0.298E+02 0.876E+02   0.124E+03 -.300E+02 -.876E+02   0.199E+00 0.214E+00 0.102E+00   -.157E-01 -.669E-02 -.125E-01
   0.226E+02 0.726E+02 0.278E+02   -.230E+02 -.724E+02 -.280E+02   -.224E+00 0.502E-01 -.508E-01   -.159E-01 0.518E-02 0.126E-01
   -.713E+02 -.596E+02 -.803E+02   0.710E+02 0.592E+02 0.807E+02   0.336E-01 0.317E-01 0.409E+00   0.244E-01 0.132E-01 0.202E-01
   -.509E+02 -.891E+02 0.803E+02   0.507E+02 0.886E+02 -.807E+02   -.252E+00 0.163E+00 -.398E+00   0.219E-01 0.220E-01 -.202E-01
   0.413E+02 0.210E+02 0.512E+02   -.410E+02 -.216E+02 -.506E+02   -.838E-01 -.391E-02 -.533E-01   0.141E-01 -.503E-02 -.188E-01
   -.309E+02 -.548E+02 0.150E+00   0.308E+02 0.547E+02 -.171E+00   0.241E+00 0.233E+00 0.495E-02   0.123E-01 0.146E-01 0.916E-02
   0.191E+02 -.108E+02 -.580E+02   -.187E+02 0.108E+02 0.580E+02   0.353E+00 0.178E-01 -.111E+00   -.158E-01 -.163E-01 -.327E-02
   -.448E+02 0.549E+02 0.317E+02   0.449E+02 -.550E+02 -.317E+02   0.247E-01 0.280E+00 0.148E-02   0.857E-02 -.198E-01 0.556E-02
   0.546E+02 0.540E+02 -.408E+02   -.546E+02 -.542E+02 0.405E+02   -.953E-01 -.695E-01 -.160E+00   0.132E-01 -.101E-01 0.163E-01
   0.114E+02 -.296E+01 -.115E+00   -.112E+02 0.299E+01 0.137E+00   -.334E+00 -.125E+00 0.273E-01   0.453E-02 0.113E-01 -.778E-02
   0.265E+02 0.539E+02 -.624E+02   -.268E+02 -.533E+02 0.629E+02   0.131E+00 0.964E-01 -.397E-01   0.552E-02 -.942E-02 -.772E-02
   0.313E+02 -.781E+01 0.464E+02   -.308E+02 0.778E+01 -.464E+02   -.682E-01 0.443E-01 0.147E+00   -.134E-01 -.129E-01 0.189E-02
   0.188E+02 -.330E+02 0.208E+02   -.192E+02 0.334E+02 -.210E+02   -.595E-01 0.371E-01 0.351E-01   -.401E-02 -.121E-01 -.408E-02
   0.140E+02 0.731E+02 -.185E+02   -.144E+02 -.729E+02 0.186E+02   -.157E+00 -.833E-01 0.167E-01   -.778E-02 -.359E-03 -.889E-02
   0.487E+02 -.168E+02 -.180E+02   -.486E+02 0.171E+02 0.179E+02   0.591E-01 -.319E+00 -.694E-01   -.227E-01 0.274E-01 0.173E-01
   0.151E+02 -.234E+02 0.180E+02   -.153E+02 0.235E+02 -.179E+02   0.365E+00 -.386E+00 0.894E-01   -.202E-01 0.136E-01 -.171E-01
   -.168E+02 0.263E+02 -.262E+01   0.171E+02 -.264E+02 0.254E+01   -.356E+00 -.130E+00 0.190E+00   0.355E-01 -.131E-01 0.380E-01
   0.986E+02 -.516E+02 0.593E+02   -.986E+02 0.515E+02 -.595E+02   0.124E+00 -.281E+00 -.208E+00   -.325E-01 0.226E-01 0.815E-02
   0.173E+01 -.579E+02 -.315E+02   -.198E+01 0.579E+02 0.315E+02   0.208E+00 0.278E+00 0.202E+00   -.130E-01 -.220E-01 0.605E-02
   -.502E+02 -.349E+02 0.379E+02   0.509E+02 0.352E+02 -.378E+02   0.371E+00 -.811E-01 0.109E-01   0.211E-02 0.191E-01 -.490E-02
 -----------------------------------------------------------------------------------------------
   -.218E+00 -.152E-01 -.615E+00   0.192E-12 0.284E-13 0.107E-12   0.248E+00 0.371E-01 0.631E+00   -.323E-01 0.298E-02 -.442E-02
 
 
 POSITION                                       TOTAL-FORCE (eV/Angst)
 -----------------------------------------------------------------------------------
      0.00000      0.00000      0.00000        -0.673337     -0.374135     -0.342614
      0.00000      3.22000      6.44000        -0.314298      0.642858     -0.113428
      3.22000      6.44000      3.22000        -0.136649     -0.198438     -0.074875
      6.44000      3.22000      3.22000        -0.184542     -0.744873      0.312165
      1.61000      8.05000      8.05000        -0.091846      0.431100     -0.458978
      3.22000      9.66000      9.66000         1.057130     -0.132619     -0.040208
      0.00000      0.00000      3.22000        -0.298413     -0.007766      0.402394
      0.00000      3.22000      3.22000         0.159662      0.609507     -0.043690
      1.61000      4.83000      4.83000        -0.311487      0.045609     -0.135577
      4.83000      8.05000      4.83000         0.117369      0.106791     -0.113116
      4.83000      8.05000      8.05000         0.375633      0.010051      0.125726
      6.44000      9.66000      9.66000        -0.594179      0.271020     -0.193113
      1.61000      1.61000      1.61000        -0.232127     -0.438052      0.853813
      1.61000      1.61000      4.83000        -0.427598     -0.292862     -0.848869
      0.00000      6.44000      6.44000         0.208274     -0.572391      0.519296
      3.22000      3.22000      6.44000         0.120390      0.180154     -0.007198
      4.83000      4.83000      4.83000         0.757328      0.004084     -0.046985
      3.22000      6.44000      6.44000         0.089933      0.162792     -0.005765
      0.00000      6.44000      3.22000        -0.041216     -0.337544     -0.468092
      3.22000      3.22000      3.22000        -0.149013     -0.085240      0.041488
      1.61000      8.05000      4.83000        -0.157521      0.642216      0.413649
      4.83000      4.83000      8.05000         0.415808     -0.004531      0.146980
      6.44000      6.44000      6.44000        -0.486963      0.428686     -0.179144
      6.44000      9.66000      6.44000        -0.560698      0.054434      0.197918
      4.83000      1.61000      1.61000         0.116248     -0.056738     -0.121080
      4.83000      1.61000      4.83000         0.171403     -0.210170      0.160462
      1.61000      4.83000      8.05000        -0.062440     -0.214431      0.149564
      6.44000      3.22000      6.44000         0.027014     -0.340901     -0.443028
      6.44000      6.44000      3.22000        -0.060475      0.212863      0.266717
      3.22000      9.66000      6.44000         1.166610      0.208527      0.045590
 -----------------------------------------------------------------------------------
    total drift:                               -0.002265      0.024862      0.011079


--------------------------------------------------------------------------------------------------------



  FREE ENERGIE OF THE ION-ELECTRON SYSTEM (eV)
  ---------------------------------------------------
  free  energy   TOTEN  =      -345.95392787 eV

  energy  without entropy=     -345.94406043  energy(sigma->0) =     -345.95063872
 


--------------------------------------------------------------------------------------------------------


    POTLOK:  cpu time    0.0132: real time    0.0133


--------------------------------------------------------------------------------------------------------


 stress matrix after NEB project (eV)
    -20.51449      1.01811     -0.38612
      1.01811    -20.69811     -0.21318
     -0.38612     -0.21318    -20.45647
  FORCES: max atom, RMS     1.185976    0.638662
  FORCE total and by dimension    3.498097    1.166610
  Stress total and by dimension   35.639666   20.698112
 writing wavefunctions
     LOOP+:  cpu time  301.2870: real time  310.0976
    4ORBIT:  cpu time    0.0000: real time    0.0000

 total amount of memory used by VASP MPI-rank0    76538. kBytes
=======================================================================

   base      :      30000. kBytes
   nonlr-proj:       4050. kBytes
   fftplans  :       1098. kBytes
   grid      :       2043. kBytes
   one-center:        124. kBytes
   wavefun   :      39223. kBytes
 
  
  
 General timing and accounting informations for this job:
 ========================================================
  
                  Total CPU time used (sec):      307.988
                            User time (sec):      303.653
                          System time (sec):        4.335
                         Elapsed time (sec):      317.169
  
                   Maximum memory used (kb):      117936.
                   Average memory used (kb):           0.
  
                          Minor page faults:        39282
                          Major page faults:            0
                 Voluntary context switches:          988
