 running on   32 total cores
 distrk:  each k-point on   32 cores,    1 groups
 distr:  one band on    4 cores,    8 groups
 using from now: INCAR     
 vasp.5.4.4.18Apr17-6-g9f103f2a35 (build Aug 09 2018 16:20:53) complex          
  
 POSCAR found type information on POSCAR  Nb Mo Ta Ti W 
 POSCAR found :  5 types and      30 ions
 scaLAPACK will be used

 ----------------------------------------------------------------------------- 
|                                                                             |
|  ADVICE TO THIS USER RUNNING 'VASP/VAMP'   (HEAR YOUR MASTER'S VOICE ...):  |
|                                                                             |
|      You enforced a specific xc-type in the INCAR file,                     |
|      a different type was found on the POTCAR file                          |
|          I HOPE YOU KNOW, WHAT YOU ARE  DOING                               |
|                                                                             |
 ----------------------------------------------------------------------------- 

 LDA part: xc-table for Pade appr. of Perdew
 POSCAR found type information on POSCAR  Nb Mo Ta Ti W 
 POSCAR found :  5 types and      30 ions
 POSCAR, INCAR and KPOINTS ok, starting setup
 FFT: planning ...
 WAVECAR not read
 entering main loop
       N       E                     dE             d eps       ncg     rms          rms(c)
DAV:   1     0.159899821048E+04    0.15990E+04   -0.75172E+04 16208   0.124E+03
DAV:   2    -0.547177890839E+02   -0.16537E+04   -0.15915E+04 16128   0.394E+02
DAV:   3    -0.335599177797E+03   -0.28088E+03   -0.26381E+03 28408   0.137E+02
DAV:   4    -0.367038893388E+03   -0.31440E+02   -0.29537E+02 25816   0.429E+01
DAV:   5    -0.369690060650E+03   -0.26512E+01   -0.26118E+01 28264   0.150E+01    0.762E+01
DAV:   6    -0.358087474505E+03    0.11603E+02   -0.10962E+02 23488   0.282E+01    0.364E+01
DAV:   7    -0.371127169787E+03   -0.13040E+02   -0.36056E+02 23464   0.670E+01    0.271E+01
DAV:   8    -0.352537287800E+03    0.18590E+02   -0.39068E+01 22104   0.164E+01    0.151E+01
DAV:   9    -0.347353931577E+03    0.51834E+01   -0.10544E+01 23216   0.998E+00    0.888E+00
DAV:  10    -0.346287096032E+03    0.10668E+01   -0.54895E+00 24640   0.626E+00    0.508E+00
DAV:  11    -0.346018958405E+03    0.26814E+00   -0.24377E+00 23512   0.410E+00    0.259E+00
DAV:  12    -0.346012706852E+03    0.62516E-02   -0.83586E-01 23568   0.258E+00    0.195E+00
DAV:  13    -0.345986833621E+03    0.25873E-01   -0.66135E-01 24672   0.223E+00    0.142E+00
DAV:  14    -0.345957663754E+03    0.29170E-01   -0.23067E-01 24944   0.136E+00    0.700E-01
DAV:  15    -0.345958812311E+03   -0.11486E-02   -0.73833E-02 24032   0.730E-01    0.623E-01
DAV:  16    -0.345957481653E+03    0.13307E-02   -0.30723E-02 23872   0.473E-01    0.488E-01
DAV:  17    -0.345954646700E+03    0.28350E-02   -0.13313E-02 21624   0.321E-01    0.228E-01
DAV:  18    -0.345954042100E+03    0.60460E-03   -0.55183E-03 21928   0.210E-01    0.110E-01
DAV:  19    -0.345953951809E+03    0.90291E-04   -0.18210E-03 21080   0.123E-01    0.604E-02
DAV:  20    -0.345953927867E+03    0.23943E-04   -0.44987E-04 15960   0.709E-02
   1 F= -.34595393E+03 E0= -.34595064E+03  d E =-.986744E-02
 writing wavefunctions
VASP is done!
