<?xml version="1.0" encoding="ISO-8859-1"?>
<modeling>
 <generator>
  <i name="program" type="string">vasp </i>
  <i name="version" type="string">5.4.4.18Apr17-6-g9f103f2a35  </i>
  <i name="subversion" type="string">(build Aug 09 2018 16:20:53) complex            parallel </i>
  <i name="platform" type="string">LinuxIFC </i>
  <i name="date" type="string">2020 04 12 </i>
  <i name="time" type="string">14:16:29 </i>
 </generator>
 <incar>
  <i type="string" name="SYSTEM"> Nb - Mo - Ta - Ti - W SQS</i>
  <i type="string" name="PREC">normal</i>
  <i type="int" name="IALGO">    38</i>
  <i type="int" name="ICHARG">     2</i>
  <i type="int" name="IBRION">     1</i>
  <i type="int" name="ISYM">     0</i>
  <i name="ENCUT">    400.00000000</i>
  <i type="string" name="LREAL"> Auto</i>
  <i type="int" name="ISMEAR">     1</i>
  <i name="SIGMA">      0.20000000</i>
  <v type="int" name="KPOINT_BSE">    -1     0     0     0</v>
  <i type="string" name="GGA"> PS</i>
 </incar>
 <structure name="primitive_cell" >
  <crystal>
   <varray name="basis" >
    <v>       0.00000000       0.00000000       6.44000000 </v>
    <v>       8.05000000       1.61000000       1.61000000 </v>
    <v>       0.00000000       9.66000000       3.22000000 </v>
   </varray>
   <i name="volume">    500.79372000 </i>
   <varray name="rec_basis" >
    <v>      -0.02070393      -0.05175983       0.15527950 </v>
    <v>       0.12422360       0.00000000       0.00000000 </v>
    <v>      -0.02070393       0.10351967       0.00000000 </v>
   </varray>
  </crystal>
  <varray name="positions" >
   <v>       0.00000000       0.00000000       0.00000000 </v>
   <v>      -0.13333333      -0.20000000      -0.13333333 </v>
   <v>       0.13333333       0.20000000       0.13333333 </v>
   <v>       0.30000000       0.20000000      -0.20000000 </v>
   <v>      -0.30000000      -0.20000000       0.20000000 </v>
   <v>      -0.36666667       0.20000000       0.13333333 </v>
   <v>       0.36666667      -0.20000000      -0.13333333 </v>
   <v>       0.20000000      -0.20000000       0.20000000 </v>
   <v>      -0.20000000       0.20000000      -0.20000000 </v>
   <v>      -0.16666667       0.00000000       0.33333333 </v>
   <v>       0.16666667       0.00000000      -0.33333333 </v>
   <v>      -0.06666667       0.40000000      -0.06666667 </v>
   <v>       0.06666667      -0.40000000       0.06666667 </v>
   <v>      -0.50000000       0.00000000       0.00000000 </v>
   <v>       0.33333333       0.00000000       0.33333333 </v>
   <v>      -0.33333333       0.00000000      -0.33333333 </v>
   <v>      -0.43333333      -0.40000000       0.06666667 </v>
   <v>       0.43333333       0.40000000      -0.06666667 </v>
   <v>       0.10000000       0.40000000      -0.40000000 </v>
   <v>      -0.10000000      -0.40000000       0.40000000 </v>
   <v>       0.23333333      -0.40000000      -0.26666667 </v>
   <v>      -0.23333333       0.40000000       0.26666667 </v>
   <v>      -0.03333333       0.20000000       0.46666667 </v>
   <v>       0.03333333      -0.20000000      -0.46666667 </v>
   <v>       0.46666667       0.20000000       0.46666667 </v>
   <v>      -0.46666667      -0.20000000      -0.46666667 </v>
   <v>      -0.26666667      -0.40000000      -0.26666667 </v>
   <v>       0.26666667       0.40000000       0.26666667 </v>
   <v>       0.40000000      -0.40000000       0.40000000 </v>
   <v>      -0.40000000       0.40000000      -0.40000000 </v>
  </varray>
 </structure>
 <varray name="primitive_index" >
  <v type="int" >        1 </v>
  <v type="int" >       12 </v>
  <v type="int" >       13 </v>
  <v type="int" >       21 </v>
  <v type="int" >       28 </v>
  <v type="int" >       14 </v>
  <v type="int" >       24 </v>
  <v type="int" >        4 </v>
  <v type="int" >        5 </v>
  <v type="int" >        2 </v>
  <v type="int" >       19 </v>
  <v type="int" >        6 </v>
  <v type="int" >       25 </v>
  <v type="int" >        7 </v>
  <v type="int" >        8 </v>
  <v type="int" >       15 </v>
  <v type="int" >       26 </v>
  <v type="int" >       30 </v>
  <v type="int" >        3 </v>
  <v type="int" >       22 </v>
  <v type="int" >       10 </v>
  <v type="int" >       16 </v>
  <v type="int" >       27 </v>
  <v type="int" >       29 </v>
  <v type="int" >        9 </v>
  <v type="int" >       23 </v>
  <v type="int" >       11 </v>
  <v type="int" >       20 </v>
  <v type="int" >       17 </v>
  <v type="int" >       18 </v>
 </varray>
 <kpoints>
  <generation param="Gamma">
   <v type="int" name="divisions">       5        5        5 </v>
   <v name="usershift">      0.00000000       0.00000000       0.00000000 </v>
   <v name="genvec1">      0.20000000      -0.00000000      -0.00000000 </v>
   <v name="genvec2">      0.00000000       0.20000000       0.00000000 </v>
   <v name="genvec3">      0.00000000      -0.00000000       0.20000000 </v>
   <v name="shift">      0.00000000       0.00000000       0.00000000 </v>
  </generation>
  <varray name="kpointlist" >
   <v>       0.00000000       0.00000000       0.00000000 </v>
   <v>       0.20000000       0.00000000       0.00000000 </v>
   <v>       0.40000000       0.00000000       0.00000000 </v>
   <v>       0.00000000       0.20000000       0.00000000 </v>
   <v>       0.20000000       0.20000000       0.00000000 </v>
   <v>       0.40000000       0.20000000       0.00000000 </v>
   <v>      -0.40000000       0.20000000      -0.00000000 </v>
   <v>      -0.20000000       0.20000000      -0.00000000 </v>
   <v>       0.00000000       0.40000000       0.00000000 </v>
   <v>       0.20000000       0.40000000       0.00000000 </v>
   <v>       0.40000000       0.40000000       0.00000000 </v>
   <v>      -0.40000000       0.40000000      -0.00000000 </v>
   <v>      -0.20000000       0.40000000      -0.00000000 </v>
   <v>       0.00000000       0.00000000       0.20000000 </v>
   <v>       0.20000000       0.00000000       0.20000000 </v>
   <v>       0.40000000       0.00000000       0.20000000 </v>
   <v>      -0.40000000      -0.00000000       0.20000000 </v>
   <v>      -0.20000000      -0.00000000       0.20000000 </v>
   <v>       0.00000000       0.20000000       0.20000000 </v>
   <v>       0.20000000       0.20000000       0.20000000 </v>
   <v>       0.40000000       0.20000000       0.20000000 </v>
   <v>      -0.40000000       0.20000000       0.20000000 </v>
   <v>      -0.20000000       0.20000000       0.20000000 </v>
   <v>       0.00000000       0.40000000       0.20000000 </v>
   <v>       0.20000000       0.40000000       0.20000000 </v>
   <v>       0.40000000       0.40000000       0.20000000 </v>
   <v>      -0.40000000       0.40000000       0.20000000 </v>
   <v>      -0.20000000       0.40000000       0.20000000 </v>
   <v>       0.00000000      -0.40000000       0.20000000 </v>
   <v>       0.20000000      -0.40000000       0.20000000 </v>
   <v>       0.40000000      -0.40000000       0.20000000 </v>
   <v>      -0.40000000      -0.40000000       0.20000000 </v>
   <v>      -0.20000000      -0.40000000       0.20000000 </v>
   <v>       0.00000000      -0.20000000       0.20000000 </v>
   <v>       0.20000000      -0.20000000       0.20000000 </v>
   <v>       0.40000000      -0.20000000       0.20000000 </v>
   <v>      -0.40000000      -0.20000000       0.20000000 </v>
   <v>      -0.20000000      -0.20000000       0.20000000 </v>
   <v>       0.00000000       0.00000000       0.40000000 </v>
   <v>       0.20000000       0.00000000       0.40000000 </v>
   <v>       0.40000000       0.00000000       0.40000000 </v>
   <v>      -0.40000000      -0.00000000       0.40000000 </v>
   <v>      -0.20000000      -0.00000000       0.40000000 </v>
   <v>       0.00000000       0.20000000       0.40000000 </v>
   <v>       0.20000000       0.20000000       0.40000000 </v>
   <v>       0.40000000       0.20000000       0.40000000 </v>
   <v>      -0.40000000       0.20000000       0.40000000 </v>
   <v>      -0.20000000       0.20000000       0.40000000 </v>
   <v>       0.00000000       0.40000000       0.40000000 </v>
   <v>       0.20000000       0.40000000       0.40000000 </v>
   <v>       0.40000000       0.40000000       0.40000000 </v>
   <v>      -0.40000000       0.40000000       0.40000000 </v>
   <v>      -0.20000000       0.40000000       0.40000000 </v>
   <v>       0.00000000      -0.40000000       0.40000000 </v>
   <v>       0.20000000      -0.40000000       0.40000000 </v>
   <v>       0.40000000      -0.40000000       0.40000000 </v>
   <v>      -0.40000000      -0.40000000       0.40000000 </v>
   <v>      -0.20000000      -0.40000000       0.40000000 </v>
   <v>       0.00000000      -0.20000000       0.40000000 </v>
   <v>       0.20000000      -0.20000000       0.40000000 </v>
   <v>       0.40000000      -0.20000000       0.40000000 </v>
   <v>      -0.40000000      -0.20000000       0.40000000 </v>
   <v>      -0.20000000      -0.20000000       0.40000000 </v>
  </varray>
  <varray name="weights" >
   <v>       0.00800000 </v>
   <v>       0.01600000 </v>
   <v>       0.01600000 </v>
   <v>       0.01600000 </v>
   <v>       0.01600000 </v>
   <v>       0.01600000 </v>
   <v>       0.01600000 </v>
   <v>       0.01600000 </v>
   <v>       0.01600000 </v>
   <v>       0.01600000 </v>
   <v>       0.01600000 </v>
   <v>       0.01600000 </v>
   <v>       0.01600000 </v>
   <v>       0.01600000 </v>
   <v>       0.01600000 </v>
   <v>       0.01600000 </v>
   <v>       0.01600000 </v>
   <v>       0.01600000 </v>
   <v>       0.01600000 </v>
   <v>       0.01600000 </v>
   <v>       0.01600000 </v>
   <v>       0.01600000 </v>
   <v>       0.01600000 </v>
   <v>       0.01600000 </v>
   <v>       0.01600000 </v>
   <v>       0.01600000 </v>
   <v>       0.01600000 </v>
   <v>       0.01600000 </v>
   <v>       0.01600000 </v>
   <v>       0.01600000 </v>
   <v>       0.01600000 </v>
   <v>       0.01600000 </v>
   <v>       0.01600000 </v>
   <v>       0.01600000 </v>
   <v>       0.01600000 </v>
   <v>       0.01600000 </v>
   <v>       0.01600000 </v>
   <v>       0.01600000 </v>
   <v>       0.01600000 </v>
   <v>       0.01600000 </v>
   <v>       0.01600000 </v>
   <v>       0.01600000 </v>
   <v>       0.01600000 </v>
   <v>       0.01600000 </v>
   <v>       0.01600000 </v>
   <v>       0.01600000 </v>
   <v>       0.01600000 </v>
   <v>       0.01600000 </v>
   <v>       0.01600000 </v>
   <v>       0.01600000 </v>
   <v>       0.01600000 </v>
   <v>       0.01600000 </v>
   <v>       0.01600000 </v>
   <v>       0.01600000 </v>
   <v>       0.01600000 </v>
   <v>       0.01600000 </v>
   <v>       0.01600000 </v>
   <v>       0.01600000 </v>
   <v>       0.01600000 </v>
   <v>       0.01600000 </v>
   <v>       0.01600000 </v>
   <v>       0.01600000 </v>
   <v>       0.01600000 </v>
  </varray>
 </kpoints>
 <parameters>
  <separator name="general" >
   <i type="string" name="SYSTEM">Nb - Mo - Ta - Ti - W SQS</i>
   <i type="logical" name="LCOMPAT"> F  </i>
  </separator>
  <separator name="electronic" >
   <i type="string" name="PREC">normal</i>
   <i name="ENMAX">    400.00000000</i>
   <i name="ENAUG">    455.65900000</i>
   <i name="EDIFF">      0.00010000</i>
   <i type="int" name="IALGO">    38</i>
   <i type="int" name="IWAVPR">    10</i>
   <i type="int" name="NBANDS">   128</i>
   <i name="NELECT">    204.00000000</i>
   <i type="int" name="TURBO">     0</i>
   <i type="int" name="IRESTART">     0</i>
   <i type="int" name="NREBOOT">     0</i>
   <i type="int" name="NMIN">     0</i>
   <i name="EREF">      0.00000000</i>
   <separator name="electronic smearing" >
    <i type="int" name="ISMEAR">     1</i>
    <i name="SIGMA">      0.20000000</i>
    <i name="KSPACING">      0.50000000</i>
    <i type="logical" name="KGAMMA"> T  </i>
   </separator>
   <separator name="electronic projectors" >
    <i type="logical" name="LREAL"> T  </i>
    <v name="ROPT">     -0.00050000     -0.00050000     -0.00050000     -0.00050000     -0.00050000</v>
    <i type="int" name="LMAXPAW">  -100</i>
    <i type="int" name="LMAXMIX">     2</i>
    <i type="logical" name="NLSPLINE"> F  </i>
   </separator>
   <separator name="electronic startup" >
    <i type="int" name="ISTART">     0</i>
    <i type="int" name="ICHARG">     2</i>
    <i type="int" name="INIWAV">     1</i>
   </separator>
   <separator name="electronic spin" >
    <i type="int" name="ISPIN">     1</i>
    <i type="logical" name="LNONCOLLINEAR"> F  </i>
    <v name="MAGMOM">      1.00000000      1.00000000      1.00000000      1.00000000      1.00000000      1.00000000      1.00000000      1.00000000      1.00000000      1.00000000      1.00000000      1.00000000      1.00000000      1.00000000      1.00000000      1.00000000      1.00000000      1.00000000      1.00000000      1.00000000
      1.00000000      1.00000000      1.00000000      1.00000000      1.00000000      1.00000000      1.00000000      1.00000000      1.00000000      1.00000000</v>
    <i name="NUPDOWN">     -1.00000000</i>
    <i type="logical" name="LSORBIT"> F  </i>
    <v name="SAXIS">      0.00000000      0.00000000      1.00000000</v>
    <i type="logical" name="LSPIRAL"> F  </i>
    <v name="QSPIRAL">      0.00000000      0.00000000      0.00000000</v>
    <i type="logical" name="LZEROZ"> F  </i>
   </separator>
   <separator name="electronic exchange-correlation" >
    <i type="logical" name="LASPH"> F  </i>
    <i type="logical" name="LMETAGGA"> F  </i>
   </separator>
   <separator name="electronic convergence" >
    <i type="int" name="NELM">    60</i>
    <i type="int" name="NELMDL">    -5</i>
    <i type="int" name="NELMIN">     2</i>
    <i name="ENINI">    400.00000000</i>
    <separator name="electronic convergence detail" >
     <i type="logical" name="LDIAG"> T  </i>
     <i type="logical" name="LSUBROT"> F  </i>
     <i name="WEIMIN">      0.00000000</i>
     <i name="EBREAK">      0.00000020</i>
     <i name="DEPER">      0.30000000</i>
     <i type="int" name="NRMM">     4</i>
     <i name="TIME">      0.40000000</i>
    </separator>
   </separator>
   <separator name="electronic mixer" >
    <i name="AMIX">      0.40000000</i>
    <i name="BMIX">      1.00000000</i>
    <i name="AMIN">      0.10000000</i>
    <i name="AMIX_MAG">      1.60000000</i>
    <i name="BMIX_MAG">      1.00000000</i>
    <separator name="electronic mixer details" >
     <i type="int" name="IMIX">     4</i>
     <i type="logical" name="MIXFIRST"> F  </i>
     <i type="int" name="MAXMIX">   -45</i>
     <i name="WC">    100.00000000</i>
     <i type="int" name="INIMIX">     1</i>
     <i type="int" name="MIXPRE">     1</i>
     <i type="int" name="MREMOVE">     5</i>
    </separator>
   </separator>
   <separator name="electronic dipolcorrection" >
    <i type="logical" name="LDIPOL"> F  </i>
    <i type="logical" name="LMONO"> F  </i>
    <i type="int" name="IDIPOL">     0</i>
    <i name="EPSILON">      1.00000000</i>
    <v name="DIPOL">   -100.00000000   -100.00000000   -100.00000000</v>
    <i name="EFIELD">      0.00000000</i>
   </separator>
  </separator>
  <separator name="grids" >
   <i type="int" name="NGX">    32</i>
   <i type="int" name="NGY">    42</i>
   <i type="int" name="NGZ">    50</i>
   <i type="int" name="NGXF">    64</i>
   <i type="int" name="NGYF">    84</i>
   <i type="int" name="NGZF">   100</i>
   <i type="logical" name="ADDGRID"> F  </i>
  </separator>
  <separator name="ionic" >
   <i type="int" name="NSW">     0</i>
   <i type="int" name="IBRION">    -1</i>
   <i type="int" name="MDALGO">     0</i>
   <i type="int" name="ISIF">     2</i>
   <i name="PSTRESS">      0.00000000</i>
   <i name="EDIFFG">      0.00100000</i>
   <i type="int" name="NFREE">     0</i>
   <i name="POTIM">      0.50000000</i>
   <i name="SMASS">     -3.00000000</i>
   <i name="SCALEE">      1.00000000</i>
  </separator>
  <separator name="ionic md" >
   <i name="TEBEG">      0.00010000</i>
   <i name="TEEND">      0.00010000</i>
   <i type="int" name="NBLOCK">     1</i>
   <i type="int" name="KBLOCK">     1</i>
   <i type="int" name="NPACO">   256</i>
   <i name="APACO">     16.00000000</i>
  </separator>
  <separator name="symmetry" >
   <i type="int" name="ISYM">     0</i>
   <i name="SYMPREC">      0.00001000</i>
  </separator>
  <separator name="dos" >
   <i type="int" name="LORBIT">     0</i>
   <v name="RWIGS">     -1.00000000     -1.00000000     -1.00000000     -1.00000000     -1.00000000</v>
   <i type="int" name="NEDOS">   301</i>
   <i name="EMIN">     10.00000000</i>
   <i name="EMAX">    -10.00000000</i>
   <i name="EFERMI">      0.00000000</i>
  </separator>
  <separator name="writing" >
   <i type="int" name="NWRITE">     2</i>
   <i type="logical" name="LWAVE"> T  </i>
   <i type="logical" name="LDOWNSAMPLE"> F  </i>
   <i type="logical" name="LCHARG"> T  </i>
   <i type="logical" name="LPARD"> F  </i>
   <i type="logical" name="LVTOT"> F  </i>
   <i type="logical" name="LVHAR"> F  </i>
   <i type="logical" name="LELF"> F  </i>
   <i type="logical" name="LOPTICS"> F  </i>
   <v name="STM">      0.00000000      0.00000000      0.00000000      0.00000000      0.00000000      0.00000000      0.00000000</v>
  </separator>
  <separator name="performance" >
   <i type="int" name="NPAR">     8</i>
   <i type="int" name="NSIM">     4</i>
   <i type="int" name="NBLK">    -1</i>
   <i type="logical" name="LPLANE"> T  </i>
   <i type="logical" name="LSCALAPACK"> T  </i>
   <i type="logical" name="LSCAAWARE"> F  </i>
   <i type="logical" name="LSCALU"> F  </i>
   <i type="logical" name="LASYNC"> F  </i>
   <i type="logical" name="LORBITALREAL"> F  </i>
  </separator>
  <separator name="miscellaneous" >
   <i type="int" name="IDIOT">     3</i>
   <i type="int" name="ISPECIAL">     0</i>
   <i type="logical" name="LMUSIC"> F  </i>
   <v name="POMASS">     92.91000000     95.94000000    180.94800000     47.88000000    183.85000000</v>
   <v name="DARWINR">      0.00000000      0.00000000      0.00000000      0.00000000      0.00000000</v>
   <v name="DARWINV">      1.00000000      1.00000000      1.00000000      1.00000000      1.00000000</v>
   <i type="logical" name="LCORR"> T  </i>
  </separator>
  <i type="logical" name="GGA_COMPAT"> T  </i>
  <i type="logical" name="LBERRY"> F  </i>
  <i type="int" name="ICORELEVEL">     0</i>
  <i type="logical" name="LDAU"> F  </i>
  <i type="int" name="I_CONSTRAINED_M">     0</i>
  <separator name="electronic exchange-correlation" >
   <i type="string" name="GGA">PS</i>
   <i type="int" name="VOSKOWN">     0</i>
   <i type="logical" name="LHFCALC"> F  </i>
   <i type="string" name="PRECFOCK"></i>
   <i type="logical" name="LSYMGRAD"> F  </i>
   <i type="logical" name="LHFONE"> F  </i>
   <i type="logical" name="LRHFCALC"> F  </i>
   <i type="logical" name="LTHOMAS"> F  </i>
   <i type="logical" name="LMODELHF"> F  </i>
   <i name="ENCUT4O">     -1.00000000</i>
   <i type="int" name="EXXOEP">     0</i>
   <i type="int" name="FOURORBIT">     0</i>
   <i name="AEXX">      0.00000000</i>
   <i name="HFALPHA">      0.00000000</i>
   <i name="MCALPHA">      0.00000000</i>
   <i name="ALDAX">      1.00000000</i>
   <i name="AGGAX">      1.00000000</i>
   <i name="ALDAC">      1.00000000</i>
   <i name="AGGAC">      1.00000000</i>
   <i type="int" name="NKREDX">     1</i>
   <i type="int" name="NKREDY">     1</i>
   <i type="int" name="NKREDZ">     1</i>
   <i type="logical" name="SHIFTRED"> F  </i>
   <i type="logical" name="ODDONLY"> F  </i>
   <i type="logical" name="EVENONLY"> F  </i>
   <i type="int" name="LMAXFOCK">     0</i>
   <i type="int" name="NMAXFOCKAE">     0</i>
   <i type="logical" name="LFOCKAEDFT"> F  </i>
   <i name="HFSCREEN">      0.00000000</i>
   <i name="HFSCREENC">      0.00000000</i>
   <i type="int" name="NBANDSGWLOW">     0</i>
  </separator>
  <separator name="vdW DFT" >
   <i type="logical" name="LUSE_VDW"> F  </i>
   <i name="Zab_VDW">     -0.84910000</i>
   <i name="PARAM1">      0.12340000</i>
   <i name="PARAM2">      1.00000000</i>
   <i name="PARAM3">      0.00000000</i>
  </separator>
  <separator name="model GW" >
   <i type="int" name="MODEL_GW">     0</i>
   <i name="MODEL_EPS0">     10.01587440</i>
   <i name="MODEL_ALPHA">      1.00000000</i>
  </separator>
  <separator name="linear response parameters" >
   <i type="logical" name="LEPSILON"> F  </i>
   <i type="logical" name="LRPA"> F  </i>
   <i type="logical" name="LNABLA"> F  </i>
   <i type="logical" name="LVEL"> F  </i>
   <i type="int" name="KINTER">     0</i>
   <i name="CSHIFT">      0.10000000</i>
   <i name="OMEGAMAX">     -1.00000000</i>
   <i name="DEG_THRESHOLD">      0.00200000</i>
   <i name="RTIME">     -0.10000000</i>
   <i name="WPLASMAI">      0.00000000</i>
   <v name="DFIELD">      0.00000000      0.00000000      0.00000000</v>
   <v name="WPLASMA">      0.00000000      0.00000000      0.00000000      0.00000000      0.00000000      0.00000000      0.00000000      0.00000000      0.00000000</v>
  </separator>
  <separator name="orbital magnetization" >
   <i type="logical" name="NUCIND"> F  </i>
   <v name="MAGPOS">      0.00000000      0.00000000      0.00000000</v>
   <i type="logical" name="LNICSALL"> T  </i>
   <i type="logical" name="ORBITALMAG"> F  </i>
   <i type="logical" name="LMAGBLOCH"> F  </i>
   <i type="logical" name="LCHIMAG"> F  </i>
   <i type="logical" name="LGAUGE"> T  </i>
   <i type="int" name="MAGATOM">     0</i>
   <v name="MAGDIPOL">      0.00000000      0.00000000      0.00000000</v>
   <v name="AVECCONST">      0.00000000      0.00000000      0.00000000</v>
  </separator>
  <separator name="response functions" >
   <i type="logical" name="LADDER"> F  </i>
   <i type="logical" name="LRPAFORCE"> F  </i>
   <i type="logical" name="LFXC"> F  </i>
   <i type="logical" name="LHARTREE"> T  </i>
   <i type="int" name="IBSE">     0</i>
   <v type="int" name="KPOINT">    -1     0     0     0</v>
   <i type="logical" name="LTCTE"> F  </i>
   <i type="logical" name="LTETE"> F  </i>
   <i type="logical" name="LTRIPLET"> F  </i>
   <i type="logical" name="LFXCEPS"> F  </i>
   <i type="logical" name="LFXHEG"> F  </i>
   <i type="int" name="NATURALO">     2</i>
   <i type="logical" name="L2ORDER"> F  </i>
   <i type="logical" name="LMP2LT"> F  </i>
   <i type="logical" name="LUSEW"> F  </i>
   <i name="ENCUTGW">     -2.00000000</i>
   <i name="ENCUTGWSOFT">     -2.00000000</i>
   <i name="ENCUTLF">     -1.00000000</i>
   <i type="int" name="LMAXMP2">    -1</i>
   <i name="SCISSOR">      0.00000000</i>
   <i type="int" name="NOMEGA">     0</i>
   <i type="int" name="NOMEGAR">     0</i>
   <i type="int" name="NBANDSGW">    -1</i>
   <i type="int" name="NBANDSO">    -1</i>
   <i type="int" name="NBANDSV">    -1</i>
   <i type="int" name="NELM">     1</i>
   <i type="int" name="NELMHF">     1</i>
   <i type="int" name="DIM">     3</i>
   <i type="int" name="ANTIRES">     0</i>
   <i name="OMEGAMAX">    -30.00000000</i>
   <i name="OMEGAMIN">    -30.00000000</i>
   <i name="OMEGATL">   -200.00000000</i>
   <i type="int" name="OMEGAGRID">   140</i>
   <i name="CSHIFT">     -0.10000000</i>
   <i type="logical" name="SELFENERGY"> F  </i>
   <i type="logical" name="LSPECTRAL"> F  </i>
   <i type="logical" name="LSPECTRALGW"> F  </i>
   <i type="logical" name="LSINGLES"> F  </i>
   <i type="logical" name="LFERMIGW"> F  </i>
   <i type="logical" name="ODDONLYGW"> F  </i>
   <i type="logical" name="EVENONLYGW"> F  </i>
   <i type="int" name="NKREDLFX">     1</i>
   <i type="int" name="NKREDLFY">     1</i>
   <i type="int" name="NKREDLFZ">     1</i>
   <i type="int" name="MAXMEM">  2800</i>
   <i type="int" name="TELESCOPE">     0</i>
   <i type="int" name="TAUPAR">     1</i>
   <i type="int" name="OMEGAPAR">    -1</i>
   <i name="LAMBDA">      1.00000000</i>
  </separator>
  <separator name="External order field" >
   <i name="OFIELD_KAPPA">      0.00000000</i>
   <v name="OFIELD_K">      0.00000000      0.00000000      0.00000000</v>
   <i name="OFIELD_Q6_NEAR">      0.00000000</i>
   <i name="OFIELD_Q6_FAR">      0.00000000</i>
   <i name="OFIELD_A">      0.00000000</i>
  </separator>
  <separator name="solvation model" >
   <i type="logical" name="LSOL"> F  </i>
  </separator>
 </parameters>
 <atominfo>
  <atoms>      30 </atoms>
  <types>       5 </types>
  <array name="atoms" >
   <dimension dim="1">ion</dimension>
   <field type="string">element</field>
   <field type="int">atomtype</field>
   <set>
    <rc><c>Nb</c><c>   1</c></rc>
    <rc><c>Nb</c><c>   1</c></rc>
    <rc><c>Nb</c><c>   1</c></rc>
    <rc><c>Nb</c><c>   1</c></rc>
    <rc><c>Nb</c><c>   1</c></rc>
    <rc><c>Nb</c><c>   1</c></rc>
    <rc><c>Mo</c><c>   2</c></rc>
    <rc><c>Mo</c><c>   2</c></rc>
    <rc><c>Mo</c><c>   2</c></rc>
    <rc><c>Mo</c><c>   2</c></rc>
    <rc><c>Mo</c><c>   2</c></rc>
    <rc><c>Mo</c><c>   2</c></rc>
    <rc><c>Ta</c><c>   3</c></rc>
    <rc><c>Ta</c><c>   3</c></rc>
    <rc><c>Ta</c><c>   3</c></rc>
    <rc><c>Ta</c><c>   3</c></rc>
    <rc><c>Ta</c><c>   3</c></rc>
    <rc><c>Ta</c><c>   3</c></rc>
    <rc><c>Ti</c><c>   4</c></rc>
    <rc><c>Ti</c><c>   4</c></rc>
    <rc><c>Ti</c><c>   4</c></rc>
    <rc><c>Ti</c><c>   4</c></rc>
    <rc><c>Ti</c><c>   4</c></rc>
    <rc><c>Ti</c><c>   4</c></rc>
    <rc><c>W </c><c>   5</c></rc>
    <rc><c>W </c><c>   5</c></rc>
    <rc><c>W </c><c>   5</c></rc>
    <rc><c>W </c><c>   5</c></rc>
    <rc><c>W </c><c>   5</c></rc>
    <rc><c>W </c><c>   5</c></rc>
   </set>
  </array>
  <array name="atomtypes" >
   <dimension dim="1">type</dimension>
   <field type="int">atomspertype</field>
   <field type="string">element</field>
   <field>mass</field>
   <field>valence</field>
   <field type="string">pseudopotential</field>
   <set>
    <rc><c>   6</c><c>Nb</c><c>     92.91000000</c><c>     13.00000000</c><c>  PAW_PBE Nb_sv 25May2007               </c></rc>
    <rc><c>   6</c><c>Mo</c><c>     95.94000000</c><c>      6.00000000</c><c>  PAW_PBE Mo 08Apr2002                  </c></rc>
    <rc><c>   6</c><c>Ta</c><c>    180.94800000</c><c>      5.00000000</c><c>  PAW_PBE Ta 17Jan2003                  </c></rc>
    <rc><c>   6</c><c>Ti</c><c>     47.88000000</c><c>      4.00000000</c><c>  PAW_PBE Ti 08Apr2002                  </c></rc>
    <rc><c>   6</c><c>W </c><c>    183.85000000</c><c>      6.00000000</c><c>  PAW_PBE W 08Apr2002                   </c></rc>
   </set>
  </array>
 </atominfo>
 <structure name="initialpos" >
  <crystal>
   <varray name="basis" >
    <v>       0.00000000       0.00000000       6.44000000 </v>
    <v>       8.05000000       1.61000000       1.61000000 </v>
    <v>       0.00000000       9.66000000       3.22000000 </v>
   </varray>
   <i name="volume">    500.79372000 </i>
   <varray name="rec_basis" >
    <v>      -0.02070393      -0.05175983       0.15527950 </v>
    <v>       0.12422360       0.00000000       0.00000000 </v>
    <v>      -0.02070393       0.10351967       0.00000000 </v>
   </varray>
  </crystal>
  <varray name="positions" >
   <v>       0.00000000       0.00000000       0.00000000 </v>
   <v>       0.83333333       0.00000000       0.33333333 </v>
   <v>       0.10000000       0.40000000       0.60000000 </v>
   <v>       0.20000000       0.80000000       0.20000000 </v>
   <v>       0.80000000       0.20000000       0.80000000 </v>
   <v>       0.93333333       0.40000000       0.93333333 </v>
   <v>       0.50000000       0.00000000       0.00000000 </v>
   <v>       0.33333333       0.00000000       0.33333333 </v>
   <v>       0.46666667       0.20000000       0.46666667 </v>
   <v>       0.23333333       0.60000000       0.73333333 </v>
   <v>       0.73333333       0.60000000       0.73333333 </v>
   <v>       0.86666667       0.80000000       0.86666667 </v>
   <v>       0.13333333       0.20000000       0.13333333 </v>
   <v>       0.63333333       0.20000000       0.13333333 </v>
   <v>       0.66666667       0.00000000       0.66666667 </v>
   <v>       0.76666667       0.40000000       0.26666667 </v>
   <v>       0.40000000       0.60000000       0.40000000 </v>
   <v>       0.60000000       0.40000000       0.60000000 </v>
   <v>       0.16666667       0.00000000       0.66666667 </v>
   <v>       0.26666667       0.40000000       0.26666667 </v>
   <v>       0.30000000       0.20000000       0.80000000 </v>
   <v>       0.90000000       0.60000000       0.40000000 </v>
   <v>       0.53333333       0.80000000       0.53333333 </v>
   <v>       0.36666667       0.80000000       0.86666667 </v>
   <v>       0.06666667       0.60000000       0.06666667 </v>
   <v>       0.56666667       0.60000000       0.06666667 </v>
   <v>       0.96666667       0.20000000       0.46666667 </v>
   <v>       0.70000000       0.80000000       0.20000000 </v>
   <v>       0.03333333       0.80000000       0.53333333 </v>
   <v>       0.43333333       0.40000000       0.93333333 </v>
  </varray>
 </structure>
 <calculation>
  <scstep>
   <time name="dav">   10.68   10.79</time>
   <time name="total">   10.71   10.82</time>
   <energy>
    <i name="alphaZ">   1343.16923251 </i>
    <i name="ewald"> -11979.72277562 </i>
    <i name="hartreedc">  -3034.53633360 </i>
    <i name="XCdc">   -904.53944975 </i>
    <i name="pawpsdc">  12303.85264859 </i>
    <i name="pawaedc"> -10739.97191893 </i>
    <i name="eentropy">      0.00320388 </i>
    <i name="bandstr">   1399.89097777 </i>
    <i name="atom">  13210.85262565 </i>
    <i name="e_fr_energy">   1598.99821048 </i>
    <i name="e_wo_entrp">   1598.99500660 </i>
    <i name="e_0_energy">   1598.99714252 </i>
   </energy>
  </scstep>
  <scstep>
   <time name="dav">   10.63   10.65</time>
   <time name="total">   10.64   10.66</time>
   <energy>
    <i name="e_fr_energy">    -54.71778908 </i>
    <i name="e_wo_entrp">    -54.72426315 </i>
    <i name="e_0_energy">    -54.71994711 </i>
   </energy>
  </scstep>
  <scstep>
   <time name="dav">   16.94   16.96</time>
   <time name="total">   16.94   16.96</time>
   <energy>
    <i name="e_fr_energy">   -335.59917780 </i>
    <i name="e_wo_entrp">   -335.60983188 </i>
    <i name="e_0_energy">   -335.60272916 </i>
   </energy>
  </scstep>
  <scstep>
   <time name="dav">   15.53   15.56</time>
   <time name="total">   15.54   15.57</time>
   <energy>
    <i name="e_fr_energy">   -367.03889339 </i>
    <i name="e_wo_entrp">   -367.04885021 </i>
    <i name="e_0_energy">   -367.04221233 </i>
   </energy>
  </scstep>
  <scstep>
   <time name="dav">   16.76   16.79</time>
   <time name="total">   17.07   17.09</time>
   <energy>
    <i name="e_fr_energy">   -369.69006065 </i>
    <i name="e_wo_entrp">   -369.69987166 </i>
    <i name="e_0_energy">   -369.69333099 </i>
   </energy>
  </scstep>
  <scstep>
   <time name="dav">   14.42   14.44</time>
   <time name="total">   14.75   14.77</time>
   <energy>
    <i name="e_fr_energy">   -358.08747450 </i>
    <i name="e_wo_entrp">   -358.08294529 </i>
    <i name="e_0_energy">   -358.08596477 </i>
   </energy>
  </scstep>
  <scstep>
   <time name="dav">   14.35   14.37</time>
   <time name="total">   14.67   14.69</time>
   <energy>
    <i name="e_fr_energy">   -371.12716979 </i>
    <i name="e_wo_entrp">   -371.13459699 </i>
    <i name="e_0_energy">   -371.12964552 </i>
   </energy>
  </scstep>
  <scstep>
   <time name="dav">   13.69   13.71</time>
   <time name="total">   14.01   14.03</time>
   <energy>
    <i name="e_fr_energy">   -352.53728780 </i>
    <i name="e_wo_entrp">   -352.54458888 </i>
    <i name="e_0_energy">   -352.53972149 </i>
   </energy>
  </scstep>
  <scstep>
   <time name="dav">   14.24   14.26</time>
   <time name="total">   14.56   14.58</time>
   <energy>
    <i name="e_fr_energy">   -347.35393158 </i>
    <i name="e_wo_entrp">   -347.35570113 </i>
    <i name="e_0_energy">   -347.35452143 </i>
   </energy>
  </scstep>
  <scstep>
   <time name="dav">   14.98   14.99</time>
   <time name="total">   15.30   15.31</time>
   <energy>
    <i name="e_fr_energy">   -346.28709603 </i>
    <i name="e_wo_entrp">   -346.28354974 </i>
    <i name="e_0_energy">   -346.28591394 </i>
   </energy>
  </scstep>
  <scstep>
   <time name="dav">   14.37   14.39</time>
   <time name="total">   14.70   14.72</time>
   <energy>
    <i name="e_fr_energy">   -346.01895841 </i>
    <i name="e_wo_entrp">   -346.00818905 </i>
    <i name="e_0_energy">   -346.01536862 </i>
   </energy>
  </scstep>
  <scstep>
   <time name="dav">   14.41   14.43</time>
   <time name="total">   14.73   14.75</time>
   <energy>
    <i name="e_fr_energy">   -346.01270685 </i>
    <i name="e_wo_entrp">   -346.00620270 </i>
    <i name="e_0_energy">   -346.01053880 </i>
   </energy>
  </scstep>
  <scstep>
   <time name="dav">   14.93   14.95</time>
   <time name="total">   15.25   15.27</time>
   <energy>
    <i name="e_fr_energy">   -345.98683362 </i>
    <i name="e_wo_entrp">   -345.97535257 </i>
    <i name="e_0_energy">   -345.98300660 </i>
   </energy>
  </scstep>
  <scstep>
   <time name="dav">   15.21   15.23</time>
   <time name="total">   15.55   15.57</time>
   <energy>
    <i name="e_fr_energy">   -345.95766375 </i>
    <i name="e_wo_entrp">   -345.94805993 </i>
    <i name="e_0_energy">   -345.95446248 </i>
   </energy>
  </scstep>
  <scstep>
   <time name="dav">   15.14   15.26</time>
   <time name="total">   15.48   15.60</time>
   <energy>
    <i name="e_fr_energy">   -345.95881231 </i>
    <i name="e_wo_entrp">   -345.94824642 </i>
    <i name="e_0_energy">   -345.95529035 </i>
   </energy>
  </scstep>
  <scstep>
   <time name="dav">   15.00   15.02</time>
   <time name="total">   15.32   15.34</time>
   <energy>
    <i name="e_fr_energy">   -345.95748165 </i>
    <i name="e_wo_entrp">   -345.94726213 </i>
    <i name="e_0_energy">   -345.95407514 </i>
   </energy>
  </scstep>
  <scstep>
   <time name="dav">   13.87   13.88</time>
   <time name="total">   14.19   14.20</time>
   <energy>
    <i name="e_fr_energy">   -345.95464670 </i>
    <i name="e_wo_entrp">   -345.94455923 </i>
    <i name="e_0_energy">   -345.95128421 </i>
   </energy>
  </scstep>
  <scstep>
   <time name="dav">   14.08   14.10</time>
   <time name="total">   14.40   14.42</time>
   <energy>
    <i name="e_fr_energy">   -345.95404210 </i>
    <i name="e_wo_entrp">   -345.94408998 </i>
    <i name="e_0_energy">   -345.95072473 </i>
   </energy>
  </scstep>
  <scstep>
   <time name="dav">   13.46   13.47</time>
   <time name="total">   13.77   13.79</time>
   <energy>
    <i name="e_fr_energy">   -345.95395181 </i>
    <i name="e_wo_entrp">   -345.94402410 </i>
    <i name="e_0_energy">   -345.95064257 </i>
   </energy>
  </scstep>
  <scstep>
   <time name="dav">   10.95   10.96</time>
   <time name="total">   10.98   11.00</time>
   <energy>
    <i name="alphaZ">   1343.16923251 </i>
    <i name="ewald"> -11979.72277562 </i>
    <i name="hartreedc">  -2867.88371816 </i>
    <i name="XCdc">   -898.80956468 </i>
    <i name="pawpsdc">  21010.43557467 </i>
    <i name="pawaedc"> -19450.62403299 </i>
    <i name="eentropy">     -0.00986744 </i>
    <i name="bandstr">   -713.36140179 </i>
    <i name="atom">  13210.85262565 </i>
    <i name="e_fr_energy">   -345.95392787 </i>
    <i name="e_wo_entrp">   -345.94406043 </i>
    <i name="e_0_energy">   -345.95063872 </i>
   </energy>
  </scstep>
  <structure>
   <crystal>
    <varray name="basis" >
     <v>       0.00000000       0.00000000       6.44000000 </v>
     <v>       8.05000000       1.61000000       1.61000000 </v>
     <v>       0.00000000       9.66000000       3.22000000 </v>
    </varray>
    <i name="volume">    500.79372000 </i>
    <varray name="rec_basis" >
     <v>      -0.02070393      -0.05175983       0.15527950 </v>
     <v>       0.12422360       0.00000000       0.00000000 </v>
     <v>      -0.02070393       0.10351967       0.00000000 </v>
    </varray>
   </crystal>
   <varray name="positions" >
    <v>       0.00000000       0.00000000       0.00000000 </v>
    <v>       0.83333333       0.00000000       0.33333333 </v>
    <v>       0.10000000       0.40000000       0.60000000 </v>
    <v>       0.20000000       0.80000000       0.20000000 </v>
    <v>       0.80000000       0.20000000       0.80000000 </v>
    <v>       0.93333333       0.40000000       0.93333333 </v>
    <v>       0.50000000       0.00000000       0.00000000 </v>
    <v>       0.33333333       0.00000000       0.33333333 </v>
    <v>       0.46666667       0.20000000       0.46666667 </v>
    <v>       0.23333333       0.60000000       0.73333333 </v>
    <v>       0.73333333       0.60000000       0.73333333 </v>
    <v>       0.86666667       0.80000000       0.86666667 </v>
    <v>       0.13333333       0.20000000       0.13333333 </v>
    <v>       0.63333333       0.20000000       0.13333333 </v>
    <v>       0.66666667       0.00000000       0.66666667 </v>
    <v>       0.76666667       0.40000000       0.26666667 </v>
    <v>       0.40000000       0.60000000       0.40000000 </v>
    <v>       0.60000000       0.40000000       0.60000000 </v>
    <v>       0.16666667       0.00000000       0.66666667 </v>
    <v>       0.26666667       0.40000000       0.26666667 </v>
    <v>       0.30000000       0.20000000       0.80000000 </v>
    <v>       0.90000000       0.60000000       0.40000000 </v>
    <v>       0.53333333       0.80000000       0.53333333 </v>
    <v>       0.36666667       0.80000000       0.86666667 </v>
    <v>       0.06666667       0.60000000       0.06666667 </v>
    <v>       0.56666667       0.60000000       0.06666667 </v>
    <v>       0.96666667       0.20000000       0.46666667 </v>
    <v>       0.70000000       0.80000000       0.20000000 </v>
    <v>       0.03333333       0.80000000       0.53333333 </v>
    <v>       0.43333333       0.40000000       0.93333333 </v>
   </varray>
  </structure>
  <varray name="forces" >
   <v>      -0.67333733      -0.37413529      -0.34261418 </v>
   <v>      -0.31429819       0.64285770      -0.11342837 </v>
   <v>      -0.13664851      -0.19843847      -0.07487521 </v>
   <v>      -0.18454165      -0.74487319       0.31216454 </v>
   <v>      -0.09184577       0.43109992      -0.45897811 </v>
   <v>       1.05712997      -0.13261904      -0.04020795 </v>
   <v>      -0.29841300      -0.00776565       0.40239387 </v>
   <v>       0.15966197       0.60950653      -0.04369020 </v>
   <v>      -0.31148733       0.04560876      -0.13557678 </v>
   <v>       0.11736900       0.10679135      -0.11311553 </v>
   <v>       0.37563315       0.01005076       0.12572582 </v>
   <v>      -0.59417901       0.27102037      -0.19311333 </v>
   <v>      -0.23212650      -0.43805195       0.85381295 </v>
   <v>      -0.42759785      -0.29286197      -0.84886949 </v>
   <v>       0.20827358      -0.57239097       0.51929614 </v>
   <v>       0.12039031       0.18015444      -0.00719771 </v>
   <v>       0.75732768       0.00408377      -0.04698546 </v>
   <v>       0.08993252       0.16279182      -0.00576468 </v>
   <v>      -0.04121605      -0.33754404      -0.46809236 </v>
   <v>      -0.14901286      -0.08523961       0.04148792 </v>
   <v>      -0.15752111       0.64221578       0.41364880 </v>
   <v>       0.41580820      -0.00453116       0.14698020 </v>
   <v>      -0.48696332       0.42868622      -0.17914426 </v>
   <v>      -0.56069797       0.05443387       0.19791836 </v>
   <v>       0.11624802      -0.05673849      -0.12108009 </v>
   <v>       0.17140314      -0.21017019       0.16046189 </v>
   <v>      -0.06243984      -0.21443051       0.14956419 </v>
   <v>       0.02701431      -0.34090090      -0.44302802 </v>
   <v>      -0.06047510       0.21286326       0.26671720 </v>
   <v>       1.16660955       0.20852691       0.04558985 </v>
  </varray>
  <varray name="stress" >
   <v>     -65.63152815       3.25721644      -1.23529856 </v>
   <v>       3.25721631     -66.21897236      -0.68202342 </v>
   <v>      -1.23529864      -0.68202346     -65.44590643 </v>
  </varray>
  <energy>
   <i name="e_fr_energy">   -345.95392787 </i>
   <i name="e_wo_entrp">   -345.95063872 </i>
   <i name="e_0_energy">     -0.00986744 </i>
  </energy>
  <time name="totalsc">  301.29  310.10</time>
  <eigenvalues>
   <array>
    <dimension dim="1">band</dimension>
    <dimension dim="2">kpoint</dimension>
    <dimension dim="3">spin</dimension>
    <field>eigene</field>
    <field>occ</field>
    <set>
     <set comment="spin 1">
      <set comment="kpoint 1">
       <r>  -47.4296    1.0000 </r>
       <r>  -47.4202    1.0000 </r>
       <r>  -47.3876    1.0000 </r>
       <r>  -47.3314    1.0000 </r>
       <r>  -47.2933    1.0000 </r>
       <r>  -47.2314    1.0000 </r>
       <r>  -23.9428    1.0000 </r>
       <r>  -23.8779    1.0000 </r>
       <r>  -23.8179    1.0000 </r>
       <r>  -23.7155    1.0000 </r>
       <r>  -23.6116    1.0000 </r>
       <r>  -23.5953    1.0000 </r>
       <r>  -23.5819    1.0000 </r>
       <r>  -23.5533    1.0000 </r>
       <r>  -23.5341    1.0000 </r>
       <r>  -23.5063    1.0000 </r>
       <r>  -23.4977    1.0000 </r>
       <r>  -23.4841    1.0000 </r>
       <r>  -23.4109    1.0000 </r>
       <r>  -23.3849    1.0000 </r>
       <r>  -23.2899    1.0000 </r>
       <r>  -23.2575    1.0000 </r>
       <r>  -23.1928    1.0000 </r>
       <r>  -23.0592    1.0000 </r>
       <r>   -0.6362    1.0000 </r>
       <r>    1.2372    1.0000 </r>
       <r>    1.7381    1.0000 </r>
       <r>    1.8961    1.0000 </r>
       <r>    2.1117    1.0000 </r>
       <r>    2.2358    1.0000 </r>
       <r>    2.2941    1.0000 </r>
       <r>    2.3896    1.0000 </r>
       <r>    2.5055    1.0000 </r>
       <r>    2.7071    1.0000 </r>
       <r>    2.7489    1.0000 </r>
       <r>    2.8728    1.0000 </r>
       <r>    2.8887    1.0000 </r>
       <r>    2.9419    1.0000 </r>
       <r>    3.0174    1.0000 </r>
       <r>    3.1234    1.0000 </r>
       <r>    3.1696    1.0000 </r>
       <r>    3.1956    1.0000 </r>
       <r>    3.2331    1.0000 </r>
       <r>    3.2679    1.0000 </r>
       <r>    3.3104    1.0000 </r>
       <r>    3.3254    1.0000 </r>
       <r>    3.4158    1.0000 </r>
       <r>    3.4823    1.0000 </r>
       <r>    3.5111    1.0000 </r>
       <r>    3.6146    1.0000 </r>
       <r>    3.6364    1.0000 </r>
       <r>    3.7178    1.0000 </r>
       <r>    3.7915    1.0000 </r>
       <r>    3.9831    1.0000 </r>
       <r>    4.1724    1.0000 </r>
       <r>    4.2715    1.0000 </r>
       <r>    4.4193    1.0000 </r>
       <r>    4.4380    1.0000 </r>
       <r>    4.5764    1.0000 </r>
       <r>    4.6287    1.0000 </r>
       <r>    4.6557    1.0000 </r>
       <r>    4.6968    1.0000 </r>
       <r>    4.7382    1.0000 </r>
       <r>    4.7974    1.0000 </r>
       <r>    4.8359    1.0000 </r>
       <r>    4.8575    1.0000 </r>
       <r>    4.9084    1.0000 </r>
       <r>    4.9281    1.0000 </r>
       <r>    4.9872    1.0000 </r>
       <r>    5.0222    1.0000 </r>
       <r>    5.0776    1.0000 </r>
       <r>    5.0943    1.0000 </r>
       <r>    5.1766    1.0000 </r>
       <r>    5.2502    1.0000 </r>
       <r>    5.3435    1.0000 </r>
       <r>    5.3683    1.0000 </r>
       <r>    5.4837    1.0000 </r>
       <r>    5.5640    1.0000 </r>
       <r>    5.6447    1.0000 </r>
       <r>    5.6816    1.0000 </r>
       <r>    5.7120    1.0000 </r>
       <r>    5.9276    1.0000 </r>
       <r>    6.0737    1.0004 </r>
       <r>    6.1060    1.0009 </r>
       <r>    6.2057    1.0065 </r>
       <r>    6.2637    1.0156 </r>
       <r>    6.2930    1.0220 </r>
       <r>    6.3558    1.0345 </r>
       <r>    6.3795    1.0353 </r>
       <r>    6.4032    1.0311 </r>
       <r>    6.4819    0.9526 </r>
       <r>    6.5210    0.8611 </r>
       <r>    6.5439    0.7904 </r>
       <r>    6.5584    0.7394 </r>
       <r>    6.5804    0.6550 </r>
       <r>    6.6126    0.5221 </r>
       <r>    6.6470    0.3780 </r>
       <r>    6.6763    0.2638 </r>
       <r>    6.7248    0.1114 </r>
       <r>    6.8628   -0.0355 </r>
       <r>    6.9174   -0.0277 </r>
       <r>    6.9507   -0.0201 </r>
       <r>    6.9622   -0.0176 </r>
       <r>    6.9844   -0.0132 </r>
       <r>    7.0367   -0.0058 </r>
       <r>    7.1010   -0.0017 </r>
       <r>    7.1144   -0.0012 </r>
       <r>    7.1955   -0.0002 </r>
       <r>    7.2637   -0.0000 </r>
       <r>    7.3416   -0.0000 </r>
       <r>    7.4496   -0.0000 </r>
       <r>    7.5192   -0.0000 </r>
       <r>    7.5785   -0.0000 </r>
       <r>    7.5977   -0.0000 </r>
       <r>    7.6685   -0.0000 </r>
       <r>    7.7791   -0.0000 </r>
       <r>    7.9410   -0.0000 </r>
       <r>    8.0611   -0.0000 </r>
       <r>    8.1093   -0.0000 </r>
       <r>    8.2368   -0.0000 </r>
       <r>    8.2498   -0.0000 </r>
       <r>    8.2579   -0.0000 </r>
       <r>    8.2746   -0.0000 </r>
       <r>    8.3293   -0.0000 </r>
       <r>    8.3572   -0.0000 </r>
       <r>    8.4460   -0.0000 </r>
       <r>    8.4529   -0.0000 </r>
       <r>    8.4639   -0.0000 </r>
      </set>
      <set comment="kpoint 2">
       <r>  -47.4294    1.0000 </r>
       <r>  -47.4203    1.0000 </r>
       <r>  -47.3876    1.0000 </r>
       <r>  -47.3314    1.0000 </r>
       <r>  -47.2933    1.0000 </r>
       <r>  -47.2314    1.0000 </r>
       <r>  -23.9438    1.0000 </r>
       <r>  -23.8779    1.0000 </r>
       <r>  -23.8189    1.0000 </r>
       <r>  -23.7155    1.0000 </r>
       <r>  -23.6118    1.0000 </r>
       <r>  -23.5959    1.0000 </r>
       <r>  -23.5826    1.0000 </r>
       <r>  -23.5539    1.0000 </r>
       <r>  -23.5341    1.0000 </r>
       <r>  -23.5061    1.0000 </r>
       <r>  -23.4975    1.0000 </r>
       <r>  -23.4838    1.0000 </r>
       <r>  -23.4110    1.0000 </r>
       <r>  -23.3848    1.0000 </r>
       <r>  -23.2889    1.0000 </r>
       <r>  -23.2580    1.0000 </r>
       <r>  -23.1927    1.0000 </r>
       <r>  -23.0591    1.0000 </r>
       <r>   -0.4034    1.0000 </r>
       <r>    1.2238    1.0000 </r>
       <r>    1.8446    1.0000 </r>
       <r>    1.9716    1.0000 </r>
       <r>    2.1362    1.0000 </r>
       <r>    2.2591    1.0000 </r>
       <r>    2.3817    1.0000 </r>
       <r>    2.5376    1.0000 </r>
       <r>    2.5737    1.0000 </r>
       <r>    2.6850    1.0000 </r>
       <r>    2.8025    1.0000 </r>
       <r>    2.8403    1.0000 </r>
       <r>    2.9367    1.0000 </r>
       <r>    3.0078    1.0000 </r>
       <r>    3.0593    1.0000 </r>
       <r>    3.1562    1.0000 </r>
       <r>    3.1883    1.0000 </r>
       <r>    3.2378    1.0000 </r>
       <r>    3.2968    1.0000 </r>
       <r>    3.3522    1.0000 </r>
       <r>    3.4137    1.0000 </r>
       <r>    3.4451    1.0000 </r>
       <r>    3.4826    1.0000 </r>
       <r>    3.6142    1.0000 </r>
       <r>    3.7137    1.0000 </r>
       <r>    3.7643    1.0000 </r>
       <r>    3.8410    1.0000 </r>
       <r>    3.9288    1.0000 </r>
       <r>    3.9573    1.0000 </r>
       <r>    4.0003    1.0000 </r>
       <r>    4.1934    1.0000 </r>
       <r>    4.4016    1.0000 </r>
       <r>    4.4359    1.0000 </r>
       <r>    4.4870    1.0000 </r>
       <r>    4.5360    1.0000 </r>
       <r>    4.5711    1.0000 </r>
       <r>    4.6276    1.0000 </r>
       <r>    4.6649    1.0000 </r>
       <r>    4.7267    1.0000 </r>
       <r>    4.7928    1.0000 </r>
       <r>    4.8277    1.0000 </r>
       <r>    4.8713    1.0000 </r>
       <r>    4.9096    1.0000 </r>
       <r>    4.9425    1.0000 </r>
       <r>    5.0003    1.0000 </r>
       <r>    5.0347    1.0000 </r>
       <r>    5.0568    1.0000 </r>
       <r>    5.1174    1.0000 </r>
       <r>    5.1463    1.0000 </r>
       <r>    5.2050    1.0000 </r>
       <r>    5.2807    1.0000 </r>
       <r>    5.3536    1.0000 </r>
       <r>    5.4050    1.0000 </r>
       <r>    5.4882    1.0000 </r>
       <r>    5.5361    1.0000 </r>
       <r>    5.6093    1.0000 </r>
       <r>    5.7182    1.0000 </r>
       <r>    5.7831    1.0000 </r>
       <r>    5.8644    1.0000 </r>
       <r>    5.9205    1.0000 </r>
       <r>    5.9576    1.0000 </r>
       <r>    5.9940    1.0000 </r>
       <r>    6.0237    1.0001 </r>
       <r>    6.0766    1.0004 </r>
       <r>    6.1060    1.0009 </r>
       <r>    6.1490    1.0023 </r>
       <r>    6.1883    1.0048 </r>
       <r>    6.2480    1.0126 </r>
       <r>    6.2953    1.0225 </r>
       <r>    6.3322    1.0307 </r>
       <r>    6.3509    1.0339 </r>
       <r>    6.4178    1.0251 </r>
       <r>    6.4536    0.9952 </r>
       <r>    6.4747    0.9651 </r>
       <r>    6.5645    0.7169 </r>
       <r>    6.5833    0.6435 </r>
       <r>    6.6141    0.5159 </r>
       <r>    6.7387    0.0779 </r>
       <r>    6.7945   -0.0084 </r>
       <r>    6.8355   -0.0320 </r>
       <r>    6.8843   -0.0339 </r>
       <r>    6.9185   -0.0275 </r>
       <r>    7.0073   -0.0094 </r>
       <r>    7.0493   -0.0047 </r>
       <r>    7.0946   -0.0019 </r>
       <r>    7.1562   -0.0005 </r>
       <r>    7.2927   -0.0000 </r>
       <r>    7.3317   -0.0000 </r>
       <r>    7.6466   -0.0000 </r>
       <r>    7.7033   -0.0000 </r>
       <r>    7.7381   -0.0000 </r>
       <r>    7.7903   -0.0000 </r>
       <r>    7.9559   -0.0000 </r>
       <r>    8.1879   -0.0000 </r>
       <r>    8.3867   -0.0000 </r>
       <r>    8.4513   -0.0000 </r>
       <r>    8.4721   -0.0000 </r>
       <r>    8.5021   -0.0000 </r>
       <r>    8.5841   -0.0000 </r>
       <r>    8.6523   -0.0000 </r>
       <r>    8.6861   -0.0000 </r>
       <r>    8.7696   -0.0000 </r>
       <r>    8.8029   -0.0000 </r>
       <r>    8.9085   -0.0000 </r>
      </set>
      <set comment="kpoint 3">
       <r>  -47.4290    1.0000 </r>
       <r>  -47.4205    1.0000 </r>
       <r>  -47.3876    1.0000 </r>
       <r>  -47.3314    1.0000 </r>
       <r>  -47.2934    1.0000 </r>
       <r>  -47.2314    1.0000 </r>
       <r>  -23.9454    1.0000 </r>
       <r>  -23.8780    1.0000 </r>
       <r>  -23.8204    1.0000 </r>
       <r>  -23.7156    1.0000 </r>
       <r>  -23.6122    1.0000 </r>
       <r>  -23.5970    1.0000 </r>
       <r>  -23.5837    1.0000 </r>
       <r>  -23.5546    1.0000 </r>
       <r>  -23.5340    1.0000 </r>
       <r>  -23.5058    1.0000 </r>
       <r>  -23.4973    1.0000 </r>
       <r>  -23.4837    1.0000 </r>
       <r>  -23.4113    1.0000 </r>
       <r>  -23.3845    1.0000 </r>
       <r>  -23.2874    1.0000 </r>
       <r>  -23.2588    1.0000 </r>
       <r>  -23.1925    1.0000 </r>
       <r>  -23.0589    1.0000 </r>
       <r>    0.2377    1.0000 </r>
       <r>    1.2114    1.0000 </r>
       <r>    1.3380    1.0000 </r>
       <r>    1.8722    1.0000 </r>
       <r>    2.1524    1.0000 </r>
       <r>    2.4392    1.0000 </r>
       <r>    2.5024    1.0000 </r>
       <r>    2.6713    1.0000 </r>
       <r>    2.6968    1.0000 </r>
       <r>    2.7920    1.0000 </r>
       <r>    2.9017    1.0000 </r>
       <r>    3.1026    1.0000 </r>
       <r>    3.2356    1.0000 </r>
       <r>    3.2934    1.0000 </r>
       <r>    3.3069    1.0000 </r>
       <r>    3.4041    1.0000 </r>
       <r>    3.4725    1.0000 </r>
       <r>    3.4985    1.0000 </r>
       <r>    3.5561    1.0000 </r>
       <r>    3.6148    1.0000 </r>
       <r>    3.6595    1.0000 </r>
       <r>    3.7295    1.0000 </r>
       <r>    3.7881    1.0000 </r>
       <r>    3.8086    1.0000 </r>
       <r>    3.8460    1.0000 </r>
       <r>    3.8762    1.0000 </r>
       <r>    3.9857    1.0000 </r>
       <r>    4.0070    1.0000 </r>
       <r>    4.1016    1.0000 </r>
       <r>    4.1520    1.0000 </r>
       <r>    4.1971    1.0000 </r>
       <r>    4.2804    1.0000 </r>
       <r>    4.4193    1.0000 </r>
       <r>    4.4345    1.0000 </r>
       <r>    4.5089    1.0000 </r>
       <r>    4.5666    1.0000 </r>
       <r>    4.6588    1.0000 </r>
       <r>    4.6668    1.0000 </r>
       <r>    4.6901    1.0000 </r>
       <r>    4.7486    1.0000 </r>
       <r>    4.7851    1.0000 </r>
       <r>    4.8308    1.0000 </r>
       <r>    4.8812    1.0000 </r>
       <r>    4.9002    1.0000 </r>
       <r>    4.9317    1.0000 </r>
       <r>    4.9616    1.0000 </r>
       <r>    4.9832    1.0000 </r>
       <r>    5.0329    1.0000 </r>
       <r>    5.1013    1.0000 </r>
       <r>    5.1198    1.0000 </r>
       <r>    5.1733    1.0000 </r>
       <r>    5.2483    1.0000 </r>
       <r>    5.2793    1.0000 </r>
       <r>    5.3032    1.0000 </r>
       <r>    5.3293    1.0000 </r>
       <r>    5.3885    1.0000 </r>
       <r>    5.4176    1.0000 </r>
       <r>    5.5000    1.0000 </r>
       <r>    5.6027    1.0000 </r>
       <r>    5.6468    1.0000 </r>
       <r>    5.7013    1.0000 </r>
       <r>    5.7809    1.0000 </r>
       <r>    5.8057    1.0000 </r>
       <r>    5.8550    1.0000 </r>
       <r>    5.8841    1.0000 </r>
       <r>    5.9219    1.0000 </r>
       <r>    5.9597    1.0000 </r>
       <r>    5.9782    1.0000 </r>
       <r>    6.0097    1.0001 </r>
       <r>    6.0636    1.0003 </r>
       <r>    6.0801    1.0005 </r>
       <r>    6.1167    1.0011 </r>
       <r>    6.1768    1.0039 </r>
       <r>    6.2170    1.0079 </r>
       <r>    6.2454    1.0122 </r>
       <r>    6.2902    1.0213 </r>
       <r>    6.4073    1.0298 </r>
       <r>    6.4454    1.0042 </r>
       <r>    6.4739    0.9664 </r>
       <r>    6.5323    0.8279 </r>
       <r>    6.5847    0.6379 </r>
       <r>    6.5958    0.5923 </r>
       <r>    6.6377    0.4163 </r>
       <r>    6.6616    0.3194 </r>
       <r>    6.7392    0.0769 </r>
       <r>    6.8723   -0.0351 </r>
       <r>    6.9422   -0.0221 </r>
       <r>    7.0523   -0.0044 </r>
       <r>    7.4087   -0.0000 </r>
       <r>    7.5807   -0.0000 </r>
       <r>    7.9122   -0.0000 </r>
       <r>    8.1012   -0.0000 </r>
       <r>    8.3181   -0.0000 </r>
       <r>    8.4141   -0.0000 </r>
       <r>    8.4298   -0.0000 </r>
       <r>    8.5033   -0.0000 </r>
       <r>    8.6220   -0.0000 </r>
       <r>    8.6773   -0.0000 </r>
       <r>    8.7426   -0.0000 </r>
       <r>    8.7812   -0.0000 </r>
       <r>    8.8671   -0.0000 </r>
       <r>    8.9330   -0.0000 </r>
       <r>    8.9815   -0.0000 </r>
       <r>    9.0695   -0.0000 </r>
      </set>
      <set comment="kpoint 4">
       <r>  -47.4294    1.0000 </r>
       <r>  -47.4204    1.0000 </r>
       <r>  -47.3876    1.0000 </r>
       <r>  -47.3314    1.0000 </r>
       <r>  -47.2932    1.0000 </r>
       <r>  -47.2314    1.0000 </r>
       <r>  -23.9429    1.0000 </r>
       <r>  -23.8774    1.0000 </r>
       <r>  -23.8173    1.0000 </r>
       <r>  -23.7169    1.0000 </r>
       <r>  -23.6115    1.0000 </r>
       <r>  -23.5952    1.0000 </r>
       <r>  -23.5821    1.0000 </r>
       <r>  -23.5533    1.0000 </r>
       <r>  -23.5340    1.0000 </r>
       <r>  -23.5062    1.0000 </r>
       <r>  -23.4977    1.0000 </r>
       <r>  -23.4838    1.0000 </r>
       <r>  -23.4110    1.0000 </r>
       <r>  -23.3848    1.0000 </r>
       <r>  -23.2891    1.0000 </r>
       <r>  -23.2578    1.0000 </r>
       <r>  -23.1928    1.0000 </r>
       <r>  -23.0595    1.0000 </r>
       <r>   -0.5060    1.0000 </r>
       <r>    1.1620    1.0000 </r>
       <r>    1.4418    1.0000 </r>
       <r>    1.7924    1.0000 </r>
       <r>    2.0044    1.0000 </r>
       <r>    2.2651    1.0000 </r>
       <r>    2.3511    1.0000 </r>
       <r>    2.4661    1.0000 </r>
       <r>    2.6259    1.0000 </r>
       <r>    2.6536    1.0000 </r>
       <r>    2.7095    1.0000 </r>
       <r>    2.7634    1.0000 </r>
       <r>    2.8363    1.0000 </r>
       <r>    2.9431    1.0000 </r>
       <r>    3.0233    1.0000 </r>
       <r>    3.1045    1.0000 </r>
       <r>    3.1414    1.0000 </r>
       <r>    3.2180    1.0000 </r>
       <r>    3.2338    1.0000 </r>
       <r>    3.3295    1.0000 </r>
       <r>    3.4197    1.0000 </r>
       <r>    3.4587    1.0000 </r>
       <r>    3.5401    1.0000 </r>
       <r>    3.5756    1.0000 </r>
       <r>    3.6003    1.0000 </r>
       <r>    3.6384    1.0000 </r>
       <r>    3.7324    1.0000 </r>
       <r>    3.7716    1.0000 </r>
       <r>    3.8678    1.0000 </r>
       <r>    3.8852    1.0000 </r>
       <r>    4.0730    1.0000 </r>
       <r>    4.2152    1.0000 </r>
       <r>    4.4296    1.0000 </r>
       <r>    4.4691    1.0000 </r>
       <r>    4.5605    1.0000 </r>
       <r>    4.5862    1.0000 </r>
       <r>    4.6169    1.0000 </r>
       <r>    4.6574    1.0000 </r>
       <r>    4.7208    1.0000 </r>
       <r>    4.7863    1.0000 </r>
       <r>    4.8142    1.0000 </r>
       <r>    4.9010    1.0000 </r>
       <r>    4.9287    1.0000 </r>
       <r>    4.9551    1.0000 </r>
       <r>    4.9944    1.0000 </r>
       <r>    5.0200    1.0000 </r>
       <r>    5.0880    1.0000 </r>
       <r>    5.1347    1.0000 </r>
       <r>    5.1939    1.0000 </r>
       <r>    5.2320    1.0000 </r>
       <r>    5.2758    1.0000 </r>
       <r>    5.3974    1.0000 </r>
       <r>    5.4732    1.0000 </r>
       <r>    5.5477    1.0000 </r>
       <r>    5.6258    1.0000 </r>
       <r>    5.6639    1.0000 </r>
       <r>    5.8102    1.0000 </r>
       <r>    5.9304    1.0000 </r>
       <r>    6.0102    1.0001 </r>
       <r>    6.0465    1.0002 </r>
       <r>    6.0606    1.0003 </r>
       <r>    6.0983    1.0007 </r>
       <r>    6.1637    1.0030 </r>
       <r>    6.1891    1.0049 </r>
       <r>    6.2531    1.0135 </r>
       <r>    6.3299    1.0302 </r>
       <r>    6.3686    1.0354 </r>
       <r>    6.4177    1.0252 </r>
       <r>    6.5883    0.6232 </r>
       <r>    6.6353    0.4261 </r>
       <r>    6.6593    0.3284 </r>
       <r>    6.6815    0.2450 </r>
       <r>    6.7347    0.0870 </r>
       <r>    6.7893   -0.0034 </r>
       <r>    6.8069   -0.0185 </r>
       <r>    6.8880   -0.0334 </r>
       <r>    6.9142   -0.0284 </r>
       <r>    6.9646   -0.0171 </r>
       <r>    6.9820   -0.0136 </r>
       <r>    7.0236   -0.0073 </r>
       <r>    7.0801   -0.0026 </r>
       <r>    7.1054   -0.0015 </r>
       <r>    7.1894   -0.0002 </r>
       <r>    7.2234   -0.0001 </r>
       <r>    7.2528   -0.0000 </r>
       <r>    7.3490   -0.0000 </r>
       <r>    7.3916   -0.0000 </r>
       <r>    7.4487   -0.0000 </r>
       <r>    7.4777   -0.0000 </r>
       <r>    7.8102   -0.0000 </r>
       <r>    7.9009   -0.0000 </r>
       <r>    7.9744   -0.0000 </r>
       <r>    8.0283   -0.0000 </r>
       <r>    8.0943   -0.0000 </r>
       <r>    8.1592   -0.0000 </r>
       <r>    8.1885   -0.0000 </r>
       <r>    8.2138   -0.0000 </r>
       <r>    8.2890   -0.0000 </r>
       <r>    8.3681   -0.0000 </r>
       <r>    8.3871   -0.0000 </r>
       <r>    8.4486   -0.0000 </r>
       <r>    8.5690   -0.0000 </r>
       <r>    8.6291   -0.0000 </r>
       <r>    8.7711   -0.0000 </r>
      </set>
      <set comment="kpoint 5">
       <r>  -47.4293    1.0000 </r>
       <r>  -47.4204    1.0000 </r>
       <r>  -47.3876    1.0000 </r>
       <r>  -47.3314    1.0000 </r>
       <r>  -47.2933    1.0000 </r>
       <r>  -47.2314    1.0000 </r>
       <r>  -23.9432    1.0000 </r>
       <r>  -23.8778    1.0000 </r>
       <r>  -23.8188    1.0000 </r>
       <r>  -23.7168    1.0000 </r>
       <r>  -23.6118    1.0000 </r>
       <r>  -23.5958    1.0000 </r>
       <r>  -23.5828    1.0000 </r>
       <r>  -23.5537    1.0000 </r>
       <r>  -23.5342    1.0000 </r>
       <r>  -23.5061    1.0000 </r>
       <r>  -23.4975    1.0000 </r>
       <r>  -23.4836    1.0000 </r>
       <r>  -23.4111    1.0000 </r>
       <r>  -23.3848    1.0000 </r>
       <r>  -23.2884    1.0000 </r>
       <r>  -23.2579    1.0000 </r>
       <r>  -23.1928    1.0000 </r>
       <r>  -23.0593    1.0000 </r>
       <r>   -0.3263    1.0000 </r>
       <r>    1.1550    1.0000 </r>
       <r>    1.5861    1.0000 </r>
       <r>    2.0469    1.0000 </r>
       <r>    2.2721    1.0000 </r>
       <r>    2.3426    1.0000 </r>
       <r>    2.4242    1.0000 </r>
       <r>    2.5118    1.0000 </r>
       <r>    2.6159    1.0000 </r>
       <r>    2.7029    1.0000 </r>
       <r>    2.7909    1.0000 </r>
       <r>    2.8642    1.0000 </r>
       <r>    2.9279    1.0000 </r>
       <r>    2.9637    1.0000 </r>
       <r>    3.0410    1.0000 </r>
       <r>    3.0633    1.0000 </r>
       <r>    3.1479    1.0000 </r>
       <r>    3.2121    1.0000 </r>
       <r>    3.2833    1.0000 </r>
       <r>    3.3646    1.0000 </r>
       <r>    3.4200    1.0000 </r>
       <r>    3.5000    1.0000 </r>
       <r>    3.5500    1.0000 </r>
       <r>    3.5869    1.0000 </r>
       <r>    3.6804    1.0000 </r>
       <r>    3.7283    1.0000 </r>
       <r>    3.8317    1.0000 </r>
       <r>    3.9000    1.0000 </r>
       <r>    3.9430    1.0000 </r>
       <r>    4.0382    1.0000 </r>
       <r>    4.2415    1.0000 </r>
       <r>    4.2854    1.0000 </r>
       <r>    4.4009    1.0000 </r>
       <r>    4.4861    1.0000 </r>
       <r>    4.5330    1.0000 </r>
       <r>    4.6183    1.0000 </r>
       <r>    4.6488    1.0000 </r>
       <r>    4.6865    1.0000 </r>
       <r>    4.7115    1.0000 </r>
       <r>    4.7604    1.0000 </r>
       <r>    4.7902    1.0000 </r>
       <r>    4.8619    1.0000 </r>
       <r>    4.9098    1.0000 </r>
       <r>    4.9280    1.0000 </r>
       <r>    4.9542    1.0000 </r>
       <r>    5.0366    1.0000 </r>
       <r>    5.1171    1.0000 </r>
       <r>    5.1354    1.0000 </r>
       <r>    5.1528    1.0000 </r>
       <r>    5.2618    1.0000 </r>
       <r>    5.2996    1.0000 </r>
       <r>    5.3761    1.0000 </r>
       <r>    5.4369    1.0000 </r>
       <r>    5.5380    1.0000 </r>
       <r>    5.5729    1.0000 </r>
       <r>    5.6033    1.0000 </r>
       <r>    5.6489    1.0000 </r>
       <r>    5.7072    1.0000 </r>
       <r>    5.7724    1.0000 </r>
       <r>    5.8630    1.0000 </r>
       <r>    5.9115    1.0000 </r>
       <r>    5.9602    1.0000 </r>
       <r>    5.9998    1.0001 </r>
       <r>    6.0525    1.0002 </r>
       <r>    6.1409    1.0019 </r>
       <r>    6.1682    1.0033 </r>
       <r>    6.2371    1.0108 </r>
       <r>    6.2620    1.0152 </r>
       <r>    6.2812    1.0193 </r>
       <r>    6.3396    1.0321 </r>
       <r>    6.3827    1.0351 </r>
       <r>    6.4407    1.0088 </r>
       <r>    6.4770    0.9613 </r>
       <r>    6.5152    0.8772 </r>
       <r>    6.5427    0.7942 </r>
       <r>    6.5788    0.6617 </r>
       <r>    6.6328    0.4367 </r>
       <r>    6.6832    0.2389 </r>
       <r>    6.7832    0.0034 </r>
       <r>    6.8045   -0.0168 </r>
       <r>    6.8815   -0.0343 </r>
       <r>    6.9322   -0.0244 </r>
       <r>    7.0179   -0.0080 </r>
       <r>    7.1017   -0.0016 </r>
       <r>    7.1738   -0.0003 </r>
       <r>    7.2851   -0.0000 </r>
       <r>    7.2990   -0.0000 </r>
       <r>    7.4804   -0.0000 </r>
       <r>    7.6199   -0.0000 </r>
       <r>    7.6469   -0.0000 </r>
       <r>    7.8868   -0.0000 </r>
       <r>    8.0054   -0.0000 </r>
       <r>    8.0664   -0.0000 </r>
       <r>    8.1777   -0.0000 </r>
       <r>    8.2343   -0.0000 </r>
       <r>    8.2820   -0.0000 </r>
       <r>    8.3005   -0.0000 </r>
       <r>    8.3387   -0.0000 </r>
       <r>    8.4838   -0.0000 </r>
       <r>    8.5391   -0.0000 </r>
       <r>    8.6820   -0.0000 </r>
       <r>    8.7590   -0.0000 </r>
       <r>    8.9049   -0.0000 </r>
       <r>    8.9538   -0.0000 </r>
      </set>
      <set comment="kpoint 6">
       <r>  -47.4290    1.0000 </r>
       <r>  -47.4205    1.0000 </r>
       <r>  -47.3875    1.0000 </r>
       <r>  -47.3314    1.0000 </r>
       <r>  -47.2934    1.0000 </r>
       <r>  -47.2314    1.0000 </r>
       <r>  -23.9446    1.0000 </r>
       <r>  -23.8780    1.0000 </r>
       <r>  -23.8205    1.0000 </r>
       <r>  -23.7169    1.0000 </r>
       <r>  -23.6123    1.0000 </r>
       <r>  -23.5967    1.0000 </r>
       <r>  -23.5838    1.0000 </r>
       <r>  -23.5545    1.0000 </r>
       <r>  -23.5342    1.0000 </r>
       <r>  -23.5059    1.0000 </r>
       <r>  -23.4973    1.0000 </r>
       <r>  -23.4834    1.0000 </r>
       <r>  -23.4113    1.0000 </r>
       <r>  -23.3846    1.0000 </r>
       <r>  -23.2870    1.0000 </r>
       <r>  -23.2586    1.0000 </r>
       <r>  -23.1926    1.0000 </r>
       <r>  -23.0591    1.0000 </r>
       <r>    0.2621    1.0000 </r>
       <r>    1.2119    1.0000 </r>
       <r>    1.4050    1.0000 </r>
       <r>    1.9965    1.0000 </r>
       <r>    2.1482    1.0000 </r>
       <r>    2.2824    1.0000 </r>
       <r>    2.5519    1.0000 </r>
       <r>    2.6553    1.0000 </r>
       <r>    2.7714    1.0000 </r>
       <r>    2.8219    1.0000 </r>
       <r>    2.9431    1.0000 </r>
       <r>    3.1498    1.0000 </r>
       <r>    3.2033    1.0000 </r>
       <r>    3.2540    1.0000 </r>
       <r>    3.3019    1.0000 </r>
       <r>    3.3532    1.0000 </r>
       <r>    3.3806    1.0000 </r>
       <r>    3.4455    1.0000 </r>
       <r>    3.4707    1.0000 </r>
       <r>    3.5234    1.0000 </r>
       <r>    3.6161    1.0000 </r>
       <r>    3.6406    1.0000 </r>
       <r>    3.7032    1.0000 </r>
       <r>    3.7597    1.0000 </r>
       <r>    3.8514    1.0000 </r>
       <r>    3.8784    1.0000 </r>
       <r>    3.9552    1.0000 </r>
       <r>    3.9938    1.0000 </r>
       <r>    4.0169    1.0000 </r>
       <r>    4.0817    1.0000 </r>
       <r>    4.1510    1.0000 </r>
       <r>    4.2532    1.0000 </r>
       <r>    4.3703    1.0000 </r>
       <r>    4.4802    1.0000 </r>
       <r>    4.5426    1.0000 </r>
       <r>    4.6071    1.0000 </r>
       <r>    4.6467    1.0000 </r>
       <r>    4.6992    1.0000 </r>
       <r>    4.7489    1.0000 </r>
       <r>    4.7924    1.0000 </r>
       <r>    4.8367    1.0000 </r>
       <r>    4.8723    1.0000 </r>
       <r>    4.9310    1.0000 </r>
       <r>    4.9487    1.0000 </r>
       <r>    5.0035    1.0000 </r>
       <r>    5.0164    1.0000 </r>
       <r>    5.0733    1.0000 </r>
       <r>    5.1242    1.0000 </r>
       <r>    5.1422    1.0000 </r>
       <r>    5.2300    1.0000 </r>
       <r>    5.2510    1.0000 </r>
       <r>    5.3042    1.0000 </r>
       <r>    5.3188    1.0000 </r>
       <r>    5.3515    1.0000 </r>
       <r>    5.4094    1.0000 </r>
       <r>    5.4780    1.0000 </r>
       <r>    5.4908    1.0000 </r>
       <r>    5.5250    1.0000 </r>
       <r>    5.5872    1.0000 </r>
       <r>    5.6107    1.0000 </r>
       <r>    5.6309    1.0000 </r>
       <r>    5.6780    1.0000 </r>
       <r>    5.7146    1.0000 </r>
       <r>    5.7910    1.0000 </r>
       <r>    5.8323    1.0000 </r>
       <r>    5.8540    1.0000 </r>
       <r>    5.9024    1.0000 </r>
       <r>    5.9331    1.0000 </r>
       <r>    5.9789    1.0000 </r>
       <r>    6.0176    1.0001 </r>
       <r>    6.0345    1.0001 </r>
       <r>    6.0784    1.0005 </r>
       <r>    6.1513    1.0024 </r>
       <r>    6.1680    1.0033 </r>
       <r>    6.2123    1.0073 </r>
       <r>    6.2377    1.0109 </r>
       <r>    6.2975    1.0230 </r>
       <r>    6.3467    1.0333 </r>
       <r>    6.3876    1.0345 </r>
       <r>    6.4466    1.0031 </r>
       <r>    6.5228    0.8560 </r>
       <r>    6.5877    0.6257 </r>
       <r>    6.6557    0.3427 </r>
       <r>    6.7035    0.1715 </r>
       <r>    6.7835    0.0030 </r>
       <r>    6.9540   -0.0194 </r>
       <r>    7.0912   -0.0021 </r>
       <r>    7.2579   -0.0000 </r>
       <r>    7.5515   -0.0000 </r>
       <r>    7.8133   -0.0000 </r>
       <r>    8.0453   -0.0000 </r>
       <r>    8.1671   -0.0000 </r>
       <r>    8.2922   -0.0000 </r>
       <r>    8.3581   -0.0000 </r>
       <r>    8.3915   -0.0000 </r>
       <r>    8.5440   -0.0000 </r>
       <r>    8.6065   -0.0000 </r>
       <r>    8.6269   -0.0000 </r>
       <r>    8.7039   -0.0000 </r>
       <r>    8.7505   -0.0000 </r>
       <r>    8.8112   -0.0000 </r>
       <r>    8.8684   -0.0000 </r>
       <r>    8.9315   -0.0000 </r>
       <r>    9.0397   -0.0000 </r>
      </set>
      <set comment="kpoint 7">
       <r>  -47.4288    1.0000 </r>
       <r>  -47.4206    1.0000 </r>
       <r>  -47.3876    1.0000 </r>
       <r>  -47.3314    1.0000 </r>
       <r>  -47.2933    1.0000 </r>
       <r>  -47.2314    1.0000 </r>
       <r>  -23.9451    1.0000 </r>
       <r>  -23.8778    1.0000 </r>
       <r>  -23.8200    1.0000 </r>
       <r>  -23.7170    1.0000 </r>
       <r>  -23.6123    1.0000 </r>
       <r>  -23.5968    1.0000 </r>
       <r>  -23.5838    1.0000 </r>
       <r>  -23.5545    1.0000 </r>
       <r>  -23.5340    1.0000 </r>
       <r>  -23.5058    1.0000 </r>
       <r>  -23.4974    1.0000 </r>
       <r>  -23.4835    1.0000 </r>
       <r>  -23.4113    1.0000 </r>
       <r>  -23.3845    1.0000 </r>
       <r>  -23.2868    1.0000 </r>
       <r>  -23.2589    1.0000 </r>
       <r>  -23.1926    1.0000 </r>
       <r>  -23.0592    1.0000 </r>
       <r>    0.4242    1.0000 </r>
       <r>    1.1642    1.0000 </r>
       <r>    1.3230    1.0000 </r>
       <r>    1.7881    1.0000 </r>
       <r>    1.9468    1.0000 </r>
       <r>    2.3777    1.0000 </r>
       <r>    2.4504    1.0000 </r>
       <r>    2.6041    1.0000 </r>
       <r>    2.7873    1.0000 </r>
       <r>    2.8508    1.0000 </r>
       <r>    2.9968    1.0000 </r>
       <r>    3.0940    1.0000 </r>
       <r>    3.1602    1.0000 </r>
       <r>    3.1965    1.0000 </r>
       <r>    3.3038    1.0000 </r>
       <r>    3.3206    1.0000 </r>
       <r>    3.4099    1.0000 </r>
       <r>    3.4628    1.0000 </r>
       <r>    3.5843    1.0000 </r>
       <r>    3.6333    1.0000 </r>
       <r>    3.7255    1.0000 </r>
       <r>    3.7407    1.0000 </r>
       <r>    3.8035    1.0000 </r>
       <r>    3.8178    1.0000 </r>
       <r>    3.8956    1.0000 </r>
       <r>    3.9384    1.0000 </r>
       <r>    3.9937    1.0000 </r>
       <r>    4.0632    1.0000 </r>
       <r>    4.1244    1.0000 </r>
       <r>    4.1995    1.0000 </r>
       <r>    4.2524    1.0000 </r>
       <r>    4.3077    1.0000 </r>
       <r>    4.4127    1.0000 </r>
       <r>    4.4799    1.0000 </r>
       <r>    4.5597    1.0000 </r>
       <r>    4.5949    1.0000 </r>
       <r>    4.6451    1.0000 </r>
       <r>    4.6775    1.0000 </r>
       <r>    4.7235    1.0000 </r>
       <r>    4.7720    1.0000 </r>
       <r>    4.7841    1.0000 </r>
       <r>    4.8180    1.0000 </r>
       <r>    4.8371    1.0000 </r>
       <r>    4.8900    1.0000 </r>
       <r>    4.9276    1.0000 </r>
       <r>    4.9582    1.0000 </r>
       <r>    4.9872    1.0000 </r>
       <r>    5.0289    1.0000 </r>
       <r>    5.0712    1.0000 </r>
       <r>    5.1478    1.0000 </r>
       <r>    5.1852    1.0000 </r>
       <r>    5.2265    1.0000 </r>
       <r>    5.2838    1.0000 </r>
       <r>    5.3652    1.0000 </r>
       <r>    5.4018    1.0000 </r>
       <r>    5.4503    1.0000 </r>
       <r>    5.4618    1.0000 </r>
       <r>    5.5139    1.0000 </r>
       <r>    5.5638    1.0000 </r>
       <r>    5.6183    1.0000 </r>
       <r>    5.6630    1.0000 </r>
       <r>    5.6996    1.0000 </r>
       <r>    5.7359    1.0000 </r>
       <r>    5.7967    1.0000 </r>
       <r>    5.8514    1.0000 </r>
       <r>    5.8843    1.0000 </r>
       <r>    5.9290    1.0000 </r>
       <r>    5.9622    1.0000 </r>
       <r>    6.0156    1.0001 </r>
       <r>    6.0459    1.0002 </r>
       <r>    6.0728    1.0004 </r>
       <r>    6.1361    1.0017 </r>
       <r>    6.1820    1.0043 </r>
       <r>    6.2296    1.0096 </r>
       <r>    6.2830    1.0197 </r>
       <r>    6.3234    1.0289 </r>
       <r>    6.3401    1.0322 </r>
       <r>    6.3894    1.0343 </r>
       <r>    6.4261    1.0202 </r>
       <r>    6.4733    0.9675 </r>
       <r>    6.5405    0.8017 </r>
       <r>    6.5836    0.6425 </r>
       <r>    6.6341    0.4312 </r>
       <r>    6.6646    0.3078 </r>
       <r>    6.7029    0.1736 </r>
       <r>    6.7600    0.0364 </r>
       <r>    6.9281   -0.0253 </r>
       <r>    7.0013   -0.0103 </r>
       <r>    7.5207   -0.0000 </r>
       <r>    7.9238   -0.0000 </r>
       <r>    8.0717   -0.0000 </r>
       <r>    8.2784   -0.0000 </r>
       <r>    8.3006   -0.0000 </r>
       <r>    8.4350   -0.0000 </r>
       <r>    8.4826   -0.0000 </r>
       <r>    8.5309   -0.0000 </r>
       <r>    8.6394   -0.0000 </r>
       <r>    8.6843   -0.0000 </r>
       <r>    8.7427   -0.0000 </r>
       <r>    8.7744   -0.0000 </r>
       <r>    8.8221   -0.0000 </r>
       <r>    8.8610   -0.0000 </r>
       <r>    8.9917   -0.0000 </r>
       <r>    9.1065   -0.0000 </r>
      </set>
      <set comment="kpoint 8">
       <r>  -47.4291    1.0000 </r>
       <r>  -47.4206    1.0000 </r>
       <r>  -47.3876    1.0000 </r>
       <r>  -47.3315    1.0000 </r>
       <r>  -47.2932    1.0000 </r>
       <r>  -47.2314    1.0000 </r>
       <r>  -23.9441    1.0000 </r>
       <r>  -23.8773    1.0000 </r>
       <r>  -23.8181    1.0000 </r>
       <r>  -23.7170    1.0000 </r>
       <r>  -23.6117    1.0000 </r>
       <r>  -23.5958    1.0000 </r>
       <r>  -23.5827    1.0000 </r>
       <r>  -23.5539    1.0000 </r>
       <r>  -23.5340    1.0000 </r>
       <r>  -23.5060    1.0000 </r>
       <r>  -23.4976    1.0000 </r>
       <r>  -23.4836    1.0000 </r>
       <r>  -23.4111    1.0000 </r>
       <r>  -23.3846    1.0000 </r>
       <r>  -23.2881    1.0000 </r>
       <r>  -23.2585    1.0000 </r>
       <r>  -23.1927    1.0000 </r>
       <r>  -23.0594    1.0000 </r>
       <r>   -0.2319    1.0000 </r>
       <r>    1.1803    1.0000 </r>
       <r>    1.5368    1.0000 </r>
       <r>    1.7499    1.0000 </r>
       <r>    2.0343    1.0000 </r>
       <r>    2.2970    1.0000 </r>
       <r>    2.4366    1.0000 </r>
       <r>    2.5197    1.0000 </r>
       <r>    2.6210    1.0000 </r>
       <r>    2.7315    1.0000 </r>
       <r>    2.7540    1.0000 </r>
       <r>    2.8294    1.0000 </r>
       <r>    2.8829    1.0000 </r>
       <r>    2.9037    1.0000 </r>
       <r>    2.9756    1.0000 </r>
       <r>    3.0875    1.0000 </r>
       <r>    3.2301    1.0000 </r>
       <r>    3.2689    1.0000 </r>
       <r>    3.3667    1.0000 </r>
       <r>    3.3986    1.0000 </r>
       <r>    3.5618    1.0000 </r>
       <r>    3.6408    1.0000 </r>
       <r>    3.6702    1.0000 </r>
       <r>    3.7476    1.0000 </r>
       <r>    3.7933    1.0000 </r>
       <r>    3.8355    1.0000 </r>
       <r>    3.9059    1.0000 </r>
       <r>    3.9247    1.0000 </r>
       <r>    4.0000    1.0000 </r>
       <r>    4.0843    1.0000 </r>
       <r>    4.1521    1.0000 </r>
       <r>    4.2480    1.0000 </r>
       <r>    4.4754    1.0000 </r>
       <r>    4.5091    1.0000 </r>
       <r>    4.5502    1.0000 </r>
       <r>    4.5899    1.0000 </r>
       <r>    4.5956    1.0000 </r>
       <r>    4.6705    1.0000 </r>
       <r>    4.7122    1.0000 </r>
       <r>    4.7308    1.0000 </r>
       <r>    4.7790    1.0000 </r>
       <r>    4.8371    1.0000 </r>
       <r>    4.8706    1.0000 </r>
       <r>    4.8939    1.0000 </r>
       <r>    4.9504    1.0000 </r>
       <r>    4.9940    1.0000 </r>
       <r>    5.0134    1.0000 </r>
       <r>    5.0757    1.0000 </r>
       <r>    5.0973    1.0000 </r>
       <r>    5.1610    1.0000 </r>
       <r>    5.2956    1.0000 </r>
       <r>    5.4081    1.0000 </r>
       <r>    5.4182    1.0000 </r>
       <r>    5.5348    1.0000 </r>
       <r>    5.6070    1.0000 </r>
       <r>    5.7246    1.0000 </r>
       <r>    5.7639    1.0000 </r>
       <r>    5.8195    1.0000 </r>
       <r>    5.8409    1.0000 </r>
       <r>    5.8672    1.0000 </r>
       <r>    5.9238    1.0000 </r>
       <r>    5.9626    1.0000 </r>
       <r>    6.0032    1.0001 </r>
       <r>    6.0683    1.0004 </r>
       <r>    6.1085    1.0009 </r>
       <r>    6.1295    1.0015 </r>
       <r>    6.1670    1.0032 </r>
       <r>    6.2118    1.0072 </r>
       <r>    6.2463    1.0123 </r>
       <r>    6.2850    1.0201 </r>
       <r>    6.3200    1.0281 </r>
       <r>    6.3330    1.0309 </r>
       <r>    6.3780    1.0354 </r>
       <r>    6.4749    0.9648 </r>
       <r>    6.5344    0.8212 </r>
       <r>    6.6203    0.4895 </r>
       <r>    6.6588    0.3306 </r>
       <r>    6.7103    0.1512 </r>
       <r>    6.7584    0.0391 </r>
       <r>    6.8079   -0.0192 </r>
       <r>    6.8759   -0.0349 </r>
       <r>    6.8876   -0.0335 </r>
       <r>    6.9426   -0.0220 </r>
       <r>    7.0094   -0.0091 </r>
       <r>    7.1489   -0.0006 </r>
       <r>    7.3225   -0.0000 </r>
       <r>    7.3772   -0.0000 </r>
       <r>    7.5065   -0.0000 </r>
       <r>    7.7005   -0.0000 </r>
       <r>    7.7442   -0.0000 </r>
       <r>    7.9018   -0.0000 </r>
       <r>    7.9919   -0.0000 </r>
       <r>    8.0947   -0.0000 </r>
       <r>    8.1439   -0.0000 </r>
       <r>    8.2687   -0.0000 </r>
       <r>    8.4494   -0.0000 </r>
       <r>    8.4821   -0.0000 </r>
       <r>    8.5307   -0.0000 </r>
       <r>    8.6061   -0.0000 </r>
       <r>    8.6419   -0.0000 </r>
       <r>    8.7089   -0.0000 </r>
       <r>    8.7173   -0.0000 </r>
       <r>    8.7761   -0.0000 </r>
       <r>    8.8285   -0.0000 </r>
      </set>
      <set comment="kpoint 9">
       <r>  -47.4290    1.0000 </r>
       <r>  -47.4208    1.0000 </r>
       <r>  -47.3876    1.0000 </r>
       <r>  -47.3315    1.0000 </r>
       <r>  -47.2932    1.0000 </r>
       <r>  -47.2314    1.0000 </r>
       <r>  -23.9430    1.0000 </r>
       <r>  -23.8766    1.0000 </r>
       <r>  -23.8162    1.0000 </r>
       <r>  -23.7191    1.0000 </r>
       <r>  -23.6114    1.0000 </r>
       <r>  -23.5949    1.0000 </r>
       <r>  -23.5823    1.0000 </r>
       <r>  -23.5534    1.0000 </r>
       <r>  -23.5339    1.0000 </r>
       <r>  -23.5062    1.0000 </r>
       <r>  -23.4978    1.0000 </r>
       <r>  -23.4833    1.0000 </r>
       <r>  -23.4112    1.0000 </r>
       <r>  -23.3846    1.0000 </r>
       <r>  -23.2878    1.0000 </r>
       <r>  -23.2585    1.0000 </r>
       <r>  -23.1927    1.0000 </r>
       <r>  -23.0600    1.0000 </r>
       <r>   -0.1467    1.0000 </r>
       <r>    0.5515    1.0000 </r>
       <r>    1.4667    1.0000 </r>
       <r>    1.6922    1.0000 </r>
       <r>    2.0378    1.0000 </r>
       <r>    2.1769    1.0000 </r>
       <r>    2.3714    1.0000 </r>
       <r>    2.4433    1.0000 </r>
       <r>    2.5410    1.0000 </r>
       <r>    2.6104    1.0000 </r>
       <r>    2.7152    1.0000 </r>
       <r>    2.8008    1.0000 </r>
       <r>    2.8910    1.0000 </r>
       <r>    3.0092    1.0000 </r>
       <r>    3.0515    1.0000 </r>
       <r>    3.1192    1.0000 </r>
       <r>    3.1823    1.0000 </r>
       <r>    3.2223    1.0000 </r>
       <r>    3.2725    1.0000 </r>
       <r>    3.3481    1.0000 </r>
       <r>    3.4062    1.0000 </r>
       <r>    3.4679    1.0000 </r>
       <r>    3.5290    1.0000 </r>
       <r>    3.5586    1.0000 </r>
       <r>    3.6640    1.0000 </r>
       <r>    3.7013    1.0000 </r>
       <r>    3.7645    1.0000 </r>
       <r>    3.7808    1.0000 </r>
       <r>    3.8775    1.0000 </r>
       <r>    3.9705    1.0000 </r>
       <r>    4.2146    1.0000 </r>
       <r>    4.3263    1.0000 </r>
       <r>    4.3974    1.0000 </r>
       <r>    4.4410    1.0000 </r>
       <r>    4.5173    1.0000 </r>
       <r>    4.5949    1.0000 </r>
       <r>    4.6258    1.0000 </r>
[...]
       <r>    5.0898    1.0000 </r>
       <r>    5.1443    1.0000 </r>
       <r>    5.1714    1.0000 </r>
       <r>    5.1886    1.0000 </r>
       <r>    5.2228    1.0000 </r>
       <r>    5.2515    1.0000 </r>
       <r>    5.3359    1.0000 </r>
       <r>    5.3756    1.0000 </r>
       <r>    5.4312    1.0000 </r>
       <r>    5.4972    1.0000 </r>
       <r>    5.5620    1.0000 </r>
       <r>    5.6495    1.0000 </r>
       <r>    5.6857    1.0000 </r>
       <r>    5.7134    1.0000 </r>
       <r>    5.7731    1.0000 </r>
       <r>    5.7927    1.0000 </r>
       <r>    5.8473    1.0000 </r>
       <r>    5.8648    1.0000 </r>
       <r>    5.9251    1.0000 </r>
       <r>    5.9784    1.0000 </r>
       <r>    6.0151    1.0001 </r>
       <r>    6.0702    1.0004 </r>
       <r>    6.0969    1.0007 </r>
       <r>    6.1530    1.0025 </r>
       <r>    6.1831    1.0044 </r>
       <r>    6.2121    1.0073 </r>
       <r>    6.2608    1.0150 </r>
       <r>    6.3105    1.0260 </r>
       <r>    6.3891    1.0343 </r>
       <r>    6.4451    1.0046 </r>
       <r>    6.4655    0.9795 </r>
       <r>    6.5292    0.8371 </r>
       <r>    6.5859    0.6331 </r>
       <r>    6.6686    0.2925 </r>
       <r>    6.7086    0.1562 </r>
       <r>    6.7263    0.1076 </r>
       <r>    6.8118   -0.0218 </r>
       <r>    6.9720   -0.0156 </r>
       <r>    7.0276   -0.0068 </r>
       <r>    7.0936   -0.0020 </r>
       <r>    7.3541   -0.0000 </r>
       <r>    7.3991   -0.0000 </r>
       <r>    7.5389   -0.0000 </r>
       <r>    7.6999   -0.0000 </r>
       <r>    7.7727   -0.0000 </r>
       <r>    7.8489   -0.0000 </r>
       <r>    7.9177   -0.0000 </r>
       <r>    7.9918   -0.0000 </r>
       <r>    8.0922   -0.0000 </r>
       <r>    8.1019   -0.0000 </r>
       <r>    8.1944   -0.0000 </r>
       <r>    8.2560   -0.0000 </r>
       <r>    8.3397   -0.0000 </r>
       <r>    8.4174   -0.0000 </r>
       <r>    8.5503   -0.0000 </r>
       <r>    8.6055   -0.0000 </r>
       <r>    8.6405   -0.0000 </r>
       <r>    8.6848   -0.0000 </r>
       <r>    8.7661   -0.0000 </r>
       <r>    8.8174   -0.0000 </r>
      </set>
     </set>
    </set>
   </array>
  </eigenvalues>
  <separator name="orbital magnetization" >
   <v name="MAGDIPOLOUT">      0.00000000      0.00000000      0.00000000</v>
  </separator>
  <dos>
   <i name="efermi">      6.61780170 </i>
   <total>
    <array>
     <dimension dim="1">gridpoints</dimension>
     <dimension dim="2">spin</dimension>
     <field>energy</field>
     <field>total</field>
     <field>integrated</field>
     <set>
      <set comment="spin 1">
       <r>   -50.2568     0.0000     0.0000 </r>
       <r>   -50.0494     0.0000     0.0000 </r>
       <r>   -49.8421     0.0000     0.0000 </r>
       <r>   -49.6348     0.0000     0.0000 </r>
       <r>   -49.4275     0.0000     0.0000 </r>
       <r>   -49.2201    -0.0000    -0.0000 </r>
       <r>   -49.0128    -0.0000    -0.0000 </r>
       <r>   -48.8055    -0.0000    -0.0000 </r>
       <r>   -48.5982    -0.0000    -0.0000 </r>
       <r>   -48.3908    -0.0000    -0.0000 </r>
       <r>   -48.1835    -0.0000    -0.0000 </r>
       <r>   -47.9762    -0.0082    -0.0017 </r>
       <r>   -47.7689    -0.4999    -0.1053 </r>
       <r>   -47.5615     0.4849    -0.0048 </r>
       <r>   -47.3542    28.2872     5.8599 </r>
       <r>   -47.1469    28.7477    11.8200 </r>
       <r>   -46.9396     1.4549    12.1216 </r>
       <r>   -46.7322    -0.5715    12.0031 </r>
       <r>   -46.5249    -0.0151    12.0000 </r>
       <r>   -46.3176    -0.0000    12.0000 </r>
       <r>   -46.1103    -0.0000    12.0000 </r>
       <r>   -45.9029    -0.0000    12.0000 </r>
       <r>   -45.6956     0.0000    12.0000 </r>
       <r>   -45.4883     0.0000    12.0000 </r>
       <r>   -45.2810     0.0000    12.0000 </r>
       <r>   -45.0736     0.0000    12.0000 </r>
       <r>   -44.8663     0.0000    12.0000 </r>
       <r>   -44.6590     0.0000    12.0000 </r>
       <r>   -44.4517     0.0000    12.0000 </r>
       <r>   -44.2443     0.0000    12.0000 </r>
       <r>   -44.0370     0.0000    12.0000 </r>
       <r>   -43.8297     0.0000    12.0000 </r>
       <r>   -43.6224     0.0000    12.0000 </r>
       <r>   -43.4150     0.0000    12.0000 </r>
       <r>   -43.2077     0.0000    12.0000 </r>
       <r>   -43.0004     0.0000    12.0000 </r>
       <r>   -42.7931     0.0000    12.0000 </r>
       <r>   -42.5857     0.0000    12.0000 </r>
       <r>   -42.3784     0.0000    12.0000 </r>
       <r>   -42.1711     0.0000    12.0000 </r>
       <r>   -41.9638     0.0000    12.0000 </r>
       <r>   -41.7564     0.0000    12.0000 </r>
       <r>   -41.5491     0.0000    12.0000 </r>
       <r>   -41.3418     0.0000    12.0000 </r>
       <r>   -41.1345     0.0000    12.0000 </r>
       <r>   -40.9271     0.0000    12.0000 </r>
       <r>   -40.7198     0.0000    12.0000 </r>
       <r>   -40.5125     0.0000    12.0000 </r>
       <r>   -40.3051     0.0000    12.0000 </r>
       <r>   -40.0978     0.0000    12.0000 </r>
       <r>   -39.8905     0.0000    12.0000 </r>
       <r>   -39.6832     0.0000    12.0000 </r>
       <r>   -39.4758     0.0000    12.0000 </r>
       <r>   -39.2685     0.0000    12.0000 </r>
       <r>   -39.0612     0.0000    12.0000 </r>
       <r>   -38.8539     0.0000    12.0000 </r>
       <r>   -38.6465     0.0000    12.0000 </r>
       <r>   -38.4392     0.0000    12.0000 </r>
       <r>   -38.2319     0.0000    12.0000 </r>
       <r>   -38.0246     0.0000    12.0000 </r>
       <r>   -37.8172     0.0000    12.0000 </r>
       <r>   -37.6099     0.0000    12.0000 </r>
       <r>   -37.4026     0.0000    12.0000 </r>
       <r>   -37.1953     0.0000    12.0000 </r>
       <r>   -36.9879     0.0000    12.0000 </r>
       <r>   -36.7806     0.0000    12.0000 </r>
       <r>   -36.5733     0.0000    12.0000 </r>
       <r>   -36.3660     0.0000    12.0000 </r>
       <r>   -36.1586     0.0000    12.0000 </r>
       <r>   -35.9513     0.0000    12.0000 </r>
       <r>   -35.7440     0.0000    12.0000 </r>
       <r>   -35.5367     0.0000    12.0000 </r>
       <r>   -35.3293     0.0000    12.0000 </r>
       <r>   -35.1220     0.0000    12.0000 </r>
       <r>   -34.9147     0.0000    12.0000 </r>
       <r>   -34.7074     0.0000    12.0000 </r>
       <r>   -34.5000     0.0000    12.0000 </r>
       <r>   -34.2927     0.0000    12.0000 </r>
       <r>   -34.0854     0.0000    12.0000 </r>
       <r>   -33.8781     0.0000    12.0000 </r>
       <r>   -33.6707     0.0000    12.0000 </r>
       <r>   -33.4634     0.0000    12.0000 </r>
       <r>   -33.2561     0.0000    12.0000 </r>
       <r>   -33.0488     0.0000    12.0000 </r>
       <r>   -32.8414     0.0000    12.0000 </r>
       <r>   -32.6341     0.0000    12.0000 </r>
       <r>   -32.4268     0.0000    12.0000 </r>
       <r>   -32.2195     0.0000    12.0000 </r>
       <r>   -32.0121     0.0000    12.0000 </r>
       <r>   -31.8048     0.0000    12.0000 </r>
       <r>   -31.5975     0.0000    12.0000 </r>
       <r>   -31.3902     0.0000    12.0000 </r>
       <r>   -31.1828     0.0000    12.0000 </r>
       <r>   -30.9755     0.0000    12.0000 </r>
       <r>   -30.7682     0.0000    12.0000 </r>
       <r>   -30.5609     0.0000    12.0000 </r>
       <r>   -30.3535     0.0000    12.0000 </r>
       <r>   -30.1462     0.0000    12.0000 </r>
       <r>   -29.9389     0.0000    12.0000 </r>
       <r>   -29.7316     0.0000    12.0000 </r>
       <r>   -29.5242     0.0000    12.0000 </r>
       <r>   -29.3169     0.0000    12.0000 </r>
       <r>   -29.1096     0.0000    12.0000 </r>
       <r>   -28.9023     0.0000    12.0000 </r>
       <r>   -28.6949     0.0000    12.0000 </r>
       <r>   -28.4876     0.0000    12.0000 </r>
       <r>   -28.2803     0.0000    12.0000 </r>
       <r>   -28.0730     0.0000    12.0000 </r>
       <r>   -27.8656     0.0000    12.0000 </r>
       <r>   -27.6583     0.0000    12.0000 </r>
       <r>   -27.4510     0.0000    12.0000 </r>
       <r>   -27.2437     0.0000    12.0000 </r>
       <r>   -27.0363     0.0000    12.0000 </r>
       <r>   -26.8290     0.0000    12.0000 </r>
       <r>   -26.6217     0.0000    12.0000 </r>
       <r>   -26.4144     0.0000    12.0000 </r>
       <r>   -26.2070     0.0000    12.0000 </r>
       <r>   -25.9997     0.0000    12.0000 </r>
       <r>   -25.7924     0.0000    12.0000 </r>
       <r>   -25.5850    -0.0000    12.0000 </r>
       <r>   -25.3777    -0.0000    12.0000 </r>
       <r>   -25.1704    -0.0000    12.0000 </r>
       <r>   -24.9631    -0.0000    12.0000 </r>
       <r>   -24.7557    -0.0000    12.0000 </r>
       <r>   -24.5484    -0.0009    11.9998 </r>
       <r>   -24.3411    -0.1113    11.9767 </r>
       <r>   -24.1338    -0.7177    11.8279 </r>
       <r>   -23.9264     9.0666    13.7076 </r>
       <r>   -23.7191    25.0461    18.9003 </r>
       <r>   -23.5118    55.5647    30.4203 </r>
       <r>   -23.3045    53.1952    41.4490 </r>
       <r>   -23.0971    24.8677    46.6047 </r>
       <r>   -22.8898     7.2291    48.1035 </r>
       <r>   -22.6825    -0.3779    48.0252 </r>
       <r>   -22.4752    -0.1200    48.0003 </r>
       <r>   -22.2678    -0.0014    48.0000 </r>
       <r>   -22.0605    -0.0000    48.0000 </r>
       <r>   -21.8532    -0.0000    48.0000 </r>
       <r>   -21.6459    -0.0000    48.0000 </r>
       <r>   -21.4385     0.0000    48.0000 </r>
       <r>   -21.2312     0.0000    48.0000 </r>
       <r>   -21.0239     0.0000    48.0000 </r>
       <r>   -20.8166     0.0000    48.0000 </r>
       <r>   -20.6092     0.0000    48.0000 </r>
       <r>   -20.4019     0.0000    48.0000 </r>
       <r>   -20.1946     0.0000    48.0000 </r>
       <r>   -19.9873     0.0000    48.0000 </r>
       <r>   -19.7799     0.0000    48.0000 </r>
       <r>   -19.5726     0.0000    48.0000 </r>
       <r>   -19.3653     0.0000    48.0000 </r>
       <r>   -19.1580     0.0000    48.0000 </r>
       <r>   -18.9506     0.0000    48.0000 </r>
       <r>   -18.7433     0.0000    48.0000 </r>
       <r>   -18.5360     0.0000    48.0000 </r>
       <r>   -18.3287     0.0000    48.0000 </r>
       <r>   -18.1213     0.0000    48.0000 </r>
       <r>   -17.9140     0.0000    48.0000 </r>
       <r>   -17.7067     0.0000    48.0000 </r>
       <r>   -17.4994     0.0000    48.0000 </r>
       <r>   -17.2920     0.0000    48.0000 </r>
       <r>   -17.0847     0.0000    48.0000 </r>
       <r>   -16.8774     0.0000    48.0000 </r>
       <r>   -16.6701     0.0000    48.0000 </r>
       <r>   -16.4627     0.0000    48.0000 </r>
       <r>   -16.2554     0.0000    48.0000 </r>
       <r>   -16.0481     0.0000    48.0000 </r>
       <r>   -15.8408     0.0000    48.0000 </r>
       <r>   -15.6334     0.0000    48.0000 </r>
       <r>   -15.4261     0.0000    48.0000 </r>
       <r>   -15.2188     0.0000    48.0000 </r>
       <r>   -15.0115     0.0000    48.0000 </r>
       <r>   -14.8041     0.0000    48.0000 </r>
       <r>   -14.5968     0.0000    48.0000 </r>
       <r>   -14.3895     0.0000    48.0000 </r>
       <r>   -14.1822     0.0000    48.0000 </r>
       <r>   -13.9748     0.0000    48.0000 </r>
       <r>   -13.7675     0.0000    48.0000 </r>
       <r>   -13.5602     0.0000    48.0000 </r>
       <r>   -13.3529     0.0000    48.0000 </r>
       <r>   -13.1455     0.0000    48.0000 </r>
       <r>   -12.9382     0.0000    48.0000 </r>
       <r>   -12.7309     0.0000    48.0000 </r>
       <r>   -12.5236     0.0000    48.0000 </r>
       <r>   -12.3162     0.0000    48.0000 </r>
       <r>   -12.1089     0.0000    48.0000 </r>
       <r>   -11.9016     0.0000    48.0000 </r>
       <r>   -11.6943     0.0000    48.0000 </r>
       <r>   -11.4869     0.0000    48.0000 </r>
       <r>   -11.2796     0.0000    48.0000 </r>
       <r>   -11.0723     0.0000    48.0000 </r>
       <r>   -10.8649     0.0000    48.0000 </r>
       <r>   -10.6576     0.0000    48.0000 </r>
       <r>   -10.4503     0.0000    48.0000 </r>
       <r>   -10.2430     0.0000    48.0000 </r>
       <r>   -10.0356     0.0000    48.0000 </r>
       <r>    -9.8283     0.0000    48.0000 </r>
       <r>    -9.6210     0.0000    48.0000 </r>
       <r>    -9.4137     0.0000    48.0000 </r>
       <r>    -9.2063     0.0000    48.0000 </r>
       <r>    -8.9990     0.0000    48.0000 </r>
       <r>    -8.7917     0.0000    48.0000 </r>
       <r>    -8.5844     0.0000    48.0000 </r>
       <r>    -8.3770     0.0000    48.0000 </r>
       <r>    -8.1697     0.0000    48.0000 </r>
       <r>    -7.9624     0.0000    48.0000 </r>
       <r>    -7.7551     0.0000    48.0000 </r>
       <r>    -7.5477     0.0000    48.0000 </r>
       <r>    -7.3404     0.0000    48.0000 </r>
       <r>    -7.1331     0.0000    48.0000 </r>
       <r>    -6.9258     0.0000    48.0000 </r>
       <r>    -6.7184     0.0000    48.0000 </r>
       <r>    -6.5111     0.0000    48.0000 </r>
       <r>    -6.3038     0.0000    48.0000 </r>
       <r>    -6.0965     0.0000    48.0000 </r>
       <r>    -5.8891     0.0000    48.0000 </r>
       <r>    -5.6818     0.0000    48.0000 </r>
       <r>    -5.4745     0.0000    48.0000 </r>
       <r>    -5.2672     0.0000    48.0000 </r>
       <r>    -5.0598     0.0000    48.0000 </r>
       <r>    -4.8525     0.0000    48.0000 </r>
       <r>    -4.6452     0.0000    48.0000 </r>
       <r>    -4.4379     0.0000    48.0000 </r>
       <r>    -4.2305     0.0000    48.0000 </r>
       <r>    -4.0232     0.0000    48.0000 </r>
       <r>    -3.8159     0.0000    48.0000 </r>
       <r>    -3.6086     0.0000    48.0000 </r>
       <r>    -3.4012     0.0000    48.0000 </r>
       <r>    -3.1939     0.0000    48.0000 </r>
       <r>    -2.9866     0.0000    48.0000 </r>
       <r>    -2.7793     0.0000    48.0000 </r>
       <r>    -2.5719     0.0000    48.0000 </r>
       <r>    -2.3646    -0.0000    48.0000 </r>
       <r>    -2.1573    -0.0000    48.0000 </r>
       <r>    -1.9500    -0.0000    48.0000 </r>
       <r>    -1.7426    -0.0000    48.0000 </r>
       <r>    -1.5353    -0.0000    48.0000 </r>
       <r>    -1.3280    -0.0000    48.0000 </r>
       <r>    -1.1207    -0.0002    48.0000 </r>
       <r>    -0.9133    -0.0063    47.9987 </r>
       <r>    -0.7060    -0.0030    47.9980 </r>
       <r>    -0.4987     0.3370    48.0679 </r>
       <r>    -0.2914     1.1361    48.3034 </r>
       <r>    -0.0840     1.6892    48.6537 </r>
       <r>     0.1233     1.6245    48.9905 </r>
       <r>     0.3306     2.0403    49.4135 </r>
       <r>     0.5379     2.4812    49.9279 </r>
       <r>     0.7453     2.9212    50.5335 </r>
       <r>     0.9526     2.9043    51.1357 </r>
       <r>     1.1599     3.6337    51.8890 </r>
       <r>     1.3672     4.9285    52.9108 </r>
       <r>     1.5746     4.0365    53.7477 </r>
       <r>     1.7819     4.2489    54.6286 </r>
       <r>     1.9892     5.8460    55.8406 </r>
       <r>     2.1965     9.0723    57.7215 </r>
       <r>     2.4039    13.4081    60.5014 </r>
       <r>     2.6112    17.3594    64.1004 </r>
       <r>     2.8185    21.3986    68.5369 </r>
       <r>     3.0258    24.2225    73.5588 </r>
       <r>     3.2332    28.2165    79.4088 </r>
       <r>     3.4405    32.8832    86.2264 </r>
       <r>     3.6478    32.9818    93.0643 </r>
       <r>     3.8552    33.0286    99.9120 </r>
       <r>     4.0625    31.4537   106.4331 </r>
       <r>     4.2698    21.9879   110.9918 </r>
       <r>     4.4771    19.9530   115.1286 </r>
       <r>     4.6845    34.3426   122.2486 </r>
       <r>     4.8918    45.4868   131.6792 </r>
       <r>     5.0991    47.3961   141.5056 </r>
       <r>     5.3064    41.2575   150.0594 </r>
       <r>     5.5138    37.4810   157.8301 </r>
       <r>     5.7211    38.8093   165.8763 </r>
       <r>     5.9284    43.2860   174.8506 </r>
       <r>     6.1357    46.3882   184.4680 </r>
       <r>     6.3431    43.7287   193.5341 </r>
       <r>     6.5504    38.7956   201.5774 </r>
       <r>     6.7577    34.1884   208.6655 </r>
       <r>     6.9650    26.6711   214.1951 </r>
       <r>     7.1724    17.7407   217.8732 </r>
       <r>     7.3797    14.8127   220.9443 </r>
       <r>     7.5870    13.4499   223.7328 </r>
       <r>     7.7943    13.8839   226.6112 </r>
       <r>     8.0017    16.3662   230.0044 </r>
       <r>     8.2090    20.7481   234.3060 </r>
       <r>     8.4163    25.6831   239.6307 </r>
       <r>     8.6236    29.3936   245.7248 </r>
       <r>     8.8310    29.2262   251.7841 </r>
       <r>     9.0383    17.7372   255.4615 </r>
       <r>     9.2456     3.0177   256.0871 </r>
       <r>     9.4529    -0.3792   256.0085 </r>
       <r>     9.6603    -0.0406   256.0001 </r>
       <r>     9.8676    -0.0004   256.0000 </r>
       <r>    10.0749    -0.0000   256.0000 </r>
       <r>    10.2822    -0.0000   256.0000 </r>
       <r>    10.4896    -0.0000   256.0000 </r>
       <r>    10.6969     0.0000   256.0000 </r>
       <r>    10.9042     0.0000   256.0000 </r>
       <r>    11.1115     0.0000   256.0000 </r>
       <r>    11.3189     0.0000   256.0000 </r>
       <r>    11.5262     0.0000   256.0000 </r>
       <r>    11.7335     0.0000   256.0000 </r>
       <r>    11.9408     0.0000   256.0000 </r>
      </set>
     </set>
    </array>
   </total>
  </dos>
 </calculation>
 <structure name="finalpos" >
  <crystal>
   <varray name="basis" >
    <v>       0.00000000       0.00000000       6.44000000 </v>
    <v>       8.05000000       1.61000000       1.61000000 </v>
    <v>       0.00000000       9.66000000       3.22000000 </v>
   </varray>
   <i name="volume">    500.79372000 </i>
   <varray name="rec_basis" >
    <v>      -0.02070393      -0.05175983       0.15527950 </v>
    <v>       0.12422360       0.00000000       0.00000000 </v>
    <v>      -0.02070393       0.10351967       0.00000000 </v>
   </varray>
  </crystal>
  <varray name="positions" >
   <v>       0.00000000       0.00000000       0.00000000 </v>
   <v>       0.83333333       0.00000000       0.33333333 </v>
   <v>       0.10000000       0.40000000       0.60000000 </v>
   <v>       0.20000000       0.80000000       0.20000000 </v>
   <v>       0.80000000       0.20000000       0.80000000 </v>
   <v>       0.93333333       0.40000000       0.93333333 </v>
   <v>       0.50000000       0.00000000       0.00000000 </v>
   <v>       0.33333333       0.00000000       0.33333333 </v>
   <v>       0.46666667       0.20000000       0.46666667 </v>
   <v>       0.23333333       0.60000000       0.73333333 </v>
   <v>       0.73333333       0.60000000       0.73333333 </v>
   <v>       0.86666667       0.80000000       0.86666667 </v>
   <v>       0.13333333       0.20000000       0.13333333 </v>
   <v>       0.63333333       0.20000000       0.13333333 </v>
   <v>       0.66666667       0.00000000       0.66666667 </v>
   <v>       0.76666667       0.40000000       0.26666667 </v>
   <v>       0.40000000       0.60000000       0.40000000 </v>
   <v>       0.60000000       0.40000000       0.60000000 </v>
   <v>       0.16666667       0.00000000       0.66666667 </v>
   <v>       0.26666667       0.40000000       0.26666667 </v>
   <v>       0.30000000       0.20000000       0.80000000 </v>
   <v>       0.90000000       0.60000000       0.40000000 </v>
   <v>       0.53333333       0.80000000       0.53333333 </v>
   <v>       0.36666667       0.80000000       0.86666667 </v>
   <v>       0.06666667       0.60000000       0.06666667 </v>
   <v>       0.56666667       0.60000000       0.06666667 </v>
   <v>       0.96666667       0.20000000       0.46666667 </v>
   <v>       0.70000000       0.80000000       0.20000000 </v>
   <v>       0.03333333       0.80000000       0.53333333 </v>
   <v>       0.43333333       0.40000000       0.93333333 </v>
  </varray>
 </structure>
</modeling>
