  29  29   0   0
  0.1632129E+02  0.5473281E-09  0.8209921E-09  0.1128346E-08  0.5000000E-15
  1.000000000000000E-004
  CAR 
 Nb - Mo - Ta - Ti - V SQS               
     11.76102661    -50.22209378  301      6.74259390      1.00000000
    -50.222  0.0000E+00  0.0000E+00
    -50.015  0.0000E+00  0.0000E+00
    -49.809  0.0000E+00  0.0000E+00
    -49.602  0.0000E+00  0.0000E+00
    -49.396  0.0000E+00  0.0000E+00
    -49.189 -0.4036E-35 -0.8339E-36
    -48.982 -0.1527E-27 -0.3154E-28
    -48.776 -0.5938E-21 -0.1227E-21
    -48.569 -0.2658E-15 -0.5491E-16
    -48.363 -0.1407E-10 -0.2906E-11
    -48.156 -0.8759E-07 -0.1810E-07
    -47.949 -0.6313E-04 -0.1306E-04
    -47.743 -0.4903E-02 -0.1026E-02
    -47.536 -0.1376E-01 -0.3870E-02
    -47.330  0.3543E+00  0.6933E-01
    -47.123  0.7032E+00  0.2146E+00
    -46.916  0.1447E+00  0.2445E+00
    -46.710 -0.2066E-01  0.2402E+00
    -46.503 -0.1186E-02  0.2400E+00
    -46.296 -0.5269E-05  0.2400E+00
    -46.090 -0.2479E-08  0.2400E+00
    -45.883 -0.1307E-12  0.2400E+00
    -45.677  0.0000E+00  0.2400E+00
    -45.470  0.0000E+00  0.2400E+00
    -45.263  0.0000E+00  0.2400E+00
    -45.057  0.0000E+00  0.2400E+00
    -44.850  0.0000E+00  0.2400E+00
    -44.644  0.0000E+00  0.2400E+00
    -44.437  0.0000E+00  0.2400E+00
    -44.230  0.0000E+00  0.2400E+00
    -44.024  0.0000E+00  0.2400E+00
    -43.817  0.0000E+00  0.2400E+00
    -43.611  0.0000E+00  0.2400E+00
    -43.404  0.0000E+00  0.2400E+00
    -43.197  0.0000E+00  0.2400E+00
    -42.991  0.0000E+00  0.2400E+00
    -42.784  0.0000E+00  0.2400E+00
    -42.578  0.0000E+00  0.2400E+00
    -42.371  0.0000E+00  0.2400E+00
    -42.164  0.0000E+00  0.2400E+00
    -41.958  0.0000E+00  0.2400E+00
    -41.751  0.0000E+00  0.2400E+00
    -41.544  0.0000E+00  0.2400E+00
    -41.338  0.0000E+00  0.2400E+00
    -41.131  0.0000E+00  0.2400E+00
    -40.925  0.0000E+00  0.2400E+00
    -40.718  0.0000E+00  0.2400E+00
    -40.511  0.0000E+00  0.2400E+00
    -40.305  0.0000E+00  0.2400E+00
    -40.098  0.0000E+00  0.2400E+00
    -39.892  0.0000E+00  0.2400E+00
    -39.685  0.0000E+00  0.2400E+00
    -39.478  0.0000E+00  0.2400E+00
    -39.272  0.0000E+00  0.2400E+00
    -39.065  0.0000E+00  0.2400E+00
    -38.859  0.0000E+00  0.2400E+00
    -38.652  0.0000E+00  0.2400E+00
    -38.445  0.0000E+00  0.2400E+00
    -38.239  0.0000E+00  0.2400E+00
    -38.032  0.0000E+00  0.2400E+00
    -37.825  0.0000E+00  0.2400E+00
    -37.619  0.0000E+00  0.2400E+00
    -37.412  0.0000E+00  0.2400E+00
    -37.206  0.0000E+00  0.2400E+00
    -36.999  0.0000E+00  0.2400E+00
    -36.792  0.0000E+00  0.2400E+00
    -36.586  0.0000E+00  0.2400E+00
    -36.379  0.0000E+00  0.2400E+00
    -36.173  0.0000E+00  0.2400E+00
    -35.966  0.0000E+00  0.2400E+00
    -35.759  0.0000E+00  0.2400E+00
    -35.553  0.0000E+00  0.2400E+00
    -35.346  0.0000E+00  0.2400E+00
    -35.140  0.0000E+00  0.2400E+00
    -34.933  0.0000E+00  0.2400E+00
    -34.726  0.0000E+00  0.2400E+00
    -34.520  0.0000E+00  0.2400E+00
    -34.313  0.0000E+00  0.2400E+00
    -34.106  0.0000E+00  0.2400E+00
    -33.900  0.0000E+00  0.2400E+00
    -33.693  0.0000E+00  0.2400E+00
    -33.487  0.0000E+00  0.2400E+00
    -33.280  0.0000E+00  0.2400E+00
    -33.073  0.0000E+00  0.2400E+00
    -32.867  0.0000E+00  0.2400E+00
    -32.660  0.0000E+00  0.2400E+00
    -32.454  0.0000E+00  0.2400E+00
    -32.247  0.0000E+00  0.2400E+00
    -32.040  0.0000E+00  0.2400E+00
    -31.834  0.0000E+00  0.2400E+00
    -31.627  0.0000E+00  0.2400E+00
    -31.421  0.0000E+00  0.2400E+00
    -31.214  0.0000E+00  0.2400E+00
    -31.007  0.0000E+00  0.2400E+00
    -30.801  0.0000E+00  0.2400E+00
    -30.594  0.0000E+00  0.2400E+00
    -30.387  0.0000E+00  0.2400E+00
    -30.181  0.0000E+00  0.2400E+00
    -29.974  0.0000E+00  0.2400E+00
    -29.768  0.0000E+00  0.2400E+00
    -29.561  0.0000E+00  0.2400E+00
    -29.354  0.0000E+00  0.2400E+00
    -29.148  0.0000E+00  0.2400E+00
    -28.941  0.0000E+00  0.2400E+00
    -28.735  0.0000E+00  0.2400E+00
    -28.528  0.0000E+00  0.2400E+00
    -28.321  0.0000E+00  0.2400E+00
    -28.115  0.0000E+00  0.2400E+00
    -27.908  0.0000E+00  0.2400E+00
    -27.702  0.0000E+00  0.2400E+00
    -27.495  0.0000E+00  0.2400E+00
    -27.288  0.0000E+00  0.2400E+00
    -27.082  0.0000E+00  0.2400E+00
    -26.875  0.0000E+00  0.2400E+00
    -26.669  0.0000E+00  0.2400E+00
    -26.462  0.0000E+00  0.2400E+00
    -26.255  0.0000E+00  0.2400E+00
    -26.049  0.0000E+00  0.2400E+00
    -25.842 -0.6533E-32  0.2400E+00
    -25.635 -0.7743E-25  0.2400E+00
    -25.429 -0.1079E-18  0.2400E+00
    -25.222 -0.1709E-13  0.2400E+00
    -25.016 -0.3230E-09  0.2400E+00
    -24.809 -0.6993E-06  0.2400E+00
    -24.602 -0.1643E-03  0.2400E+00
    -24.396 -0.3245E-02  0.2393E+00
    -24.189  0.1294E-01  0.2420E+00
    -23.983  0.1280E+00  0.2684E+00
    -23.776  0.3529E+00  0.3413E+00
    -23.569  0.5193E+00  0.4486E+00
    -23.363  0.1127E+01  0.6815E+00
    -23.156  0.7321E+00  0.8327E+00
    -22.950  0.4558E+00  0.9269E+00
    -22.743  0.1725E+00  0.9625E+00
    -22.536 -0.9924E-02  0.9605E+00
    -22.330 -0.2359E-02  0.9600E+00
    -22.123 -0.3823E-04  0.9600E+00
    -21.916 -0.7491E-07  0.9600E+00
    -21.710 -0.1738E-10  0.9600E+00
    -21.503 -0.4729E-15  0.9600E+00
    -21.297  0.0000E+00  0.9600E+00
    -21.090  0.0000E+00  0.9600E+00
    -20.883  0.0000E+00  0.9600E+00
    -20.677  0.0000E+00  0.9600E+00
    -20.470  0.0000E+00  0.9600E+00
    -20.264  0.0000E+00  0.9600E+00
    -20.057  0.0000E+00  0.9600E+00
    -19.850  0.0000E+00  0.9600E+00
    -19.644  0.0000E+00  0.9600E+00
    -19.437  0.0000E+00  0.9600E+00
    -19.231  0.0000E+00  0.9600E+00
    -19.024  0.0000E+00  0.9600E+00
    -18.817  0.0000E+00  0.9600E+00
    -18.611  0.0000E+00  0.9600E+00
    -18.404  0.0000E+00  0.9600E+00
    -18.197  0.0000E+00  0.9600E+00
    -17.991  0.0000E+00  0.9600E+00
    -17.784  0.0000E+00  0.9600E+00
    -17.578  0.0000E+00  0.9600E+00
    -17.371  0.0000E+00  0.9600E+00
    -17.164  0.0000E+00  0.9600E+00
    -16.958  0.0000E+00  0.9600E+00
    -16.751  0.0000E+00  0.9600E+00
    -16.545  0.0000E+00  0.9600E+00
    -16.338  0.0000E+00  0.9600E+00
    -16.131  0.0000E+00  0.9600E+00
    -15.925  0.0000E+00  0.9600E+00
    -15.718  0.0000E+00  0.9600E+00
    -15.512  0.0000E+00  0.9600E+00
    -15.305  0.0000E+00  0.9600E+00
    -15.098  0.0000E+00  0.9600E+00
    -14.892  0.0000E+00  0.9600E+00
    -14.685  0.0000E+00  0.9600E+00
    -14.478  0.0000E+00  0.9600E+00
    -14.272  0.0000E+00  0.9600E+00
    -14.065  0.0000E+00  0.9600E+00
    -13.859  0.0000E+00  0.9600E+00
    -13.652  0.0000E+00  0.9600E+00
    -13.445  0.0000E+00  0.9600E+00
    -13.239  0.0000E+00  0.9600E+00
    -13.032  0.0000E+00  0.9600E+00
    -12.826  0.0000E+00  0.9600E+00
    -12.619  0.0000E+00  0.9600E+00
    -12.412  0.0000E+00  0.9600E+00
    -12.206  0.0000E+00  0.9600E+00
    -11.999  0.0000E+00  0.9600E+00
    -11.793  0.0000E+00  0.9600E+00
    -11.586  0.0000E+00  0.9600E+00
    -11.379  0.0000E+00  0.9600E+00
    -11.173  0.0000E+00  0.9600E+00
    -10.966  0.0000E+00  0.9600E+00
    -10.760  0.0000E+00  0.9600E+00
    -10.553  0.0000E+00  0.9600E+00
    -10.346  0.0000E+00  0.9600E+00
    -10.140  0.0000E+00  0.9600E+00
     -9.933  0.0000E+00  0.9600E+00
     -9.726  0.0000E+00  0.9600E+00
     -9.520  0.0000E+00  0.9600E+00
     -9.313  0.0000E+00  0.9600E+00
     -9.107  0.0000E+00  0.9600E+00
     -8.900  0.0000E+00  0.9600E+00
     -8.693  0.0000E+00  0.9600E+00
     -8.487  0.0000E+00  0.9600E+00
     -8.280  0.0000E+00  0.9600E+00
     -8.074  0.0000E+00  0.9600E+00
     -7.867  0.0000E+00  0.9600E+00
     -7.660  0.0000E+00  0.9600E+00
     -7.454  0.0000E+00  0.9600E+00
     -7.247  0.0000E+00  0.9600E+00
     -7.041  0.0000E+00  0.9600E+00
     -6.834  0.0000E+00  0.9600E+00
     -6.627  0.0000E+00  0.9600E+00
     -6.421  0.0000E+00  0.9600E+00
     -6.214  0.0000E+00  0.9600E+00
     -6.007  0.0000E+00  0.9600E+00
     -5.801  0.0000E+00  0.9600E+00
     -5.594  0.0000E+00  0.9600E+00
     -5.388  0.0000E+00  0.9600E+00
     -5.181  0.0000E+00  0.9600E+00
     -4.974  0.0000E+00  0.9600E+00
     -4.768  0.0000E+00  0.9600E+00
     -4.561  0.0000E+00  0.9600E+00
     -4.355  0.0000E+00  0.9600E+00
     -4.148  0.0000E+00  0.9600E+00
     -3.941  0.0000E+00  0.9600E+00
     -3.735  0.0000E+00  0.9600E+00
     -3.528  0.0000E+00  0.9600E+00
     -3.322  0.0000E+00  0.9600E+00
     -3.115  0.0000E+00  0.9600E+00
     -2.908  0.0000E+00  0.9600E+00
     -2.702  0.0000E+00  0.9600E+00
     -2.495  0.0000E+00  0.9600E+00
     -2.288  0.0000E+00  0.9600E+00
     -2.082  0.0000E+00  0.9600E+00
     -1.875 -0.9392E-37  0.9600E+00
     -1.669 -0.2992E-29  0.9600E+00
     -1.462 -0.1023E-22  0.9600E+00
     -1.255 -0.4054E-17  0.9600E+00
     -1.049 -0.1921E-12  0.9600E+00
     -0.842 -0.1091E-08  0.9600E+00
     -0.636 -0.7393E-06  0.9600E+00
     -0.429 -0.5860E-04  0.9600E+00
     -0.222 -0.3467E-03  0.9599E+00
     -0.016  0.3938E-02  0.9607E+00
      0.191  0.1832E-01  0.9645E+00
      0.397  0.2555E-01  0.9698E+00
      0.604  0.3738E-01  0.9775E+00
      0.811  0.4218E-01  0.9862E+00
      1.017  0.3748E-01  0.9940E+00
      1.224  0.5736E-01  0.1006E+01
      1.431  0.6239E-01  0.1019E+01
      1.637  0.6522E-01  0.1032E+01
      1.844  0.7382E-01  0.1047E+01
      2.050  0.9214E-01  0.1066E+01
      2.257  0.1105E+00  0.1089E+01
      2.464  0.1383E+00  0.1118E+01
      2.670  0.2192E+00  0.1163E+01
      2.877  0.3418E+00  0.1234E+01
      3.083  0.4386E+00  0.1324E+01
      3.290  0.5286E+00  0.1434E+01
      3.497  0.5829E+00  0.1554E+01
      3.703  0.6019E+00  0.1678E+01
      3.910  0.5940E+00  0.1801E+01
      4.116  0.6090E+00  0.1927E+01
      4.323  0.6343E+00  0.2058E+01
      4.530  0.5947E+00  0.2181E+01
      4.736  0.5577E+00  0.2296E+01
      4.943  0.6401E+00  0.2428E+01
      5.149  0.7320E+00  0.2580E+01
      5.356  0.7954E+00  0.2744E+01
      5.563  0.8041E+00  0.2910E+01
      5.769  0.8125E+00  0.3078E+01
      5.976  0.8032E+00  0.3244E+01
      6.183  0.8294E+00  0.3415E+01
      6.389  0.8518E+00  0.3591E+01
      6.596  0.8411E+00  0.3765E+01
      6.802  0.7662E+00  0.3923E+01
      7.009  0.6433E+00  0.4056E+01
      7.216  0.5081E+00  0.4161E+01
      7.422  0.4117E+00  0.4246E+01
      7.629  0.3797E+00  0.4325E+01
      7.835  0.3623E+00  0.4400E+01
      8.042  0.4082E+00  0.4484E+01
      8.249  0.5008E+00  0.4587E+01
      8.455  0.4955E+00  0.4690E+01
      8.662  0.3699E+00  0.4766E+01
      8.868  0.1525E+00  0.4798E+01
      9.075  0.1418E-01  0.4801E+01
      9.282 -0.3058E-02  0.4800E+01
      9.488 -0.2461E-03  0.4800E+01
      9.695 -0.2239E-05  0.4800E+01
      9.902 -0.2585E-08  0.4800E+01
     10.108 -0.3707E-12  0.4800E+01
     10.315 -0.5765E-17  0.4800E+01
     10.521  0.0000E+00  0.4800E+01
     10.728  0.0000E+00  0.4800E+01
     10.935  0.0000E+00  0.4800E+01
     11.141  0.0000E+00  0.4800E+01
     11.348  0.0000E+00  0.4800E+01
     11.554  0.0000E+00  0.4800E+01
     11.761  0.0000E+00  0.4800E+01
