   29   29   50    1
  0.1632129E+02  0.5473281E-09  0.8209921E-09  0.1128346E-08  0.5000000E-15
  1.000000000000000E-004
  CAR 
 Nb - Mo - Ta - Ti - V SQS               
    194    172    120
 
  0.0000000E+00  0.0000000E+00  0.0000000E+00  0.2915452E-02
    1      -47.404679   1.000000
    2      -47.321259   1.000000
    3      -47.286055   1.000000
    4      -47.239941   1.000000
    5      -47.169713   1.000000
    6      -47.162728   1.000000
    7      -24.151823   1.000000
    8      -23.886743   1.000000
    9      -23.836326   1.000000
   10      -23.736003   1.000000
   11      -23.574735   1.000000
   12      -23.550840   1.000000
   13      -23.485290   1.000000
   14      -23.472793   1.000000
   15      -23.443801   1.000000
   16      -23.409201   1.000000
   17      -23.344194   1.000000
   18      -23.340837   1.000000
   19      -23.332921   1.000000
   20      -23.303561   1.000000
   21      -23.097316   1.000000
   22      -23.038722   1.000000
   23      -22.987767   1.000000
   24      -22.845229   1.000000
   25       -0.101045   1.000000
   26        1.218484   1.000000
   27        1.575010   1.000000
   28        2.367231   1.000000
   29        2.465122   1.000000
   30        2.565785   1.000000
   31        2.702401   1.000000
   32        2.771220   1.000000
   33        2.861558   1.000000
   34        2.951566   1.000000
   35        2.959690   1.000000
   36        3.023653   1.000000
   37        3.104581   1.000000
   38        3.184773   1.000000
   39        3.205172   1.000000
   40        3.290671   1.000000
   41        3.352942   1.000000
   42        3.517665   1.000000
   43        3.633499   1.000000
   44        3.671424   1.000000
   45        3.686242   1.000000
   46        3.777497   1.000000
   47        3.815817   1.000000
   48        3.878553   1.000000
   49        3.961386   1.000000
   50        4.032434   1.000000
   51        4.130864   1.000000
   52        4.188876   1.000000
   53        4.313647   1.000000
   54        4.394847   1.000000
   55        4.427799   1.000000
   56        4.474373   1.000000
   57        4.548436   1.000000
   58        4.577504   1.000000
   59        4.707550   1.000000
   60        4.743114   1.000000
   61        4.821273   1.000000
   62        4.912054   1.000000
   63        4.966158   1.000000
   64        4.992411   1.000000
   65        5.065286   1.000000
   66        5.120252   1.000000
   67        5.199775   1.000000
   68        5.239596   1.000000
   69        5.279027   1.000000
   70        5.306311   1.000000
   71        5.317976   1.000000
   72        5.387065   1.000000
   73        5.502492   1.000000
   74        5.534721   1.000000
   75        5.576172   1.000000
   76        5.640417   1.000000
   77        5.737622   1.000000
   78        5.795463   1.000000
   79        5.899981   1.000000
   80        5.951432   1.000000
   81        6.010730   1.000001
   82        6.163559   1.000166
   83        6.194905   1.000374
   84        6.252493   1.001440
   85        6.265892   1.001918
   86        6.320142   1.005470
   87        6.352116   1.009296
   88        6.354871   1.009699
   89        6.457539   1.030812
   90        6.519496   1.033334
   91        6.553157   1.018742
   92        6.632111   0.897516
   93        6.687288   0.724393
   94        6.769167   0.388651
   95        6.823165   0.187813
   96        6.906951   0.004587
   97        6.929457  -0.016899
   98        6.997659  -0.035090
   99        7.065497  -0.022396
  100        7.123439  -0.010759
  101        7.155784  -0.006423
  102        7.217569  -0.001988
  103        7.421106  -0.000009
  104        7.525225  -0.000000
  105        7.649575  -0.000000
  106        7.701435  -0.000000
  107        7.918105  -0.000000
  108        7.988569  -0.000000
  109        8.087290  -0.000000
  110        8.161527  -0.000000
  111        8.235157  -0.000000
  112        8.422831  -0.000000
  113        8.511621  -0.000000
  114        8.529367  -0.000000
  115        8.645751  -0.000000
  116        8.752000  -0.000000
  117        8.768041  -0.000000
  118        8.806743  -0.000000
  119        8.836836  -0.000000
  120        8.879857  -0.000000
 
  0.1428571E+00  0.0000000E+00 -0.1561251E-16  0.5830904E-02
    1      -47.398497   1.000000
    2      -47.321647   1.000000
    3      -47.288026   1.000000
    4      -47.240125   1.000000
    5      -47.172750   1.000000
    6      -47.163038   1.000000
    7      -24.106157   1.000000
    8      -23.882635   1.000000
    9      -23.828159   1.000000
   10      -23.735142   1.000000
   11      -23.578590   1.000000
   12      -23.544794   1.000000
   13      -23.485757   1.000000
   14      -23.474765   1.000000
   15      -23.446610   1.000000
   16      -23.410780   1.000000
   17      -23.348123   1.000000
   18      -23.343590   1.000000
   19      -23.335259   1.000000
   20      -23.304359   1.000000
   21      -23.099303   1.000000
   22      -23.042893   1.000000
   23      -22.992029   1.000000
   24      -22.899324   1.000000
   25        0.060610   1.000000
   26        1.360468   1.000000
   27        1.711290   1.000000
   28        2.392106   1.000000
   29        2.579070   1.000000
   30        2.678800   1.000000
   31        2.779980   1.000000
   32        2.854673   1.000000
   33        2.908953   1.000000
   34        2.987858   1.000000
   35        3.094872   1.000000
   36        3.129014   1.000000
   37        3.189671   1.000000
   38        3.287045   1.000000
   39        3.315706   1.000000
   40        3.375563   1.000000
   41        3.461533   1.000000
   42        3.552222   1.000000
   43        3.609945   1.000000
   44        3.657955   1.000000
   45        3.766820   1.000000
   46        3.832502   1.000000
   47        3.909280   1.000000
   48        3.947518   1.000000
   49        4.019748   1.000000
   50        4.095953   1.000000
   51        4.158960   1.000000
   52        4.227561   1.000000
   53        4.355007   1.000000
   54        4.401310   1.000000
   55        4.414155   1.000000
   56        4.464519   1.000000
   57        4.587976   1.000000
   58        4.620185   1.000000
   59        4.740593   1.000000
   60        4.764265   1.000000
   61        4.839194   1.000000
   62        4.973041   1.000000
   63        4.996449   1.000000
   64        5.026305   1.000000
   65        5.079617   1.000000
   66        5.130303   1.000000
   67        5.242318   1.000000
   68        5.294778   1.000000
   69        5.312915   1.000000
   70        5.343620   1.000000
   71        5.375177   1.000000
   72        5.454198   1.000000
   73        5.501865   1.000000
   74        5.567348   1.000000
   75        5.633510   1.000000
   76        5.665807   1.000000
   77        5.741585   1.000000
   78        5.794923   1.000000
   79        5.892643   1.000000
   80        5.942307   1.000000
   81        6.009072   1.000001
   82        6.067288   1.000010
   83        6.114149   1.000041
   84        6.161224   1.000156
   85        6.266308   1.001935
   86        6.273872   1.002263
   87        6.340140   1.007682
   88        6.405264   1.019133
   89        6.440768   1.027242
   90        6.498436   1.035455
   91        6.546898   1.022747
   92        6.564995   1.009263
   93        6.607153   0.951661
   94        6.650719   0.846977
   95        6.719475   0.597105
   96        6.759018   0.430763
   97        6.829624   0.167569
   98        6.902814   0.009672
   99        6.988326  -0.035456
  100        7.014412  -0.033157
  101        7.070864  -0.021166
  102        7.181093  -0.004089
  103        7.283589  -0.000442
  104        7.396610  -0.000019
  105        7.451496  -0.000003
  106        7.516646  -0.000000
  107        7.658191  -0.000000
  108        7.736573  -0.000000
  109        7.955968  -0.000000
  110        8.045101  -0.000000
  111        8.107211  -0.000000
  112        8.265936  -0.000000
  113        8.286622  -0.000000
  114        8.348822  -0.000000
  115        8.417177  -0.000000
  116        8.478998  -0.000000
  117        8.531363  -0.000000
  118        8.643142  -0.000000
  119        8.665025  -0.000000
  120        8.719243  -0.000000
 
  0.2857143E+00  0.1387779E-16  0.3469447E-17  0.5830904E-02
    1      -47.381913   1.000000
    2      -47.323966   1.000000
    3      -47.293743   1.000000
    4      -47.240602   1.000000
    5      -47.179650   1.000000
    6      -47.163553   1.000000
    7      -23.999824   1.000000
    8      -23.871065   1.000000
    9      -23.788515   1.000000
   10      -23.732838   1.000000
   11      -23.586231   1.000000
   12      -23.528198   1.000000
   13      -23.487314   1.000000
   14      -23.479297   1.000000
   15      -23.455057   1.000000
   16      -23.414482   1.000000
   17      -23.359524   1.000000
   18      -23.348230   1.000000
   19      -23.343998   1.000000
   20      -23.306206   1.000000
   21      -23.117875   1.000000
   22      -23.085091   1.000000
   23      -23.018295   1.000000
   24      -22.981520   1.000000
   25        0.519700   1.000000
   26        1.741233   1.000000
   27        2.073128   1.000000
   28        2.504941   1.000000
   29        2.693995   1.000000
   30        2.845691   1.000000
   31        2.957059   1.000000
   32        3.017753   1.000000
   33        3.104510   1.000000
   34        3.177458   1.000000
   35        3.300331   1.000000
   36        3.318715   1.000000
   37        3.410961   1.000000
   38        3.457934   1.000000
   39        3.514091   1.000000
   40        3.585630   1.000000
   41        3.615451   1.000000
   42        3.657759   1.000000
   43        3.744323   1.000000
   44        3.811854   1.000000
   45        3.852953   1.000000
   46        3.954184   1.000000
   47        3.978639   1.000000
   48        4.123349   1.000000
   49        4.140098   1.000000
   50        4.231695   1.000000
   51        4.277767   1.000000
   52        4.350511   1.000000
   53        4.425859   1.000000
   54        4.470317   1.000000
   55        4.529014   1.000000
   56        4.600552   1.000000
   57        4.650929   1.000000
   58        4.715340   1.000000
   59        4.744741   1.000000
   60        4.823061   1.000000
   61        4.917189   1.000000
   62        4.963146   1.000000
   63        5.034136   1.000000
   64        5.127834   1.000000
   65        5.155517   1.000000
   66        5.211847   1.000000
   67        5.253575   1.000000
   68        5.307190   1.000000
   69        5.350675   1.000000
   70        5.385415   1.000000
   71        5.507615   1.000000
   72        5.539996   1.000000
   73        5.583166   1.000000
   74        5.612972   1.000000
   75        5.692275   1.000000
   76        5.720707   1.000000
   77        5.789278   1.000000
   78        5.809228   1.000000
   79        5.867122   1.000000
   80        5.890681   1.000000
   81        5.935196   1.000000
   82        5.947153   1.000000
   83        6.018778   1.000002
   84        6.069474   1.000010
   85        6.114565   1.000042
   86        6.188639   1.000319
   87        6.253327   1.001467
   88        6.313330   1.004844
   89        6.353308   1.009469
   90        6.379503   1.013844
   91        6.451111   1.029502
   92        6.505965   1.035176
   93        6.520962   1.033017
   94        6.584855   0.987098
   95        6.622400   0.920450
   96        6.649795   0.849687
   97        6.715127   0.615018
   98        6.750189   0.467886
   99        6.783281   0.331726
  100        6.855804   0.095803
  101        6.916119  -0.005383
  102        6.936508  -0.021674
  103        7.020220  -0.032197
  104        7.098729  -0.015185
  105        7.179828  -0.004186
  106        7.250164  -0.000976
  107        7.384637  -0.000027
  108        7.459577  -0.000002
  109        7.501996  -0.000001
  110        7.676717  -0.000000
  111        7.775478  -0.000000
  112        7.859275  -0.000000
  113        7.891006  -0.000000
  114        7.988636  -0.000000
  115        8.127485  -0.000000
  116        8.156460  -0.000000
  117        8.226595  -0.000000
  118        8.272200  -0.000000
  119        8.346339  -0.000000
  120        8.467242  -0.000000
 
  0.4285714E+00  0.5551115E-16 -0.4163336E-16  0.5830904E-02
    1      -47.361962   1.000000
    2      -47.331287   1.000000
    3      -47.299652   1.000000
    4      -47.241044   1.000000
    5      -47.185046   1.000000
    6      -47.163913   1.000000
    7      -23.934523   1.000000
    8      -23.859285   1.000000
    9      -23.732317   1.000000
   10      -23.672172   1.000000
   11      -23.576671   1.000000
   12      -23.509025   1.000000
   13      -23.489262   1.000000
   14      -23.484102   1.000000
   15      -23.466923   1.000000
   16      -23.419336   1.000000
   17      -23.398007   1.000000
   18      -23.363670   1.000000
   19      -23.350472   1.000000
   20      -23.308721   1.000000
   21      -23.251480   1.000000
   22      -23.100828   1.000000
   23      -23.032880   1.000000
   24      -22.990113   1.000000
   25        1.186404   1.000000
   26        1.938154   1.000000
   27        2.364908   1.000000
   28        2.601442   1.000000
   29        2.668332   1.000000
   30        2.946441   1.000000
   31        3.024269   1.000000
   32        3.181958   1.000000
   33        3.277221   1.000000
   34        3.357502   1.000000
   35        3.383909   1.000000
   36        3.467088   1.000000
   37        3.516481   1.000000
   38        3.564944   1.000000
   39        3.643660   1.000000
   40        3.695027   1.000000
   41        3.801122   1.000000
   42        3.840546   1.000000
   43        3.878957   1.000000
   44        3.972641   1.000000
   45        4.014830   1.000000
   46        4.097376   1.000000
   47        4.171212   1.000000
   48        4.251412   1.000000
   49        4.277421   1.000000
   50        4.323749   1.000000
   51        4.407391   1.000000
   52        4.468752   1.000000
   53        4.508527   1.000000
   54        4.596674   1.000000
   55        4.646850   1.000000
   56        4.700133   1.000000
   57        4.741880   1.000000
   58        4.809472   1.000000
   59        4.830611   1.000000
   60        4.912259   1.000000
   61        4.934774   1.000000
   62        4.993853   1.000000
   63        5.022256   1.000000
   64        5.056154   1.000000
   65        5.136976   1.000000
   66        5.204775   1.000000
   67        5.261659   1.000000
   68        5.316246   1.000000
   69        5.395472   1.000000
   70        5.440249   1.000000
   71        5.485210   1.000000
   72        5.510325   1.000000
   73        5.543541   1.000000
   74        5.595818   1.000000
   75        5.652430   1.000000
   76        5.681043   1.000000
   77        5.753837   1.000000
   78        5.820268   1.000000
   79        5.859862   1.000000
   80        5.893148   1.000000
   81        5.943865   1.000000
   82        5.975109   1.000000
   83        6.017801   1.000002
   84        6.059066   1.000007
   85        6.112164   1.000039
   86        6.134236   1.000074
   87        6.175944   1.000230
   88        6.214707   1.000607
   89        6.244776   1.001216
   90        6.304583   1.004126
   91        6.354826   1.009692
   92        6.385170   1.014932
   93        6.450982   1.029474
   94        6.474020   1.033636
   95        6.523864   1.032315
   96        6.578457   0.995152
   97        6.631963   0.897884
   98        6.674179   0.771567
   99        6.715303   0.614296
  100        6.741284   0.505542
  101        6.797563   0.276860
  102        6.896212   0.018573
  103        6.939498  -0.023445
  104        6.987591  -0.035458
  105        7.052472  -0.025407
  106        7.155921  -0.006408
  107        7.216467  -0.002035
  108        7.252091  -0.000934
  109        7.399849  -0.000017
  110        7.447524  -0.000004
  111        7.530521  -0.000000
  112        7.676277  -0.000000
  113        7.719566  -0.000000
  114        7.851524  -0.000000
  115        7.913214  -0.000000
  116        7.980969  -0.000000
  117        8.019980  -0.000000
  118        8.181893  -0.000000
  119        8.304813  -0.000000
  120        8.322460  -0.000000
 
 -0.6938894E-17  0.1428571E+00  0.1040834E-16  0.5830904E-02
    1      -47.404677   1.000000
    2      -47.321182   1.000000
    3      -47.285961   1.000000
    4      -47.239792   1.000000
    5      -47.169744   1.000000
    6      -47.163020   1.000000
    7      -24.151828   1.000000
    8      -23.885066   1.000000
    9      -23.835658   1.000000
   10      -23.734229   1.000000
   11      -23.574726   1.000000
   12      -23.550894   1.000000
   13      -23.485300   1.000000
   14      -23.472875   1.000000
   15      -23.443867   1.000000
   16      -23.409275   1.000000
   17      -23.344092   1.000000
   18      -23.340775   1.000000
   19      -23.332933   1.000000
   20      -23.303493   1.000000
   21      -23.097781   1.000000
   22      -23.040086   1.000000
   23      -22.990808   1.000000
   24      -22.845232   1.000000
   25       -0.029650   1.000000
   26        1.254086   1.000000
   27        1.640832   1.000000
   28        2.127555   1.000000
   29        2.484074   1.000000
   30        2.599523   1.000000
   31        2.644614   1.000000
   32        2.784481   1.000000
   33        2.806979   1.000000
   34        2.934359   1.000000
   35        3.014589   1.000000
   36        3.042973   1.000000
   37        3.078705   1.000000
   38        3.173859   1.000000
   39        3.206477   1.000000
   40        3.282299   1.000000
   41        3.399638   1.000000
   42        3.528182   1.000000
   43        3.571804   1.000000
   44        3.632291   1.000000
   45        3.718575   1.000000
   46        3.789724   1.000000
   47        3.853042   1.000000
   48        3.956930   1.000000
   49        3.993598   1.000000
   50        4.071102   1.000000
   51        4.139449   1.000000
   52        4.215636   1.000000
   53        4.314721   1.000000
   54        4.353874   1.000000
   55        4.416584   1.000000
   56        4.426624   1.000000
   57        4.498216   1.000000
   58        4.620572   1.000000
   59        4.704364   1.000000
   60        4.755907   1.000000
   61        4.843980   1.000000
   62        4.953245   1.000000
   63        4.981906   1.000000
   64        5.008098   1.000000
   65        5.089872   1.000000
   66        5.149172   1.000000
   67        5.211733   1.000000
   68        5.228389   1.000000
   69        5.323888   1.000000
   70        5.382316   1.000000
   71        5.416154   1.000000
   72        5.458313   1.000000
   73        5.508289   1.000000
   74        5.542014   1.000000
   75        5.601060   1.000000
   76        5.644293   1.000000
   77        5.750819   1.000000
   78        5.809244   1.000000
   79        5.866082   1.000000
   80        5.934759   1.000000
   81        6.003919   1.000001
   82        6.099104   1.000026
   83        6.160500   1.000153
   84        6.242279   1.001150
   85        6.266674   1.001950
   86        6.296483   1.003541
   87        6.349570   1.008934
   88        6.385296   1.014956
   89        6.413027   1.020871
   90        6.474827   1.033749
   91        6.507197   1.035083
   92        6.552996   1.018854
   93        6.590004   0.979952
   94        6.708139   0.643420
   95        6.798593   0.273033
   96        6.827365   0.174540
   97        6.972463  -0.034489
   98        7.018452  -0.032502
   99        7.049131  -0.026173
  100        7.104635  -0.014042
  101        7.186957  -0.003661
  102        7.260802  -0.000764
  103        7.460159  -0.000002
  104        7.552641  -0.000000
  105        7.605788  -0.000000
  106        7.769184  -0.000000
  107        7.840118  -0.000000
  108        7.958708  -0.000000
  109        8.046865  -0.000000
  110        8.127104  -0.000000
  111        8.208765  -0.000000
  112        8.298594  -0.000000
  113        8.418203  -0.000000
  114        8.462651  -0.000000
  115        8.526920  -0.000000
  116        8.590906  -0.000000
  117        8.664583  -0.000000
  118        8.732110  -0.000000
  119        8.764790  -0.000000
  120        8.829581  -0.000000
 
  0.1428571E+00  0.1428571E+00 -0.1387779E-16  0.5830904E-02
    1      -47.398499   1.000000
    2      -47.321715   1.000000
    3      -47.288118   1.000000
    4      -47.240274   1.000000
    5      -47.172734   1.000000
    6      -47.162741   1.000000
    7      -24.106154   1.000000
    8      -23.884432   1.000000
    9      -23.828645   1.000000
   10      -23.736897   1.000000
   11      -23.578605   1.000000
   12      -23.544775   1.000000
   13      -23.485759   1.000000
   14      -23.474764   1.000000
   15      -23.446584   1.000000
   16      -23.410795   1.000000
   17      -23.348076   1.000000
   18      -23.343580   1.000000
   19      -23.335257   1.000000
   20      -23.304387   1.000000
   21      -23.098841   1.000000
   22      -23.041644   1.000000
   23      -22.989015   1.000000
   24      -22.899320   1.000000
   25        0.064152   1.000000
   26        1.334895   1.000000
   27        1.734738   1.000000
   28        2.376492   1.000000
   29        2.557705   1.000000
   30        2.666993   1.000000
   31        2.780902   1.000000
   32        2.816072   1.000000
   33        2.904434   1.000000
   34        2.984708   1.000000
   35        3.048521   1.000000
   36        3.091167   1.000000
   37        3.161102   1.000000
   38        3.281097   1.000000
   39        3.300195   1.000000
   40        3.343361   1.000000
   41        3.417173   1.000000
   42        3.529476   1.000000
   43        3.662918   1.000000
   44        3.698369   1.000000
   45        3.771494   1.000000
   46        3.796771   1.000000
   47        3.885571   1.000000
   48        4.010385   1.000000
   49        4.064098   1.000000
   50        4.079563   1.000000
   51        4.140171   1.000000
   52        4.264333   1.000000
   53        4.325943   1.000000
   54        4.420209   1.000000
   55        4.431408   1.000000
   56        4.467967   1.000000
   57        4.572676   1.000000
   58        4.677784   1.000000
   59        4.741273   1.000000
   60        4.824506   1.000000
   61        4.863947   1.000000
   62        4.938566   1.000000
   63        4.988911   1.000000
   64        5.027583   1.000000
   65        5.091656   1.000000
   66        5.129655   1.000000
   67        5.215466   1.000000
   68        5.248327   1.000000
   69        5.278004   1.000000
   70        5.337443   1.000000
   71        5.392384   1.000000
   72        5.397180   1.000000
   73        5.491226   1.000000
   74        5.537617   1.000000
   75        5.610876   1.000000
   76        5.653706   1.000000
   77        5.728770   1.000000
   78        5.770843   1.000000
   79        5.886452   1.000000
   80        5.938709   1.000000
   81        5.977329   1.000000
   82        6.040433   1.000004
   83        6.100902   1.000028
   84        6.146489   1.000104
   85        6.193678   1.000363
   86        6.288078   1.003009
   87        6.365990   1.011451
   88        6.394661   1.016854
   89        6.430613   1.024922
   90        6.488558   1.035159
   91        6.515613   1.034057
   92        6.576114   0.997878
   93        6.638280   0.881713
   94        6.742723   0.499456
   95        6.796766   0.279836
   96        6.843461   0.127529
   97        6.884655   0.036580
   98        6.980435  -0.035254
   99        7.002504  -0.034680
  100        7.047656  -0.026510
  101        7.107776  -0.013455
  102        7.158039  -0.006180
  103        7.272387  -0.000580
  104        7.353577  -0.000068
  105        7.437188  -0.000005
  106        7.572492  -0.000000
  107        7.675148  -0.000000
  108        7.785100  -0.000000
  109        7.885284  -0.000000
  110        8.009225  -0.000000
  111        8.151469  -0.000000
  112        8.257202  -0.000000
  113        8.332373  -0.000000
  114        8.457283  -0.000000
  115        8.489756  -0.000000
  116        8.654255  -0.000000
  117        8.695187  -0.000000
  118        8.755814  -0.000000
  119        8.793488  -0.000000
  120        8.837788  -0.000000
 
  0.2857143E+00  0.1428571E+00  0.2775558E-16  0.5830904E-02
    1      -47.381918   1.000000
    2      -47.324084   1.000000
    3      -47.293973   1.000000
    4      -47.240965   1.000000
    5      -47.179636   1.000000
    6      -47.162851   1.000000
    7      -23.999867   1.000000
    8      -23.875749   1.000000
    9      -23.788764   1.000000
   10      -23.737118   1.000000
   11      -23.586263   1.000000
   12      -23.528140   1.000000
   13      -23.487313   1.000000
   14      -23.479268   1.000000
   15      -23.454978   1.000000
   16      -23.414454   1.000000
   17      -23.359436   1.000000
   18      -23.348305   1.000000
   19      -23.343991   1.000000
   20      -23.306314   1.000000
   21      -23.117567   1.000000
   22      -23.083178   1.000000
   23      -23.011782   1.000000
   24      -22.979341   1.000000
   25        0.461759   1.000000
   26        1.652707   1.000000
   27        2.052510   1.000000
   28        2.561011   1.000000
   29        2.626165   1.000000
   30        2.833820   1.000000
   31        2.943248   1.000000
   32        3.068481   1.000000
   33        3.137551   1.000000
   34        3.165049   1.000000
   35        3.248483   1.000000
   36        3.296195   1.000000
   37        3.371154   1.000000
   38        3.441395   1.000000
   39        3.502071   1.000000
   40        3.576198   1.000000
   41        3.594849   1.000000
   42        3.666477   1.000000
   43        3.743162   1.000000
   44        3.852416   1.000000
   45        3.897777   1.000000
   46        3.942310   1.000000
   47        3.999888   1.000000
   48        4.117757   1.000000
   49        4.129187   1.000000
   50        4.199895   1.000000
   51        4.233110   1.000000
   52        4.303975   1.000000
   53        4.392056   1.000000
   54        4.455990   1.000000
   55        4.509544   1.000000
   56        4.594128   1.000000
   57        4.628612   1.000000
   58        4.756137   1.000000
   59        4.811051   1.000000
   60        4.848685   1.000000
   61        4.948790   1.000000
   62        5.004106   1.000000
   63        5.028554   1.000000
   64        5.114481   1.000000
   65        5.140650   1.000000
   66        5.197685   1.000000
   67        5.244925   1.000000
   68        5.272577   1.000000
   69        5.322699   1.000000
   70        5.347634   1.000000
   71        5.424172   1.000000
   72        5.435296   1.000000
   73        5.539348   1.000000
   74        5.575262   1.000000
   75        5.615011   1.000000
   76        5.653946   1.000000
   77        5.755054   1.000000
   78        5.797564   1.000000
   79        5.854551   1.000000
   80        5.904950   1.000000
   81        5.963417   1.000000
   82        6.013051   1.000002
   83        6.056570   1.000007
   84        6.126050   1.000058
   85        6.177340   1.000239
   86        6.233626   1.000946
   87        6.285870   1.002881
   88        6.311078   1.004650
   89        6.342293   1.007956
   90        6.377968   1.013558
   91        6.422520   1.023049
   92        6.517874   1.033656
   93        6.534743   1.028736
   94        6.573761   1.000499
   95        6.617330   0.931476
   96        6.644614   0.864501
   97        6.695839   0.691968
   98        6.768745   0.390386
   99        6.786705   0.318291
  100        6.856412   0.094339
  101        6.885964   0.034381
  102        6.965189  -0.033228
  103        7.007424  -0.034133
  104        7.082461  -0.018576
  105        7.198309  -0.002939
  106        7.306746  -0.000246
  107        7.323415  -0.000158
  108        7.529888  -0.000000
  109        7.651356  -0.000000
  110        7.751085  -0.000000
  111        7.792546  -0.000000
  112        7.981870  -0.000000
  113        8.110441  -0.000000
  114        8.237797  -0.000000
  115        8.289022  -0.000000
  116        8.355522  -0.000000
  117        8.442899  -0.000000
  118        8.510583  -0.000000
  119        8.544051  -0.000000
  120        8.597638  -0.000000
 
  0.4285714E+00  0.1428571E+00 -0.2081668E-16  0.5830904E-02
    1      -47.361967   1.000000
    2      -47.331334   1.000000
    3      -47.299868   1.000000
    4      -47.241355   1.000000
    5      -47.185039   1.000000
    6      -47.163339   1.000000
    7      -23.934863   1.000000
    8      -23.862759   1.000000
    9      -23.735953   1.000000
   10      -23.672317   1.000000
   11      -23.576670   1.000000
   12      -23.508988   1.000000
   13      -23.489272   1.000000
   14      -23.484099   1.000000
   15      -23.466872   1.000000
   16      -23.419314   1.000000
   17      -23.397976   1.000000
   18      -23.363600   1.000000
   19      -23.350525   1.000000
   20      -23.308832   1.000000
   21      -23.251448   1.000000
   22      -23.099190   1.000000
   23      -23.027717   1.000000
   24      -22.987999   1.000000
   25        1.097528   1.000000
   26        1.962716   1.000000
   27        2.297397   1.000000
   28        2.521623   1.000000
   29        2.652132   1.000000
   30        2.776618   1.000000
   31        3.074420   1.000000
   32        3.260957   1.000000
   33        3.350221   1.000000
   34        3.394234   1.000000
   35        3.415494   1.000000
   36        3.467377   1.000000
   37        3.565638   1.000000
   38        3.596958   1.000000
   39        3.669751   1.000000
   40        3.724506   1.000000
   41        3.792575   1.000000
   42        3.832027   1.000000
   43        3.855636   1.000000
   44        3.950999   1.000000
   45        4.022342   1.000000
   46        4.085471   1.000000
   47        4.109084   1.000000