 running on   96 total cores
 distrk:  each k-point on   96 cores,    1 groups
 distr:  one band on    8 cores,   12 groups
 using from now: INCAR     
 vasp.5.4.4.18Apr17-6-g9f103f2a35 (build Aug 09 2018 16:20:53) complex          
  
 POSCAR found :  5 types and      29 ions
 scaLAPACK will be used

 ----------------------------------------------------------------------------- 
|                                                                             |
|  ADVICE TO THIS USER RUNNING 'VASP/VAMP'   (HEAR YOUR MASTER'S VOICE ...):  |
|                                                                             |
|      You enforced a specific xc-type in the INCAR file,                     |
|      a different type was found on the POTCAR file                          |
|          I HOPE YOU KNOW, WHAT YOU ARE  DOING                               |
|                                                                             |
 ----------------------------------------------------------------------------- 

 LDA part: xc-table for Pade appr. of Perdew
 POSCAR found :  5 types and      29 ions
 POSCAR, INCAR and KPOINTS ok, starting setup
 FFT: planning ...
 WAVECAR not read
 initial charge from wavefunction
 entering main loop
       N       E                     dE             d eps       ncg     rms          rms(c)
DAV:   1    -0.403101807315E+04   -0.40310E+04   -0.16423E+05 61224   0.199E+03
DAV:   2    -0.954510947438E+04   -0.55141E+04   -0.52587E+04 72204   0.123E+03
DAV:   3    -0.104549635462E+05   -0.90985E+03   -0.87742E+03 82560   0.532E+02
DAV:   4    -0.107157982017E+05   -0.26083E+03   -0.23989E+03 82560   0.241E+02
DAV:   5    -0.108845244618E+05   -0.16873E+03   -0.15395E+03 82560   0.180E+02    0.597E+03
DAV:   6    -0.983043752254E+03    0.99015E+04   -0.25153E+04 62220   0.630E+02    0.273E+03
DAV:   7    -0.809472796223E+03    0.17357E+03   -0.17163E+04 71640   0.554E+02    0.210E+03
DAV:   8    -0.640786230803E+03    0.16869E+03   -0.54056E+03 73848   0.388E+02    0.188E+03
DAV:   9    -0.542546773963E+03    0.98239E+02   -0.99753E+02 71952   0.108E+02    0.178E+03
DAV:  10    -0.658548085949E+03   -0.11600E+03   -0.34311E+02 81060   0.622E+01    0.183E+03
DAV:  11    -0.631506733112E+03    0.27041E+02   -0.39443E+02 74292   0.716E+01    0.169E+03
DAV:  12    -0.810748040260E+03   -0.17924E+03   -0.42390E+03 71244   0.410E+02    0.119E+03
DAV:  13    -0.845043615656E+03   -0.34296E+02   -0.10136E+03 74664   0.105E+02    0.903E+02
DAV:  14    -0.608190759405E+03    0.23685E+03   -0.17229E+03 67584   0.155E+02    0.739E+02
DAV:  15    -0.651769926234E+03   -0.43579E+02   -0.22244E+03 66264   0.250E+02    0.442E+02
DAV:  16    -0.578578224181E+03    0.73192E+02   -0.82553E+02 75684   0.112E+02    0.331E+02
DAV:  17    -0.429999763947E+03    0.14858E+03   -0.10970E+03 73404   0.159E+02    0.166E+02
DAV:  18    -0.376751054184E+03    0.53249E+02   -0.64688E+02 71964   0.107E+02    0.149E+02
DAV:  19    -0.360127684224E+03    0.16623E+02   -0.28211E+02 65616   0.941E+01    0.128E+02
DAV:  20    -0.340575882138E+03    0.19552E+02   -0.15220E+02 75024   0.638E+01    0.106E+02
DAV:  21    -0.330797367892E+03    0.97785E+01   -0.14045E+02 70500   0.584E+01    0.963E+01
DAV:  22    -0.326238876260E+03    0.45585E+01   -0.61851E+01 64464   0.333E+01    0.809E+01
DAV:  23    -0.326157156436E+03    0.81720E-01   -0.77311E+01 71988   0.453E+01    0.703E+01
DAV:  24    -0.313688842943E+03    0.12468E+02   -0.42035E+01 77832   0.279E+01    0.515E+01
DAV:  25    -0.310609166496E+03    0.30797E+01   -0.23737E+01 69972   0.227E+01    0.423E+01
DAV:  26    -0.310098486927E+03    0.51068E+00   -0.45010E+00 75480   0.866E+00    0.401E+01
DAV:  27    -0.310168189488E+03   -0.69703E-01   -0.27211E+00 68760   0.672E+00    0.376E+01
DAV:  28    -0.309466295055E+03    0.70189E+00   -0.39449E+00 69252   0.880E+00    0.332E+01
DAV:  29    -0.308530484097E+03    0.93581E+00   -0.26894E+00 71916   0.627E+00    0.263E+01
DAV:  30    -0.308811532729E+03   -0.28105E+00   -0.42917E+00 69060   0.832E+00    0.242E+01
DAV:  31    -0.308205692318E+03    0.60584E+00   -0.13127E+00 75048   0.509E+00    0.207E+01
DAV:  32    -0.308107640173E+03    0.98052E-01   -0.19668E+00 71736   0.487E+00    0.174E+01
DAV:  33    -0.308042389997E+03    0.65250E-01   -0.77088E-01 72924   0.330E+00    0.140E+01
DAV:  34    -0.307953345637E+03    0.89044E-01   -0.55212E-01 67200   0.255E+00    0.112E+01
DAV:  35    -0.307693442603E+03    0.25990E+00   -0.66192E-01 66576   0.344E+00    0.811E+00
DAV:  36    -0.307656608834E+03    0.36834E-01   -0.19968E-01 69012   0.167E+00    0.746E+00
DAV:  37    -0.307632802343E+03    0.23806E-01   -0.18174E-01 69180   0.177E+00    0.631E+00
DAV:  38    -0.307628123899E+03    0.46784E-02   -0.43089E-02 69336   0.815E-01    0.561E+00
DAV:  39    -0.307617764612E+03    0.10359E-01   -0.32969E-02 66984   0.762E-01    0.470E+00
DAV:  40    -0.307605395609E+03    0.12369E-01   -0.73806E-02 66504   0.116E+00    0.338E+00
DAV:  41    -0.307590721824E+03    0.14674E-01   -0.15337E-02 66312   0.520E-01    0.309E+00
DAV:  42    -0.307575699474E+03    0.15022E-01   -0.35288E-02 61728   0.752E-01    0.250E+00
DAV:  43    -0.307563940255E+03    0.11759E-01   -0.21285E-02 64140   0.634E-01    0.195E+00
DAV:  44    -0.307559195870E+03    0.47444E-02   -0.60803E-03 66048   0.319E-01    0.144E+00
DAV:  45    -0.307555648554E+03    0.35473E-02   -0.10030E-02 58704   0.438E-01    0.953E-01
DAV:  46    -0.307553874759E+03    0.17738E-02   -0.48561E-03 63012   0.296E-01    0.594E-01
DAV:  47    -0.307554787098E+03   -0.91234E-03   -0.12772E-02 59412   0.500E-01    0.601E-01
DAV:  48    -0.307554088160E+03    0.69894E-03   -0.14045E-03 57636   0.159E-01    0.493E-01
DAV:  49    -0.307553103499E+03    0.98466E-03   -0.17277E-03 55632   0.178E-01    0.357E-01
DAV:  50    -0.307552989567E+03    0.11393E-03   -0.20023E-04 30552   0.785E-02    0.317E-01
DAV:  51    -0.307552552885E+03    0.43668E-03   -0.20899E-03 58980   0.195E-01    0.211E-01
DAV:  52    -0.307552533790E+03    0.19095E-04   -0.68362E-05 26844   0.457E-02
   1 F= -.30755253E+03 E0= -.30754572E+03  d E =-.307553E+03
 curvature:   0.00 expect dE= 0.000E+00 dE for cont linesearch  0.000E+00
 trial: gam= 0.00000 g(F)=  0.895E+00 g(S)=  0.156E+00 ort = 0.000E+00 (trialstep = 0.100E+01)
 search vector abs. value=  0.105E+01
 bond charge predicted
       N       E                     dE             d eps       ncg     rms          rms(c)
DAV:   1    -0.308263818382E+03   -0.71127E+00   -0.12627E+02 42204   0.422E+01    0.824E+00
DAV:   2    -0.310863522889E+03   -0.25997E+01   -0.26659E+01 74028   0.293E+01    0.125E+01
DAV:   3    -0.308734250676E+03    0.21293E+01   -0.15844E+01 73320   0.161E+01    0.601E+00
DAV:   4    -0.308681695970E+03    0.52555E-01   -0.64853E+00 68784   0.116E+01    0.636E+00
DAV:   5    -0.308470285847E+03    0.21141E+00   -0.44990E+00 67344   0.998E+00    0.426E+00
DAV:   6    -0.308293641031E+03    0.17664E+00   -0.17884E+00 69708   0.564E+00    0.253E+00
DAV:   7    -0.308277995804E+03    0.15645E-01   -0.96324E-01 71352   0.436E+00    0.223E+00
DAV:   8    -0.308255816573E+03    0.22179E-01   -0.44475E-01 77208   0.319E+00    0.141E+00
DAV:   9    -0.308241583864E+03    0.14233E-01   -0.17565E-01 77952   0.174E+00    0.988E-01
DAV:  10    -0.308237063869E+03    0.45200E-02   -0.66785E-02 70464   0.117E+00    0.741E-01
DAV:  11    -0.308237147108E+03   -0.83239E-04   -0.33085E-02 65988   0.799E-01    0.636E-01
DAV:  12    -0.308238258745E+03   -0.11116E-02   -0.24227E-02 72276   0.611E-01    0.412E-01
DAV:  13    -0.308239634941E+03   -0.13762E-02   -0.21347E-02 74808   0.577E-01    0.335E-01
DAV:  14    -0.308239660898E+03   -0.25958E-04   -0.20695E-02 66348   0.643E-01    0.328E-01
DAV:  15    -0.308238717546E+03    0.94335E-03   -0.86264E-03 63060   0.430E-01    0.118E-01
DAV:  16    -0.308238581471E+03    0.13608E-03   -0.21536E-03 61308   0.173E-01    0.751E-02
DAV:  17    -0.308238548931E+03    0.32540E-04   -0.56304E-04 43152   0.121E-01
   2 F= -.30823855E+03 E0= -.30823211E+03  d E =-.686015E+00
 trial-energy change:   -0.686015  1 .order   -0.682066   -1.051259   -0.312874
 step:   1.4054(harm=  1.4237)  dis= 0.09577  next Energy=  -308.302238 (dE=-0.750E+00)
 bond charge predicted
       N       E                     dE             d eps       ncg     rms          rms(c)
DAV:   1    -0.308276864877E+03   -0.38283E-01   -0.20686E+01 41280   0.173E+01    0.345E+00
DAV:   2    -0.308718935162E+03   -0.44207E+00   -0.45027E+00 72648   0.122E+01    0.537E+00
DAV:   3    -0.308384832612E+03    0.33410E+00   -0.29617E+00 72000   0.739E+00    0.257E+00
DAV:   4    -0.308382710429E+03    0.21222E-02   -0.11561E+00 69468   0.480E+00    0.274E+00
DAV:   5    -0.308331207108E+03    0.51503E-01   -0.74792E-01 65940   0.399E+00    0.168E+00
DAV:   6    -0.308307717793E+03    0.23489E-01   -0.31246E-01 69000   0.240E+00    0.112E+00
DAV:   7    -0.308303412157E+03    0.43056E-02   -0.16840E-01 70788   0.188E+00    0.911E-01
DAV:   8    -0.308299686914E+03    0.37252E-02   -0.78017E-02 76800   0.129E+00    0.595E-01
DAV:   9    -0.308297142728E+03    0.25442E-02   -0.26914E-02 71892   0.721E-01    0.420E-01
DAV:  10    -0.308296438071E+03    0.70466E-03   -0.11103E-02 63012   0.484E-01    0.315E-01
DAV:  11    -0.308296614646E+03   -0.17657E-03   -0.60962E-03 61404   0.344E-01    0.276E-01
DAV:  12    -0.308296868060E+03   -0.25341E-03   -0.53871E-03 64044   0.297E-01    0.166E-01
DAV:  13    -0.308296937872E+03   -0.69812E-04   -0.41408E-03 70272   0.259E-01    0.120E-01
DAV:  14    -0.308296932652E+03    0.52205E-05   -0.28787E-03 59700   0.250E-01    0.118E-01
DAV:  15    -0.308296807335E+03    0.12532E-03   -0.11854E-03 52548   0.182E-01    0.459E-02
DAV:  16    -0.308296777954E+03    0.29381E-04   -0.18903E-04 28056   0.886E-02
   3 F= -.30829678E+03 E0= -.30829066E+03  d E =-.744244E+00
 curvature:  -0.71 expect dE=-0.903E+00 dE for cont linesearch -0.314E-03
 trial: gam= 1.22905 g(F)=  0.259E+00 g(S)=  0.101E+01 ort =-0.216E-01 (trialstep = 0.405E+00)
 search vector abs. value=  0.281E+01
 bond charge predicted
       N       E                     dE             d eps       ncg     rms          rms(c)
DAV:   1    -0.308540358339E+03   -0.24355E+00   -0.53694E+01 41652   0.278E+01    0.514E+00
DAV:   2    -0.309398257559E+03   -0.85790E+00   -0.97208E+00 70500   0.157E+01    0.746E+00
DAV:   3    -0.308831886771E+03    0.56637E+00   -0.66728E+00 71988   0.111E+01    0.401E+00
DAV:   4    -0.308861423743E+03   -0.29537E-01   -0.25057E+00 69192   0.695E+00    0.448E+00
DAV:   5    -0.308685203957E+03    0.17622E+00   -0.16628E+00 66480   0.603E+00    0.186E+00
DAV:   6    -0.308657701366E+03    0.27503E-01   -0.45469E-01 72072   0.297E+00    0.133E+00
DAV:   7    -0.308652193697E+03    0.55077E-02   -0.25797E-01 74484   0.255E+00    0.127E+00
DAV:   8    -0.308639500508E+03    0.12693E-01   -0.13791E-01 70968   0.185E+00    0.628E-01
DAV:   9    -0.308637607088E+03    0.18934E-02   -0.33380E-02 72000   0.892E-01    0.503E-01
DAV:  10    -0.308636995354E+03    0.61173E-03   -0.18957E-02 64932   0.640E-01    0.389E-01
DAV:  11    -0.308637233057E+03   -0.23770E-03   -0.67922E-03 66180   0.364E-01    0.277E-01
DAV:  12    -0.308637997260E+03   -0.76420E-03   -0.80403E-03 65844   0.319E-01    0.221E-01
DAV:  13    -0.308637774152E+03    0.22311E-03   -0.67222E-03 70608   0.336E-01    0.154E-01
DAV:  14    -0.308637769549E+03    0.46027E-05   -0.42001E-03 57648   0.308E-01    0.146E-01
DAV:  15    -0.308637583867E+03    0.18568E-03   -0.17143E-03 57828   0.190E-01    0.494E-02
DAV:  16    -0.308637555313E+03    0.28554E-04   -0.28753E-04 34512   0.846E-02
   4 F= -.30863756E+03 E0= -.30863114E+03  d E =-.340777E+00
 trial-energy change:   -0.340777  1 .order   -0.343882   -0.503939   -0.183824
 step:   0.6622(harm=  0.6377)  dis= 0.06842  next Energy=  -308.695090 (dE=-0.398E+00)
 bond charge predicted
       N       E                     dE             d eps       ncg     rms          rms(c)
DAV:   1    -0.308655443016E+03   -0.17859E-01   -0.21462E+01 41400   0.175E+01    0.320E+00
DAV:   2    -0.308997081630E+03   -0.34164E+00   -0.38890E+00 70476   0.993E+00    0.471E+00
DAV:   3    -0.308772741063E+03    0.22434E+00   -0.26944E+00 71412   0.722E+00    0.253E+00
DAV:   4    -0.308780304585E+03   -0.75635E-02   -0.97263E-01 68796   0.433E+00    0.278E+00
DAV:   5    -0.308711641678E+03    0.68663E-01   -0.63780E-01 67704   0.364E+00    0.116E+00
DAV:   6    -0.308701759272E+03    0.98824E-02   -0.17661E-01 72048   0.186E+00    0.850E-01
DAV:   7    -0.308699116482E+03    0.26428E-02   -0.10112E-01 74700   0.159E+00    0.775E-01
DAV:   8    -0.308694438484E+03    0.46780E-02   -0.51252E-02 71184   0.112E+00    0.400E-01
DAV:   9    -0.308693741068E+03    0.69742E-03   -0.13827E-02 68964   0.566E-01    0.321E-01
DAV:  10    -0.308693448501E+03    0.29257E-03   -0.75621E-03 58524   0.403E-01    0.242E-01
DAV:  11    -0.308693602681E+03   -0.15418E-03   -0.28553E-03 62700   0.240E-01    0.176E-01
DAV:  12    -0.308693855245E+03   -0.25256E-03   -0.34815E-03 61368   0.219E-01    0.134E-01
DAV:  13    -0.308693753582E+03    0.10166E-03   -0.26654E-03 68064   0.212E-01    0.828E-02
DAV:  14    -0.308693760453E+03   -0.68709E-05   -0.14338E-03 57432   0.184E-01    0.824E-02
DAV:  15    -0.308693692392E+03    0.68061E-04   -0.46654E-04 40812   0.124E-01
   5 F= -.30869369E+03 E0= -.30868707E+03  d E =-.396914E+00
 curvature:  -0.71 expect dE=-0.124E+00 dE for cont linesearch -0.393E-04
 trial: gam= 0.08467 g(F)=  0.164E+00 g(S)=  0.980E-02 ort =-0.125E-01 (trialstep = 0.457E+00)
 search vector abs. value=  0.192E+00
 bond charge predicted
       N       E                     dE             d eps       ncg     rms          rms(c)
DAV:   1    -0.308750323886E+03   -0.56563E-01   -0.40348E+00 41988   0.638E+00    0.647E-01
DAV:   2    -0.308787327260E+03   -0.37003E-01   -0.35058E-01 70416   0.310E+00    0.133E+00
DAV:   3    -0.308768364903E+03    0.18962E-01   -0.17532E-01 70668   0.201E+00    0.608E-01
DAV:   4    -0.308768053743E+03    0.31116E-03   -0.53921E-02 66072   0.104E+00    0.582E-01
DAV:   5    -0.308765164291E+03    0.28895E-02   -0.27428E-02 62772   0.752E-01    0.290E-01
DAV:   6    -0.308764793696E+03    0.37060E-03   -0.11745E-02 67536   0.450E-01    0.252E-01
DAV:   7    -0.308764587299E+03    0.20640E-03   -0.67635E-03 61452   0.428E-01    0.220E-01
DAV:   8    -0.308764249180E+03    0.33812E-03   -0.55715E-03 63888   0.351E-01    0.145E-01
DAV:   9    -0.308763965314E+03    0.28387E-03   -0.16038E-03 58284   0.195E-01    0.571E-02
DAV:  10    -0.308763949589E+03    0.15726E-04   -0.46279E-04 39312   0.119E-01
   6 F= -.30876395E+03 E0= -.30875742E+03  d E =-.702572E-01
 ZBRENT: can't locate minimum, use default step
 trial-energy change:   -0.070257  1 .order   -0.070359   -0.078862   -0.061855
 step:   1.8261(harm=  2.1168)  dis= 0.04283  next Energy=  -308.876531 (dE=-0.183E+00)
 bond charge predicted
       N       E                     dE             d eps       ncg     rms          rms(c)
DAV:   1    -0.308749010831E+03    0.14954E-01   -0.36305E+01 42024   0.192E+01    0.198E+00
DAV:   2    -0.309075247156E+03   -0.32624E+00   -0.31661E+00 70908   0.919E+00    0.381E+00
DAV:   3    -0.308915039438E+03    0.16021E+00   -0.15293E+00 70980   0.589E+00    0.186E+00
DAV:   4    -0.308907614599E+03    0.74248E-02   -0.47632E-01 68040   0.305E+00    0.167E+00
DAV:   5    -0.308884856737E+03    0.22758E-01   -0.24154E-01 65712   0.224E+00    0.888E-01
DAV:   6    -0.308880941119E+03    0.39156E-02   -0.10578E-01 71784   0.133E+00    0.744E-01
DAV:   7    -0.308879827213E+03    0.11139E-02   -0.62719E-02 72672   0.127E+00    0.685E-01
DAV:   8    -0.308876409599E+03    0.34176E-02   -0.51505E-02 71040   0.109E+00    0.448E-01
DAV:   9    -0.308873740904E+03    0.26687E-02   -0.14906E-02 67236   0.564E-01    0.170E-01
DAV:  10    -0.308873700738E+03    0.40167E-04   -0.54986E-03 66000   0.324E-01    0.159E-01
DAV:  11    -0.308873590090E+03    0.11065E-03   -0.30776E-03 58428   0.259E-01    0.974E-02
DAV:  12    -0.308873510780E+03    0.79310E-04   -0.12065E-03 55620   0.154E-01    0.550E-02
DAV:  13    -0.308873462471E+03    0.48309E-04   -0.24272E-04 33300   0.809E-02
   7 F= -.30887346E+03 E0= -.30886745E+03  d E =-.179770E+00
 curvature:  -1.14 expect dE=-0.695E-01 dE for cont linesearch -0.316E-02
 ZBRENT: extrapolating
 opt :   2.1068  next Energy=  -308.876698 (dE=-0.183E+00)
 bond charge predicted
       N       E                     dE             d eps       ncg     rms          rms(c)
DAV:   1    -0.308871987920E+03    0.15229E-02   -0.15296E+00 42336   0.392E+00    0.393E-01
DAV:   2    -0.308886275269E+03   -0.14287E-01   -0.13608E-01 70668   0.191E+00    0.827E-01
DAV:   3    -0.308878568166E+03    0.77071E-02   -0.68106E-02 70872   0.125E+00    0.366E-01
DAV:   4    -0.308878340138E+03    0.22803E-03   -0.19697E-02 60348   0.626E-01    0.339E-01
DAV:   5    -0.308877414589E+03    0.92555E-03   -0.10182E-02 60072   0.463E-01    0.182E-01
DAV:   6    -0.308877222756E+03    0.19183E-03   -0.43660E-03 63564   0.281E-01    0.148E-01
DAV:   7    -0.308877137123E+03    0.85633E-04   -0.24944E-03 61200   0.262E-01    0.127E-01
DAV:   8    -0.308877052993E+03    0.84131E-04   -0.20688E-03 61584   0.224E-01    0.948E-02
DAV:   9    -0.308876925071E+03    0.12792E-03   -0.59438E-04 45228   0.130E-01    0.337E-02
DAV:  10    -0.308876917762E+03    0.73087E-05   -0.13167E-04 26832   0.790E-02
   8 F= -.30887692E+03 E0= -.30887105E+03  d E =-.183225E+00
 curvature:  -1.17 expect dE=-0.864E-01 dE for cont linesearch -0.225E-05
 trial: gam= 0.40798 g(F)=  0.537E-01 g(S)=  0.203E-01 ort = 0.608E-03 (trialstep = 0.787E+00)
 search vector abs. value=  0.106E+00
 bond charge predicted
       N       E                     dE             d eps       ncg     rms          rms(c)
DAV:   1    -0.308924517233E+03   -0.47592E-01   -0.71767E+00 41316   0.107E+01    0.232E+00
DAV:   2    -0.308965474738E+03   -0.40958E-01   -0.10513E+00 72420   0.524E+00    0.184E+00
DAV:   3    -0.308968076794E+03   -0.26021E-02   -0.74658E-01 72468   0.379E+00    0.193E+00
DAV:   4    -0.308936589429E+03    0.31487E-01   -0.42731E-01 69504   0.302E+00    0.134E+00
DAV:   5    -0.308921577068E+03    0.15012E-01   -0.21854E-01 68976   0.227E+00    0.954E-01
DAV:   6    -0.308914614758E+03    0.69623E-02   -0.95390E-02 73080   0.142E+00    0.533E-01
DAV:   7    -0.308913523396E+03    0.10914E-02   -0.43806E-02 72612   0.895E-01    0.476E-01
DAV:   8    -0.308912746574E+03    0.77682E-03   -0.25046E-02 65712   0.714E-01    0.358E-01
DAV:   9    -0.308911838356E+03    0.90822E-03   -0.84914E-03 64116   0.407E-01    0.201E-01
DAV:  10    -0.308911924628E+03   -0.86272E-04   -0.34012E-03 61728   0.257E-01    0.188E-01
DAV:  11    -0.308912028791E+03   -0.10416E-03   -0.21140E-03 60432   0.213E-01    0.138E-01
DAV:  12    -0.308912151198E+03   -0.12241E-03   -0.21709E-03 59160   0.226E-01    0.106E-01
DAV:  13    -0.308912114134E+03    0.37064E-04   -0.16772E-03 65172   0.183E-01    0.460E-02
DAV:  14    -0.308912095366E+03    0.18768E-04   -0.25526E-04 31224   0.963E-02
   9 F= -.30891210E+03 E0= -.30890692E+03  d E =-.351776E-01
 trial-energy change:   -0.035178  1 .order   -0.035239   -0.058373   -0.012105
 step:   0.9924(harm=  0.9924)  dis= 0.01990  next Energy=  -308.913740 (dE=-0.368E-01)
 bond charge predicted
       N       E                     dE             d eps       ncg     rms          rms(c)
DAV:   1    -0.308914189362E+03   -0.20752E-02   -0.49202E-01 41532   0.282E+00    0.599E-01
DAV:   2    -0.308916950026E+03   -0.27607E-02   -0.69790E-02 72024   0.135E+00    0.474E-01
DAV:   3    -0.308917272738E+03   -0.32271E-03   -0.50190E-02 72384   0.989E-01    0.502E-01
DAV:   4    -0.308915182405E+03    0.20903E-02   -0.29102E-02 64992   0.775E-01    0.349E-01
DAV:   5    -0.308914147590E+03    0.10348E-02   -0.14661E-02 65640   0.582E-01    0.245E-01
DAV:   6    -0.308913688229E+03    0.45936E-03   -0.63092E-03 65376   0.369E-01    0.135E-01
DAV:   7    -0.308913625843E+03    0.62386E-04   -0.27720E-03 62424   0.234E-01    0.121E-01
DAV:   8    -0.308913582244E+03    0.43599E-04   -0.15694E-03 57444   0.187E-01    0.917E-02
DAV:   9    -0.308913513891E+03    0.68352E-04   -0.38784E-04 36492   0.109E-01
  10 F= -.30891351E+03 E0= -.30890853E+03  d E =-.365961E-01
 curvature:  -0.71 expect dE=-0.588E-01 dE for cont linesearch -0.198E-05
 trial: gam= 1.10944 g(F)=  0.257E-01 g(S)=  0.570E-01 ort =-0.544E-03 (trialstep = 0.415E+00)
 search vector abs. value=  0.212E+00
 bond charge predicted
       N       E                     dE             d eps       ncg     rms          rms(c)
DAV:   1    -0.308924731146E+03   -0.11149E-01   -0.36166E+00 41280   0.653E+00    0.839E-01
DAV:   2    -0.308952849444E+03   -0.28118E-01   -0.36382E-01 68544   0.278E+00    0.937E-01
DAV:   3    -0.308948552215E+03    0.42972E-02   -0.16504E-01 70368   0.180E+00    0.851E-01
DAV:   4    -0.308943665433E+03    0.48868E-02   -0.62986E-02 67500   0.119E+00    0.482E-01
DAV:   5    -0.308941725871E+03    0.19396E-02   -0.25399E-02 68304   0.729E-01    0.379E-01
DAV:   6    -0.308941195741E+03    0.53013E-03   -0.21024E-02 69780   0.696E-01    0.332E-01
DAV:   7    -0.308940553501E+03    0.64224E-03   -0.11489E-02 67092   0.478E-01    0.219E-01
DAV:   8    -0.308940200198E+03    0.35330E-03   -0.57128E-03 58176   0.364E-01    0.144E-01
DAV:   9    -0.308940002080E+03    0.19812E-03   -0.16028E-03 57804   0.196E-01    0.765E-02
DAV:  10    -0.308939963020E+03    0.39060E-04   -0.37346E-04 36840   0.113E-01
  11 F= -.30893996E+03 E0= -.30893532E+03  d E =-.264491E-01
 trial-energy change:   -0.026449  1 .order   -0.026595   -0.034022   -0.019168
 step:   0.9495(harm=  0.9495)  dis= 0.03254  next Energy=  -308.952476 (dE=-0.390E-01)
 bond charge predicted
       N       E                     dE             d eps       ncg     rms          rms(c)
DAV:   1    -0.308926626962E+03    0.13375E-01   -0.60308E+00 41280   0.845E+00    0.106E+00
DAV:   2    -0.308973960662E+03   -0.47334E-01   -0.60414E-01 68448   0.358E+00    0.123E+00
DAV:   3    -0.308966464016E+03    0.74966E-02   -0.28074E-01 70344   0.233E+00    0.110E+00
DAV:   4    -0.308958386937E+03    0.80771E-02   -0.10350E-01 67872   0.152E+00    0.604E-01
DAV:   5    -0.308955218763E+03    0.31682E-02   -0.41662E-02 70920   0.923E-01    0.469E-01
DAV:   6    -0.308954430174E+03    0.78859E-03   -0.32680E-02 71592   0.872E-01    0.416E-01
DAV:   7    -0.308953452902E+03    0.97727E-03   -0.17856E-02 68148   0.598E-01    0.275E-01
DAV:   8    -0.308952853923E+03    0.59898E-03   -0.83785E-03 58224   0.437E-01    0.173E-01
DAV:   9    -0.308952611992E+03    0.24193E-03   -0.23144E-03 59628   0.232E-01    0.105E-01
DAV:  10    -0.308952574194E+03    0.37797E-04   -0.74459E-04 47484   0.135E-01
  12 F= -.30895257E+03 E0= -.30894839E+03  d E =-.390603E-01
 curvature:  -1.23 expect dE=-0.239E-01 dE for cont linesearch -0.189E-04
 trial: gam= 0.15343 g(F)=  0.189E-01 g(S)=  0.485E-03 ort = 0.181E-02 (trialstep = 0.522E+00)
 search vector abs. value=  0.250E-01
 bond charge predicted
       N       E                     dE             d eps       ncg     rms          rms(c)
DAV:   1    -0.308959264049E+03   -0.66521E-02   -0.59137E-01 41316   0.252E+00    0.284E-01
DAV:   2    -0.308964819836E+03   -0.55558E-02   -0.57661E-02 70128   0.130E+00    0.517E-01
DAV:   3    -0.308962342947E+03    0.24769E-02   -0.22903E-02 69744   0.822E-01    0.221E-01
DAV:   4    -0.308962076483E+03    0.26646E-03   -0.56340E-03 62700   0.346E-01    0.179E-01
DAV:   5    -0.308961872024E+03    0.20446E-03   -0.38479E-03 58212   0.268E-01    0.142E-01
DAV:   6    -0.308961771178E+03    0.10085E-03   -0.24306E-03 57528   0.231E-01    0.106E-01
DAV:   7    -0.308961701968E+03    0.69209E-04   -0.11203E-03 52908   0.156E-01    0.736E-02
DAV:   8    -0.308961663716E+03    0.38252E-04   -0.69379E-04 46620   0.147E-01
  13 F= -.30896166E+03 E0= -.30895754E+03  d E =-.908952E-02
 ZBRENT: can't locate minimum, use default step
 trial-energy change:   -0.009090  1 .order   -0.009158   -0.010277   -0.008038
 step:   2.0863(harm=  2.3939)  dis= 0.03192  next Energy=  -308.976160 (dE=-0.236E-01)
 bond charge predicted
       N       E                     dE             d eps       ncg     rms          rms(c)
DAV:   1    -0.308954692387E+03    0.70096E-02   -0.53088E+00 41280   0.757E+00    0.833E-01
DAV:   2    -0.309000182783E+03   -0.45490E-01   -0.49866E-01 70020   0.373E+00    0.142E+00
DAV:   3    -0.308982850491E+03    0.17332E-01   -0.19358E-01 69672   0.235E+00    0.701E-01
DAV:   4    -0.308979820917E+03    0.30296E-02   -0.52913E-02 71412   0.108E+00    0.532E-01
DAV:   5    -0.308977934797E+03    0.18861E-02   -0.33339E-02 63180   0.750E-01    0.414E-01
DAV:   6    -0.308977006984E+03    0.92781E-03   -0.20886E-02 66744   0.659E-01    0.312E-01
DAV:   7    -0.308976635922E+03    0.37106E-03   -0.11466E-02 75984   0.448E-01    0.233E-01
DAV:   8    -0.308976078159E+03    0.55776E-03   -0.63751E-03 65724   0.367E-01    0.140E-01
DAV:   9    -0.308975900346E+03    0.17781E-03   -0.18153E-03 57732   0.206E-01    0.940E-02
DAV:  10    -0.308975857954E+03    0.42392E-04   -0.64923E-04 46140   0.126E-01
  14 F= -.30897586E+03 E0= -.30897190E+03  d E =-.232838E-01
 curvature:  -1.48 expect dE=-0.340E-01 dE for cont linesearch -0.541E-03
 trial: gam= 1.04120 g(F)=  0.725E-02 g(S)=  0.158E-01 ort = 0.303E-02 (trialstep = 0.369E+00)
 search vector abs. value=  0.564E-01
 bond charge predicted
       N       E                     dE             d eps       ncg     rms          rms(c)
DAV:   1    -0.308986602439E+03   -0.10702E-01   -0.70693E-01 41592   0.344E+00    0.816E-01
DAV:   2    -0.308990094213E+03   -0.34918E-02   -0.10864E-01 71508   0.167E+00    0.689E-01
DAV:   3    -0.308991472522E+03   -0.13783E-02   -0.11060E-01 70380   0.156E+00    0.828E-01
DAV:   4    -0.308986492532E+03    0.49800E-02   -0.64160E-02 63072   0.125E+00    0.477E-01
DAV:   5    -0.308983931639E+03    0.25609E-02   -0.24792E-02 72936   0.659E-01    0.253E-01
DAV:   6    -0.308983529062E+03    0.40258E-03   -0.10173E-02 71880   0.415E-01    0.196E-01
DAV:   7    -0.308983292053E+03    0.23701E-03   -0.45014E-03 62904   0.317E-01    0.146E-01
DAV:   8    -0.308983196405E+03    0.95649E-04   -0.23178E-03 63264   0.211E-01    0.101E-01
DAV:   9    -0.308983135273E+03    0.61131E-04   -0.91931E-04 51288   0.134E-01
  15 F= -.30898314E+03 E0= -.30897929E+03  d E =-.727732E-02
 trial-energy change:   -0.007277  1 .order   -0.007251   -0.009679   -0.004822
 step:   0.7362(harm=  0.7362)  dis= 0.01472  next Energy=  -308.985503 (dE=-0.965E-02)
 bond charge predicted
       N       E                     dE             d eps       ncg     rms          rms(c)
DAV:   1    -0.308988639737E+03   -0.54433E-02   -0.70036E-01 41964   0.343E+00    0.784E-01
DAV:   2    -0.308992023028E+03   -0.33833E-02   -0.10165E-01 70656   0.167E+00    0.680E-01
DAV:   3    -0.308993253597E+03   -0.12306E-02   -0.10176E-01 68256   0.156E+00    0.805E-01
DAV:   4    -0.308988224170E+03    0.50294E-02   -0.53941E-02 63264   0.119E+00    0.406E-01
DAV:   5    -0.308986068573E+03    0.21556E-02   -0.19032E-02 74856   0.556E-01    0.210E-01
DAV:   6    -0.308985690672E+03    0.37790E-03   -0.69633E-03 68496   0.297E-01    0.151E-01
DAV:   7    -0.308985610746E+03    0.79925E-04   -0.30722E-03 64872   0.219E-01    0.129E-01
DAV:   8    -0.308985597535E+03    0.13211E-04   -0.15583E-03 58584   0.188E-01    0.104E-01
DAV:   9    -0.308985558222E+03    0.39313E-04   -0.82842E-04 48372   0.140E-01
  16 F= -.30898556E+03 E0= -.30898184E+03  d E =-.970027E-02
 curvature:  -0.79 expect dE=-0.119E-01 dE for cont linesearch -0.234E-04
 trial: gam= 0.75812 g(F)=  0.799E-02 g(S)=  0.701E-02 ort = 0.129E-02 (trialstep = 0.443E+00)
 search vector abs. value=  0.494E-01
 bond charge predicted
       N       E                     dE             d eps       ncg     rms          rms(c)
DAV:   1    -0.308989491755E+03   -0.38942E-02   -0.77192E-01 41280   0.282E+00    0.299E-01
DAV:   2    -0.308997322105E+03   -0.78303E-02   -0.81293E-02 68844   0.155E+00    0.685E-01
DAV:   3    -0.308992752552E+03    0.45696E-02   -0.38160E-02 67476   0.102E+00    0.239E-01
DAV:   4    -0.308992397010E+03    0.35554E-03   -0.70248E-03 62484   0.384E-01    0.185E-01
DAV:   5    -0.308992171903E+03    0.22511E-03   -0.47706E-03 61416   0.291E-01    0.158E-01
DAV:   6    -0.308992032945E+03    0.13896E-03   -0.27350E-03 58284   0.255E-01    0.117E-01
DAV:   7    -0.308991924642E+03    0.10830E-03   -0.10936E-03 51480   0.155E-01    0.657E-02
DAV:   8    -0.308991930585E+03   -0.59430E-05   -0.83958E-04 50004   0.142E-01
  17 F= -.30899193E+03 E0= -.30898832E+03  d E =-.637236E-02
 ZBRENT: can't locate minimum, use default step
 trial-energy change:   -0.006372  1 .order   -0.006462   -0.007077   -0.005848
 step:   1.7711(harm=  2.5501)  dis= 0.03087  next Energy=  -309.005936 (dE=-0.204E-01)
 bond charge predicted
       N       E                     dE             d eps       ncg     rms          rms(c)
DAV:   1    -0.308982857000E+03    0.90676E-02   -0.69530E+00 41628   0.848E+00    0.875E-01
DAV:   2    -0.309057255443E+03   -0.74398E-01   -0.74458E-01 69228   0.454E+00    0.215E+00
DAV:   3    -0.309011400487E+03    0.45855E-01   -0.36095E-01 68412   0.299E+00    0.688E-01
DAV:   4    -0.309009637014E+03    0.17635E-02   -0.66611E-02 69924   0.118E+00    0.605E-01
DAV:   5    -0.309006796271E+03    0.28407E-02   -0.43570E-02 67584   0.978E-01    0.445E-01
DAV:   6    -0.309005270213E+03    0.15261E-02   -0.18568E-02 68184   0.661E-01    0.282E-01
DAV:   7    -0.309004702248E+03    0.56797E-03   -0.95363E-03 71412   0.398E-01    0.207E-01
DAV:   8    -0.309004507379E+03    0.19487E-03   -0.66741E-03 71184   0.367E-01    0.181E-01
DAV:   9    -0.309004056702E+03    0.45068E-03   -0.30448E-03 60948   0.269E-01    0.863E-02
DAV:  10    -0.309003998246E+03    0.58456E-04   -0.11732E-03 55464   0.143E-01    0.578E-02
DAV:  11    -0.309003987048E+03    0.11198E-04   -0.50950E-04 43116   0.116E-01
  18 F= -.30900399E+03 E0= -.30900063E+03  d E =-.184288E-01
 curvature:  -3.40 expect dE=-0.336E-01 dE for cont linesearch -0.183E-02
 ZBRENT: increasing intervall
 opt :   4.4278  next Energy=  -308.996292 (dE=-0.107E-01)
 bond charge predicted
       N       E                     dE             d eps       ncg     rms          rms(c)
DAV:   1    -0.308907801654E+03    0.96197E-01   -0.27789E+01 41280   0.170E+01    0.182E+00
DAV:   2    -0.309216171839E+03   -0.30837E+00   -0.31219E+00 69468   0.933E+00    0.431E+00
DAV:   3    -0.309029746736E+03    0.18643E+00   -0.15277E+00 68916   0.600E+00    0.144E+00
DAV:   4    -0.309023163013E+03    0.65837E-02   -0.29962E-01 69804   0.255E+00    0.130E+00
DAV:   5    -0.309008579845E+03    0.14583E-01   -0.18029E-01 66792   0.201E+00    0.841E-01
DAV:   6    -0.309003601285E+03    0.49786E-02   -0.69325E-02 70764   0.129E+00    0.585E-01
DAV:   7    -0.309000939952E+03    0.26613E-02   -0.38139E-02 77196   0.819E-01    0.411E-01
DAV:   8    -0.309000293227E+03    0.64673E-03   -0.25497E-02 76140   0.718E-01    0.367E-01
DAV:   9    -0.308998426142E+03    0.18671E-02   -0.13066E-02 66324   0.557E-01    0.179E-01
DAV:  10    -0.308998191849E+03    0.23429E-03   -0.49729E-03 65280   0.281E-01    0.118E-01
DAV:  11    -0.308998176454E+03    0.15395E-04   -0.25037E-03 59688   0.221E-01    0.107E-01
DAV:  12    -0.308998090250E+03    0.86204E-04   -0.12225E-03 54348   0.158E-01    0.554E-02
DAV:  13    -0.308998038380E+03    0.51869E-04   -0.25689E-04 34320   0.939E-02
  19 F= -.30899804E+03 E0= -.30899510E+03  d E =-.124802E-01
 curvature:  14.30 expect dE= 0.430E+00 dE for cont linesearch  0.284E-01
 ZBRENT: bracketing found
 ZBRENT: interpolating
 opt :   2.6806  next Energy=  -309.006331 (dE=-0.208E-01)
 bond charge predicted
       N       E                     dE             d eps       ncg     rms          rms(c)
DAV:   1    -0.308967235066E+03    0.30855E-01   -0.11999E+01 41280   0.111E+01    0.115E+00
DAV:   2    -0.309087329516E+03   -0.12009E+00   -0.12275E+00 68760   0.599E+00    0.269E+00
DAV:   3    -0.309019030122E+03    0.68299E-01   -0.59065E-01 67248   0.405E+00    0.899E-01
DAV:   4    -0.309015308764E+03    0.37214E-02   -0.10371E-01 70344   0.149E+00    0.748E-01
DAV:   5    -0.309010753708E+03    0.45551E-02   -0.71087E-02 66516   0.120E+00    0.565E-01
DAV:   6    -0.309008573292E+03    0.21804E-02   -0.32486E-02 70224   0.850E-01    0.379E-01
DAV:   7    -0.309007594721E+03    0.97857E-03   -0.16506E-02 71688   0.541E-01    0.267E-01
DAV:   8    -0.309007207870E+03    0.38685E-03   -0.10712E-02 73644   0.479E-01    0.234E-01
DAV:   9    -0.309006462912E+03    0.74496E-03   -0.50455E-03 62664   0.338E-01    0.113E-01
DAV:  10    -0.309006384883E+03    0.78029E-04   -0.20152E-03 60276   0.198E-01    0.850E-02
DAV:  11    -0.309006356870E+03    0.28013E-04   -0.10358E-03 53052   0.150E-01    0.615E-02
DAV:  12    -0.309006324790E+03    0.32080E-04   -0.36220E-04 39432   0.965E-02
  20 F= -.30900632E+03 E0= -.30900314E+03  d E =-.207666E-01
 curvature:  -1.18 expect dE=-0.161E-01 dE for cont linesearch -0.491E-05
 trial: gam= 0.52490 g(F)=  0.826E-02 g(S)=  0.537E-02 ort = 0.453E-03 (trialstep = 0.890E+00)
 search vector abs. value=  0.277E-01
 bond charge predicted
       N       E                     dE             d eps       ncg     rms          rms(c)
DAV:   1    -0.309015534753E+03   -0.91779E-02   -0.24695E+00 43284   0.646E+00    0.136E+00
DAV:   2    -0.309031711822E+03   -0.16177E-01   -0.40120E-01 70776   0.301E+00    0.109E+00
DAV:   3    -0.309030913958E+03    0.79786E-03   -0.30681E-01 71244   0.237E+00    0.122E+00
DAV:   4    -0.309021684447E+03    0.92295E-02   -0.18131E-01 65532   0.208E+00    0.851E-01
DAV:   5    -0.309013459448E+03    0.82250E-02   -0.70115E-02 70440   0.119E+00    0.428E-01
DAV:   6    -0.309013383443E+03    0.76005E-04   -0.35374E-02 68844   0.885E-01    0.464E-01
DAV:   7    -0.309011652728E+03    0.17307E-02   -0.17724E-02 67380   0.601E-01    0.192E-01
DAV:   8    -0.309011589479E+03    0.63248E-04   -0.55152E-03 65964   0.309E-01    0.180E-01
DAV:   9    -0.309011387611E+03    0.20187E-03   -0.24637E-03 58344   0.239E-01    0.121E-01
DAV:  10    -0.309011376268E+03    0.11343E-04   -0.63687E-04 46464   0.125E-01
  21 F= -.30901138E+03 E0= -.30900807E+03  d E =-.505148E-02
 trial-energy change:   -0.005051  1 .order   -0.005675   -0.012344    0.000994
 step:   0.8016(harm=  0.8240)  dis= 0.00782  next Energy=  -309.011426 (dE=-0.510E-02)
 bond charge predicted
       N       E                     dE             d eps       ncg     rms          rms(c)
DAV:   1    -0.309011561758E+03   -0.17415E-03   -0.24745E-02 50772   0.657E-01    0.156E-01
DAV:   2    -0.309012410072E+03   -0.84831E-03   -0.81784E-03 73128   0.466E-01    0.253E-01
DAV:   3    -0.309011725213E+03    0.68486E-03   -0.61691E-03 63240   0.391E-01    0.127E-01
DAV:   4    -0.309011648676E+03    0.76536E-04   -0.16880E-03 59340   0.188E-01    0.846E-02
DAV:   5    -0.309011600307E+03    0.48370E-04   -0.85173E-04 50400   0.124E-01
  22 F= -.30901160E+03 E0= -.30900834E+03  d E =-.527552E-02
 curvature:  -0.73 expect dE=-0.833E-02 dE for cont linesearch -0.670E-05
 trial: gam= 0.87343 g(F)=  0.391E-02 g(S)=  0.751E-02 ort =-0.505E-03 (trialstep = 0.763E+00)
 search vector abs. value=  0.317E-01
 bond charge predicted
       N       E                     dE             d eps       ncg     rms          rms(c)
DAV:   1    -0.309005873345E+03    0.57753E-02   -0.21090E+00 41280   0.506E+00    0.523E-01
DAV:   2    -0.309023996818E+03   -0.18123E-01   -0.21267E-01 68484   0.231E+00    0.671E-01
DAV:   3    -0.309020297036E+03    0.36998E-02   -0.61013E-02 73068   0.120E+00    0.417E-01
DAV:   4    -0.309019279800E+03    0.10172E-02   -0.19424E-02 67584   0.711E-01    0.345E-01
DAV:   5    -0.309018188021E+03    0.10918E-02   -0.12085E-02 65700   0.508E-01    0.220E-01
DAV:   6    -0.309018150167E+03    0.37854E-04   -0.67913E-03 62808   0.354E-01    0.212E-01
DAV:   7    -0.309017925161E+03    0.22501E-03   -0.56157E-03 60168   0.336E-01    0.154E-01
DAV:   8    -0.309017722770E+03    0.20239E-03   -0.25216E-03 62400   0.250E-01    0.973E-02
DAV:   9    -0.309017624111E+03    0.98659E-04   -0.86230E-04 49224   0.149E-01
  23 F= -.30901762E+03 E0= -.30901417E+03  d E =-.602380E-02
 trial-energy change:   -0.006024  1 .order   -0.006000   -0.008383   -0.003617
 step:   1.3422(harm=  1.3422)  dis= 0.01437  next Energy=  -309.018972 (dE=-0.737E-02)
 bond charge predicted
       N       E                     dE             d eps       ncg     rms          rms(c)
DAV:   1    -0.309011833971E+03    0.58888E-02   -0.12139E+00 41280   0.384E+00    0.387E-01
DAV:   2    -0.309022080067E+03   -0.10246E-01   -0.11969E-01 68640   0.176E+00    0.484E-01
DAV:   3    -0.309020143497E+03    0.19366E-02   -0.31787E-02 74352   0.858E-01    0.295E-01
DAV:   4    -0.309019671028E+03    0.47247E-03   -0.10182E-02 64512   0.514E-01    0.261E-01
DAV:   5    -0.309019081928E+03    0.58910E-03   -0.62196E-03 60360   0.387E-01    0.162E-01
DAV:   6    -0.309019073870E+03    0.80588E-05   -0.36360E-03 63972   0.263E-01    0.155E-01
DAV:   7    -0.309018987292E+03    0.86578E-04   -0.32100E-03 63060   0.258E-01    0.125E-01
DAV:   8    -0.309018833686E+03    0.15361E-03   -0.14145E-03 53940   0.196E-01    0.700E-02
DAV:   9    -0.309018776434E+03    0.57251E-04   -0.35009E-04 35580   0.112E-01
  24 F= -.30901878E+03 E0= -.30901519E+03  d E =-.717613E-02
 curvature:  -1.94 expect dE=-0.705E-02 dE for cont linesearch -0.126E-05
 trial: gam= 0.35995 g(F)=  0.352E-02 g(S)=  0.122E-03 ort =-0.144E-03 (trialstep = 0.879E+00)
 search vector abs. value=  0.764E-02
 bond charge predicted
       N       E                     dE             d eps       ncg     rms          rms(c)
DAV:   1    -0.309016989536E+03    0.18441E-02   -0.66752E-01 41376   0.282E+00    0.271E-01
DAV:   2    -0.309024633894E+03   -0.76444E-02   -0.76534E-02 68172   0.151E+00    0.522E-01
DAV:   3    -0.309021814505E+03    0.28194E-02   -0.25968E-02 69768   0.808E-01    0.208E-01
DAV:   4    -0.309021725512E+03    0.88993E-04   -0.61336E-03 59208   0.394E-01    0.199E-01
DAV:   5    -0.309021348978E+03    0.37653E-03   -0.31943E-03 59136   0.277E-01    0.108E-01
DAV:   6    -0.309021338074E+03    0.10904E-04   -0.13623E-03 56400   0.164E-01    0.998E-02
DAV:   7    -0.309021294794E+03    0.43280E-04   -0.10346E-03 51372   0.160E-01    0.787E-02
DAV:   8    -0.309021253349E+03    0.41445E-04   -0.67706E-04 45564   0.153E-01
  25 F= -.30902125E+03 E0= -.30901764E+03  d E =-.247691E-02
 trial-energy change:   -0.002477  1 .order   -0.002662   -0.003154   -0.002169
 step:   2.8123(harm=  2.8123)  dis= 0.01680  next Energy=  -309.023823 (dE=-0.505E-02)
 bond charge predicted
       N       E                     dE             d eps       ncg     rms          rms(c)
DAV:   1    -0.309003481031E+03    0.17814E-01   -0.32375E+00 42060   0.619E+00    0.578E-01
DAV:   2    -0.309038617497E+03   -0.35136E-01   -0.35359E-01 68124   0.316E+00    0.112E+00
DAV:   3    -0.309025354560E+03    0.13263E-01   -0.12061E-01 69336   0.174E+00    0.442E-01
DAV:   4    -0.309025149787E+03    0.20477E-03   -0.30032E-02 68028   0.867E-01    0.439E-01
DAV:   5    -0.309023304240E+03    0.18455E-02   -0.16140E-02 64368   0.600E-01    0.234E-01
DAV:   6    -0.309023209241E+03    0.94999E-04   -0.67421E-03 64272   0.341E-01    0.207E-01
DAV:   7    -0.309022989150E+03    0.22009E-03   -0.46494E-03 67344   0.309E-01    0.160E-01
DAV:   8    -0.309022840613E+03    0.14854E-03   -0.33346E-03 63180   0.297E-01    0.137E-01
DAV:   9    -0.309022633964E+03    0.20665E-03   -0.14178E-03 54324   0.185E-01    0.447E-02
DAV:  10    -0.309022613912E+03    0.20052E-04   -0.19788E-04 30420   0.897E-02
  26 F= -.30902261E+03 E0= -.30901898E+03  d E =-.383748E-02
 curvature:  -2.99 expect dE=-0.140E-01 dE for cont linesearch -0.275E-03
 trial: gam= 0.00000 g(F)=  0.307E-02 g(S)=  0.162E-02 ort =-0.838E-03 (trialstep = 0.127E+01)
 search vector abs. value=  0.469E-02
 bond charge predicted
       N       E                     dE             d eps       ncg     rms          rms(c)
DAV:   1    -0.309028362975E+03   -0.57290E-02   -0.10626E+00 53424   0.439E+00    0.965E-01
DAV:   2    -0.309033614364E+03   -0.52514E-02   -0.17996E-01 74148   0.198E+00    0.789E-01
DAV:   3    -0.309032808141E+03    0.80622E-03   -0.14183E-01 72804   0.158E+00    0.808E-01
DAV:   4    -0.309028314942E+03    0.44932E-02   -0.67997E-02 70308   0.131E+00    0.588E-01
DAV:   5    -0.309024908566E+03    0.34064E-02   -0.44514E-02 69432   0.920E-01    0.377E-01
DAV:   6    -0.309023921010E+03    0.98756E-03   -0.20091E-02 67596   0.617E-01    0.271E-01
DAV:   7    -0.309023464124E+03    0.45689E-03   -0.89820E-03 64476   0.436E-01    0.173E-01
DAV:   8    -0.309023351442E+03    0.11268E-03   -0.39765E-03 58560   0.298E-01    0.130E-01
DAV:   9    -0.309023222033E+03    0.12941E-03   -0.10363E-03 52524   0.169E-01    0.737E-02
DAV:  10    -0.309023206793E+03    0.15240E-04   -0.11826E-04 26832   0.660E-02
  27 F= -.30902321E+03 E0= -.30901964E+03  d E =-.592881E-03
 trial-energy change:   -0.000593  1 .order   -0.000917   -0.005937    0.004103
 step:   0.7484(harm=  0.7484)  dis= 0.00389  next Energy=  -309.024369 (dE=-0.176E-02)
 bond charge predicted
       N       E                     dE             d eps       ncg     rms          rms(c)
DAV:   1    -0.309025167803E+03   -0.19458E-02   -0.17675E-01 53100   0.179E+00    0.423E-01
DAV:   2    -0.309026201033E+03   -0.10332E-02   -0.33520E-02 74340   0.830E-01    0.344E-01
DAV:   3    -0.309025989496E+03    0.21154E-03   -0.26849E-02 72816   0.682E-01    0.351E-01
DAV:   4    -0.309025180041E+03    0.80946E-03   -0.12601E-02 62208   0.560E-01    0.259E-01
DAV:   5    -0.309024542454E+03    0.63759E-03   -0.84163E-03 61716   0.404E-01    0.169E-01
DAV:   6    -0.309024340865E+03    0.20159E-03   -0.38580E-03 59136   0.283E-01    0.119E-01
DAV:   7    -0.309024244126E+03    0.96738E-04   -0.17921E-03 58320   0.210E-01    0.735E-02
DAV:   8    -0.309024234942E+03    0.91837E-05   -0.92265E-04 49392   0.160E-01
  28 F= -.30902423E+03 E0= -.30902064E+03  d E =-.162103E-02
 curvature:  -0.37 expect dE=-0.871E-03 dE for cont linesearch -0.755E-07
 trial: gam= 0.48980 g(F)=  0.935E-03 g(S)=  0.139E-02 ort = 0.308E-04 (trialstep = 0.116E+01)
 search vector abs. value=  0.348E-02
 bond charge predicted
       N       E                     dE             d eps       ncg     rms          rms(c)
DAV:   1    -0.309023530794E+03    0.71333E-03   -0.59224E-01 41280   0.287E+00    0.456E-01
DAV:   2    -0.309028262046E+03   -0.47313E-02   -0.72987E-02 70080   0.139E+00    0.438E-01
DAV:   3    -0.309028097081E+03    0.16496E-03   -0.38005E-02 68520   0.996E-01    0.444E-01
DAV:   4    -0.309026765958E+03    0.13311E-02   -0.20264E-02 59796   0.711E-01    0.265E-01
DAV:   5    -0.309026010898E+03    0.75506E-03   -0.76429E-03 65832   0.403E-01    0.181E-01
DAV:   6    -0.309025887280E+03    0.12362E-03   -0.49613E-03 62172   0.303E-01    0.144E-01
DAV:   7    -0.309025758118E+03    0.12916E-03   -0.21677E-03 58440   0.214E-01    0.824E-02
DAV:   8    -0.309025715582E+03    0.42535E-04   -0.68694E-04 45780   0.143E-01
  29 F= -.30902572E+03 E0= -.30902223E+03  d E =-.148064E-02
 trial-energy change:   -0.001481  1 .order   -0.001541   -0.002723   -0.000359
 step:   1.3386(harm=  1.3386)  dis= 0.00635  next Energy=  -309.025803 (dE=-0.157E-02)
 bond charge predicted
       N       E                     dE             d eps       ncg     rms          rms(c)
DAV:   1    -0.309025607217E+03    0.15090E-03   -0.13651E-02 42264   0.436E-01    0.710E-02
DAV:   2    -0.309025781848E+03   -0.17463E-03   -0.19501E-03 64692   0.238E-01    0.980E-02
DAV:   3    -0.309025715121E+03    0.66727E-04   -0.11435E-03 52800   0.171E-01    0.614E-02
DAV:   4    -0.309025689070E+03    0.26051E-04   -0.20379E-04 29376   0.944E-02
  30 F= -.30902569E+03 E0= -.30902224E+03  d E =-.145413E-02
 curvature:  -1.00 expect dE=-0.133E-02 dE for cont linesearch -0.161E-04
 trial: gam= 0.68556 g(F)=  0.110E-02 g(S)=  0.233E-03 ort =-0.237E-03 (trialstep = 0.120E+01)
 search vector abs. value=  0.264E-02
 bond charge predicted
       N       E                     dE             d eps       ncg     rms          rms(c)
DAV:   1    -0.309024758951E+03    0.95617E-03   -0.39351E-01 41280   0.205E+00    0.187E-01
DAV:   2    -0.309027298147E+03   -0.25392E-02   -0.30211E-02 68400   0.912E-01    0.235E-01
DAV:   3    -0.309027079783E+03    0.21836E-03   -0.83607E-03 68856   0.489E-01    0.181E-01
DAV:   4    -0.309026792836E+03    0.28695E-03   -0.25186E-03 59328   0.264E-01    0.103E-01
DAV:   5    -0.309026724531E+03    0.68305E-04   -0.12344E-03 55056   0.155E-01    0.837E-02
DAV:   6    -0.309026729775E+03   -0.52442E-05   -0.93887E-04 49680   0.149E-01
  31 F= -.30902673E+03 E0= -.30902337E+03  d E =-.104070E-02
 trial-energy change:   -0.001041  1 .order   -0.001114   -0.001401   -0.000827
 step:   2.9252(harm=  2.9252)  dis= 0.00955  next Energy=  -309.027400 (dE=-0.171E-02)
 bond charge predicted
       N       E                     dE             d eps       ncg     rms          rms(c)
DAV:   1    -0.309023004514E+03    0.37200E-02   -0.81700E-01 41280   0.296E+00    0.269E-01
DAV:   2    -0.309029045624E+03   -0.60411E-02   -0.67661E-02 68904   0.132E+00    0.444E-01
DAV:   3    -0.309027560378E+03    0.14852E-02   -0.23731E-02 68616   0.734E-01    0.265E-01
DAV:   4    -0.309027291860E+03    0.26852E-03   -0.73922E-03 58500   0.400E-01    0.201E-01
DAV:   5    -0.309026862561E+03    0.42930E-03   -0.33373E-03 60492   0.261E-01    0.111E-01
DAV:   6    -0.309026937495E+03   -0.74935E-04   -0.19221E-03 58380   0.223E-01    0.132E-01
DAV:   7    -0.309026757526E+03    0.17997E-03   -0.13072E-03 53916   0.193E-01    0.595E-02
DAV:   8    -0.309026717125E+03    0.40401E-04   -0.46834E-04 40656   0.126E-01
  32 F= -.30902672E+03 E0= -.30902359E+03  d E =-.102805E-02
 curvature:  -3.31 expect dE=-0.683E-02 dE for cont linesearch -0.886E-04
 trial: gam= 1.31949 g(F)=  0.183E-02 g(S)=  0.241E-03 ort =-0.266E-03 (trialstep = 0.684E+00)
 search vector abs. value=  0.597E-02
 bond charge predicted
       N       E                     dE             d eps       ncg     rms          rms(c)
DAV:   1    -0.309025085557E+03    0.16720E-02   -0.33261E-01 41460   0.202E+00    0.173E-01
DAV:   2    -0.309028300530E+03   -0.32150E-02   -0.34102E-02 66588   0.993E-01    0.261E-01
DAV:   3    -0.309027978895E+03    0.32163E-03   -0.91210E-03 66816   0.503E-01    0.170E-01
DAV:   4    -0.309027740894E+03    0.23800E-03   -0.22450E-03 54456   0.241E-01    0.969E-02
DAV:   5    -0.309027675235E+03    0.65658E-04   -0.81111E-04 47688   0.140E-01
  33 F= -.30902768E+03 E0= -.30902463E+03  d E =-.958111E-03
 ZBRENT: can't locate minimum, use default step
 trial-energy change:   -0.000958  1 .order   -0.001109   -0.001173   -0.001046
 step:   2.7347(harm=  6.3189)  dis= 0.01623  next Energy=  -309.032137 (dE=-0.542E-02)
 bond charge predicted
       N       E                     dE             d eps       ncg     rms          rms(c)
DAV:   1    -0.309005877573E+03    0.21863E-01   -0.29906E+00 41280   0.606E+00    0.558E-01
DAV:   2    -0.309035040696E+03   -0.29163E-01   -0.30385E-01 66792   0.295E+00    0.759E-01
DAV:   3    -0.309032880844E+03    0.21599E-02   -0.81085E-02 67344   0.155E+00    0.541E-01
DAV:   4    -0.309030223069E+03    0.26578E-02   -0.20369E-02 65736   0.745E-01    0.286E-01
DAV:   5    -0.309029861605E+03    0.36146E-03   -0.72400E-03 64440   0.395E-01    0.252E-01
DAV:   6    -0.309029777927E+03    0.83678E-04   -0.53257E-03 64524   0.335E-01    0.219E-01
DAV:   7    -0.309029541228E+03    0.23670E-03   -0.41440E-03 66564   0.306E-01    0.157E-01
DAV:   8    -0.309029334117E+03    0.20711E-03   -0.25432E-03 66372   0.253E-01    0.105E-01
DAV:   9    -0.309029229003E+03    0.10511E-03   -0.10507E-03 52116   0.156E-01    0.499E-02
DAV:  10    -0.309029208065E+03    0.20939E-04   -0.19246E-04 27672   0.935E-02
  34 F= -.30902921E+03 E0= -.30902632E+03  d E =-.249094E-02
 curvature:  -6.55 expect dE=-0.167E-01 dE for cont linesearch -0.572E-04
 trial: gam= 0.61817 g(F)=  0.171E-02 g(S)=  0.843E-03 ort = 0.228E-03 (trialstep = 0.109E+01)
 search vector abs. value=  0.512E-02
 bond charge predicted
       N       E                     dE             d eps       ncg     rms          rms(c)
DAV:   1    -0.309028303997E+03    0.92501E-03   -0.70320E-01 41280   0.314E+00    0.518E-01
DAV:   2    -0.309033378889E+03   -0.50749E-02   -0.87192E-02 68796   0.146E+00    0.447E-01
DAV:   3    -0.309033758209E+03   -0.37932E-03   -0.40310E-02 72084   0.950E-01    0.452E-01
DAV:   4    -0.309031899073E+03    0.18591E-02   -0.20067E-02 65124   0.704E-01    0.290E-01
DAV:   5    -0.309031130101E+03    0.76897E-03   -0.11246E-02 64812   0.490E-01    0.205E-01
DAV:   6    -0.309030886355E+03    0.24375E-03   -0.52281E-03 61944   0.321E-01    0.137E-01
DAV:   7    -0.309030797278E+03    0.89077E-04   -0.29106E-03 67428   0.242E-01    0.114E-01
DAV:   8    -0.309030707583E+03    0.89695E-04   -0.12900E-03 55068   0.179E-01    0.723E-02
DAV:   9    -0.309030660184E+03    0.47399E-04   -0.25354E-04 32964   0.100E-01
  35 F= -.30903066E+03 E0= -.30902774E+03  d E =-.145212E-02
 trial-energy change:   -0.001452  1 .order   -0.001520   -0.002947   -0.000093
 step:   1.1294(harm=  1.1294)  dis= 0.00494  next Energy=  -309.030729 (dE=-0.152E-02)
 bond charge predicted
       N       E                     dE             d eps       ncg     rms          rms(c)
DAV:   1    -0.309030676735E+03    0.30848E-04   -0.10482E-03 55524   0.133E-01    0.378E-02
DAV:   2    -0.309030744627E+03   -0.67892E-04   -0.46437E-04 41208   0.116E-01
  36 F= -.30903074E+03 E0= -.30902782E+03  d E =-.153656E-02
 curvature:  -1.07 expect dE=-0.322E-02 dE for cont linesearch -0.330E-06
 trial: gam= 1.31031 g(F)=  0.551E-03 g(S)=  0.245E-02 ort =-0.397E-04 (trialstep = 0.482E+00)
 search vector abs. value=  0.117E-01
 bond charge predicted
       N       E                     dE             d eps       ncg     rms          rms(c)
DAV:   1    -0.309030839686E+03   -0.16295E-03   -0.28135E-01 41292   0.188E+00    0.262E-01
DAV:   2    -0.309033446037E+03   -0.26064E-02   -0.35208E-02 70008   0.940E-01    0.344E-01
DAV:   3    -0.309032636786E+03    0.80925E-03   -0.17998E-02 70248   0.649E-01    0.256E-01
DAV:   4    -0.309032147675E+03    0.48911E-03   -0.61393E-03 61884   0.381E-01    0.155E-01
DAV:   5    -0.309031960832E+03    0.18684E-03   -0.31978E-03 60936   0.248E-01    0.134E-01
DAV:   6    -0.309031860085E+03    0.10075E-03   -0.23599E-03 55872   0.232E-01    0.980E-02
DAV:   7    -0.309031781249E+03    0.78836E-04   -0.10456E-03 53484   0.146E-01    0.508E-02
DAV:   8    -0.309031760633E+03    0.20616E-04   -0.35459E-04 36672   0.111E-01
  37 F= -.30903176E+03 E0= -.30902878E+03  d E =-.101601E-02
 trial-energy change:   -0.001016  1 .order   -0.001044   -0.001424   -0.000664
 step:   0.9035(harm=  0.9035)  dis= 0.00600  next Energy=  -309.032079 (dE=-0.133E-02)
 bond charge predicted
       N       E                     dE             d eps       ncg     rms          rms(c)
DAV:   1    -0.309031272389E+03    0.50886E-03   -0.21408E-01 41304   0.165E+00    0.224E-01
DAV:   2    -0.309033356976E+03   -0.20846E-02   -0.27128E-02 69552   0.839E-01    0.318E-01
DAV:   3    -0.309032617624E+03    0.73935E-03   -0.14323E-02 69360   0.577E-01    0.219E-01
DAV:   4    -0.309032257433E+03    0.36019E-03   -0.46329E-03 61308   0.324E-01    0.127E-01
DAV:   5    -0.309032139019E+03    0.11841E-03   -0.22781E-03 58224   0.214E-01    0.118E-01
DAV:   6    -0.309032042815E+03    0.96204E-04   -0.16271E-03 54228   0.196E-01    0.738E-02
DAV:   7    -0.309031992797E+03    0.50018E-04   -0.51259E-04 42036   0.112E-01
  38 F= -.30903199E+03 E0= -.30902901E+03  d E =-.124817E-02
 curvature:  -1.79 expect dE=-0.198E-02 dE for cont linesearch -0.820E-05
 trial: gam= 0.15626 g(F)=  0.102E-02 g(S)=  0.893E-04 ort = 0.232E-03 (trialstep = 0.566E+00)
 search vector abs. value=  0.147E-02
 bond charge predicted
       N       E                     dE             d eps       ncg     rms          rms(c)
DAV:   1    -0.309032134233E+03   -0.91418E-04   -0.57797E-02 41628   0.914E-01    0.145E-01
DAV:   2    -0.309032573651E+03   -0.43942E-03   -0.71378E-03 68292   0.406E-01    0.108E-01
DAV:   3    -0.309032600171E+03   -0.26520E-04   -0.28140E-03 67332   0.229E-01    0.115E-01
DAV:   4    -0.309032504503E+03    0.95668E-04   -0.16863E-03 56208   0.196E-01    0.922E-02
DAV:   5    -0.309032402080E+03    0.10242E-03   -0.69187E-04 46260   0.129E-01    0.393E-02
DAV:   6    -0.309032403276E+03   -0.11960E-05   -0.24083E-04 31788   0.856E-02
  39 F= -.30903240E+03 E0= -.30902940E+03  d E =-.410479E-03
 trial-energy change:   -0.000410  1 .order   -0.000490   -0.000649   -0.000330
 step:   1.1515(harm=  1.1515)  dis= 0.00304  next Energy=  -309.032653 (dE=-0.660E-03)
 bond charge predicted
       N       E                     dE             d eps       ncg     rms          rms(c)
DAV:   1    -0.309032297576E+03    0.10450E-03   -0.61917E-02 41520   0.958E-01    0.155E-01
DAV:   2    -0.309032965686E+03   -0.66811E-03   -0.91893E-03 69432   0.468E-01    0.177E-01
DAV:   3    -0.309032811767E+03    0.15392E-03   -0.56228E-03 66420   0.348E-01    0.151E-01
DAV:   4    -0.309032677063E+03    0.13470E-03   -0.20447E-03 56868   0.221E-01    0.982E-02
DAV:   5    -0.309032554816E+03    0.12225E-03   -0.10031E-03 52104   0.139E-01    0.484E-02
DAV:   6    -0.309032537245E+03    0.17571E-04   -0.22964E-04 29868   0.105E-01
  40 F= -.30903254E+03 E0= -.30902953E+03  d E =-.544448E-03
 curvature:  -0.74 expect dE=-0.737E-03 dE for cont linesearch -0.221E-04
 trial: gam= 0.69529 g(F)=  0.396E-03 g(S)=  0.604E-03 ort = 0.210E-03 (trialstep = 0.501E+00)
 search vector abs. value=  0.200E-02
 reached required accuracy - stopping structural energy minimisation
 writing wavefunctions
VASP is done!
