<?xml version="1.0" encoding="ISO-8859-1"?>
<modeling>
 <generator>
  <i name="program" type="string">vasp </i>
  <i name="version" type="string">5.4.4.18Apr17-6-g9f103f2a35  </i>
  <i name="subversion" type="string">(build Aug 09 2018 16:20:53) complex            parallel </i>
  <i name="platform" type="string">LinuxIFC </i>
  <i name="date" type="string">2020 04 30 </i>
  <i name="time" type="string">05:18:08 </i>
 </generator>
 <incar>
  <i type="string" name="SYSTEM"> Nb - Mo - Ta - Ti - V SQS</i>
  <i type="string" name="PREC">normal</i>
  <i type="int" name="ICHARG">     0</i>
  <i type="int" name="IBRION">     2</i>
  <i type="int" name="NSW">    50</i>
  <i type="int" name="ISIF">     3</i>
  <i name="ENCUT">    600.00000000</i>
  <i type="string" name="LREAL"> Auto</i>
  <i type="int" name="ISMEAR">     1</i>
  <i name="SIGMA">      0.20000000</i>
  <v type="int" name="KPOINT_BSE">    -1     0     0     0</v>
  <i type="string" name="GGA"> PS</i>
 </incar>
 <structure name="primitive_cell" >
  <crystal>
   <varray name="basis" >
    <v>      -3.16000000      -3.16000000      -3.16000000 </v>
    <v>       1.58000000       1.58000000      -7.90000000 </v>
    <v>       7.90000000      -7.90000000      -1.58000000 </v>
   </varray>
   <i name="volume">    473.31744000 </i>
   <varray name="rec_basis" >
    <v>      -0.13713080      -0.12658228      -0.05274262 </v>
    <v>       0.04219409       0.06329114      -0.10548523 </v>
    <v>       0.06329114      -0.06329114       0.00000000 </v>
   </varray>
  </crystal>
  <varray name="positions" >
   <v>      -0.03333333      -0.06666667       0.40000000 </v>
   <v>       0.30000000      -0.40000000       0.40000000 </v>
   <v>      -0.10000000      -0.20000000       0.20000000 </v>
   <v>       0.06666667       0.13333333       0.20000000 </v>
   <v>       0.46666667      -0.06666667       0.40000000 </v>
   <v>      -0.13333333      -0.26666667      -0.40000000 </v>
   <v>       0.03333333       0.06666667      -0.40000000 </v>
   <v>      -0.36666667       0.26666667       0.40000000 </v>
   <v>       0.40000000      -0.20000000       0.20000000 </v>
   <v>      -0.20000000      -0.40000000       0.40000000 </v>
   <v>      -0.43333333       0.13333333       0.20000000 </v>
   <v>       0.36666667      -0.26666667      -0.40000000 </v>
   <v>       0.13333333       0.26666667       0.40000000 </v>
   <v>      -0.46666667       0.06666667      -0.40000000 </v>
   <v>       0.23333333       0.46666667       0.20000000 </v>
   <v>       0.20000000       0.40000000      -0.40000000 </v>
   <v>       0.00000000       0.00000000       0.00000000 </v>
   <v>      -0.06666667      -0.13333333      -0.20000000 </v>
   <v>      -0.30000000       0.40000000      -0.40000000 </v>
   <v>      -0.26666667       0.46666667       0.20000000 </v>
   <v>       0.33333333      -0.33333333       0.00000000 </v>
   <v>       0.43333333      -0.13333333      -0.20000000 </v>
   <v>      -0.50000000       0.00000000       0.00000000 </v>
   <v>       0.26666667      -0.46666667      -0.20000000 </v>
   <v>      -0.33333333       0.33333333       0.00000000 </v>
   <v>      -0.40000000       0.20000000      -0.20000000 </v>
   <v>      -0.16666667      -0.33333333       0.00000000 </v>
   <v>      -0.23333333      -0.46666667      -0.20000000 </v>
   <v>       0.10000000       0.20000000      -0.20000000 </v>
  </varray>
 </structure>
 <varray name="primitive_index" >
  <v type="int" >        1 </v>
  <v type="int" >       18 </v>
  <v type="int" >        7 </v>
  <v type="int" >       23 </v>
  <v type="int" >       20 </v>
  <v type="int" >       19 </v>
  <v type="int" >        6 </v>
  <v type="int" >        2 </v>
  <v type="int" >       16 </v>
  <v type="int" >        8 </v>
  <v type="int" >       15 </v>
  <v type="int" >       11 </v>
  <v type="int" >       12 </v>
  <v type="int" >       27 </v>
  <v type="int" >       29 </v>
  <v type="int" >       22 </v>
  <v type="int" >        4 </v>
  <v type="int" >       14 </v>
  <v type="int" >       25 </v>
  <v type="int" >        9 </v>
  <v type="int" >       28 </v>
  <v type="int" >       17 </v>
  <v type="int" >        3 </v>
  <v type="int" >       21 </v>
  <v type="int" >       10 </v>
  <v type="int" >       26 </v>
  <v type="int" >       13 </v>
  <v type="int" >       24 </v>
  <v type="int" >        5 </v>
 </varray>
 <kpoints>
  <generation param="Gamma">
   <v type="int" name="divisions">       7        7        7 </v>
   <v name="usershift">      0.00000000       0.00000000       0.00000000 </v>
   <v name="genvec1">      0.14285714       0.00000000       0.00000000 </v>
   <v name="genvec2">     -0.00000000       0.14285714       0.00000000 </v>
   <v name="genvec3">      0.00000000       0.00000000       0.14285714 </v>
   <v name="shift">      0.00000000       0.00000000       0.00000000 </v>
  </generation>
  <varray name="kpointlist" >
   <v>       0.00000000       0.00000000       0.00000000 </v>
   <v>       0.14285714       0.00000000      -0.00000000 </v>
   <v>       0.28571429       0.00000000       0.00000000 </v>
   <v>       0.42857143       0.00000000      -0.00000000 </v>
   <v>      -0.00000000       0.14285714       0.00000000 </v>
   <v>       0.14285714       0.14285714      -0.00000000 </v>
   <v>       0.28571429       0.14285714       0.00000000 </v>
   <v>       0.42857143       0.14285714      -0.00000000 </v>
   <v>      -0.42857143       0.14285714       0.00000000 </v>
   <v>      -0.28571429       0.14285714       0.00000000 </v>
   <v>      -0.14285714       0.14285714       0.00000000 </v>
   <v>       0.00000000       0.28571429      -0.00000000 </v>
   <v>       0.14285714       0.28571429      -0.00000000 </v>
   <v>       0.28571429       0.28571429      -0.00000000 </v>
   <v>       0.42857143       0.28571429      -0.00000000 </v>
   <v>      -0.42857143       0.28571429      -0.00000000 </v>
   <v>      -0.28571429       0.28571429      -0.00000000 </v>
   <v>      -0.14285714       0.28571429      -0.00000000 </v>
   <v>      -0.00000000       0.42857143      -0.00000000 </v>
   <v>       0.14285714       0.42857143       0.00000000 </v>
   <v>       0.28571429       0.42857143       0.00000000 </v>
   <v>       0.42857143       0.42857143      -0.00000000 </v>
   <v>      -0.42857143       0.42857143       0.00000000 </v>
   <v>      -0.28571429       0.42857143      -0.00000000 </v>
   <v>      -0.14285714       0.42857143      -0.00000000 </v>
   <v>       0.00000000       0.00000000       0.14285714 </v>
   <v>       0.14285714       0.00000000       0.14285714 </v>
   <v>       0.28571429       0.00000000       0.14285714 </v>
   <v>       0.42857143       0.00000000       0.14285714 </v>
   <v>      -0.42857143       0.00000000       0.14285714 </v>
   <v>      -0.28571429       0.00000000       0.14285714 </v>
   <v>      -0.14285714      -0.00000000       0.14285714 </v>
   <v>      -0.00000000       0.14285714       0.14285714 </v>
   <v>       0.14285714       0.14285714       0.14285714 </v>
   <v>       0.28571429       0.14285714       0.14285714 </v>
   <v>       0.42857143       0.14285714       0.14285714 </v>
   <v>      -0.42857143       0.14285714       0.14285714 </v>
   <v>      -0.28571429       0.14285714       0.14285714 </v>
   <v>      -0.14285714       0.14285714       0.14285714 </v>
   <v>      -0.00000000       0.28571429       0.14285714 </v>
   <v>       0.14285714       0.28571429       0.14285714 </v>
   <v>       0.28571429       0.28571429       0.14285714 </v>
   <v>       0.42857143       0.28571429       0.14285714 </v>
   <v>      -0.42857143       0.28571429       0.14285714 </v>
   <v>      -0.28571429       0.28571429       0.14285714 </v>
   <v>      -0.14285714       0.28571429       0.14285714 </v>
   <v>       0.00000000       0.42857143       0.14285714 </v>
   <v>       0.14285714       0.42857143       0.14285714 </v>
   <v>       0.28571429       0.42857143       0.14285714 </v>
   <v>       0.42857143       0.42857143       0.14285714 </v>
   <v>      -0.42857143       0.42857143       0.14285714 </v>
   <v>      -0.28571429       0.42857143       0.14285714 </v>
   <v>      -0.14285714       0.42857143       0.14285714 </v>
   <v>       0.00000000      -0.42857143       0.14285714 </v>
   <v>       0.14285714      -0.42857143       0.14285714 </v>
   <v>       0.28571429      -0.42857143       0.14285714 </v>
   <v>       0.42857143      -0.42857143       0.14285714 </v>
   <v>      -0.42857143      -0.42857143       0.14285714 </v>
   <v>      -0.28571429      -0.42857143       0.14285714 </v>
   <v>      -0.14285714      -0.42857143       0.14285714 </v>
   <v>       0.00000000      -0.28571429       0.14285714 </v>
   <v>       0.14285714      -0.28571429       0.14285714 </v>
   <v>       0.28571429      -0.28571429       0.14285714 </v>
   <v>       0.42857143      -0.28571429       0.14285714 </v>
   <v>      -0.42857143      -0.28571429       0.14285714 </v>
   <v>      -0.28571429      -0.28571429       0.14285714 </v>
   <v>      -0.14285714      -0.28571429       0.14285714 </v>
   <v>       0.00000000      -0.14285714       0.14285714 </v>
   <v>       0.14285714      -0.14285714       0.14285714 </v>
   <v>       0.28571429      -0.14285714       0.14285714 </v>
   <v>       0.42857143      -0.14285714       0.14285714 </v>
   <v>      -0.42857143      -0.14285714       0.14285714 </v>
   <v>      -0.28571429      -0.14285714       0.14285714 </v>
   <v>      -0.14285714      -0.14285714       0.14285714 </v>
   <v>       0.00000000       0.00000000       0.28571429 </v>
   <v>       0.14285714       0.00000000       0.28571429 </v>
   <v>       0.28571429       0.00000000       0.28571429 </v>
   <v>       0.42857143       0.00000000       0.28571429 </v>
   <v>      -0.42857143      -0.00000000       0.28571429 </v>
   <v>      -0.28571429      -0.00000000       0.28571429 </v>
   <v>      -0.14285714      -0.00000000       0.28571429 </v>
   <v>      -0.00000000       0.14285714       0.28571429 </v>
   <v>       0.14285714       0.14285714       0.28571429 </v>
   <v>       0.28571429       0.14285714       0.28571429 </v>
   <v>       0.42857143       0.14285714       0.28571429 </v>
   <v>      -0.42857143       0.14285714       0.28571429 </v>
   <v>      -0.28571429       0.14285714       0.28571429 </v>
   <v>      -0.14285714       0.14285714       0.28571429 </v>
   <v>      -0.00000000       0.28571429       0.28571429 </v>
   <v>       0.14285714       0.28571429       0.28571429 </v>
   <v>       0.28571429       0.28571429       0.28571429 </v>
   <v>       0.42857143       0.28571429       0.28571429 </v>
   <v>      -0.42857143       0.28571429       0.28571429 </v>
   <v>      -0.28571429       0.28571429       0.28571429 </v>
   <v>      -0.14285714       0.28571429       0.28571429 </v>
   <v>       0.00000000       0.42857143       0.28571429 </v>
   <v>       0.14285714       0.42857143       0.28571429 </v>
   <v>       0.28571429       0.42857143       0.28571429 </v>
   <v>       0.42857143       0.42857143       0.28571429 </v>
   <v>      -0.42857143       0.42857143       0.28571429 </v>
   <v>      -0.28571429       0.42857143       0.28571429 </v>
   <v>      -0.14285714       0.42857143       0.28571429 </v>
   <v>      -0.00000000      -0.42857143       0.28571429 </v>
   <v>       0.14285714      -0.42857143       0.28571429 </v>
   <v>       0.28571429      -0.42857143       0.28571429 </v>
   <v>       0.42857143      -0.42857143       0.28571429 </v>
   <v>      -0.42857143      -0.42857143       0.28571429 </v>
   <v>      -0.28571429      -0.42857143       0.28571429 </v>
   <v>      -0.14285714      -0.42857143       0.28571429 </v>
   <v>       0.00000000      -0.28571429       0.28571429 </v>
   <v>       0.14285714      -0.28571429       0.28571429 </v>
   <v>       0.28571429      -0.28571429       0.28571429 </v>
   <v>       0.42857143      -0.28571429       0.28571429 </v>
   <v>      -0.42857143      -0.28571429       0.28571429 </v>
   <v>      -0.28571429      -0.28571429       0.28571429 </v>
   <v>      -0.14285714      -0.28571429       0.28571429 </v>
   <v>       0.00000000      -0.14285714       0.28571429 </v>
   <v>       0.14285714      -0.14285714       0.28571429 </v>
   <v>       0.28571429      -0.14285714       0.28571429 </v>
   <v>       0.42857143      -0.14285714       0.28571429 </v>
   <v>      -0.42857143      -0.14285714       0.28571429 </v>
   <v>      -0.28571429      -0.14285714       0.28571429 </v>
   <v>      -0.14285714      -0.14285714       0.28571429 </v>
   <v>       0.00000000       0.00000000       0.42857143 </v>
   <v>       0.14285714       0.00000000       0.42857143 </v>
   <v>       0.28571429       0.00000000       0.42857143 </v>
   <v>       0.42857143      -0.00000000       0.42857143 </v>
   <v>      -0.42857143      -0.00000000       0.42857143 </v>
   <v>      -0.28571429       0.00000000       0.42857143 </v>
   <v>      -0.14285714      -0.00000000       0.42857143 </v>
   <v>      -0.00000000       0.14285714       0.42857143 </v>
   <v>       0.14285714       0.14285714       0.42857143 </v>
   <v>       0.28571429       0.14285714       0.42857143 </v>
   <v>       0.42857143       0.14285714       0.42857143 </v>
   <v>      -0.42857143       0.14285714       0.42857143 </v>
   <v>      -0.28571429       0.14285714       0.42857143 </v>
   <v>      -0.14285714       0.14285714       0.42857143 </v>
   <v>       0.00000000       0.28571429       0.42857143 </v>
   <v>       0.14285714       0.28571429       0.42857143 </v>
   <v>       0.28571429       0.28571429       0.42857143 </v>
   <v>       0.42857143       0.28571429       0.42857143 </v>
   <v>      -0.42857143       0.28571429       0.42857143 </v>
   <v>      -0.28571429       0.28571429       0.42857143 </v>
   <v>      -0.14285714       0.28571429       0.42857143 </v>
   <v>       0.00000000       0.42857143       0.42857143 </v>
   <v>       0.14285714       0.42857143       0.42857143 </v>
   <v>       0.28571429       0.42857143       0.42857143 </v>
   <v>       0.42857143       0.42857143       0.42857143 </v>
   <v>      -0.42857143       0.42857143       0.42857143 </v>
   <v>      -0.28571429       0.42857143       0.42857143 </v>
   <v>      -0.14285714       0.42857143       0.42857143 </v>
   <v>       0.00000000      -0.42857143       0.42857143 </v>
   <v>       0.14285714      -0.42857143       0.42857143 </v>
   <v>       0.28571429      -0.42857143       0.42857143 </v>
   <v>       0.42857143      -0.42857143       0.42857143 </v>
   <v>      -0.42857143      -0.42857143       0.42857143 </v>
   <v>      -0.28571429      -0.42857143       0.42857143 </v>
   <v>      -0.14285714      -0.42857143       0.42857143 </v>
   <v>      -0.00000000      -0.28571429       0.42857143 </v>
   <v>       0.14285714      -0.28571429       0.42857143 </v>
   <v>       0.28571429      -0.28571429       0.42857143 </v>
   <v>       0.42857143      -0.28571429       0.42857143 </v>
   <v>      -0.42857143      -0.28571429       0.42857143 </v>
   <v>      -0.28571429      -0.28571429       0.42857143 </v>
   <v>      -0.14285714      -0.28571429       0.42857143 </v>
   <v>       0.00000000      -0.14285714       0.42857143 </v>
   <v>       0.14285714      -0.14285714       0.42857143 </v>
   <v>       0.28571429      -0.14285714       0.42857143 </v>
   <v>       0.42857143      -0.14285714       0.42857143 </v>
   <v>      -0.42857143      -0.14285714       0.42857143 </v>
   <v>      -0.28571429      -0.14285714       0.42857143 </v>
   <v>      -0.14285714      -0.14285714       0.42857143 </v>
  </varray>
  <varray name="weights" >
   <v>       0.00291545 </v>
   <v>       0.00583090 </v>
   <v>       0.00583090 </v>
   <v>       0.00583090 </v>
   <v>       0.00583090 </v>
   <v>       0.00583090 </v>
   <v>       0.00583090 </v>
   <v>       0.00583090 </v>
   <v>       0.00583090 </v>
   <v>       0.00583090 </v>
   <v>       0.00583090 </v>
   <v>       0.00583090 </v>
   <v>       0.00583090 </v>
   <v>       0.00583090 </v>
   <v>       0.00583090 </v>
   <v>       0.00583090 </v>
   <v>       0.00583090 </v>
   <v>       0.00583090 </v>
   <v>       0.00583090 </v>
   <v>       0.00583090 </v>
   <v>       0.00583090 </v>
   <v>       0.00583090 </v>
   <v>       0.00583090 </v>
   <v>       0.00583090 </v>
   <v>       0.00583090 </v>
   <v>       0.00583090 </v>
   <v>       0.00583090 </v>
   <v>       0.00583090 </v>
   <v>       0.00583090 </v>
   <v>       0.00583090 </v>
   <v>       0.00583090 </v>
   <v>       0.00583090 </v>
   <v>       0.00583090 </v>
   <v>       0.00583090 </v>
   <v>       0.00583090 </v>
   <v>       0.00583090 </v>
   <v>       0.00583090 </v>
   <v>       0.00583090 </v>
   <v>       0.00583090 </v>
   <v>       0.00583090 </v>
   <v>       0.00583090 </v>
   <v>       0.00583090 </v>
   <v>       0.00583090 </v>
   <v>       0.00583090 </v>
   <v>       0.00583090 </v>
   <v>       0.00583090 </v>
   <v>       0.00583090 </v>
   <v>       0.00583090 </v>
   <v>       0.00583090 </v>
   <v>       0.00583090 </v>
   <v>       0.00583090 </v>
   <v>       0.00583090 </v>
   <v>       0.00583090 </v>
   <v>       0.00583090 </v>
   <v>       0.00583090 </v>
   <v>       0.00583090 </v>
   <v>       0.00583090 </v>
   <v>       0.00583090 </v>
   <v>       0.00583090 </v>
   <v>       0.00583090 </v>
   <v>       0.00583090 </v>
   <v>       0.00583090 </v>
   <v>       0.00583090 </v>
   <v>       0.00583090 </v>
   <v>       0.00583090 </v>
   <v>       0.00583090 </v>
   <v>       0.00583090 </v>
   <v>       0.00583090 </v>
   <v>       0.00583090 </v>
   <v>       0.00583090 </v>
   <v>       0.00583090 </v>
   <v>       0.00583090 </v>
   <v>       0.00583090 </v>
   <v>       0.00583090 </v>
   <v>       0.00583090 </v>
   <v>       0.00583090 </v>
   <v>       0.00583090 </v>
   <v>       0.00583090 </v>
   <v>       0.00583090 </v>
   <v>       0.00583090 </v>
   <v>       0.00583090 </v>
   <v>       0.00583090 </v>
   <v>       0.00583090 </v>
   <v>       0.00583090 </v>
   <v>       0.00583090 </v>
   <v>       0.00583090 </v>
   <v>       0.00583090 </v>
   <v>       0.00583090 </v>
   <v>       0.00583090 </v>
   <v>       0.00583090 </v>
   <v>       0.00583090 </v>
   <v>       0.00583090 </v>
   <v>       0.00583090 </v>
   <v>       0.00583090 </v>
   <v>       0.00583090 </v>
   <v>       0.00583090 </v>
   <v>       0.00583090 </v>
   <v>       0.00583090 </v>
   <v>       0.00583090 </v>
   <v>       0.00583090 </v>
   <v>       0.00583090 </v>
   <v>       0.00583090 </v>
   <v>       0.00583090 </v>
   <v>       0.00583090 </v>
   <v>       0.00583090 </v>
   <v>       0.00583090 </v>
   <v>       0.00583090 </v>
   <v>       0.00583090 </v>
   <v>       0.00583090 </v>
   <v>       0.00583090 </v>
   <v>       0.00583090 </v>
   <v>       0.00583090 </v>
   <v>       0.00583090 </v>
   <v>       0.00583090 </v>
   <v>       0.00583090 </v>
   <v>       0.00583090 </v>
   <v>       0.00583090 </v>
   <v>       0.00583090 </v>
   <v>       0.00583090 </v>
   <v>       0.00583090 </v>
   <v>       0.00583090 </v>
   <v>       0.00583090 </v>
   <v>       0.00583090 </v>
   <v>       0.00583090 </v>
   <v>       0.00583090 </v>
   <v>       0.00583090 </v>
   <v>       0.00583090 </v>
   <v>       0.00583090 </v>
   <v>       0.00583090 </v>
   <v>       0.00583090 </v>
   <v>       0.00583090 </v>
   <v>       0.00583090 </v>
   <v>       0.00583090 </v>
   <v>       0.00583090 </v>
   <v>       0.00583090 </v>
   <v>       0.00583090 </v>
   <v>       0.00583090 </v>
   <v>       0.00583090 </v>
   <v>       0.00583090 </v>
   <v>       0.00583090 </v>
   <v>       0.00583090 </v>
   <v>       0.00583090 </v>
   <v>       0.00583090 </v>
   <v>       0.00583090 </v>
   <v>       0.00583090 </v>
   <v>       0.00583090 </v>
   <v>       0.00583090 </v>
   <v>       0.00583090 </v>
   <v>       0.00583090 </v>
   <v>       0.00583090 </v>
   <v>       0.00583090 </v>
   <v>       0.00583090 </v>
   <v>       0.00583090 </v>
   <v>       0.00583090 </v>
   <v>       0.00583090 </v>
   <v>       0.00583090 </v>
   <v>       0.00583090 </v>
   <v>       0.00583090 </v>
   <v>       0.00583090 </v>
   <v>       0.00583090 </v>
   <v>       0.00583090 </v>
   <v>       0.00583090 </v>
   <v>       0.00583090 </v>
   <v>       0.00583090 </v>
   <v>       0.00583090 </v>
   <v>       0.00583090 </v>
   <v>       0.00583090 </v>
   <v>       0.00583090 </v>
   <v>       0.00583090 </v>
   <v>       0.00583090 </v>
   <v>       0.00583090 </v>
   <v>       0.00583090 </v>
  </varray>
 </kpoints>
 <parameters>
  <separator name="general" >
   <i type="string" name="SYSTEM">Nb - Mo - Ta - Ti - V SQS</i>
   <i type="logical" name="LCOMPAT"> F  </i>
  </separator>
  <separator name="electronic" >
   <i type="string" name="PREC">normal</i>
   <i name="ENMAX">    600.00000000</i>
   <i name="ENAUG">    455.65900000</i>
   <i name="EDIFF">      0.00010000</i>
   <i type="int" name="IALGO">    38</i>
   <i type="int" name="IWAVPR">    11</i>
   <i type="int" name="NBANDS">   120</i>
   <i name="NELECT">    194.00000000</i>
   <i type="int" name="TURBO">     0</i>
   <i type="int" name="IRESTART">     0</i>
   <i type="int" name="NREBOOT">     0</i>
   <i type="int" name="NMIN">     0</i>
   <i name="EREF">      0.00000000</i>
   <separator name="electronic smearing" >
    <i type="int" name="ISMEAR">     1</i>
    <i name="SIGMA">      0.20000000</i>
    <i name="KSPACING">      0.50000000</i>
    <i type="logical" name="KGAMMA"> T  </i>
   </separator>
   <separator name="electronic projectors" >
    <i type="logical" name="LREAL"> T  </i>
    <v name="ROPT">     -0.00050000     -0.00050000     -0.00050000     -0.00050000     -0.00050000</v>
    <i type="int" name="LMAXPAW">  -100</i>
    <i type="int" name="LMAXMIX">     2</i>
    <i type="logical" name="NLSPLINE"> F  </i>
   </separator>
   <separator name="electronic startup" >
    <i type="int" name="ISTART">     0</i>
    <i type="int" name="ICHARG">     0</i>
    <i type="int" name="INIWAV">     1</i>
   </separator>
   <separator name="electronic spin" >
    <i type="int" name="ISPIN">     1</i>
    <i type="logical" name="LNONCOLLINEAR"> F  </i>
    <v name="MAGMOM">      1.00000000      1.00000000      1.00000000      1.00000000      1.00000000      1.00000000      1.00000000      1.00000000      1.00000000      1.00000000      1.00000000      1.00000000      1.00000000      1.00000000      1.00000000      1.00000000      1.00000000      1.00000000      1.00000000      1.00000000
      1.00000000      1.00000000      1.00000000      1.00000000      1.00000000      1.00000000      1.00000000      1.00000000      1.00000000</v>
    <i name="NUPDOWN">     -1.00000000</i>
    <i type="logical" name="LSORBIT"> F  </i>
    <v name="SAXIS">      0.00000000      0.00000000      1.00000000</v>
    <i type="logical" name="LSPIRAL"> F  </i>
    <v name="QSPIRAL">      0.00000000      0.00000000      0.00000000</v>
    <i type="logical" name="LZEROZ"> F  </i>
   </separator>
   <separator name="electronic exchange-correlation" >
    <i type="logical" name="LASPH"> F  </i>
    <i type="logical" name="LMETAGGA"> F  </i>
   </separator>
   <separator name="electronic convergence" >
    <i type="int" name="NELM">    60</i>
    <i type="int" name="NELMDL">    -5</i>
    <i type="int" name="NELMIN">     2</i>
    <i name="ENINI">    600.00000000</i>
    <separator name="electronic convergence detail" >
     <i type="logical" name="LDIAG"> T  </i>
     <i type="logical" name="LSUBROT"> F  </i>
     <i name="WEIMIN">      0.00100000</i>
     <i name="EBREAK">      0.00000021</i>
     <i name="DEPER">      0.30000000</i>
     <i type="int" name="NRMM">     4</i>
     <i name="TIME">      0.40000000</i>
    </separator>
   </separator>
   <separator name="electronic mixer" >
    <i name="AMIX">      0.40000000</i>
    <i name="BMIX">      1.00000000</i>
    <i name="AMIN">      0.10000000</i>
    <i name="AMIX_MAG">      1.60000000</i>
    <i name="BMIX_MAG">      1.00000000</i>
    <separator name="electronic mixer details" >
     <i type="int" name="IMIX">     4</i>
     <i type="logical" name="MIXFIRST"> F  </i>
     <i type="int" name="MAXMIX">   -45</i>
     <i name="WC">    100.00000000</i>
     <i type="int" name="INIMIX">     1</i>
     <i type="int" name="MIXPRE">     1</i>
     <i type="int" name="MREMOVE">     5</i>
    </separator>
   </separator>
   <separator name="electronic dipolcorrection" >
    <i type="logical" name="LDIPOL"> F  </i>
    <i type="logical" name="LMONO"> F  </i>
    <i type="int" name="IDIPOL">     0</i>
    <i name="EPSILON">      1.00000000</i>
    <v name="DIPOL">   -100.00000000   -100.00000000   -100.00000000</v>
    <i name="EFIELD">      0.00000000</i>
   </separator>
  </separator>
  <separator name="grids" >
   <i type="int" name="NGX">    36</i>
   <i type="int" name="NGY">    50</i>
   <i type="int" name="NGZ">    70</i>
   <i type="int" name="NGXF">    72</i>
   <i type="int" name="NGYF">   100</i>
   <i type="int" name="NGZF">   140</i>
   <i type="logical" name="ADDGRID"> F  </i>
  </separator>
  <separator name="ionic" >
   <i type="int" name="NSW">    50</i>
   <i type="int" name="IBRION">     2</i>
   <i type="int" name="MDALGO">     0</i>
   <i type="int" name="ISIF">     3</i>
   <i name="PSTRESS">      0.00000000</i>
   <i name="EDIFFG">      0.00100000</i>
   <i type="int" name="NFREE">     1</i>
   <i name="POTIM">      0.50000000</i>
   <i name="SMASS">     -3.00000000</i>
   <i name="SCALEE">      1.00000000</i>
  </separator>
  <separator name="ionic md" >
   <i name="TEBEG">      0.00010000</i>
   <i name="TEEND">      0.00010000</i>
   <i type="int" name="NBLOCK">     1</i>
   <i type="int" name="KBLOCK">    50</i>
   <i type="int" name="NPACO">   256</i>
   <i name="APACO">     16.00000000</i>
  </separator>
  <separator name="symmetry" >
   <i type="int" name="ISYM">     2</i>
   <i name="SYMPREC">      0.00001000</i>
  </separator>
  <separator name="dos" >
   <i type="int" name="LORBIT">     0</i>
   <v name="RWIGS">     -1.00000000     -1.00000000     -1.00000000     -1.00000000     -1.00000000</v>
   <i type="int" name="NEDOS">   301</i>
   <i name="EMIN">     10.00000000</i>
   <i name="EMAX">    -10.00000000</i>
   <i name="EFERMI">      0.00000000</i>
  </separator>
  <separator name="writing" >
   <i type="int" name="NWRITE">     2</i>
   <i type="logical" name="LWAVE"> T  </i>
   <i type="logical" name="LDOWNSAMPLE"> F  </i>
   <i type="logical" name="LCHARG"> T  </i>
   <i type="logical" name="LPARD"> F  </i>
   <i type="logical" name="LVTOT"> F  </i>
   <i type="logical" name="LVHAR"> F  </i>
   <i type="logical" name="LELF"> F  </i>
   <i type="logical" name="LOPTICS"> F  </i>
   <v name="STM">      0.00000000      0.00000000      0.00000000      0.00000000      0.00000000      0.00000000      0.00000000</v>
  </separator>
  <separator name="performance" >
   <i type="int" name="NPAR">    12</i>
   <i type="int" name="NSIM">     4</i>
   <i type="int" name="NBLK">    -1</i>
   <i type="logical" name="LPLANE"> T  </i>
   <i type="logical" name="LSCALAPACK"> T  </i>
   <i type="logical" name="LSCAAWARE"> F  </i>
   <i type="logical" name="LSCALU"> F  </i>
   <i type="logical" name="LASYNC"> F  </i>
   <i type="logical" name="LORBITALREAL"> F  </i>
  </separator>
  <separator name="miscellaneous" >
   <i type="int" name="IDIOT">     3</i>
   <i type="int" name="ISPECIAL">     0</i>
   <i type="logical" name="LMUSIC"> F  </i>
   <v name="POMASS">     92.91000000     95.94000000    180.94800000     47.88000000     50.94100000</v>
   <v name="DARWINR">      0.00000000      0.00000000      0.00000000      0.00000000      0.00000000</v>
   <v name="DARWINV">      1.00000000      1.00000000      1.00000000      1.00000000      1.00000000</v>
   <i type="logical" name="LCORR"> T  </i>
  </separator>
  <i type="logical" name="GGA_COMPAT"> T  </i>
  <i type="logical" name="LBERRY"> F  </i>
  <i type="int" name="ICORELEVEL">     0</i>
  <i type="logical" name="LDAU"> F  </i>
  <i type="int" name="I_CONSTRAINED_M">     0</i>
  <separator name="electronic exchange-correlation" >
   <i type="string" name="GGA">PS</i>
   <i type="int" name="VOSKOWN">     0</i>
   <i type="logical" name="LHFCALC"> F  </i>
   <i type="string" name="PRECFOCK"></i>
   <i type="logical" name="LSYMGRAD"> F  </i>
   <i type="logical" name="LHFONE"> F  </i>
   <i type="logical" name="LRHFCALC"> F  </i>
   <i type="logical" name="LTHOMAS"> F  </i>
   <i type="logical" name="LMODELHF"> F  </i>
   <i name="ENCUT4O">     -1.00000000</i>
   <i type="int" name="EXXOEP">     0</i>
   <i type="int" name="FOURORBIT">     0</i>
   <i name="AEXX">      0.00000000</i>
   <i name="HFALPHA">      0.00000000</i>
   <i name="MCALPHA">      0.00000000</i>
   <i name="ALDAX">      1.00000000</i>
   <i name="AGGAX">      1.00000000</i>
   <i name="ALDAC">      1.00000000</i>
   <i name="AGGAC">      1.00000000</i>
   <i type="int" name="NKREDX">     1</i>
   <i type="int" name="NKREDY">     1</i>
   <i type="int" name="NKREDZ">     1</i>
   <i type="logical" name="SHIFTRED"> F  </i>
   <i type="logical" name="ODDONLY"> F  </i>
   <i type="logical" name="EVENONLY"> F  </i>
   <i type="int" name="LMAXFOCK">     0</i>
   <i type="int" name="NMAXFOCKAE">     0</i>
   <i type="logical" name="LFOCKAEDFT"> F  </i>
   <i name="HFSCREEN">      0.00000000</i>
   <i name="HFSCREENC">      0.00000000</i>
   <i type="int" name="NBANDSGWLOW">     0</i>
  </separator>
  <separator name="vdW DFT" >
   <i type="logical" name="LUSE_VDW"> F  </i>
   <i name="Zab_VDW">     -0.84910000</i>
   <i name="PARAM1">      0.12340000</i>
   <i name="PARAM2">      1.00000000</i>
   <i name="PARAM3">      0.00000000</i>
  </separator>
  <separator name="model GW" >
   <i type="int" name="MODEL_GW">     0</i>
   <i name="MODEL_EPS0">      9.79277462</i>
   <i name="MODEL_ALPHA">      1.00000000</i>
  </separator>
  <separator name="linear response parameters" >
   <i type="logical" name="LEPSILON"> F  </i>
   <i type="logical" name="LRPA"> F  </i>
   <i type="logical" name="LNABLA"> F  </i>
   <i type="logical" name="LVEL"> F  </i>
   <i type="int" name="KINTER">     0</i>
   <i name="CSHIFT">      0.10000000</i>
   <i name="OMEGAMAX">     -1.00000000</i>
   <i name="DEG_THRESHOLD">      0.00200000</i>
   <i name="RTIME">     -0.10000000</i>
   <i name="WPLASMAI">      0.00000000</i>
   <v name="DFIELD">      0.00000000      0.00000000      0.00000000</v>
   <v name="WPLASMA">      0.00000000      0.00000000      0.00000000      0.00000000      0.00000000      0.00000000      0.00000000      0.00000000      0.00000000</v>
  </separator>
  <separator name="orbital magnetization" >
   <i type="logical" name="NUCIND"> F  </i>
   <v name="MAGPOS">      0.00000000      0.00000000      0.00000000</v>
   <i type="logical" name="LNICSALL"> T  </i>
   <i type="logical" name="ORBITALMAG"> F  </i>
   <i type="logical" name="LMAGBLOCH"> F  </i>
   <i type="logical" name="LCHIMAG"> F  </i>
   <i type="logical" name="LGAUGE"> T  </i>
   <i type="int" name="MAGATOM">     0</i>
   <v name="MAGDIPOL">      0.00000000      0.00000000      0.00000000</v>
   <v name="AVECCONST">      0.00000000      0.00000000      0.00000000</v>
  </separator>
  <separator name="response functions" >
   <i type="logical" name="LADDER"> F  </i>
   <i type="logical" name="LRPAFORCE"> F  </i>
   <i type="logical" name="LFXC"> F  </i>
   <i type="logical" name="LHARTREE"> T  </i>
   <i type="int" name="IBSE">     0</i>
   <v type="int" name="KPOINT">    -1     0     0     0</v>
   <i type="logical" name="LTCTE"> F  </i>
   <i type="logical" name="LTETE"> F  </i>
   <i type="logical" name="LTRIPLET"> F  </i>
   <i type="logical" name="LFXCEPS"> F  </i>
   <i type="logical" name="LFXHEG"> F  </i>
   <i type="int" name="NATURALO">     2</i>
   <i type="logical" name="L2ORDER"> F  </i>
   <i type="logical" name="LMP2LT"> F  </i>
   <i type="logical" name="LUSEW"> F  </i>
   <i name="ENCUTGW">     -2.00000000</i>
   <i name="ENCUTGWSOFT">     -2.00000000</i>
   <i name="ENCUTLF">     -1.00000000</i>
   <i type="int" name="LMAXMP2">    -1</i>
   <i name="SCISSOR">      0.00000000</i>
   <i type="int" name="NOMEGA">     0</i>
   <i type="int" name="NOMEGAR">     0</i>
   <i type="int" name="NBANDSGW">    -1</i>
   <i type="int" name="NBANDSO">    -1</i>
   <i type="int" name="NBANDSV">    -1</i>
   <i type="int" name="NELM">     1</i>
   <i type="int" name="NELMHF">     1</i>
   <i type="int" name="DIM">     3</i>
   <i type="int" name="ANTIRES">     0</i>
   <i name="OMEGAMAX">    -30.00000000</i>
   <i name="OMEGAMIN">    -30.00000000</i>
   <i name="OMEGATL">   -200.00000000</i>
   <i type="int" name="OMEGAGRID">   140</i>
   <i name="CSHIFT">     -0.10000000</i>
   <i type="logical" name="SELFENERGY"> F  </i>
   <i type="logical" name="LSPECTRAL"> F  </i>
   <i type="logical" name="LSPECTRALGW"> F  </i>
   <i type="logical" name="LSINGLES"> F  </i>
   <i type="logical" name="LFERMIGW"> F  </i>
   <i type="logical" name="ODDONLYGW"> F  </i>
   <i type="logical" name="EVENONLYGW"> F  </i>
   <i type="int" name="NKREDLFX">     1</i>
   <i type="int" name="NKREDLFY">     1</i>
   <i type="int" name="NKREDLFZ">     1</i>
   <i type="int" name="MAXMEM">  2800</i>
   <i type="int" name="TELESCOPE">     0</i>
   <i type="int" name="TAUPAR">     1</i>
   <i type="int" name="OMEGAPAR">    -1</i>
   <i name="LAMBDA">      1.00000000</i>
  </separator>
  <separator name="External order field" >
   <i name="OFIELD_KAPPA">      0.00000000</i>
   <v name="OFIELD_K">      0.00000000      0.00000000      0.00000000</v>
   <i name="OFIELD_Q6_NEAR">      0.00000000</i>
   <i name="OFIELD_Q6_FAR">      0.00000000</i>
   <i name="OFIELD_A">      0.00000000</i>
  </separator>
  <separator name="solvation model" >
   <i type="logical" name="LSOL"> F  </i>
  </separator>
 </parameters>
 <atominfo>
  <atoms>      29 </atoms>
  <types>       5 </types>
  <array name="atoms" >
   <dimension dim="1">ion</dimension>
   <field type="string">element</field>
   <field type="int">atomtype</field>
   <set>
    <rc><c>Nb</c><c>   1</c></rc>
    <rc><c>Nb</c><c>   1</c></rc>
    <rc><c>Nb</c><c>   1</c></rc>
    <rc><c>Nb</c><c>   1</c></rc>
    <rc><c>Nb</c><c>   1</c></rc>
    <rc><c>Nb</c><c>   1</c></rc>
    <rc><c>Mo</c><c>   2</c></rc>
    <rc><c>Mo</c><c>   2</c></rc>
    <rc><c>Mo</c><c>   2</c></rc>
    <rc><c>Mo</c><c>   2</c></rc>
    <rc><c>Mo</c><c>   2</c></rc>
    <rc><c>Mo</c><c>   2</c></rc>
    <rc><c>Ta</c><c>   3</c></rc>
    <rc><c>Ta</c><c>   3</c></rc>
    <rc><c>Ta</c><c>   3</c></rc>
    <rc><c>Ta</c><c>   3</c></rc>
    <rc><c>Ta</c><c>   3</c></rc>
    <rc><c>Ta</c><c>   3</c></rc>
    <rc><c>Ti</c><c>   4</c></rc>
    <rc><c>Ti</c><c>   4</c></rc>
    <rc><c>Ti</c><c>   4</c></rc>
    <rc><c>Ti</c><c>   4</c></rc>
    <rc><c>Ti</c><c>   4</c></rc>
    <rc><c>V </c><c>   5</c></rc>
    <rc><c>V </c><c>   5</c></rc>
    <rc><c>V </c><c>   5</c></rc>
    <rc><c>V </c><c>   5</c></rc>
    <rc><c>V </c><c>   5</c></rc>
    <rc><c>V </c><c>   5</c></rc>
   </set>
  </array>
  <array name="atomtypes" >
   <dimension dim="1">type</dimension>
   <field type="int">atomspertype</field>
   <field type="string">element</field>
   <field>mass</field>
   <field>valence</field>
   <field type="string">pseudopotential</field>
   <set>
    <rc><c>   6</c><c>Nb</c><c>     92.91000000</c><c>     13.00000000</c><c>  PAW_PBE Nb_sv 25May2007               </c></rc>
    <rc><c>   6</c><c>Mo</c><c>     95.94000000</c><c>      6.00000000</c><c>  PAW_PBE Mo 08Apr2002                  </c></rc>
    <rc><c>   6</c><c>Ta</c><c>    180.94800000</c><c>      5.00000000</c><c>  PAW_PBE Ta 17Jan2003                  </c></rc>
    <rc><c>   5</c><c>Ti</c><c>     47.88000000</c><c>      4.00000000</c><c>  PAW_PBE Ti 08Apr2002                  </c></rc>
    <rc><c>   6</c><c>V </c><c>     50.94100000</c><c>      5.00000000</c><c>  PAW_PBE V 08Apr2002                   </c></rc>
   </set>
  </array>
 </atominfo>
 <structure name="initialpos" >
  <crystal>
   <varray name="basis" >
    <v>      -3.16000000      -3.16000000      -3.16000000 </v>
    <v>       1.58000000       1.58000000      -7.90000000 </v>
    <v>       7.90000000      -7.90000000      -1.58000000 </v>
   </varray>
   <i name="volume">    473.31744000 </i>
   <varray name="rec_basis" >
    <v>      -0.13713080      -0.12658228      -0.05274262 </v>
    <v>       0.04219409       0.06329114      -0.10548523 </v>
    <v>       0.06329114      -0.06329114       0.00000000 </v>
   </varray>
  </crystal>
  <varray name="positions" >
   <v>       0.96666667       0.93333333       0.40000000 </v>
   <v>       0.63333333       0.26666667       0.40000000 </v>
   <v>       0.50000000       0.00000000       0.00000000 </v>
   <v>       0.00000000       0.00000000       0.00000000 </v>
   <v>       0.10000000       0.20000000       0.80000000 </v>
   <v>       0.03333333       0.06666667       0.60000000 </v>
   <v>       0.90000000       0.80000000       0.20000000 </v>
   <v>       0.80000000       0.60000000       0.40000000 </v>
   <v>       0.73333333       0.46666667       0.20000000 </v>
   <v>       0.66666667       0.33333333       0.00000000 </v>
   <v>       0.36666667       0.73333333       0.60000000 </v>
   <v>       0.13333333       0.26666667       0.40000000 </v>
   <v>       0.83333333       0.66666667       0.00000000 </v>
   <v>       0.93333333       0.86666667       0.80000000 </v>
   <v>       0.56666667       0.13333333       0.20000000 </v>
   <v>       0.40000000       0.80000000       0.20000000 </v>
   <v>       0.43333333       0.86666667       0.80000000 </v>
   <v>       0.30000000       0.60000000       0.40000000 </v>
   <v>       0.86666667       0.73333333       0.60000000 </v>
   <v>       0.46666667       0.93333333       0.40000000 </v>
   <v>       0.26666667       0.53333333       0.80000000 </v>
   <v>       0.20000000       0.40000000       0.60000000 </v>
   <v>       0.06666667       0.13333333       0.20000000 </v>
   <v>       0.76666667       0.53333333       0.80000000 </v>
   <v>       0.70000000       0.40000000       0.60000000 </v>
   <v>       0.60000000       0.20000000       0.80000000 </v>
   <v>       0.53333333       0.06666667       0.60000000 </v>
   <v>       0.33333333       0.66666667       0.00000000 </v>
   <v>       0.23333333       0.46666667       0.20000000 </v>
  </varray>
 </structure>
 <calculation>
  <scstep>
   <time name="dav">   44.74   44.80</time>
   <time name="total">   44.86   44.94</time>
   <energy>
    <i name="alphaZ">   1169.09370839 </i>
    <i name="ewald"> -11183.96724010 </i>
    <i name="hartreedc">   -110.51675628 </i>
    <i name="XCdc">   -942.56577632 </i>
    <i name="pawpsdc"> 587615.31964467 </i>
    <i name="pawaedc">-586344.96424563 </i>
    <i name="eentropy">      0.00088185 </i>
    <i name="bandstr">  -7144.76348064 </i>
    <i name="atom">  12911.34519091 </i>
    <i name="e_fr_energy">  -4031.01807315 </i>
    <i name="e_wo_entrp">  -4031.01895500 </i>
    <i name="e_0_energy">  -4031.01836710 </i>
   </energy>
  </scstep>
  <scstep>
   <time name="dav">   50.51   50.58</time>
   <time name="total">   50.51   50.59</time>
   <energy>
    <i name="e_fr_energy">  -9545.10947438 </i>
    <i name="e_wo_entrp">  -9545.10876052 </i>
    <i name="e_0_energy">  -9545.10923643 </i>
   </energy>
  </scstep>
  <scstep>
   <time name="dav">   56.75   56.82</time>
   <time name="total">   56.75   56.83</time>
   <energy>
    <i name="e_fr_energy"> -10454.96354624 </i>
    <i name="e_wo_entrp"> -10454.96197274 </i>
    <i name="e_0_energy"> -10454.96302174 </i>
   </energy>
  </scstep>
  <scstep>
   <time name="dav">   56.56   56.65</time>
   <time name="total">   56.57   56.65</time>
   <energy>
    <i name="e_fr_energy"> -10715.79820168 </i>
    <i name="e_wo_entrp"> -10715.79852616 </i>
    <i name="e_0_energy"> -10715.79830984 </i>
   </energy>
  </scstep>
  <scstep>
   <time name="dav">   56.63   56.71</time>
   <time name="total">   57.27   57.35</time>
   <energy>
    <i name="e_fr_energy"> -10884.52446181 </i>
    <i name="e_wo_entrp"> -10884.52280154 </i>
    <i name="e_0_energy"> -10884.52390839 </i>
   </energy>
  </scstep>
  <scstep>
   <time name="dav">   44.72   44.78</time>
   <time name="total">   45.46   45.53</time>
   <energy>
    <i name="e_fr_energy">   -983.04375225 </i>
    <i name="e_wo_entrp">   -983.04297643 </i>
    <i name="e_0_energy">   -983.04349365 </i>
   </energy>
  </scstep>
  <scstep>
   <time name="dav">   50.23   50.30</time>
   <time name="total">   50.92   50.99</time>
   <energy>
    <i name="e_fr_energy">   -809.47279622 </i>
    <i name="e_wo_entrp">   -809.47653641 </i>
    <i name="e_0_energy">   -809.47404295 </i>
   </energy>
  </scstep>
  <scstep>
   <time name="dav">   51.68   51.74</time>
   <time name="total">   52.35   52.43</time>
   <energy>
    <i name="e_fr_energy">   -640.78623080 </i>
    <i name="e_wo_entrp">   -640.78538714 </i>
    <i name="e_0_energy">   -640.78594958 </i>
   </energy>
  </scstep>
  <scstep>
   <time name="dav">   50.29   50.35</time>
   <time name="total">   50.95   51.02</time>
   <energy>
    <i name="e_fr_energy">   -542.54677396 </i>
    <i name="e_wo_entrp">   -542.54628537 </i>
    <i name="e_0_energy">   -542.54661110 </i>
   </energy>
  </scstep>
  <scstep>
   <time name="dav">   55.74   55.88</time>
   <time name="total">   56.38   56.57</time>
   <energy>
    <i name="e_fr_energy">   -658.54808595 </i>
    <i name="e_wo_entrp">   -658.54852508 </i>
    <i name="e_0_energy">   -658.54823232 </i>
   </energy>
  </scstep>
  <scstep>
   <time name="dav">   51.94   52.00</time>
   <time name="total">   52.63   52.70</time>
   <energy>
    <i name="e_fr_energy">   -631.50673311 </i>
    <i name="e_wo_entrp">   -631.50649367 </i>
    <i name="e_0_energy">   -631.50665330 </i>
   </energy>
  </scstep>
  <scstep>
   <time name="dav">   50.06   50.13</time>
   <time name="total">   50.74   50.81</time>
   <energy>
    <i name="e_fr_energy">   -810.74804026 </i>
    <i name="e_wo_entrp">   -810.75152757 </i>
    <i name="e_0_energy">   -810.74920270 </i>
   </energy>
  </scstep>
  <scstep>
   <time name="dav">   51.95   52.02</time>
   <time name="total">   52.62   52.69</time>
   <energy>
    <i name="e_fr_energy">   -845.04361566 </i>
    <i name="e_wo_entrp">   -845.03482182 </i>
    <i name="e_0_energy">   -845.04068438 </i>
   </energy>
  </scstep>
  <scstep>
   <time name="dav">   47.89   47.95</time>
   <time name="total">   48.57   48.65</time>
   <energy>
    <i name="e_fr_energy">   -608.19075941 </i>
    <i name="e_wo_entrp">   -608.19436368 </i>
    <i name="e_0_energy">   -608.19196083 </i>
   </energy>
  </scstep>
  <scstep>
   <time name="dav">   47.11   47.17</time>
   <time name="total">   47.79   47.85</time>
   <energy>
    <i name="e_fr_energy">   -651.76992623 </i>
    <i name="e_wo_entrp">   -651.76660229 </i>
    <i name="e_0_energy">   -651.76881825 </i>
   </energy>
  </scstep>
  <scstep>
   <time name="dav">   52.51   52.58</time>
   <time name="total">   53.19   53.27</time>
   <energy>
    <i name="e_fr_energy">   -578.57822418 </i>
    <i name="e_wo_entrp">   -578.57933429 </i>
    <i name="e_0_energy">   -578.57859422 </i>
   </energy>
  </scstep>
  <scstep>
   <time name="dav">   51.60   51.67</time>
   <time name="total">   52.29   52.36</time>
   <energy>
    <i name="e_fr_energy">   -429.99976395 </i>
    <i name="e_wo_entrp">   -430.00477038 </i>
    <i name="e_0_energy">   -430.00143276 </i>
   </energy>
  </scstep>
  <scstep>
   <time name="dav">   50.70   50.77</time>
   <time name="total">   51.40   51.47</time>
   <energy>
    <i name="e_fr_energy">   -376.75105418 </i>
    <i name="e_wo_entrp">   -376.74498446 </i>
    <i name="e_0_energy">   -376.74903094 </i>
   </energy>
  </scstep>
  <scstep>
   <time name="dav">   46.89   46.95</time>
   <time name="total">   47.56   47.63</time>
   <energy>
    <i name="e_fr_energy">   -360.12768422 </i>
    <i name="e_wo_entrp">   -360.12258519 </i>
    <i name="e_0_energy">   -360.12598454 </i>
   </energy>
  </scstep>
  <scstep>
   <time name="dav">   52.59   52.66</time>
   <time name="total">   53.26   53.34</time>
   <energy>
    <i name="e_fr_energy">   -340.57588214 </i>
    <i name="e_wo_entrp">   -340.56902744 </i>
    <i name="e_0_energy">   -340.57359724 </i>
   </energy>
  </scstep>
  <scstep>
   <time name="dav">   49.63   49.70</time>
   <time name="total">   50.30   50.36</time>
   <energy>
    <i name="e_fr_energy">   -330.79736789 </i>
    <i name="e_wo_entrp">   -330.79988392 </i>
    <i name="e_0_energy">   -330.79820657 </i>
   </energy>
  </scstep>
  <scstep>
   <time name="dav">   46.23   46.30</time>
   <time name="total">   46.90   46.97</time>
   <energy>
    <i name="e_fr_energy">   -326.23887626 </i>
    <i name="e_wo_entrp">   -326.22318454 </i>
    <i name="e_0_energy">   -326.23364569 </i>
   </energy>
  </scstep>
  <scstep>
   <time name="dav">   50.69   50.76</time>
   <time name="total">   51.36   51.43</time>
   <energy>
    <i name="e_fr_energy">   -326.15715644 </i>
    <i name="e_wo_entrp">   -326.15059246 </i>
    <i name="e_0_energy">   -326.15496845 </i>
   </energy>
  </scstep>
  <scstep>
   <time name="dav">   54.06   54.13</time>
   <time name="total">   54.75   54.83</time>
   <energy>
    <i name="e_fr_energy">   -313.68884294 </i>
    <i name="e_wo_entrp">   -313.66508460 </i>
    <i name="e_0_energy">   -313.68092350 </i>
   </energy>
  </scstep>
  <scstep>
   <time name="dav">   49.39   49.45</time>
   <time name="total">   50.06   50.13</time>
   <energy>
    <i name="e_fr_energy">   -310.60916650 </i>
    <i name="e_wo_entrp">   -310.58600269 </i>
    <i name="e_0_energy">   -310.60144523 </i>
   </energy>
  </scstep>
  <scstep>
   <time name="dav">   52.59   52.65</time>
   <time name="total">   53.27   53.35</time>
   <energy>
    <i name="e_fr_energy">   -310.09848693 </i>
    <i name="e_wo_entrp">   -310.07299554 </i>
    <i name="e_0_energy">   -310.08998980 </i>
   </energy>
  </scstep>
  <scstep>
   <time name="dav">   48.74   48.81</time>
   <time name="total">   49.42   49.48</time>
   <energy>
    <i name="e_fr_energy">   -310.16818949 </i>
    <i name="e_wo_entrp">   -310.14878221 </i>
    <i name="e_0_energy">   -310.16172040 </i>
   </energy>
  </scstep>
  <scstep>
   <time name="dav">   49.30   49.37</time>
   <time name="total">   49.98   50.06</time>
   <energy>
    <i name="e_fr_energy">   -309.46629506 </i>
    <i name="e_wo_entrp">   -309.44752319 </i>
    <i name="e_0_energy">   -309.46003777 </i>
   </energy>
  </scstep>
  <scstep>
   <time name="dav">   50.84   50.91</time>
   <time name="total">   51.50   51.58</time>
   <energy>
    <i name="e_fr_energy">   -308.53048410 </i>
    <i name="e_wo_entrp">   -308.50638988 </i>
    <i name="e_0_energy">   -308.52245269 </i>
   </energy>
  </scstep>
  <scstep>
   <time name="dav">   48.89   48.96</time>
   <time name="total">   49.56   49.64</time>
   <energy>
    <i name="e_fr_energy">   -308.81153273 </i>
    <i name="e_wo_entrp">   -308.79722359 </i>
    <i name="e_0_energy">   -308.80676302 </i>
   </energy>
  </scstep>
  <scstep>
   <time name="dav">   52.18   52.26</time>
   <time name="total">   52.85   52.92</time>
   <energy>
    <i name="e_fr_energy">   -308.20569232 </i>
    <i name="e_wo_entrp">   -308.18705302 </i>
    <i name="e_0_energy">   -308.19947922 </i>
   </energy>
  </scstep>
  <scstep>
   <time name="dav">   50.43   50.50</time>
   <time name="total">   51.11   51.19</time>
   <energy>
    <i name="e_fr_energy">   -308.10764017 </i>
    <i name="e_wo_entrp">   -308.08419774 </i>
    <i name="e_0_energy">   -308.09982603 </i>
   </energy>
  </scstep>
  <scstep>
   <time name="dav">   51.03   51.10</time>
   <time name="total">   51.71   51.78</time>
   <energy>
    <i name="e_fr_energy">   -308.04239000 </i>
    <i name="e_wo_entrp">   -308.02347737 </i>
    <i name="e_0_energy">   -308.03608579 </i>
   </energy>
  </scstep>
  <scstep>
   <time name="dav">   47.62   47.68</time>
   <time name="total">   48.28   48.36</time>
   <energy>
    <i name="e_fr_energy">   -307.95334564 </i>
    <i name="e_wo_entrp">   -307.93483284 </i>
    <i name="e_0_energy">   -307.94717470 </i>
   </energy>
  </scstep>
  <scstep>
   <time name="dav">   47.19   47.26</time>
   <time name="total">   47.86   47.93</time>
   <energy>
    <i name="e_fr_energy">   -307.69344260 </i>
    <i name="e_wo_entrp">   -307.67346675 </i>
    <i name="e_0_energy">   -307.68678399 </i>
   </energy>
  </scstep>
  <scstep>
   <time name="dav">   48.80   48.87</time>
   <time name="total">   49.47   49.55</time>
   <energy>
    <i name="e_fr_energy">   -307.65660883 </i>
    <i name="e_wo_entrp">   -307.63605735 </i>
    <i name="e_0_energy">   -307.64975834 </i>
   </energy>
  </scstep>
  <scstep>
   <time name="dav">   48.77   48.84</time>
   <time name="total">   49.43   49.50</time>
   <energy>
    <i name="e_fr_energy">   -307.63280234 </i>
    <i name="e_wo_entrp">   -307.61160695 </i>
    <i name="e_0_energy">   -307.62573721 </i>
   </energy>
  </scstep>
  <scstep>
   <time name="dav">   48.94   49.01</time>
   <time name="total">   49.61   49.69</time>
   <energy>
    <i name="e_fr_energy">   -307.62812390 </i>
    <i name="e_wo_entrp">   -307.60754497 </i>
    <i name="e_0_energy">   -307.62126426 </i>
   </energy>
  </scstep>
  <scstep>
   <time name="dav">   47.50   47.57</time>
   <time name="total">   48.17   48.24</time>
   <energy>
    <i name="e_fr_energy">   -307.61776461 </i>
    <i name="e_wo_entrp">   -307.59734888 </i>
    <i name="e_0_energy">   -307.61095937 </i>
   </energy>
  </scstep>
  <scstep>
   <time name="dav">   47.35   47.42</time>
   <time name="total">   48.04   48.11</time>
   <energy>
    <i name="e_fr_energy">   -307.60539561 </i>
    <i name="e_wo_entrp">   -307.58454484 </i>
    <i name="e_0_energy">   -307.59844535 </i>
   </energy>
  </scstep>
  <scstep>
   <time name="dav">   47.14   47.20</time>
   <time name="total">   47.80   47.86</time>
   <energy>
    <i name="e_fr_energy">   -307.59072182 </i>
    <i name="e_wo_entrp">   -307.56979296 </i>
    <i name="e_0_energy">   -307.58374554 </i>
   </energy>
  </scstep>
  <scstep>
   <time name="dav">   44.68   44.75</time>
   <time name="total">   45.35   45.43</time>
   <energy>
    <i name="e_fr_energy">   -307.57569947 </i>
    <i name="e_wo_entrp">   -307.55555473 </i>
    <i name="e_0_energy">   -307.56898456 </i>
   </energy>
  </scstep>
  <scstep>
   <time name="dav">   45.90   45.96</time>
   <time name="total">   46.56   46.62</time>
   <energy>
    <i name="e_fr_energy">   -307.56394026 </i>
    <i name="e_wo_entrp">   -307.54362607 </i>
    <i name="e_0_energy">   -307.55716886 </i>
   </energy>
  </scstep>
  <scstep>
   <time name="dav">   47.27   47.34</time>
   <time name="total">   47.93   48.00</time>
   <energy>
    <i name="e_fr_energy">   -307.55919587 </i>
    <i name="e_wo_entrp">   -307.53901225 </i>
    <i name="e_0_energy">   -307.55246800 </i>
   </energy>
  </scstep>
  <scstep>
   <time name="dav">   43.01   43.07</time>
   <time name="total">   43.67   43.74</time>
   <energy>
    <i name="e_fr_energy">   -307.55564855 </i>
    <i name="e_wo_entrp">   -307.53523109 </i>
    <i name="e_0_energy">   -307.54884273 </i>
   </energy>
  </scstep>
  <scstep>
   <time name="dav">   45.54   45.60</time>
   <time name="total">   46.20   46.28</time>
   <energy>
    <i name="e_fr_energy">   -307.55387476 </i>
    <i name="e_wo_entrp">   -307.53332854 </i>
    <i name="e_0_energy">   -307.54702602 </i>
   </energy>
  </scstep>
  <scstep>
   <time name="dav">   43.37   43.43</time>
   <time name="total">   44.03   44.09</time>
   <energy>
    <i name="e_fr_energy">   -307.55478710 </i>
    <i name="e_wo_entrp">   -307.53384591 </i>
    <i name="e_0_energy">   -307.54780670 </i>
   </energy>
  </scstep>
  <scstep>
   <time name="dav">   42.61   42.67</time>
   <time name="total">   43.27   43.36</time>
   <energy>
    <i name="e_fr_energy">   -307.55408816 </i>
    <i name="e_wo_entrp">   -307.53324730 </i>
    <i name="e_0_energy">   -307.54714121 </i>
   </energy>
  </scstep>
  <scstep>
   <time name="dav">   41.34   41.40</time>
   <time name="total">   42.01   42.07</time>
   <energy>
    <i name="e_fr_energy">   -307.55310350 </i>
    <i name="e_wo_entrp">   -307.53248408 </i>
    <i name="e_0_energy">   -307.54623036 </i>
   </energy>
  </scstep>
  <scstep>
   <time name="dav">   27.67   27.71</time>
   <time name="total">   28.33   28.38</time>
   <energy>
    <i name="e_fr_energy">   -307.55298957 </i>
    <i name="e_wo_entrp">   -307.53242972 </i>
    <i name="e_0_energy">   -307.54613628 </i>
   </energy>
  </scstep>
  <scstep>
   <time name="dav">   43.19   43.25</time>
   <time name="total">   43.85   43.91</time>
   <energy>
    <i name="e_fr_energy">   -307.55255289 </i>
    <i name="e_wo_entrp">   -307.53212619 </i>
    <i name="e_0_energy">   -307.54574399 </i>
   </energy>
  </scstep>
  <scstep>
   <time name="dav">   25.78   25.82</time>
   <time name="total">   25.86   25.90</time>
   <energy>
    <i name="alphaZ">   1169.09370839 </i>
    <i name="ewald"> -11183.96724010 </i>
    <i name="hartreedc">  -3074.57934288 </i>
    <i name="XCdc">   -852.48293177 </i>
    <i name="pawpsdc">  18793.58500873 </i>
    <i name="pawaedc"> -17323.03565445 </i>
    <i name="eentropy">     -0.02045139 </i>
    <i name="bandstr">   -747.49082122 </i>
    <i name="atom">  12911.34519091 </i>
    <i name="e_fr_energy">   -307.55253379 </i>
    <i name="e_wo_entrp">   -307.53208240 </i>
    <i name="e_0_energy">   -307.54571666 </i>
   </energy>
  </scstep>
  <structure>
   <crystal>
    <varray name="basis" >
     <v>      -3.16000000      -3.16000000      -3.16000000 </v>
     <v>       1.58000000       1.58000000      -7.90000000 </v>
     <v>       7.90000000      -7.90000000      -1.58000000 </v>
    </varray>
    <i name="volume">    473.31744000 </i>
    <varray name="rec_basis" >
     <v>      -0.13713080      -0.12658228      -0.05274262 </v>
     <v>       0.04219409       0.06329114      -0.10548523 </v>
     <v>       0.06329114      -0.06329114       0.00000000 </v>
    </varray>
   </crystal>
   <varray name="positions" >
    <v>       0.96666667       0.93333333       0.40000000 </v>
    <v>       0.63333333       0.26666667       0.40000000 </v>
    <v>       0.50000000       0.00000000       0.00000000 </v>
    <v>       0.00000000       0.00000000       0.00000000 </v>
    <v>       0.10000000       0.20000000       0.80000000 </v>
    <v>       0.03333333       0.06666667       0.60000000 </v>
    <v>       0.90000000       0.80000000       0.20000000 </v>
    <v>       0.80000000       0.60000000       0.40000000 </v>
    <v>       0.73333333       0.46666667       0.20000000 </v>
    <v>       0.66666667       0.33333333       0.00000000 </v>
    <v>       0.36666667       0.73333333       0.60000000 </v>
    <v>       0.13333333       0.26666667       0.40000000 </v>
    <v>       0.83333333       0.66666667       0.00000000 </v>
    <v>       0.93333333       0.86666667       0.80000000 </v>
    <v>       0.56666667       0.13333333       0.20000000 </v>
    <v>       0.40000000       0.80000000       0.20000000 </v>
    <v>       0.43333333       0.86666667       0.80000000 </v>
    <v>       0.30000000       0.60000000       0.40000000 </v>
    <v>       0.86666667       0.73333333       0.60000000 </v>
    <v>       0.46666667       0.93333333       0.40000000 </v>
    <v>       0.26666667       0.53333333       0.80000000 </v>
    <v>       0.20000000       0.40000000       0.60000000 </v>
    <v>       0.06666667       0.13333333       0.20000000 </v>
    <v>       0.76666667       0.53333333       0.80000000 </v>
    <v>       0.70000000       0.40000000       0.60000000 </v>
    <v>       0.60000000       0.20000000       0.80000000 </v>
    <v>       0.53333333       0.06666667       0.60000000 </v>
    <v>       0.33333333       0.66666667       0.00000000 </v>
    <v>       0.23333333       0.46666667       0.20000000 </v>
   </varray>
  </structure>
  <varray name="forces" >
   <v>       0.14112234       0.27003500       0.17100942 </v>
   <v>       0.23922591       0.00432640       0.00085571 </v>
   <v>       0.23557243       0.78229913      -1.07904073 </v>
   <v>       0.30507932       0.12607935       0.32842355 </v>
   <v>       0.67890515       0.27002476      -0.84663532 </v>
   <v>      -0.37337419       0.41058141      -0.32796308 </v>
   <v>      -0.09984877      -0.35129250       0.21229418 </v>
   <v>      -0.58047952      -0.34937855       0.57656928 </v>
   <v>       0.02752651       0.39080719       0.09074084 </v>
   <v>       0.16182405       0.63116434      -0.62818114 </v>
   <v>      -0.19321742      -0.31843710       0.32896362 </v>
   <v>       0.04364626       0.29536837      -0.60487809 </v>
   <v>      -0.30966852      -1.08352075       1.41253586 </v>
   <v>       0.35230169       0.18428847      -0.03178010 </v>
   <v>      -0.36142033       0.18494249      -0.25270065 </v>
   <v>      -0.87499963      -0.00269352       0.76866736 </v>
   <v>      -0.78544750      -0.26174732       0.57948515 </v>
   <v>       0.41075312      -0.32649913      -0.16643708 </v>
   <v>       0.09489079       0.17382282       0.50465727 </v>
   <v>       0.60005249      -0.52294306       0.11118496 </v>
   <v>      -0.09370748      -0.62558447       0.01128352 </v>
   <v>      -0.07920299      -0.22468604       0.51921631 </v>
   <v>       0.31377346       0.45515199      -1.09969098 </v>
   <v>       0.17546031       0.25185582       0.71400661 </v>
   <v>       0.62544955      -0.01800206      -0.37298834 </v>
   <v>      -0.58075166       0.19199918      -0.28888052 </v>
   <v>       0.28627683      -0.41673093      -0.47912471 </v>
   <v>      -0.31817456      -0.41306865       0.06853266 </v>
   <v>      -0.04156763       0.29183736      -0.22012555 </v>
  </varray>
  <varray name="stress" >
   <v>     -16.19806592       3.30044542       1.86388444 </v>
   <v>       3.30044541     -18.63579567       6.33799724 </v>
   <v>       1.86388445       6.33799727     -18.91565999 </v>
  </varray>
  <energy>
   <i name="e_fr_energy">   -307.55253379 </i>
   <i name="e_wo_entrp">   -307.54571666 </i>
   <i name="e_0_energy">     -0.02045139 </i>
  </energy>
  <time name="totalsc"> 2560.98 2564.85</time>
 </calculation>
 <calculation>
  <scstep>
   <time name="dav">   33.73   33.78</time>
   <time name="total">   34.40   34.46</time>
   <energy>
    <i name="alphaZ">   1200.54391686 </i>
    <i name="ewald"> -11340.34900594 </i>
    <i name="hartreedc">  -3048.53338545 </i>
    <i name="XCdc">   -849.17268286 </i>
    <i name="pawpsdc">  18791.77795303 </i>
    <i name="pawaedc"> -17321.23714693 </i>
    <i name="eentropy">     -0.00863793 </i>
    <i name="bandstr">   -652.63002007 </i>
    <i name="atom">  12911.34519091 </i>
    <i name="e_fr_energy">   -308.26381838 </i>
    <i name="e_wo_entrp">   -308.25518045 </i>
    <i name="e_0_energy">   -308.26093907 </i>
   </energy>
  </scstep>
  <scstep>
   <time name="dav">   52.04   52.11</time>
   <time name="total">   52.71   52.80</time>
   <energy>
    <i name="e_fr_energy">   -310.86352289 </i>
    <i name="e_wo_entrp">   -310.84943353 </i>
    <i name="e_0_energy">   -310.85882644 </i>
   </energy>
  </scstep>
  <scstep>
   <time name="dav">   51.48   51.55</time>
   <time name="total">   52.15   52.23</time>
   <energy>
    <i name="e_fr_energy">   -308.73425068 </i>
    <i name="e_wo_entrp">   -308.72044826 </i>
    <i name="e_0_energy">   -308.72964987 </i>
   </energy>
  </scstep>
  <scstep>
   <time name="dav">   48.79   48.85</time>
   <time name="total">   49.46   49.54</time>
   <energy>
    <i name="e_fr_energy">   -308.68169597 </i>
    <i name="e_wo_entrp">   -308.66492251 </i>
    <i name="e_0_energy">   -308.67610482 </i>
   </energy>
  </scstep>
  <scstep>
   <time name="dav">   48.02   48.10</time>
   <time name="total">   48.69   48.77</time>
   <energy>
    <i name="e_fr_energy">   -308.47028585 </i>
    <i name="e_wo_entrp">   -308.45674643 </i>
    <i name="e_0_energy">   -308.46577271 </i>
   </energy>
  </scstep>
  <scstep>
   <time name="dav">   49.41   49.48</time>
   <time name="total">   50.08   50.17</time>
   <energy>
    <i name="e_fr_energy">   -308.29364103 </i>
    <i name="e_wo_entrp">   -308.27674631 </i>
    <i name="e_0_energy">   -308.28800946 </i>
   </energy>
  </scstep>
  <scstep>
   <time name="dav">   50.28   50.36</time>
   <time name="total">   50.94   51.02</time>
   <energy>
    <i name="e_fr_energy">   -308.27799580 </i>
    <i name="e_wo_entrp">   -308.25791058 </i>
    <i name="e_0_energy">   -308.27130073 </i>
   </energy>
  </scstep>
  <scstep>
   <time name="dav">   53.77   53.84</time>
   <time name="total">   54.43   54.51</time>
   <energy>
    <i name="e_fr_energy">   -308.25581657 </i>
    <i name="e_wo_entrp">   -308.23429872 </i>
    <i name="e_0_energy">   -308.24864396 </i>
   </energy>
  </scstep>
  <scstep>
   <time name="dav">   54.26   54.34</time>
   <time name="total">   54.93   55.00</time>
   <energy>
    <i name="e_fr_energy">   -308.24158386 </i>
    <i name="e_wo_entrp">   -308.22272413 </i>
    <i name="e_0_energy">   -308.23529728 </i>
   </energy>
  </scstep>
  <scstep>
   <time name="dav">   49.88   49.95</time>
   <time name="total">   50.56   50.64</time>
   <energy>
    <i name="e_fr_energy">   -308.23706387 </i>
    <i name="e_wo_entrp">   -308.21757310 </i>
    <i name="e_0_energy">   -308.23056695 </i>
   </energy>
  </scstep>
  <scstep>
   <time name="dav">   47.35   47.42</time>
   <time name="total">   48.03   48.10</time>
   <energy>
    <i name="e_fr_energy">   -308.23714711 </i>
    <i name="e_wo_entrp">   -308.21724834 </i>
    <i name="e_0_energy">   -308.23051418 </i>
   </energy>
  </scstep>
  <scstep>
   <time name="dav">   50.97   51.03</time>
   <time name="total">   51.65   51.74</time>
   <energy>
    <i name="e_fr_energy">   -308.23825875 </i>
    <i name="e_wo_entrp">   -308.21946465 </i>
    <i name="e_0_energy">   -308.23199405 </i>
   </energy>
  </scstep>
  <scstep>
   <time name="dav">   52.46   52.54</time>
   <time name="total">   53.14   53.21</time>
   <energy>
    <i name="e_fr_energy">   -308.23963494 </i>
    <i name="e_wo_entrp">   -308.22041792 </i>
    <i name="e_0_energy">   -308.23322927 </i>
   </energy>
  </scstep>
  <scstep>
   <time name="dav">   47.42   47.49</time>
   <time name="total">   48.11   48.19</time>
   <energy>
    <i name="e_fr_energy">   -308.23966090 </i>
    <i name="e_wo_entrp">   -308.22030293 </i>
    <i name="e_0_energy">   -308.23320824 </i>
   </energy>
  </scstep>
  <scstep>
   <time name="dav">   45.57   45.90</time>
   <time name="total">   46.22   46.59</time>
   <energy>
    <i name="e_fr_energy">   -308.23871755 </i>
    <i name="e_wo_entrp">   -308.21936284 </i>
    <i name="e_0_energy">   -308.23226598 </i>
   </energy>
  </scstep>
  <scstep>
   <time name="dav">   44.91   44.97</time>
   <time name="total">   45.60   45.67</time>
   <energy>
    <i name="e_fr_energy">   -308.23858147 </i>
    <i name="e_wo_entrp">   -308.21927523 </i>
    <i name="e_0_energy">   -308.23214606 </i>
   </energy>
  </scstep>
  <scstep>
   <time name="dav">   34.61   34.66</time>
   <time name="total">   34.68   34.73</time>
   <energy>
    <i name="alphaZ">   1200.54391686 </i>
    <i name="ewald"> -11340.34900594 </i>
    <i name="hartreedc">  -2996.29751741 </i>
    <i name="XCdc">   -850.77495704 </i>
    <i name="pawpsdc">  19326.89797899 </i>
    <i name="pawaedc"> -17857.48229062 </i>
    <i name="eentropy">     -0.01930930 </i>
    <i name="bandstr">   -702.10255539 </i>
    <i name="atom">  12911.34519091 </i>
    <i name="e_fr_energy">   -308.23854893 </i>
    <i name="e_wo_entrp">   -308.21923963 </i>
    <i name="e_0_energy">   -308.23211250 </i>
   </energy>
  </scstep>
  <structure>
   <crystal>
    <varray name="basis" >
     <v>      -3.14286497      -3.14602741      -3.14336186 </v>
     <v>       1.56274883       1.54348560      -7.82019289 </v>
     <v>       7.82285137      -7.81975571      -1.58268268 </v>
    </varray>
    <i name="volume">    460.91811670 </i>
    <varray name="rec_basis" >
     <v>      -0.13797428      -0.12736074      -0.05270952 </v>
     <v>       0.04252634       0.06414200      -0.10671601 </v>
     <v>       0.06390349      -0.06398120       0.00014207 </v>
    </varray>
   </crystal>
   <varray name="positions" >
    <v>       0.96364893       0.93357485       0.39960639 </v>
    <v>       0.63172212       0.26716248       0.40071723 </v>
    <v>       0.49640988       0.00835926      -0.00166934 </v>
    <v>      -0.00362385      -0.00066534       0.00054655 </v>
    <v>       0.09601393       0.20651486       0.80124845 </v>
    <v>       0.03413061       0.06882926       0.59760632 </v>
    <v>       0.90226561       0.79764380       0.20076774 </v>
    <v>       0.80450668       0.59481754       0.39929437 </v>
    <v>       0.73053381       0.46745420       0.19889078 </v>
    <v>       0.66334018       0.33878663      -0.00143305 </v>
    <v>       0.36905247       0.73029367       0.60038234 </v>
    <v>       0.13277995       0.27073553       0.39923141 </v>
    <v>       0.83840454       0.65553974       0.00236283 </v>
    <v>       0.92995813       0.86810822       0.80051300 </v>
    <v>       0.56857127       0.13444830       0.19833177 </v>
    <v>       0.40384922       0.79429900       0.19733656 </v>
    <v>       0.43865344       0.86131971       0.79840097 </v>
    <v>       0.29969995       0.60068618       0.40225108 </v>
    <v>       0.86369337       0.73148908       0.59975899 </v>
    <v>       0.46560752       0.93239224       0.40342888 </v>
    <v>       0.27107812       0.53117505       0.80162400 </v>
    <v>       0.20057494       0.39651050       0.60044421 </v>
    <v>       0.06460953       0.14095797       0.19956832 </v>
    <v>       0.76215115       0.53082599       0.79976674 </v>
    <v>       0.69692129       0.40311627       0.60196467 </v>
    <v>       0.60340456       0.20087417       0.79764053 </v>
    <v>       0.53520339       0.06841520       0.60214652 </v>
    <v>       0.33778633       0.66440902       0.00028974 </v>
    <v>       0.23238627       0.46859333       0.19898200 </v>
   </varray>
  </structure>
  <varray name="forces" >
   <v>       0.02978187       0.22190077       0.08305133 </v>
   <v>       0.11123031       0.01366204       0.02757237 </v>
   <v>       0.08798836       0.68205259      -0.54230794 </v>
   <v>       0.10318503       0.03644110       0.06244819 </v>
   <v>       0.46398749      -0.04846475      -0.58463157 </v>
   <v>      -0.14040021       0.14918556      -0.23197936 </v>
   <v>      -0.12718322      -0.11740968       0.14075766 </v>
   <v>      -0.17952345      -0.22172628       0.18848175 </v>
   <v>       0.03008034       0.04139547       0.15325240 </v>
   <v>       0.07306283       0.63774644      -0.36000612 </v>
   <v>      -0.08329720      -0.25456706       0.28361070 </v>
   <v>       0.01097841       0.16771317      -0.24002729 </v>
   <v>      -0.51553098      -0.69023097       0.72381103 </v>
   <v>       0.09283570      -0.02091523       0.01778368 </v>
   <v>      -0.00184494       0.06282660      -0.10618335 </v>
   <v>      -0.36814595       0.09781565       0.13026184 </v>
   <v>      -0.10704513      -0.03167576       0.28119976 </v>
   <v>       0.22922575      -0.28884923      -0.08727080 </v>
   <v>       0.10947350       0.08987062       0.33524734 </v>
   <v>       0.28616437      -0.26283039       0.12801520 </v>
   <v>       0.07950970      -0.51850789       0.18793725 </v>
   <v>      -0.00113908      -0.18523219       0.34262396 </v>
   <v>      -0.07299395       0.41123220      -0.81748851 </v>
   <v>       0.06287953       0.12101038       0.55382063 </v>
   <v>       0.51322948      -0.12283893      -0.22092175 </v>
   <v>      -0.43849303       0.33933023      -0.26729397 </v>
   <v>       0.18012876      -0.39763036      -0.33408967 </v>
   <v>      -0.28358161      -0.23352403       0.24909000 </v>
   <v>      -0.14456268       0.32221992      -0.09676477 </v>
  </varray>
  <varray name="stress" >
   <v>      29.24433298       1.50827312       2.31574865 </v>
   <v>       1.50827309      26.56285686       5.84974280 </v>
   <v>       2.31574860       5.84974286      28.98078803 </v>
  </varray>
  <energy>
   <i name="e_fr_energy">   -308.23854893 </i>
   <i name="e_wo_entrp">   -308.23211250 </i>
   <i name="e_0_energy">     -0.01930930 </i>
  </energy>
  <time name="totalsc">  845.16  846.77</time>
 </calculation>
 <calculation>
  <scstep>
   <time name="dav">   33.45   33.49</time>
   <time name="total">   34.13   34.18</time>
   <energy>
    <i name="alphaZ">   1213.62641503 </i>
    <i name="ewald"> -11401.88405380 </i>
    <i name="hartreedc">  -2987.67030952 </i>
    <i name="XCdc">   -849.42408458 </i>
    <i name="pawpsdc">  19326.72443864 </i>
    <i name="pawaedc"> -17857.25788004 </i>
    <i name="eentropy">     -0.01508800 </i>
    <i name="bandstr">   -663.72149350 </i>
    <i name="atom">  12911.34519091 </i>
    <i name="e_fr_energy">   -308.27686488 </i>
    <i name="e_wo_entrp">   -308.26177687 </i>
    <i name="e_0_energy">   -308.27183554 </i>
   </energy>
  </scstep>
  <scstep>
   <time name="dav">   51.35   51.42</time>
   <time name="total">   52.02   52.09</time>
   <energy>
    <i name="e_fr_energy">   -308.71893516 </i>
    <i name="e_wo_entrp">   -308.69747014 </i>
    <i name="e_0_energy">   -308.71178015 </i>
   </energy>
  </scstep>
  <scstep>
   <time name="dav">   50.77   50.84</time>
   <time name="total">   51.45   51.52</time>
   <energy>
    <i name="e_fr_energy">   -308.38483261 </i>
    <i name="e_wo_entrp">   -308.36843432 </i>
    <i name="e_0_energy">   -308.37936652 </i>
   </energy>
  </scstep>
  <scstep>
   <time name="dav">   49.38   49.44</time>
   <time name="total">   50.05   50.12</time>
   <energy>
    <i name="e_fr_energy">   -308.38271043 </i>
    <i name="e_wo_entrp">   -308.36436706 </i>
    <i name="e_0_energy">   -308.37659597 </i>
   </energy>
  </scstep>
  <scstep>
   <time name="dav">   47.41   47.47</time>
   <time name="total">   48.09   48.16</time>
   <energy>
    <i name="e_fr_energy">   -308.33120711 </i>
    <i name="e_wo_entrp">   -308.31432882 </i>
    <i name="e_0_energy">   -308.32558101 </i>
   </energy>
  </scstep>
  <scstep>
   <time name="dav">   49.24   49.31</time>
   <time name="total">   49.92   49.98</time>
   <energy>
    <i name="e_fr_energy">   -308.30771779 </i>
    <i name="e_wo_entrp">   -308.28996187 </i>
    <i name="e_0_energy">   -308.30179915 </i>
   </energy>
  </scstep>
  <scstep>
   <time name="dav">   50.15   50.21</time>
   <time name="total">   50.83   50.90</time>
   <energy>
    <i name="e_fr_energy">   -308.30341216 </i>
    <i name="e_wo_entrp">   -308.28482167 </i>
    <i name="e_0_energy">   -308.29721533 </i>
   </energy>
  </scstep>
  <scstep>
   <time name="dav">   53.63   53.70</time>
   <time name="total">   54.31   54.38</time>
   <energy>
    <i name="e_fr_energy">   -308.29968691 </i>
    <i name="e_wo_entrp">   -308.28052904 </i>
    <i name="e_0_energy">   -308.29330096 </i>
   </energy>
  </scstep>
  <scstep>
   <time name="dav">   50.78   50.97</time>
   <time name="total">   51.44   51.68</time>
   <energy>
    <i name="e_fr_energy">   -308.29714273 </i>
    <i name="e_wo_entrp">   -308.27887726 </i>
    <i name="e_0_energy">   -308.29105424 </i>
   </energy>
  </scstep>
  <scstep>
   <time name="dav">   45.68   45.75</time>
   <time name="total">   46.36   46.43</time>
   <energy>
    <i name="e_fr_energy">   -308.29643807 </i>
    <i name="e_wo_entrp">   -308.27805486 </i>
    <i name="e_0_energy">   -308.29031033 </i>
   </energy>
  </scstep>
  <scstep>
   <time name="dav">   44.86   44.92</time>
   <time name="total">   45.54   45.61</time>
   <energy>
    <i name="e_fr_energy">   -308.29661465 </i>
    <i name="e_wo_entrp">   -308.27798856 </i>
    <i name="e_0_energy">   -308.29040595 </i>
   </energy>
  </scstep>
  <scstep>
   <time name="dav">   46.61   46.67</time>
   <time name="total">   47.28   47.35</time>
   <energy>
    <i name="e_fr_energy">   -308.29686806 </i>
    <i name="e_wo_entrp">   -308.27880195 </i>
    <i name="e_0_energy">   -308.29084602 </i>
   </energy>
  </scstep>
  <scstep>
   <time name="dav">   50.07   50.13</time>
   <time name="total">   50.75   50.83</time>
   <energy>
    <i name="e_fr_energy">   -308.29693787 </i>
    <i name="e_wo_entrp">   -308.27858470 </i>
    <i name="e_0_energy">   -308.29082015 </i>
   </energy>
  </scstep>
  <scstep>
   <time name="dav">   43.94   43.99</time>
   <time name="total">   44.62   44.68</time>
   <energy>
    <i name="e_fr_energy">   -308.29693265 </i>
    <i name="e_wo_entrp">   -308.27856467 </i>
    <i name="e_0_energy">   -308.29080999 </i>
   </energy>
  </scstep>
  <scstep>
   <time name="dav">   39.97   40.03</time>
   <time name="total">   40.65   40.71</time>
   <energy>
    <i name="e_fr_energy">   -308.29680734 </i>
    <i name="e_wo_entrp">   -308.27845272 </i>
    <i name="e_0_energy">   -308.29068913 </i>
   </energy>
  </scstep>
  <scstep>
   <time name="dav">   26.63   26.66</time>
   <time name="total">   26.71   26.75</time>
   <energy>
    <i name="alphaZ">   1213.62641503 </i>
    <i name="ewald"> -11401.88405380 </i>
    <i name="hartreedc">  -2967.07126568 </i>
    <i name="XCdc">   -850.06378429 </i>
    <i name="pawpsdc">  19569.52548362 </i>
    <i name="pawaedc"> -18100.36764048 </i>
    <i name="eentropy">     -0.01835124 </i>
    <i name="bandstr">   -683.38877202 </i>
    <i name="atom">  12911.34519091 </i>
    <i name="e_fr_energy">   -308.29677795 </i>
    <i name="e_wo_entrp">   -308.27842672 </i>
    <i name="e_0_energy">   -308.29066088 </i>
   </energy>
  </scstep>
  <structure>
   <crystal>
    <varray name="basis" >
     <v>      -3.13591770      -3.14036232      -3.13661604 </v>
     <v>       1.55575447       1.52868111      -7.78783567 </v>
     <v>       7.79157201      -7.78722124      -1.58377035 </v>
    </varray>
    <i name="volume">    455.94956926 </i>
    <varray name="rec_basis" >
     <v>      -0.13831942      -0.12767974      -0.05269406 </v>
     <v>       0.04266242       0.06449341      -0.10722336 </v>
     <v>       0.06415515      -0.06426548       0.00020137 </v>
    </varray>
   </crystal>
   <varray name="positions" >
    <v>       0.96241908       0.93367407       0.39944532 </v>
    <v>       0.63106486       0.26736511       0.40101083 </v>
    <v>       0.49493779       0.01178898      -0.00235690 </v>
    <v>      -0.00509985      -0.00093893       0.00077100 </v>
    <v>       0.09438195       0.20918554       0.80175676 </v>
    <v>       0.03445355       0.06971836       0.59662490 </v>
    <v>       0.90319132       0.79667689       0.20108315 </v>
    <v>       0.80634916       0.59269288       0.39900765 </v>
    <v>       0.72939242       0.46777799       0.19843637 </v>
    <v>       0.66197879       0.34102431      -0.00202240 </v>
    <v>       0.37002802       0.72904679       0.60054025 </v>
    <v>       0.13254997       0.27240498       0.39891464 </v>
    <v>       0.84048315       0.65097435       0.00333566 </v>
    <v>       0.92858105       0.86869881       0.80072264 </v>
    <v>       0.56934645       0.13490716       0.19764787 </v>
    <v>       0.40542484       0.79196334       0.19624838 </v>
    <v>       0.44082775       0.85912842       0.79774839 </v>
    <v>       0.29957639       0.60096563       0.40317262 </v>
    <v>       0.86248397       0.73073270       0.59966147 </v>
    <v>       0.46517624       0.93200321       0.40483365 </v>
    <v>       0.27287779       0.53028869       0.80228979 </v>
    <v>       0.20081311       0.39507896       0.60062784 </v>
    <v>       0.06376265       0.14408541       0.19938786 </v>
    <v>       0.76031410       0.52979755       0.79967285 </v>
    <v>       0.69566276       0.40439248       0.60276793 </v>
    <v>       0.60479138       0.20123497       0.79667356 </v>
    <v>       0.53596291       0.06913058       0.60302453 </v>
    <v>       0.33960334       0.66348308       0.00040917 </v>
    <v>       0.23199839       0.46938436       0.19856422 </v>
   </varray>
  </structure>
  <varray name="forces" >
   <v>      -0.01662654       0.19537498       0.04694973 </v>
   <v>       0.05484116       0.01288756       0.03143922 </v>
   <v>       0.04771235       0.66166426      -0.32198538 </v>
   <v>       0.02592335      -0.00946943      -0.05588588 </v>
   <v>       0.36978111      -0.18702692      -0.47293016 </v>
   <v>      -0.03520897       0.03158125      -0.18556249 </v>
   <v>      -0.13600492      -0.02470186       0.10451500 </v>
   <v>       0.00269441      -0.15191209      -0.00121470 </v>
   <v>       0.05455766      -0.14745161       0.19333589 </v>
   <v>       0.02871980       0.62291331      -0.19226675 </v>
   <v>      -0.01889159      -0.20796365       0.25671449 </v>
   <v>      -0.02610378       0.10130549      -0.06931040 </v>
   <v>      -0.64255559      -0.52048364       0.40557789 </v>
   <v>      -0.04216191      -0.10959573       0.03542682 </v>
   <v>       0.12727499       0.02026087      -0.04258414 </v>
   <v>      -0.13973415       0.15094984      -0.13413706 </v>
   <v>       0.17742758       0.06779582       0.14789993 </v>
   <v>       0.16424186      -0.25376722      -0.05787543 </v>
   <v>       0.11060040       0.04179072       0.24615275 </v>
   <v>       0.15666082      -0.15154916       0.12477891 </v>
   <v>       0.14570900      -0.44990688       0.27402756 </v>
   <v>       0.03336050      -0.16538263       0.26515402 </v>
   <v>      -0.24228495       0.40116826      -0.67964292 </v>
   <v>       0.01243205       0.05850476       0.45609921 </v>
   <v>       0.45027918      -0.16969530      -0.14287239 </v>
   <v>      -0.37324306       0.38847307      -0.24725156 </v>
   <v>       0.13904386      -0.38666547      -0.26617004 </v>
   <v>      -0.24123205      -0.13286499       0.32049628 </v>
   <v>      -0.18721259       0.31376638      -0.03887840 </v>
  </varray>
  <varray name="stress" >
   <v>      49.98561807       0.70581061       2.63526263 </v>
   <v>       0.70581057      48.18348653       5.54532400 </v>
   <v>       2.63526255       5.54532391      51.09430319 </v>
  </varray>
  <energy>
   <i name="e_fr_energy">   -308.29677795 </i>
   <i name="e_wo_entrp">   -308.29066088 </i>
   <i name="e_0_energy">     -0.01835124 </i>
  </energy>
  <time name="totalsc">  764.59  765.84</time>
 </calculation>
 <calculation>
  <scstep>
   <time name="dav">   33.53   33.57</time>
   <time name="total">   34.21   34.26</time>
   <energy>
    <i name="alphaZ">   1195.04936907 </i>
    <i name="ewald"> -11375.72929700 </i>
    <i name="hartreedc">  -2920.93905597 </i>
    <i name="XCdc">   -852.21399167 </i>
    <i name="pawpsdc">  19569.34695722 </i>
    <i name="pawaedc"> -18100.15994909 </i>
    <i name="eentropy">     -0.01795017 </i>
    <i name="bandstr">   -735.22163163 </i>
    <i name="atom">  12911.34519091 </i>
    <i name="e_fr_energy">   -308.54035834 </i>
    <i name="e_wo_entrp">   -308.52240817 </i>
[...]
       <r>    4.8054    1.0000 </r>
       <r>    4.8638    1.0000 </r>
       <r>    4.8977    1.0000 </r>
       <r>    4.9831    1.0000 </r>
       <r>    5.0370    1.0000 </r>
       <r>    5.0968    1.0000 </r>
       <r>    5.1787    1.0000 </r>
       <r>    5.2479    1.0000 </r>
       <r>    5.2806    1.0000 </r>
       <r>    5.3462    1.0000 </r>
       <r>    5.3588    1.0000 </r>
       <r>    5.4244    1.0000 </r>
       <r>    5.5270    1.0000 </r>
       <r>    5.5496    1.0000 </r>
       <r>    5.5936    1.0000 </r>
       <r>    5.6304    1.0000 </r>
       <r>    5.7194    1.0000 </r>
       <r>    5.7586    1.0000 </r>
       <r>    5.8327    1.0000 </r>
       <r>    5.8635    1.0000 </r>
       <r>    5.9197    1.0000 </r>
       <r>    5.9818    1.0000 </r>
       <r>    6.0457    1.0000 </r>
       <r>    6.0891    1.0000 </r>
       <r>    6.1656    1.0002 </r>
       <r>    6.1990    1.0004 </r>
       <r>    6.2441    1.0012 </r>
       <r>    6.2731    1.0022 </r>
       <r>    6.3419    1.0079 </r>
       <r>    6.3836    1.0146 </r>
       <r>    6.4282    1.0244 </r>
       <r>    6.4581    1.0309 </r>
       <r>    6.5526    1.0192 </r>
       <r>    6.5819    0.9909 </r>
       <r>    6.6222    0.9208 </r>
       <r>    6.6759    0.7657 </r>
       <r>    6.7032    0.6633 </r>
       <r>    6.7683    0.3924 </r>
       <r>    6.8812    0.0426 </r>
       <r>    6.8978    0.0163 </r>
       <r>    6.9838   -0.0354 </r>
       <r>    7.1306   -0.0097 </r>
       <r>    7.1787   -0.0043 </r>
       <r>    7.2406   -0.0012 </r>
       <r>    7.3997   -0.0000 </r>
       <r>    7.5131   -0.0000 </r>
       <r>    7.5934   -0.0000 </r>
       <r>    7.6413   -0.0000 </r>
       <r>    7.7910   -0.0000 </r>
       <r>    7.9125   -0.0000 </r>
       <r>    8.0049   -0.0000 </r>
       <r>    8.1601   -0.0000 </r>
       <r>    8.1887   -0.0000 </r>
       <r>    8.2910   -0.0000 </r>
       <r>    8.3769   -0.0000 </r>
       <r>    8.5378   -0.0000 </r>
       <r>    8.6221   -0.0000 </r>
       <r>    8.6685   -0.0000 </r>
       <r>    8.7528   -0.0000 </r>
       <r>    8.8308   -0.0000 </r>
       <r>    8.8637   -0.0000 </r>
      </set>
     </set>
    </set>
   </array>
  </eigenvalues>
  <separator name="orbital magnetization" >
   <v name="MAGDIPOLOUT">      0.00000000      0.00000000      0.00000000</v>
  </separator>
  <dos>
   <i name="efermi">      6.74259390 </i>
   <total>
    <array>
     <dimension dim="1">gridpoints</dimension>
     <dimension dim="2">spin</dimension>
     <field>energy</field>
     <field>total</field>
     <field>integrated</field>
     <set>
      <set comment="spin 1">
       <r>   -50.2221     0.0000     0.0000 </r>
       <r>   -50.0155     0.0000     0.0000 </r>
       <r>   -49.8089     0.0000     0.0000 </r>
       <r>   -49.6023     0.0000     0.0000 </r>
       <r>   -49.3957     0.0000     0.0000 </r>
       <r>   -49.1890    -0.0000    -0.0000 </r>
       <r>   -48.9824    -0.0000    -0.0000 </r>
       <r>   -48.7758    -0.0000    -0.0000 </r>
       <r>   -48.5692    -0.0000    -0.0000 </r>
       <r>   -48.3626    -0.0000    -0.0000 </r>
       <r>   -48.1560    -0.0000    -0.0000 </r>
       <r>   -47.9494    -0.0032    -0.0007 </r>
       <r>   -47.7428    -0.2451    -0.0513 </r>
       <r>   -47.5362    -0.6882    -0.1935 </r>
       <r>   -47.3295    17.7146     3.4665 </r>
       <r>   -47.1229    35.1591    10.7308 </r>
       <r>   -46.9163     7.2355    12.2257 </r>
       <r>   -46.7097    -1.0328    12.0123 </r>
       <r>   -46.5031    -0.0593    12.0001 </r>
       <r>   -46.2965    -0.0003    12.0000 </r>
       <r>   -46.0899    -0.0000    12.0000 </r>
       <r>   -45.8833    -0.0000    12.0000 </r>
       <r>   -45.6767     0.0000    12.0000 </r>
       <r>   -45.4701     0.0000    12.0000 </r>
       <r>   -45.2634     0.0000    12.0000 </r>
       <r>   -45.0568     0.0000    12.0000 </r>
       <r>   -44.8502     0.0000    12.0000 </r>
       <r>   -44.6436     0.0000    12.0000 </r>
       <r>   -44.4370     0.0000    12.0000 </r>
       <r>   -44.2304     0.0000    12.0000 </r>
       <r>   -44.0238     0.0000    12.0000 </r>
       <r>   -43.8172     0.0000    12.0000 </r>
       <r>   -43.6106     0.0000    12.0000 </r>
       <r>   -43.4040     0.0000    12.0000 </r>
       <r>   -43.1973     0.0000    12.0000 </r>
       <r>   -42.9907     0.0000    12.0000 </r>
       <r>   -42.7841     0.0000    12.0000 </r>
       <r>   -42.5775     0.0000    12.0000 </r>
       <r>   -42.3709     0.0000    12.0000 </r>
       <r>   -42.1643     0.0000    12.0000 </r>
       <r>   -41.9577     0.0000    12.0000 </r>
       <r>   -41.7511     0.0000    12.0000 </r>
       <r>   -41.5445     0.0000    12.0000 </r>
       <r>   -41.3378     0.0000    12.0000 </r>
       <r>   -41.1312     0.0000    12.0000 </r>
       <r>   -40.9246     0.0000    12.0000 </r>
       <r>   -40.7180     0.0000    12.0000 </r>
       <r>   -40.5114     0.0000    12.0000 </r>
       <r>   -40.3048     0.0000    12.0000 </r>
       <r>   -40.0982     0.0000    12.0000 </r>
       <r>   -39.8916     0.0000    12.0000 </r>
       <r>   -39.6850     0.0000    12.0000 </r>
       <r>   -39.4784     0.0000    12.0000 </r>
       <r>   -39.2717     0.0000    12.0000 </r>
       <r>   -39.0651     0.0000    12.0000 </r>
       <r>   -38.8585     0.0000    12.0000 </r>
       <r>   -38.6519     0.0000    12.0000 </r>
       <r>   -38.4453     0.0000    12.0000 </r>
       <r>   -38.2387     0.0000    12.0000 </r>
       <r>   -38.0321     0.0000    12.0000 </r>
       <r>   -37.8255     0.0000    12.0000 </r>
       <r>   -37.6189     0.0000    12.0000 </r>
       <r>   -37.4122     0.0000    12.0000 </r>
       <r>   -37.2056     0.0000    12.0000 </r>
       <r>   -36.9990     0.0000    12.0000 </r>
       <r>   -36.7924     0.0000    12.0000 </r>
       <r>   -36.5858     0.0000    12.0000 </r>
       <r>   -36.3792     0.0000    12.0000 </r>
       <r>   -36.1726     0.0000    12.0000 </r>
       <r>   -35.9660     0.0000    12.0000 </r>
       <r>   -35.7594     0.0000    12.0000 </r>
       <r>   -35.5528     0.0000    12.0000 </r>
       <r>   -35.3461     0.0000    12.0000 </r>
       <r>   -35.1395     0.0000    12.0000 </r>
       <r>   -34.9329     0.0000    12.0000 </r>
       <r>   -34.7263     0.0000    12.0000 </r>
       <r>   -34.5197     0.0000    12.0000 </r>
       <r>   -34.3131     0.0000    12.0000 </r>
       <r>   -34.1065     0.0000    12.0000 </r>
       <r>   -33.8999     0.0000    12.0000 </r>
       <r>   -33.6933     0.0000    12.0000 </r>
       <r>   -33.4867     0.0000    12.0000 </r>
       <r>   -33.2800     0.0000    12.0000 </r>
       <r>   -33.0734     0.0000    12.0000 </r>
       <r>   -32.8668     0.0000    12.0000 </r>
       <r>   -32.6602     0.0000    12.0000 </r>
       <r>   -32.4536     0.0000    12.0000 </r>
       <r>   -32.2470     0.0000    12.0000 </r>
       <r>   -32.0404     0.0000    12.0000 </r>
       <r>   -31.8338     0.0000    12.0000 </r>
       <r>   -31.6272     0.0000    12.0000 </r>
       <r>   -31.4205     0.0000    12.0000 </r>
       <r>   -31.2139     0.0000    12.0000 </r>
       <r>   -31.0073     0.0000    12.0000 </r>
       <r>   -30.8007     0.0000    12.0000 </r>
       <r>   -30.5941     0.0000    12.0000 </r>
       <r>   -30.3875     0.0000    12.0000 </r>
       <r>   -30.1809     0.0000    12.0000 </r>
       <r>   -29.9743     0.0000    12.0000 </r>
       <r>   -29.7677     0.0000    12.0000 </r>
       <r>   -29.5611     0.0000    12.0000 </r>
       <r>   -29.3544     0.0000    12.0000 </r>
       <r>   -29.1478     0.0000    12.0000 </r>
       <r>   -28.9412     0.0000    12.0000 </r>
       <r>   -28.7346     0.0000    12.0000 </r>
       <r>   -28.5280     0.0000    12.0000 </r>
       <r>   -28.3214     0.0000    12.0000 </r>
       <r>   -28.1148     0.0000    12.0000 </r>
       <r>   -27.9082     0.0000    12.0000 </r>
       <r>   -27.7016     0.0000    12.0000 </r>
       <r>   -27.4949     0.0000    12.0000 </r>
       <r>   -27.2883     0.0000    12.0000 </r>
       <r>   -27.0817     0.0000    12.0000 </r>
       <r>   -26.8751     0.0000    12.0000 </r>
       <r>   -26.6685     0.0000    12.0000 </r>
       <r>   -26.4619     0.0000    12.0000 </r>
       <r>   -26.2553     0.0000    12.0000 </r>
       <r>   -26.0487     0.0000    12.0000 </r>
       <r>   -25.8421    -0.0000    12.0000 </r>
       <r>   -25.6355    -0.0000    12.0000 </r>
       <r>   -25.4288    -0.0000    12.0000 </r>
       <r>   -25.2222    -0.0000    12.0000 </r>
       <r>   -25.0156    -0.0000    12.0000 </r>
       <r>   -24.8090    -0.0000    12.0000 </r>
       <r>   -24.6024    -0.0082    11.9983 </r>
       <r>   -24.3958    -0.1623    11.9648 </r>
       <r>   -24.1892     0.6468    12.0984 </r>
       <r>   -23.9826     6.4001    13.4207 </r>
       <r>   -23.7760    17.6435    17.0661 </r>
       <r>   -23.5694    25.9649    22.4307 </r>
       <r>   -23.3627    56.3492    34.0730 </r>
       <r>   -23.1561    36.6061    41.6362 </r>
       <r>   -22.9495    22.7909    46.3451 </r>
       <r>   -22.7429     8.6261    48.1273 </r>
       <r>   -22.5363    -0.4962    48.0248 </r>
       <r>   -22.3297    -0.1179    48.0004 </r>
       <r>   -22.1231    -0.0019    48.0000 </r>
       <r>   -21.9165    -0.0000    48.0000 </r>
       <r>   -21.7099    -0.0000    48.0000 </r>
       <r>   -21.5032    -0.0000    48.0000 </r>
       <r>   -21.2966     0.0000    48.0000 </r>
       <r>   -21.0900     0.0000    48.0000 </r>
       <r>   -20.8834     0.0000    48.0000 </r>
       <r>   -20.6768     0.0000    48.0000 </r>
       <r>   -20.4702     0.0000    48.0000 </r>
       <r>   -20.2636     0.0000    48.0000 </r>
       <r>   -20.0570     0.0000    48.0000 </r>
       <r>   -19.8504     0.0000    48.0000 </r>
       <r>   -19.6438     0.0000    48.0000 </r>
       <r>   -19.4371     0.0000    48.0000 </r>
       <r>   -19.2305     0.0000    48.0000 </r>
       <r>   -19.0239     0.0000    48.0000 </r>
       <r>   -18.8173     0.0000    48.0000 </r>
       <r>   -18.6107     0.0000    48.0000 </r>
       <r>   -18.4041     0.0000    48.0000 </r>
       <r>   -18.1975     0.0000    48.0000 </r>
       <r>   -17.9909     0.0000    48.0000 </r>
       <r>   -17.7843     0.0000    48.0000 </r>
       <r>   -17.5777     0.0000    48.0000 </r>
       <r>   -17.3710     0.0000    48.0000 </r>
       <r>   -17.1644     0.0000    48.0000 </r>
       <r>   -16.9578     0.0000    48.0000 </r>
       <r>   -16.7512     0.0000    48.0000 </r>
       <r>   -16.5446     0.0000    48.0000 </r>
       <r>   -16.3380     0.0000    48.0000 </r>
       <r>   -16.1314     0.0000    48.0000 </r>
       <r>   -15.9248     0.0000    48.0000 </r>
       <r>   -15.7182     0.0000    48.0000 </r>
       <r>   -15.5115     0.0000    48.0000 </r>
       <r>   -15.3049     0.0000    48.0000 </r>
       <r>   -15.0983     0.0000    48.0000 </r>
       <r>   -14.8917     0.0000    48.0000 </r>
       <r>   -14.6851     0.0000    48.0000 </r>
       <r>   -14.4785     0.0000    48.0000 </r>
       <r>   -14.2719     0.0000    48.0000 </r>
       <r>   -14.0653     0.0000    48.0000 </r>
       <r>   -13.8587     0.0000    48.0000 </r>
       <r>   -13.6521     0.0000    48.0000 </r>
       <r>   -13.4454     0.0000    48.0000 </r>
       <r>   -13.2388     0.0000    48.0000 </r>
       <r>   -13.0322     0.0000    48.0000 </r>
       <r>   -12.8256     0.0000    48.0000 </r>
       <r>   -12.6190     0.0000    48.0000 </r>
       <r>   -12.4124     0.0000    48.0000 </r>
       <r>   -12.2058     0.0000    48.0000 </r>
       <r>   -11.9992     0.0000    48.0000 </r>
       <r>   -11.7926     0.0000    48.0000 </r>
       <r>   -11.5859     0.0000    48.0000 </r>
       <r>   -11.3793     0.0000    48.0000 </r>
       <r>   -11.1727     0.0000    48.0000 </r>
       <r>   -10.9661     0.0000    48.0000 </r>
       <r>   -10.7595     0.0000    48.0000 </r>
       <r>   -10.5529     0.0000    48.0000 </r>
       <r>   -10.3463     0.0000    48.0000 </r>
       <r>   -10.1397     0.0000    48.0000 </r>
       <r>    -9.9331     0.0000    48.0000 </r>
       <r>    -9.7265     0.0000    48.0000 </r>
       <r>    -9.5198     0.0000    48.0000 </r>
       <r>    -9.3132     0.0000    48.0000 </r>
       <r>    -9.1066     0.0000    48.0000 </r>
       <r>    -8.9000     0.0000    48.0000 </r>
       <r>    -8.6934     0.0000    48.0000 </r>
       <r>    -8.4868     0.0000    48.0000 </r>
       <r>    -8.2802     0.0000    48.0000 </r>
       <r>    -8.0736     0.0000    48.0000 </r>
       <r>    -7.8670     0.0000    48.0000 </r>
       <r>    -7.6604     0.0000    48.0000 </r>
       <r>    -7.4537     0.0000    48.0000 </r>
       <r>    -7.2471     0.0000    48.0000 </r>
       <r>    -7.0405     0.0000    48.0000 </r>
       <r>    -6.8339     0.0000    48.0000 </r>
       <r>    -6.6273     0.0000    48.0000 </r>
       <r>    -6.4207     0.0000    48.0000 </r>
       <r>    -6.2141     0.0000    48.0000 </r>
       <r>    -6.0075     0.0000    48.0000 </r>
       <r>    -5.8009     0.0000    48.0000 </r>
       <r>    -5.5942     0.0000    48.0000 </r>
       <r>    -5.3876     0.0000    48.0000 </r>
       <r>    -5.1810     0.0000    48.0000 </r>
       <r>    -4.9744     0.0000    48.0000 </r>
       <r>    -4.7678     0.0000    48.0000 </r>
       <r>    -4.5612     0.0000    48.0000 </r>
       <r>    -4.3546     0.0000    48.0000 </r>
       <r>    -4.1480     0.0000    48.0000 </r>
       <r>    -3.9414     0.0000    48.0000 </r>
       <r>    -3.7348     0.0000    48.0000 </r>
       <r>    -3.5281     0.0000    48.0000 </r>
       <r>    -3.3215     0.0000    48.0000 </r>
       <r>    -3.1149     0.0000    48.0000 </r>
       <r>    -2.9083     0.0000    48.0000 </r>
       <r>    -2.7017     0.0000    48.0000 </r>
       <r>    -2.4951     0.0000    48.0000 </r>
       <r>    -2.2885     0.0000    48.0000 </r>
       <r>    -2.0819     0.0000    48.0000 </r>
       <r>    -1.8753    -0.0000    48.0000 </r>
       <r>    -1.6686    -0.0000    48.0000 </r>
       <r>    -1.4620    -0.0000    48.0000 </r>
       <r>    -1.2554    -0.0000    48.0000 </r>
       <r>    -1.0488    -0.0000    48.0000 </r>
       <r>    -0.8422    -0.0000    48.0000 </r>
       <r>    -0.6356    -0.0000    48.0000 </r>
       <r>    -0.4290    -0.0029    47.9994 </r>
       <r>    -0.2224    -0.0173    47.9958 </r>
       <r>    -0.0158     0.1969    48.0365 </r>
       <r>     0.1908     0.9161    48.2258 </r>
       <r>     0.3975     1.2775    48.4897 </r>
       <r>     0.6041     1.8689    48.8758 </r>
       <r>     0.8107     2.1090    49.3116 </r>
       <r>     1.0173     1.8742    49.6988 </r>
       <r>     1.2239     2.8682    50.2914 </r>
       <r>     1.4305     3.1193    50.9359 </r>
       <r>     1.6371     3.2609    51.6096 </r>
       <r>     1.8437     3.6911    52.3722 </r>
       <r>     2.0503     4.6069    53.3241 </r>
       <r>     2.2569     5.5228    54.4651 </r>
       <r>     2.4636     6.9161    55.8941 </r>
       <r>     2.6702    10.9610    58.1587 </r>
       <r>     2.8768    17.0894    61.6896 </r>
       <r>     3.0834    21.9321    66.2210 </r>
       <r>     3.2900    26.4308    71.6818 </r>
       <r>     3.4966    29.1458    77.7037 </r>
       <r>     3.7032    30.0965    83.9219 </r>
       <r>     3.9098    29.7024    90.0587 </r>
       <r>     4.1164    30.4509    96.3502 </r>
       <r>     4.3231    31.7156   102.9030 </r>
       <r>     4.5297    29.7355   109.0467 </r>
       <r>     4.7363    27.8846   114.8079 </r>
       <r>     4.9429    32.0062   121.4207 </r>
       <r>     5.1495    36.5984   128.9823 </r>
       <r>     5.3561    39.7710   137.1994 </r>
       <r>     5.5627    40.2028   145.5057 </r>
       <r>     5.7693    40.6247   153.8992 </r>
       <r>     5.9759    40.1615   162.1970 </r>
       <r>     6.1825    41.4692   170.7650 </r>
       <r>     6.3892    42.5911   179.5647 </r>
       <r>     6.5958    42.0566   188.2541 </r>
       <r>     6.8024    38.3112   196.1696 </r>
       <r>     7.0090    32.1631   202.8148 </r>
       <r>     7.2156    25.4027   208.0633 </r>
       <r>     7.4222    20.5831   212.3159 </r>
       <r>     7.6288    18.9856   216.2385 </r>
       <r>     7.8354    18.1135   219.9810 </r>
       <r>     8.0420    20.4082   224.1975 </r>
       <r>     8.2486    25.0415   229.3714 </r>
       <r>     8.4553    24.7760   234.4903 </r>
       <r>     8.6619    18.4960   238.3118 </r>
       <r>     8.8685     7.6273   239.8877 </r>
       <r>     9.0751     0.7089   240.0342 </r>
       <r>     9.2817    -0.1529   240.0026 </r>
       <r>     9.4883    -0.0123   240.0000 </r>
       <r>     9.6949    -0.0001   240.0000 </r>
       <r>     9.9015    -0.0000   240.0000 </r>
       <r>    10.1081    -0.0000   240.0000 </r>
       <r>    10.3148    -0.0000   240.0000 </r>
       <r>    10.5214     0.0000   240.0000 </r>
       <r>    10.7280     0.0000   240.0000 </r>
       <r>    10.9346     0.0000   240.0000 </r>
       <r>    11.1412     0.0000   240.0000 </r>
       <r>    11.3478     0.0000   240.0000 </r>
       <r>    11.5544     0.0000   240.0000 </r>
       <r>    11.7610     0.0000   240.0000 </r>
      </set>
     </set>
    </array>
   </total>
  </dos>
 </calculation>
 <structure name="finalpos" >
  <crystal>
   <varray name="basis" >
    <v>      -3.15095863      -3.22128690      -3.19576340 </v>
    <v>       1.60022746       1.41320886      -7.81706222 </v>
    <v>       7.85837808      -7.87514881      -1.75356454 </v>
   </varray>
   <i name="volume">    466.38954413 </i>
   <varray name="rec_basis" >
    <v>      -0.13730728      -0.12569606      -0.05083210 </v>
    <v>       0.04184995       0.06569385      -0.10748174 </v>
    <v>       0.06367484      -0.06377756       0.00150481 </v>
   </varray>
  </crystal>
  <varray name="positions" >
   <v>       0.96817010       0.94141083       0.39229981 </v>
   <v>       0.63400412       0.27111349       0.40260143 </v>
   <v>       0.48765899       0.02044356      -0.01228636 </v>
   <v>      -0.01026998      -0.00411930      -0.00144687 </v>
   <v>       0.08978360       0.20579193       0.80686939 </v>
   <v>       0.04204260       0.06746767       0.59510510 </v>
   <v>       0.90732055       0.80065740       0.19961068 </v>
   <v>       0.81036591       0.59757582       0.40335037 </v>
   <v>       0.72510888       0.47555019       0.20384101 </v>
   <v>       0.64071981       0.34796474      -0.00581491 </v>
   <v>       0.36622653       0.72109509       0.60628340 </v>
   <v>       0.13669919       0.27986433       0.39564643 </v>
   <v>       0.85554401       0.63295717       0.00568341 </v>
   <v>       0.92752604       0.85698784       0.80110145 </v>
   <v>       0.57718741       0.13980397       0.19640453 </v>
   <v>       0.40856745       0.80343301       0.19247301 </v>
   <v>       0.43600552       0.85111703       0.79956284 </v>
   <v>       0.30179170       0.60667476       0.40753421 </v>
   <v>       0.85427337       0.72697579       0.60186283 </v>
   <v>       0.47258617       0.93194452       0.40778659 </v>
   <v>       0.26553757       0.50627522       0.81747092 </v>
   <v>       0.20277487       0.38723963       0.60673960 </v>
   <v>       0.06953353       0.17913732       0.17270241 </v>
   <v>       0.74543080       0.51836161       0.80525470 </v>
   <v>       0.69221324       0.40434262       0.60835626 </v>
   <v>       0.60491204       0.19728236       0.78235678 </v>
   <v>       0.54809311       0.06459679       0.60648673 </v>
   <v>       0.34227090       0.65617653       0.00309732 </v>
   <v>       0.23125528       0.47854472       0.19906691 </v>
  </varray>
 </structure>
</modeling>
