Nb - Mo - Ta - Ti - V SQS               
           1
    -3.160000   -3.160000   -3.160000
     1.580000    1.580000   -7.900000
     7.900000   -7.900000   -1.580000
   Nb   Mo   Ta   Ti   V 
   6   6   6   5   6
Direct configuration=     1
   0.96666667  0.93333333  0.40000000
   0.63333333  0.26666667  0.40000000
   0.50000000  0.00000000  0.00000000
   0.00000000  0.00000000  0.00000000
   0.10000000  0.20000000  0.80000000
   0.03333333  0.06666667  0.60000000
   0.90000000  0.80000000  0.20000000
   0.80000000  0.60000000  0.40000000
   0.73333333  0.46666667  0.20000000
   0.66666667  0.33333333  0.00000000
   0.36666667  0.73333333  0.60000000
   0.13333333  0.26666667  0.40000000
   0.83333333  0.66666667  0.00000000
   0.93333333  0.86666667  0.80000000
   0.56666667  0.13333333  0.20000000
   0.40000000  0.80000000  0.20000000
   0.43333333  0.86666667  0.80000000
   0.30000000  0.60000000  0.40000000
   0.86666667  0.73333333  0.60000000
   0.46666667  0.93333333  0.40000000
   0.26666667  0.53333333  0.80000000
   0.20000000  0.40000000  0.60000000
   0.06666667  0.13333333  0.20000000
   0.76666667  0.53333333  0.80000000
   0.70000000  0.40000000  0.60000000
   0.60000000  0.20000000  0.80000000
   0.53333333  0.06666667  0.60000000
   0.33333333  0.66666667  0.00000000
   0.23333333  0.46666667  0.20000000
Nb - Mo - Ta - Ti - V SQS               
           1
    -3.142865   -3.146027   -3.143362
     1.562749    1.543486   -7.820193
     7.822851   -7.819756   -1.582683
   Nb   Mo   Ta   Ti   V 
   6   6   6   5   6
Direct configuration=     2
   0.96364893  0.93357485  0.39960639
   0.63172212  0.26716248  0.40071723
   0.49640988  0.00835926 -0.00166934
  -0.00362385 -0.00066534  0.00054655
   0.09601393  0.20651486  0.80124845
   0.03413061  0.06882926  0.59760632
   0.90226561  0.79764380  0.20076774
   0.80450668  0.59481754  0.39929437
   0.73053381  0.46745420  0.19889078
   0.66334018  0.33878663 -0.00143305
   0.36905247  0.73029367  0.60038234
   0.13277995  0.27073553  0.39923141
   0.83840454  0.65553974  0.00236283
   0.92995813  0.86810822  0.80051300
   0.56857127  0.13444830  0.19833177
   0.40384922  0.79429900  0.19733656
   0.43865344  0.86131971  0.79840097
   0.29969995  0.60068618  0.40225108
   0.86369337  0.73148908  0.59975899
   0.46560752  0.93239224  0.40342888
   0.27107812  0.53117505  0.80162400
   0.20057494  0.39651050  0.60044421
   0.06460953  0.14095797  0.19956832
   0.76215115  0.53082599  0.79976674
   0.69692129  0.40311627  0.60196467
   0.60340456  0.20087417  0.79764053
   0.53520339  0.06841520  0.60214652
   0.33778633  0.66440902  0.00028974
   0.23238627  0.46859333  0.19898200
Nb - Mo - Ta - Ti - V SQS               
           1
    -3.135918   -3.140362   -3.136616
     1.555754    1.528681   -7.787836
     7.791572   -7.787221   -1.583770
   Nb   Mo   Ta   Ti   V 
   6   6   6   5   6
Direct configuration=     3
   0.96241908  0.93367407  0.39944532
   0.63106486  0.26736511  0.40101083
   0.49493779  0.01178898 -0.00235690
  -0.00509985 -0.00093893  0.00077100
   0.09438195  0.20918554  0.80175676
   0.03445355  0.06971836  0.59662490
   0.90319132  0.79667689  0.20108315
   0.80634916  0.59269288  0.39900765
   0.72939242  0.46777799  0.19843637
   0.66197879  0.34102431 -0.00202240
   0.37002802  0.72904679  0.60054025
   0.13254997  0.27240498  0.39891464
   0.84048315  0.65097435  0.00333566
   0.92858105  0.86869881  0.80072264
   0.56934645  0.13490716  0.19764787
   0.40542484  0.79196334  0.19624838
   0.44082775  0.85912842  0.79774839
   0.29957639  0.60096563  0.40317262
   0.86248397  0.73073270  0.59966147
   0.46517624  0.93200321  0.40483365
   0.27287779  0.53028869  0.80228979
   0.20081311  0.39507896  0.60062784
   0.06376265  0.14408541  0.19938786
   0.76031410  0.52979755  0.79967285
   0.69566276  0.40439248  0.60276793
   0.60479138  0.20123497  0.79667356
   0.53596291  0.06913058  0.60302453
   0.33960334  0.66348308  0.00040917
   0.23199839  0.46938436  0.19856422
Nb - Mo - Ta - Ti - V SQS               
           1
    -3.159527   -3.166218   -3.164059
     1.558456    1.516944   -7.822610
     7.826517   -7.820464   -1.604826
   Nb   Mo   Ta   Ti   V 
   6   6   6   5   6
Direct configuration=     4
   0.96041471  0.93393057  0.39898074
   0.63004292  0.26761084  0.40142550
   0.49167327  0.01756974 -0.00397915
  -0.00690468 -0.00115005  0.00109227
   0.09232395  0.21354361  0.80307869
   0.03505743  0.07121574  0.59532962
   0.90465336  0.79512008  0.20133349
   0.80899248  0.58988520  0.39884941
   0.72800894  0.46763241  0.19813032
   0.65886659  0.34499770 -0.00349745
   0.37153581  0.72669246  0.60097416
   0.13215387  0.27471626  0.39836280
   0.84566514  0.64329896  0.00438752
   0.92723657  0.86917963  0.80106582
   0.56994913  0.13569501  0.19693819
   0.40750649  0.78943769  0.19454258
   0.44270549  0.85634908  0.79708277
   0.29967252  0.60124778  0.40483319
   0.86034014  0.72942856  0.59962897
   0.46447185  0.93119978  0.40695334
   0.27553996  0.52817471  0.80385994
   0.20115759  0.39257625  0.60110571
   0.06307000  0.14967205  0.19835318
   0.75740576  0.52765696  0.79950182
   0.69346544  0.40642706  0.60453485
   0.60679190  0.20237783  0.79452401
   0.53775932  0.07019868  0.60476556
   0.34249409  0.66130045  0.00042251
   0.23128327  0.47068163  0.19741965
Nb - Mo - Ta - Ti - V SQS               
           1
    -3.174510   -3.182627   -3.181474
     1.560170    1.509495   -7.844678
     7.848693   -7.841561   -1.618188
   Nb   Mo   Ta   Ti   V 
   6   6   6   5   6
Direct configuration=     5
   0.95915251  0.93409366  0.39868722
   0.62939897  0.26776605  0.40168745
   0.48960786  0.02122913 -0.00500721
  -0.00804064 -0.00128363  0.00129554
   0.09101980  0.21629977  0.80391159
   0.03543525  0.07216426  0.59451029
   0.90557661  0.79413467  0.20149244
   0.81066187  0.58810864  0.39875082
   0.72713832  0.46754085  0.19793715
   0.65690038  0.34751348 -0.00443148
   0.37248929  0.72520229  0.60124956
   0.13190039  0.27617913  0.39801282
   0.84894142  0.63844118  0.00505612
   0.92638914  0.86948370  0.80128250
   0.57032732  0.13619406  0.19648927
   0.40882225  0.78784120  0.19346607
   0.44389301  0.85459109  0.79666364
   0.29973198  0.60142459  0.40588224
   0.85899291  0.72860389  0.59960938
   0.46402921  0.93068947  0.40829317
   0.27721936  0.52683526  0.80485302
   0.20137895  0.39099237  0.60140908
   0.06262391  0.15320760  0.19769624
   0.75557882  0.52630337  0.79939525
   0.69207776  0.40771282  0.60565027
   0.60804991  0.20310270  0.79316500
   0.53888773  0.07087235  0.60586483
   0.34431803  0.65991911  0.00043194
   0.23083102  0.47150363  0.19669578
Nb - Mo - Ta - Ti - V SQS               
           1
    -3.175530   -3.185905   -3.188752
     1.554391    1.499899   -7.845201
     7.846372   -7.843715   -1.622982
   Nb   Mo   Ta   Ti   V 
   6   6   6   5   6
Direct configuration=     6
   0.95913964  0.93409486  0.39819494
   0.62955586  0.26775749  0.40158015
   0.48868306  0.02152236 -0.00574053
  -0.00804539 -0.00116570  0.00132322
   0.09172289  0.21617848  0.80463857
   0.03577800  0.07210362  0.59493836
   0.90561885  0.79411784  0.20115229
   0.81037918  0.58899097  0.39897527
   0.72711742  0.46711961  0.19879451
   0.65535293  0.34778813 -0.00504693
   0.37190046  0.72483960  0.60163632
   0.13185172  0.27576538  0.39793447
   0.85154181  0.63807729  0.00439543
   0.92720106  0.86898516  0.80133755
   0.57030799  0.13599281  0.19691240
   0.40867186  0.78921145  0.19339111
   0.44215940  0.85548808  0.79714837
   0.30005658  0.60145424  0.40600786
   0.85866314  0.72858366  0.59974934
   0.46390444  0.93031632  0.40823874
   0.27687471  0.52597666  0.80549767
   0.20128817  0.39049856  0.60164325
   0.06310258  0.15431074  0.19658966
   0.75525347  0.52577955  0.79949983
   0.69178700  0.40773830  0.60618265
   0.60824713  0.20366142  0.79213818
   0.54006016  0.07061274  0.60640896
   0.34443364  0.65911042  0.00017768
   0.23072557  0.47175663  0.19630066
Nb - Mo - Ta - Ti - V SQS               
           1
    -3.178588   -3.195738   -3.210585
     1.537052    1.471110   -7.846770
     7.839411   -7.850179   -1.637364
   Nb   Mo   Ta   Ti   V 
   6   6   6   5   6
Direct configuration=     7
   0.95910231  0.93409891  0.39671808
   0.63002644  0.26773162  0.40125821
   0.48591127  0.02240479 -0.00794033
  -0.00806042 -0.00081164  0.00140618
   0.09382913  0.21581262  0.80681931
   0.03680461  0.07192067  0.59622247
   0.90574640  0.79406751  0.20013183
   0.80952598  0.59164035  0.39964810
   0.72705519  0.46585422  0.20136694
   0.65071473  0.34861568 -0.00689286
   0.37013684  0.72375124  0.60279713
   0.13170856  0.27452326  0.39769976
   0.85933963  0.63698120  0.00241249
   0.92963745  0.86748701  0.80150271
   0.57025020  0.13538826  0.19818194
   0.40821297  0.79332583  0.19316527
   0.43695672  0.85818355  0.79860267
   0.30102898  0.60154268  0.40638458
   0.85767452  0.72852333  0.60016939
   0.46353290  0.92919619  0.40807578
   0.27584530  0.52339880  0.80743244
   0.20101851  0.38901588  0.60234618
   0.06453332  0.15762299  0.19326885
   0.75428127  0.52420724  0.79981411
   0.69091405  0.40781483  0.60777992
   0.60883741  0.20533949  0.78905721
   0.54357442  0.06983101  0.60804106
   0.34478570  0.65668240 -0.00058456
   0.23040896  0.47251675  0.19511515
Nb - Mo - Ta - Ti - V SQS               
           1
    -3.179215   -3.197753   -3.215060
     1.533498    1.465208   -7.847092
     7.837984   -7.851504   -1.640312
   Nb   Mo   Ta   Ti   V 
   6   6   6   5   6
Direct configuration=     8
   0.95909542  0.93410000  0.39641533
   0.63012283  0.26772620  0.40119217
   0.48534468  0.02258738 -0.00839117
  -0.00806397 -0.00073889  0.00142313
   0.09425903  0.21573640  0.80726623
   0.03701404  0.07188252  0.59648565
   0.90577306  0.79405730  0.19992263
   0.80934792  0.59218493  0.39978570
   0.72704273  0.46559378  0.20189447
   0.64976649  0.34878753 -0.00727099
   0.36977708  0.72352797  0.60303541
   0.13168096  0.27426811  0.39765184
   0.86093605  0.63675380  0.00200548
   0.93013729  0.86717835  0.80153658
   0.57023849  0.13526384  0.19844228
   0.40811415  0.79417147  0.19311839
   0.43588908  0.85873886  0.79890083
   0.30122746  0.60156048  0.40646171
   0.85747228  0.72851118  0.60025559
   0.46345843  0.92896617  0.40804257
   0.27563710  0.52286909  0.80782953
   0.20096488  0.38871117  0.60249052
   0.06482336  0.15830372  0.19258748
   0.75408432  0.52388441  0.79987886
   0.69073469  0.40783056  0.60810741
   0.60895756  0.20568464  0.78842532
   0.54429295  0.06966897  0.60837545
   0.34486108  0.65618349 -0.00074048
   0.23034389  0.47267325  0.19487204
Nb - Mo - Ta - Ti - V SQS               
           1
    -3.172346   -3.194403   -3.210175
     1.526277    1.454604   -7.822285
     7.815559   -7.835678   -1.639952
   Nb   Mo   Ta   Ti   V 
   6   6   6   5   6
Direct configuration=     9
   0.95972226  0.93425535  0.39569630
   0.63082041  0.26731166  0.40180697
   0.48543533  0.02274958 -0.00872258
  -0.00924478 -0.00064178  0.00124117
   0.09525368  0.21529131  0.80827412
   0.03797435  0.07122320  0.59692229
   0.90575607  0.79448837  0.19924361
   0.80900781  0.59292623  0.40017814
   0.72645471  0.46751753  0.20147097
   0.64758738  0.34894360 -0.00741842
   0.36859252  0.72365363  0.60379645
   0.13180754  0.27414843  0.39770435
   0.86190468  0.63559396  0.00196905
   0.92912773  0.86695191  0.80149776
   0.57089423  0.13462817  0.19824151
   0.40855994  0.79497488  0.19293841
   0.43634776  0.85903018  0.79940309
   0.30108455  0.60195608  0.40607549
   0.85672645  0.72879427  0.60055451
   0.46351419  0.92851144  0.40796439
   0.27441476  0.52137494  0.80847756
   0.20089606  0.38812656  0.60292645
   0.06510495  0.15998437  0.19077753
   0.75355475  0.52377541  0.80046229
   0.69076011  0.40752814  0.60838537
   0.60913137  0.20566218  0.78722166
   0.54567742  0.06911666  0.60870782
   0.34591385  0.65607406 -0.00076433
   0.23055325  0.47271637  0.19496808
Nb - Mo - Ta - Ti - V SQS               
           1
    -3.170549   -3.193527   -3.208897
     1.524388    1.451830   -7.815795
     7.809692   -7.831537   -1.639858
   Nb   Mo   Ta   Ti   V 
   6   6   6   5   6
Direct configuration=    10
   0.95988668  0.93429615  0.39550768
   0.63100315  0.26720281  0.40196819
   0.48545913  0.02279217 -0.00880951
  -0.00955417 -0.00061628  0.00119352
   0.09551416  0.21517443  0.80853841
   0.03822606  0.07105007  0.59703679
   0.90575169  0.79460156  0.19906551
   0.80891837  0.59312087  0.40028103
   0.72630019  0.46802267  0.20135982
   0.64701637  0.34898458 -0.00745697
   0.36828187  0.72368662  0.60399610
   0.13184072  0.27411700  0.39771812
   0.86215884  0.63528941  0.00195951
   0.92886325  0.86689246  0.80148765
   0.57106629  0.13446126  0.19818885
   0.40867658  0.79518584  0.19289113
   0.43646773  0.85910667  0.79953476
   0.30104709  0.60205996  0.40597418
   0.85653084  0.72886860  0.60063293
   0.46352895  0.92839204  0.40794392
   0.27409471  0.52098260  0.80864767
   0.20087807  0.38797305  0.60304082
   0.06517877  0.16042568  0.19030273
   0.75341585  0.52374678  0.80061534
   0.69076678  0.40744872  0.60845828
   0.60917725  0.20565629  0.78690598
   0.54604027  0.06897163  0.60879493
   0.34618975  0.65604533 -0.00077064
   0.23060808  0.47272770  0.19499326
Nb - Mo - Ta - Ti - V SQS               
           1
    -3.173923   -3.199288   -3.212140
     1.524678    1.449598   -7.817549
     7.815945   -7.841707   -1.643420
   Nb   Mo   Ta   Ti   V 
   6   6   6   5   6
Direct configuration=    11
   0.96049957  0.93455040  0.39499693
   0.63159752  0.26690394  0.40252341
   0.48572336  0.02289727 -0.00890231
  -0.01051310 -0.00052745  0.00094951
   0.09607190  0.21490640  0.80930633
   0.03911408  0.07044532  0.59725592
   0.90587569  0.79503284  0.19856411
   0.80863542  0.59348935  0.40062360
   0.72587538  0.46963991  0.20083787
   0.64525856  0.34906090 -0.00735826
   0.36738979  0.72387356  0.60455477
   0.13203878  0.27417358  0.39775395
   0.86239954  0.63415993  0.00205894
   0.92802309  0.86665737  0.80144695
   0.57161703  0.13416758  0.19790109
   0.40897792  0.79565228  0.19269319
   0.43735882  0.85891417  0.79984434
   0.30081799  0.60239030  0.40563109
   0.85587749  0.72911488  0.60090537
   0.46375251  0.92812790  0.40791038
   0.27293023  0.51975845  0.80909390
   0.20083638  0.38763346  0.60341640
   0.06524623  0.16191773  0.18873781
   0.75295462  0.52379798  0.80115245
   0.69091585  0.40711120  0.60853445
   0.60925476  0.20538877  0.78610646
   0.54691560  0.06847670  0.60890216
   0.34700927  0.65625870 -0.00066321
   0.23087906  0.47269325  0.19522241
Nb - Mo - Ta - Ti - V SQS               
           1
    -3.178278   -3.206722   -3.216324
     1.525051    1.446720   -7.819812
     7.824013   -7.854829   -1.648017
   Nb   Mo   Ta   Ti   V 
   6   6   6   5   6
Direct configuration=    12
   0.96128964  0.93487858  0.39433838
   0.63236313  0.26651845  0.40323904
   0.48606388  0.02303294 -0.00902201
  -0.01174865 -0.00041305  0.00063514
   0.09679012  0.21456071  0.81029614
   0.04025850  0.06966521  0.59753834
   0.90603569  0.79558934  0.19791769
   0.80827037  0.59396474  0.40106517
   0.72532767  0.47172654  0.20016481
   0.64299328  0.34915899 -0.00723070
   0.36623972  0.72411458  0.60527505
   0.13229396  0.27424661  0.39780008
   0.86271011  0.63270261  0.00218728
   0.92694057  0.86635385  0.80139469
   0.57232709  0.13378877  0.19753011
   0.40936619  0.79625418  0.19243790
   0.43850696  0.85866598  0.80024326
   0.30052289  0.60281649  0.40518881
   0.85503524  0.72943251  0.60125661
   0.46404074  0.92778713  0.40786715
   0.27142982  0.51817867  0.80966957
   0.20078249  0.38719529  0.60390061
   0.06533374  0.16384292  0.18672027
   0.75235982  0.52386396  0.80184487
   0.69110802  0.40667574  0.60863268
   0.60935538  0.20504358  0.78507591
   0.54804370  0.06783828  0.60904032
   0.34806515  0.65653419 -0.00052494
   0.23122809  0.47264887  0.19551775
Nb - Mo - Ta - Ti - V SQS               
           1
    -3.178450   -3.207104   -3.216184
     1.526835    1.446458   -7.820721
     7.828911   -7.858211   -1.649926
   Nb   Mo   Ta   Ti   V 
   6   6   6   5   6
Direct configuration=    13
   0.96149532  0.93513945  0.39422235
   0.63243906  0.26679628  0.40309019
   0.48609845  0.02288494 -0.00907547
  -0.01159302 -0.00041744  0.00042255
   0.09641787  0.21459299  0.81046854
   0.04059230  0.06957016  0.59741110
   0.90639342  0.79571671  0.19795544
   0.80830712  0.59376579  0.40112443
   0.72532545  0.47144842  0.20042568
   0.64229766  0.34929227 -0.00706213
   0.36624194  0.72399760  0.60523749
   0.13240822  0.27458212  0.39773441
   0.86280221  0.63243036  0.00220173
   0.92751985  0.86597144  0.80149279
   0.57261450  0.13414205  0.19763073
   0.40911513  0.79644937  0.19228914
   0.43835853  0.85814681  0.80022656
   0.30040631  0.60283023  0.40527934
   0.85477607  0.72944252  0.60132176
   0.46449572  0.92784448  0.40788913
   0.27101154  0.51789096  0.80977741
   0.20086084  0.38721571  0.60401993
   0.06510789  0.16475105  0.18596379
   0.75189717  0.52381068  0.80206898
   0.69119250  0.40657216  0.60855357
   0.60937063  0.20471368  0.78499207
   0.54814632  0.06756702  0.60899492
   0.34790759  0.65673220 -0.00036362
   0.23132674  0.47278667  0.19570717
Nb - Mo - Ta - Ti - V SQS               
           1
    -3.178967   -3.208248   -3.215766
     1.532187    1.445674   -7.823449
     7.843604   -7.868355   -1.655655
   Nb   Mo   Ta   Ti   V 
   6   6   6   5   6
Direct configuration=    14
   0.96211240  0.93592202  0.39387436
   0.63266692  0.26762973  0.40264375
   0.48620207  0.02244106 -0.00923572
  -0.01112629 -0.00043048 -0.00021488
   0.09530129  0.21468966  0.81098547
   0.04159353  0.06928519  0.59702960
   0.90746662  0.79609879  0.19806856
   0.80841728  0.59316900  0.40130218
   0.72531875  0.47061403  0.20120799
   0.64021107  0.34969184 -0.00655670
   0.36624852  0.72364676  0.60512491
   0.13275112  0.27558855  0.39753737
   0.86307837  0.63161374  0.00224514
   0.92925744  0.86482439  0.80178706
   0.57347690  0.13520169  0.19793228
   0.40836200  0.79703489  0.19184306
   0.43791300  0.85658955  0.80017668
   0.30005663  0.60287140  0.40555078
   0.85399867  0.72947245  0.60151710
   0.46586062  0.92801653  0.40795498
   0.26975669  0.51702784  0.81010090
   0.20109591  0.38727688  0.60437772
   0.06443051  0.16747544  0.18369521
   0.75050937  0.52365067  0.80274099
   0.69144584  0.40626154  0.60831643
   0.60941617  0.20372416  0.78474080
   0.54845403  0.06675343  0.60885891
   0.34743509  0.65732604  0.00012001
   0.23162283  0.47319991  0.19627506
Nb - Mo - Ta - Ti - V SQS               
           1
    -3.174748   -3.205156   -3.211720
     1.533473    1.443619   -7.816228
     7.838964   -7.862704   -1.657347
   Nb   Mo   Ta   Ti   V 
   6   6   6   5   6
Direct configuration=    15
   0.96240823  0.93617094  0.39375464
   0.63266800  0.26783983  0.40256801
   0.48636646  0.02217870 -0.00934052
  -0.01101674 -0.00046265 -0.00033829
   0.09485774  0.21465672  0.81104279
   0.04174683  0.06924167  0.59691137
   0.90759994  0.79620880  0.19811870
   0.80853961  0.59313203  0.40135618
   0.72527448  0.47056734  0.20141082
   0.63954927  0.34976813 -0.00639486
   0.36631483  0.72345370  0.60500595
   0.13295482  0.27589163  0.39742870
   0.86310967  0.63137757  0.00244231
   0.92954345  0.86445204  0.80180451
   0.57358650  0.13550742  0.19801841
   0.40836647  0.79718319  0.19181406
   0.43801451  0.85618404  0.80015525
   0.29998614  0.60297949  0.40567952
   0.85383264  0.72943554  0.60153629
   0.46639951  0.92811756  0.40793670
   0.26944449  0.51682246  0.81023064
   0.20119083  0.38726996  0.60451869
   0.06443520  0.16832835  0.18291128
   0.74996170  0.52348569  0.80295854
   0.69155272  0.40613398  0.60821890
   0.60939558  0.20331336  0.78470174
   0.54853633  0.06652796  0.60876003
   0.34709736  0.65746039  0.00027333
   0.23161675  0.47344084  0.19651628
Nb - Mo - Ta - Ti - V SQS               
           1
    -3.170559   -3.202085   -3.207702
     1.534750    1.441580   -7.809058
     7.834357   -7.857092   -1.659026
   Nb   Mo   Ta   Ti   V 
   6   6   6   5   6
Direct configuration=    16
   0.96270239  0.93641838  0.39363561
   0.63266913  0.26804866  0.40249271
   0.48652982  0.02191802 -0.00944461
  -0.01090785 -0.00049457 -0.00046091
   0.09441679  0.21462394  0.81109978
   0.04189922  0.06919846  0.59679389
   0.90773250  0.79631812  0.19816849
   0.80866121  0.59309527  0.40140984
   0.72523045  0.47052087  0.20161237
   0.63889138  0.34984385 -0.00623403
   0.36638069  0.72326188  0.60488778
   0.13315739  0.27619289  0.39732065
   0.86314071  0.63114279  0.00263826
   0.92982769  0.86408202  0.80182190
   0.57369554  0.13581122  0.19810393
   0.40837095  0.79733059  0.19178522
   0.43811532  0.85578106  0.80013404
   0.29991609  0.60308686  0.40580743
   0.85366758  0.72939885  0.60155538
   0.46693527  0.92821799  0.40791848
   0.26913407  0.51661828  0.81035962
   0.20128519  0.38726305  0.60465876
   0.06444011  0.16917624  0.18213218
   0.74941721  0.52332163  0.80317478
   0.69165894  0.40600725  0.60812201
   0.60937501  0.20290511  0.78466302
   0.54861809  0.06630392  0.60866184
   0.34676166  0.65759384  0.00042566
   0.23161077  0.47368020  0.19675589
Nb - Mo - Ta - Ti - V SQS               
           1
    -3.168200   -3.202290   -3.206330
     1.539447    1.440171   -7.809992
     7.836390   -7.858474   -1.665210
   Nb   Mo   Ta   Ti   V 
   6   6   6   5   6
Direct configuration=    17
   0.96318834  0.93672506  0.39348078
   0.63265373  0.26817289  0.40254685
   0.48685350  0.02152581 -0.00960911
  -0.01085943 -0.00055448 -0.00051597
   0.09388166  0.21448621  0.81107629
   0.04192144  0.06917659  0.59668298
   0.90761859  0.79647493  0.19822412
   0.80882092  0.59332124  0.40151396
   0.72517193  0.47078954  0.20173711
   0.63811815  0.34981092 -0.00607547
   0.36647525  0.72300166  0.60473381
   0.13351495  0.27639183  0.39717018
   0.86311665  0.63088030  0.00301922
   0.92982066  0.86365144  0.80176482
   0.57358150  0.13606370  0.19809880
   0.40857306  0.79753952  0.19188253
   0.43848897  0.85550216  0.80009555
   0.29987557  0.60334302  0.40596293
   0.85361451  0.72929915  0.60155050
   0.46756327  0.92838790  0.40786097
   0.26885949  0.51639117  0.81055619
   0.20141720  0.38721227  0.60485723
   0.06476625  0.17006313  0.18117981
   0.74879155  0.52300234  0.80340960
   0.69182330  0.40578973  0.60801816
   0.60927416  0.20237846  0.78463645
   0.54867511  0.06611842  0.60848014
   0.34623721  0.65768245  0.00058794
   0.23149583  0.47403930  0.19707361
Nb - Mo - Ta - Ti - V SQS               
           1
    -3.161124   -3.202905   -3.202215
     1.553541    1.435945   -7.812794
     7.842490   -7.862619   -1.683763
   Nb   Mo   Ta   Ti   V 
   6   6   6   5   6
Direct configuration=    18
   0.96464722  0.93764532  0.39301577
   0.63260764  0.26854539  0.40270912
   0.48782453  0.02034981 -0.01010221
  -0.01071418 -0.00073407 -0.00068106
   0.09227551  0.21407305  0.81100626
   0.04198817  0.06911121  0.59635031
   0.90727690  0.79694513  0.19839085
   0.80930047  0.59399881  0.40182593
   0.72499656  0.47159511  0.20211096
   0.63579747  0.34971173 -0.00559947
   0.36675877  0.72222148  0.60427227
   0.13458834  0.27698891  0.39671848
   0.86304386  0.63009224  0.00416217
   0.92979906  0.86236009  0.80159409
   0.57323956  0.13682097  0.19808319
   0.40917980  0.79816604  0.19217405
   0.43961001  0.85466579  0.79998024
   0.29975419  0.60411103  0.40642905
   0.85345512  0.72900014  0.60153601
   0.46944822  0.92889774  0.40768796
   0.26803504  0.51570955  0.81114619
   0.20181320  0.38705959  0.60545252
   0.06574675  0.17272518  0.17832210
   0.74691334  0.52204408  0.80411459
   0.69231633  0.40513755  0.60770683
   0.60897088  0.20079885  0.78455741
   0.54884611  0.06556239  0.60793536
   0.34466329  0.65794783  0.00107483
   0.23115116  0.47511572  0.19802621
Nb - Mo - Ta - Ti - V SQS               
           1
    -3.146971   -3.204135   -3.193984
     1.581727    1.427494   -7.818398
     7.854690   -7.870908   -1.720867
   Nb   Mo   Ta   Ti   V 
   6   6   6   5   6
Direct configuration=    19
   0.96757109  0.93948707  0.39208277
   0.63251609  0.26928926  0.40303261
   0.48976637  0.01800159 -0.01108601
  -0.01042360 -0.00109232 -0.00101077
   0.08905872  0.21324694  0.81086882
   0.04212202  0.06898188  0.59568549
   0.90659376  0.79788415  0.19872335
   0.81026193  0.59535206  0.40244742
   0.72464700  0.47320370  0.20285648
   0.63115017  0.34951073 -0.00464556
   0.36732506  0.72066403  0.60335130
   0.13673957  0.27818449  0.39581320
   0.86289471  0.62851254  0.00644853
   0.92975276  0.85977968  0.80125590
   0.57255685  0.13833449  0.19805055
   0.41039585  0.79941736  0.19275466
   0.44185259  0.85299497  0.79975060
   0.29951251  0.60564420  0.40735903
   0.85313526  0.72840248  0.60150792
   0.47322378  0.92991815  0.40733912
   0.26638186  0.51434451  0.81232784
   0.20260494  0.38675221  0.60664231
   0.06772018  0.17805765  0.17260314
   0.74314949  0.52012528  0.80552776
   0.69330224  0.40383542  0.60708560
   0.60835975  0.19764182  0.78440340
   0.54918777  0.06445327  0.60684762
   0.34151205  0.65847575  0.00204892
   0.23046257  0.47726331  0.19992802
Nb - Mo - Ta - Ti - V SQS               
           1
    -3.156279   -3.203326   -3.199397
     1.563190    1.433052   -7.814712
     7.846667   -7.865457   -1.696465
   Nb   Mo   Ta   Ti   V 
   6   6   6   5   6
Direct configuration=    20
   0.96564011  0.93827420  0.39270031
   0.63257547  0.26880152  0.40282121
   0.48848958  0.01954097 -0.01044216
  -0.01061480 -0.00085794 -0.00079457
   0.09118019  0.21378998  0.81095573
   0.04203346  0.06906507  0.59612205
   0.90704274  0.79726839  0.19850595
   0.80962649  0.59446458  0.40204191
   0.72487534  0.47214914  0.20236904
   0.63421436  0.34964636 -0.00527545
   0.36695364  0.72168449  0.60395420
   0.13531895  0.27739631  0.39641104
   0.86299753  0.62955613  0.00494428
   0.92978729  0.86147373  0.80147405
   0.57300428  0.13734043  0.19807386
   0.40959274  0.79859666  0.19237601
   0.44037708  0.85409129  0.79990033
   0.29967002  0.60463963  0.40675039
   0.85334705  0.72879505  0.60152525
   0.47073330  0.92924608  0.40757226
   0.26747472  0.51524459  0.81154854
   0.20208459  0.38695701  0.60586087
   0.06640590  0.17453972  0.17636894
   0.74563463  0.52139020  0.80459417
   0.69265407  0.40468886  0.60749229
   0.60876767  0.19971523  0.78449932
   0.54896353  0.06517887  0.60756060
   0.34358898  0.65813229  0.00140787
   0.23091442  0.47585780  0.19868170
Nb - Mo - Ta - Ti - V SQS               
           1
    -3.159226   -3.210681   -3.203712
     1.571175    1.430667   -7.826008
     7.858713   -7.877752   -1.709180
   Nb   Mo   Ta   Ti   V 
   6   6   6   5   6
Direct configuration=    21
   0.96632983  0.93886650  0.39234431
   0.63294548  0.26902968  0.40291713
   0.48907026  0.01885304 -0.01062884
  -0.01073011 -0.00125378 -0.00087049
   0.09079752  0.21308153  0.81081030
   0.04212235  0.06896406  0.59597919
   0.90709225  0.79788134  0.19869287
   0.80966503  0.59500766  0.40229859
   0.72480953  0.47252783  0.20261174
   0.63325424  0.34948734 -0.00521645
   0.36680511  0.72177596  0.60434629
   0.13548317  0.27744897  0.39633177
   0.86249766  0.62955612  0.00495879
   0.93005056  0.86101346  0.80156641
   0.57331260  0.13735857  0.19783896
   0.40929641  0.79935812  0.19249433
   0.43944999  0.85396334  0.79962964
   0.30021842  0.60472212  0.40683421
   0.85374094  0.72841905  0.60147810
   0.47113425  0.92943331  0.40753625
   0.26722517  0.51469967  0.81188909
   0.20222299  0.38691094  0.60610561
   0.06685194  0.17551433  0.17526101
   0.74523579  0.52085257  0.80491441
   0.69279643  0.40440661  0.60752905
   0.60832724  0.19937319  0.78435515
   0.54917105  0.06507096  0.60731667
   0.34348854  0.65801516  0.00164068
   0.23066870  0.47632901  0.19903525
Nb - Mo - Ta - Ti - V SQS               
           1
    -3.158932   -3.209947   -3.203282
     1.570378    1.430904   -7.824882
     7.857512   -7.876526   -1.707912
   Nb   Mo   Ta   Ti   V 
   6   6   6   5   6
Direct configuration=    22
   0.96626113  0.93880748  0.39237981
   0.63290864  0.26900697  0.40290761
   0.48901245  0.01892151 -0.01061028
  -0.01071862 -0.00121437 -0.00086296
   0.09083563  0.21315206  0.81082473
   0.04211350  0.06897410  0.59599341
   0.90708732  0.79782032  0.19867430
   0.80966119  0.59495360  0.40227307
   0.72481609  0.47249015  0.20258759
   0.63334984  0.34950320 -0.00522236
   0.36681992  0.72176690  0.60430725
   0.13546682  0.27744371  0.39633967
   0.86254743  0.62955613  0.00495733
   0.93002436  0.86105930  0.80155719
   0.57328189  0.13735674  0.19786236
   0.40932590  0.79928231  0.19248259
   0.43954228  0.85397607  0.79965655
   0.30016382  0.60471390  0.40682588
   0.85370173  0.72845648  0.60148278
   0.47109432  0.92941466  0.40753986
   0.26725005  0.51475398  0.81185515
   0.20220922  0.38691555  0.60608124
   0.06680745  0.17541716  0.17537140
   0.74527553  0.52090615  0.80488248
   0.69278227  0.40443472  0.60752538
   0.60837109  0.19940724  0.78436947
   0.54915037  0.06508168  0.60734095
   0.34349856  0.65802685  0.00161749
   0.23069317  0.47628213  0.19900007
Nb - Mo - Ta - Ti - V SQS               
           1
    -3.157083   -3.212097   -3.202409
     1.573982    1.424792   -7.820122
     7.853807   -7.873341   -1.716806
   Nb   Mo   Ta   Ti   V 
   6   6   6   5   6
Direct configuration=    23
   0.96674938  0.93935445  0.39202974
   0.63340744  0.26923385  0.40292260
   0.48944536  0.01827418 -0.01081047
  -0.01084869 -0.00176532 -0.00091458