  30  30   0   0
  0.1607872E+02  0.5507922E-09  0.8261882E-09  0.1135487E-08  0.5000000E-15
  1.000000000000000E-004
  CAR 
 Nb - Mo - Ta - Ti - V SQS               
     11.47944659    -50.25519669  301      6.54633924      1.00000000
    -50.255  0.0000E+00  0.0000E+00
    -50.049  0.0000E+00  0.0000E+00
    -49.844  0.0000E+00  0.0000E+00
    -49.638  0.0000E+00  0.0000E+00
    -49.432  0.0000E+00  0.0000E+00
    -49.226 -0.1050E-32 -0.2161E-33
    -49.021 -0.3046E-25 -0.6268E-26
    -48.815 -0.1033E-18 -0.2126E-19
    -48.609 -0.4059E-13 -0.8353E-14
    -48.403 -0.1924E-08 -0.3959E-09
    -48.197 -0.1066E-04 -0.2195E-05
    -47.992 -0.6710E-02 -0.1383E-02
    -47.786 -0.4251E+00 -0.8886E-01
    -47.580 -0.2244E-01 -0.9348E-01
    -47.374  0.2549E+02  0.5151E+01
    -47.168  0.3111E+02  0.1155E+02
    -46.963  0.2907E+01  0.1215E+02
    -46.757 -0.7034E+00  0.1201E+02
    -46.551 -0.2833E-01  0.1200E+02
    -46.345 -0.1124E-03  0.1200E+02
    -46.140 -0.5134E-07  0.1200E+02
    -45.934 -0.2752E-11  0.1200E+02
    -45.728  0.0000E+00  0.1200E+02
    -45.522  0.0000E+00  0.1200E+02
    -45.316  0.0000E+00  0.1200E+02
    -45.111  0.0000E+00  0.1200E+02
    -44.905  0.0000E+00  0.1200E+02
    -44.699  0.0000E+00  0.1200E+02
    -44.493  0.0000E+00  0.1200E+02
    -44.288  0.0000E+00  0.1200E+02
    -44.082  0.0000E+00  0.1200E+02
    -43.876  0.0000E+00  0.1200E+02
    -43.670  0.0000E+00  0.1200E+02
    -43.464  0.0000E+00  0.1200E+02
    -43.259  0.0000E+00  0.1200E+02
    -43.053  0.0000E+00  0.1200E+02
    -42.847  0.0000E+00  0.1200E+02
    -42.641  0.0000E+00  0.1200E+02
    -42.435  0.0000E+00  0.1200E+02
    -42.230  0.0000E+00  0.1200E+02
    -42.024  0.0000E+00  0.1200E+02
    -41.818  0.0000E+00  0.1200E+02
    -41.612  0.0000E+00  0.1200E+02
    -41.407  0.0000E+00  0.1200E+02
    -41.201  0.0000E+00  0.1200E+02
    -40.995  0.0000E+00  0.1200E+02
    -40.789  0.0000E+00  0.1200E+02
    -40.583  0.0000E+00  0.1200E+02
    -40.378  0.0000E+00  0.1200E+02
    -40.172  0.0000E+00  0.1200E+02
    -39.966  0.0000E+00  0.1200E+02
    -39.760  0.0000E+00  0.1200E+02
    -39.555  0.0000E+00  0.1200E+02
    -39.349  0.0000E+00  0.1200E+02
    -39.143  0.0000E+00  0.1200E+02
    -38.937  0.0000E+00  0.1200E+02
    -38.731  0.0000E+00  0.1200E+02
    -38.526  0.0000E+00  0.1200E+02
    -38.320  0.0000E+00  0.1200E+02
    -38.114  0.0000E+00  0.1200E+02
    -37.908  0.0000E+00  0.1200E+02
    -37.702  0.0000E+00  0.1200E+02
    -37.497  0.0000E+00  0.1200E+02
    -37.291  0.0000E+00  0.1200E+02
    -37.085  0.0000E+00  0.1200E+02
    -36.879  0.0000E+00  0.1200E+02
    -36.674  0.0000E+00  0.1200E+02
    -36.468  0.0000E+00  0.1200E+02
    -36.262  0.0000E+00  0.1200E+02
    -36.056  0.0000E+00  0.1200E+02
    -35.850  0.0000E+00  0.1200E+02
    -35.645  0.0000E+00  0.1200E+02
    -35.439  0.0000E+00  0.1200E+02
    -35.233  0.0000E+00  0.1200E+02
    -35.027  0.0000E+00  0.1200E+02
    -34.822  0.0000E+00  0.1200E+02
    -34.616  0.0000E+00  0.1200E+02
    -34.410  0.0000E+00  0.1200E+02
    -34.204  0.0000E+00  0.1200E+02
    -33.998  0.0000E+00  0.1200E+02
    -33.793  0.0000E+00  0.1200E+02
    -33.587  0.0000E+00  0.1200E+02
    -33.381  0.0000E+00  0.1200E+02
    -33.175  0.0000E+00  0.1200E+02
    -32.969  0.0000E+00  0.1200E+02
    -32.764  0.0000E+00  0.1200E+02
    -32.558  0.0000E+00  0.1200E+02
    -32.352  0.0000E+00  0.1200E+02
    -32.146  0.0000E+00  0.1200E+02
    -31.941  0.0000E+00  0.1200E+02
    -31.735  0.0000E+00  0.1200E+02
    -31.529  0.0000E+00  0.1200E+02
    -31.323  0.0000E+00  0.1200E+02
    -31.117  0.0000E+00  0.1200E+02
    -30.912  0.0000E+00  0.1200E+02
    -30.706  0.0000E+00  0.1200E+02
    -30.500  0.0000E+00  0.1200E+02
    -30.294  0.0000E+00  0.1200E+02
    -30.089  0.0000E+00  0.1200E+02
    -29.883  0.0000E+00  0.1200E+02
    -29.677  0.0000E+00  0.1200E+02
    -29.471  0.0000E+00  0.1200E+02
    -29.265  0.0000E+00  0.1200E+02
    -29.060  0.0000E+00  0.1200E+02
    -28.854  0.0000E+00  0.1200E+02
    -28.648  0.0000E+00  0.1200E+02
    -28.442  0.0000E+00  0.1200E+02
    -28.237  0.0000E+00  0.1200E+02
    -28.031  0.0000E+00  0.1200E+02
    -27.825  0.0000E+00  0.1200E+02
    -27.619  0.0000E+00  0.1200E+02
    -27.413  0.0000E+00  0.1200E+02
    -27.208  0.0000E+00  0.1200E+02
    -27.002  0.0000E+00  0.1200E+02
    -26.796  0.0000E+00  0.1200E+02
    -26.590  0.0000E+00  0.1200E+02
    -26.384  0.0000E+00  0.1200E+02
    -26.179  0.0000E+00  0.1200E+02
    -25.973 -0.4916E-34  0.1200E+02
    -25.767 -0.1594E-26  0.1200E+02
    -25.561 -0.6118E-20  0.1200E+02
    -25.356 -0.2664E-14  0.1200E+02
    -25.150 -0.1416E-09  0.1200E+02
    -24.944 -0.8673E-06  0.1200E+02
    -24.738 -0.6202E-03  0.1200E+02
    -24.532 -0.5221E-01  0.1199E+02
    -24.327 -0.3461E+00  0.1192E+02
    -24.121  0.3852E+01  0.1271E+02
    -23.915  0.1491E+02  0.1578E+02
    -23.709  0.2016E+02  0.1993E+02
    -23.504  0.5372E+02  0.3098E+02
    -23.298  0.5098E+02  0.4147E+02
    -23.092  0.2152E+02  0.4590E+02
    -22.886  0.9039E+01  0.4776E+02
    -22.680  0.1364E+01  0.4804E+02
    -22.475 -0.1795E+00  0.4800E+02
    -22.269 -0.2389E-01  0.4800E+02
    -22.063 -0.2482E-03  0.4800E+02
    -21.857 -0.2730E-06  0.4800E+02
    -21.651 -0.3357E-10  0.4800E+02
    -21.446 -0.4316E-15  0.4800E+02
    -21.240  0.0000E+00  0.4800E+02
    -21.034  0.0000E+00  0.4800E+02
    -20.828  0.0000E+00  0.4800E+02
    -20.623  0.0000E+00  0.4800E+02
    -20.417  0.0000E+00  0.4800E+02
    -20.211  0.0000E+00  0.4800E+02
    -20.005  0.0000E+00  0.4800E+02
    -19.799  0.0000E+00  0.4800E+02
    -19.594  0.0000E+00  0.4800E+02
    -19.388  0.0000E+00  0.4800E+02
    -19.182  0.0000E+00  0.4800E+02
    -18.976  0.0000E+00  0.4800E+02
    -18.771  0.0000E+00  0.4800E+02
    -18.565  0.0000E+00  0.4800E+02
    -18.359  0.0000E+00  0.4800E+02
    -18.153  0.0000E+00  0.4800E+02
    -17.947  0.0000E+00  0.4800E+02
    -17.742  0.0000E+00  0.4800E+02
    -17.536  0.0000E+00  0.4800E+02
    -17.330  0.0000E+00  0.4800E+02
    -17.124  0.0000E+00  0.4800E+02
    -16.918  0.0000E+00  0.4800E+02
    -16.713  0.0000E+00  0.4800E+02
    -16.507  0.0000E+00  0.4800E+02
    -16.301  0.0000E+00  0.4800E+02
    -16.095  0.0000E+00  0.4800E+02
    -15.890  0.0000E+00  0.4800E+02
    -15.684  0.0000E+00  0.4800E+02
    -15.478  0.0000E+00  0.4800E+02
    -15.272  0.0000E+00  0.4800E+02
    -15.066  0.0000E+00  0.4800E+02
    -14.861  0.0000E+00  0.4800E+02
    -14.655  0.0000E+00  0.4800E+02
    -14.449  0.0000E+00  0.4800E+02
    -14.243  0.0000E+00  0.4800E+02
    -14.038  0.0000E+00  0.4800E+02
    -13.832  0.0000E+00  0.4800E+02
    -13.626  0.0000E+00  0.4800E+02
    -13.420  0.0000E+00  0.4800E+02
    -13.214  0.0000E+00  0.4800E+02
    -13.009  0.0000E+00  0.4800E+02
    -12.803  0.0000E+00  0.4800E+02
    -12.597  0.0000E+00  0.4800E+02
    -12.391  0.0000E+00  0.4800E+02
    -12.186  0.0000E+00  0.4800E+02
    -11.980  0.0000E+00  0.4800E+02
    -11.774  0.0000E+00  0.4800E+02
    -11.568  0.0000E+00  0.4800E+02
    -11.362  0.0000E+00  0.4800E+02
    -11.157  0.0000E+00  0.4800E+02
    -10.951  0.0000E+00  0.4800E+02
    -10.745  0.0000E+00  0.4800E+02
    -10.539  0.0000E+00  0.4800E+02
    -10.333  0.0000E+00  0.4800E+02
    -10.128  0.0000E+00  0.4800E+02
     -9.922  0.0000E+00  0.4800E+02
     -9.716  0.0000E+00  0.4800E+02
     -9.510  0.0000E+00  0.4800E+02
     -9.305  0.0000E+00  0.4800E+02
     -9.099  0.0000E+00  0.4800E+02
     -8.893  0.0000E+00  0.4800E+02
     -8.687  0.0000E+00  0.4800E+02
     -8.481  0.0000E+00  0.4800E+02
     -8.276  0.0000E+00  0.4800E+02
     -8.070  0.0000E+00  0.4800E+02
     -7.864  0.0000E+00  0.4800E+02
     -7.658  0.0000E+00  0.4800E+02
     -7.453  0.0000E+00  0.4800E+02
     -7.247  0.0000E+00  0.4800E+02
     -7.041  0.0000E+00  0.4800E+02
     -6.835  0.0000E+00  0.4800E+02
     -6.629  0.0000E+00  0.4800E+02
     -6.424  0.0000E+00  0.4800E+02
     -6.218  0.0000E+00  0.4800E+02
     -6.012  0.0000E+00  0.4800E+02
     -5.806  0.0000E+00  0.4800E+02
     -5.600  0.0000E+00  0.4800E+02
     -5.395  0.0000E+00  0.4800E+02
     -5.189  0.0000E+00  0.4800E+02
     -4.983  0.0000E+00  0.4800E+02
     -4.777  0.0000E+00  0.4800E+02
     -4.572  0.0000E+00  0.4800E+02
     -4.366  0.0000E+00  0.4800E+02
     -4.160  0.0000E+00  0.4800E+02
     -3.954  0.0000E+00  0.4800E+02
     -3.748  0.0000E+00  0.4800E+02
     -3.543  0.0000E+00  0.4800E+02
     -3.337  0.0000E+00  0.4800E+02
     -3.131  0.0000E+00  0.4800E+02
     -2.925  0.0000E+00  0.4800E+02
     -2.720  0.0000E+00  0.4800E+02
     -2.514  0.0000E+00  0.4800E+02
     -2.308  0.0000E+00  0.4800E+02
     -2.102  0.0000E+00  0.4800E+02
     -1.896 -0.7539E-31  0.4800E+02
     -1.691 -0.6926E-24  0.4800E+02
     -1.485 -0.7571E-18  0.4800E+02
     -1.279 -0.9505E-13  0.4800E+02
     -1.073 -0.1449E-08  0.4800E+02
     -0.867 -0.2605E-05  0.4800E+02
     -0.662 -0.5422E-03  0.4800E+02
     -0.456 -0.1110E-01  0.4800E+02
     -0.250  0.3893E-01  0.4801E+02
     -0.044  0.4611E+00  0.4810E+02
      0.161  0.1169E+01  0.4834E+02
      0.367  0.1881E+01  0.4873E+02
      0.573  0.1767E+01  0.4909E+02
      0.779  0.1645E+01  0.4943E+02
      0.985  0.2654E+01  0.4998E+02
      1.190  0.3430E+01  0.5068E+02
      1.396  0.3383E+01  0.5138E+02
      1.602  0.2631E+01  0.5192E+02
      1.808  0.4512E+01  0.5285E+02
      2.013  0.4770E+01  0.5383E+02
      2.219  0.5846E+01  0.5503E+02
      2.425  0.7888E+01  0.5666E+02
      2.631  0.1177E+02  0.5908E+02
      2.837  0.1833E+02  0.6285E+02
      3.042  0.2270E+02  0.6752E+02
      3.248  0.2678E+02  0.7303E+02
      3.454  0.3123E+02  0.7946E+02
      3.660  0.3078E+02  0.8579E+02
      3.866  0.3181E+02  0.9234E+02
      4.071  0.3224E+02  0.9898E+02
      4.277  0.3086E+02  0.1053E+03
      4.483  0.2526E+02  0.1105E+03
      4.689  0.2408E+02  0.1155E+03
      4.894  0.3438E+02  0.1226E+03
      5.100  0.4184E+02  0.1312E+03
      5.306  0.4633E+02  0.1407E+03
      5.512  0.4565E+02  0.1501E+03
      5.718  0.4214E+02  0.1588E+03
      5.923  0.4155E+02  0.1673E+03
      6.129  0.4654E+02  0.1769E+03
      6.335  0.5158E+02  0.1875E+03
      6.541  0.4971E+02  0.1977E+03
      6.746  0.4353E+02  0.2067E+03
      6.952  0.3264E+02  0.2134E+03
      7.158  0.2042E+02  0.2176E+03
      7.364  0.1331E+02  0.2203E+03
      7.570  0.1341E+02  0.2231E+03
      7.775  0.1685E+02  0.2266E+03
      7.981  0.1946E+02  0.2306E+03
      8.187  0.2072E+02  0.2348E+03
      8.393  0.1623E+02  0.2382E+03
      8.598  0.7866E+01  0.2398E+03
      8.804  0.1157E+01  0.2400E+03
      9.010 -0.1767E+00  0.2400E+03
      9.216 -0.1648E-01  0.2400E+03
      9.422 -0.1676E-03  0.2400E+03
      9.627 -0.2234E-06  0.2400E+03
      9.833 -0.3754E-10  0.2400E+03
     10.039 -0.7769E-15  0.2400E+03
     10.245  0.0000E+00  0.2400E+03
     10.451  0.0000E+00  0.2400E+03
     10.656  0.0000E+00  0.2400E+03
     10.862  0.0000E+00  0.2400E+03
     11.068  0.0000E+00  0.2400E+03
     11.274  0.0000E+00  0.2400E+03
     11.479  0.0000E+00  0.2400E+03
