   30   30    1    1
  0.1607872E+02  0.5507922E-09  0.8261882E-09  0.1135487E-08  0.5000000E-15
  1.000000000000000E-004
  CAR 
 Nb - Mo - Ta - Ti - V SQS               
    198     63    120
 
  0.0000000E+00  0.0000000E+00  0.0000000E+00  0.8000000E-02
    1      -47.449077   1.000000
    2      -47.428045   1.000000
    3      -47.386460   1.000000
    4      -47.335333   1.000000
    5      -47.303386   1.000000
    6      -47.207780   1.000000
    7      -24.177565   1.000000
    8      -24.025919   1.000000
    9      -23.872925   1.000000
   10      -23.828756   1.000000
   11      -23.609152   1.000000
   12      -23.603993   1.000000
   13      -23.599415   1.000000
   14      -23.550319   1.000000
   15      -23.533501   1.000000
   16      -23.515005   1.000000
   17      -23.489699   1.000000
   18      -23.446388   1.000000
   19      -23.406013   1.000000
   20      -23.385587   1.000000
   21      -23.248607   1.000000
   22      -23.230658   1.000000
   23      -23.083250   1.000000
   24      -22.859067   1.000000
   25       -0.223347   1.000000
   26        1.071915   1.000000
   27        1.429426   1.000000
   28        2.229445   1.000000
   29        2.366340   1.000000
   30        2.443311   1.000000
   31        2.549838   1.000000
   32        2.676842   1.000000
   33        2.724355   1.000000
   34        2.804801   1.000000
   35        2.862154   1.000000
   36        2.920700   1.000000
   37        2.980487   1.000000
   38        3.035491   1.000000
   39        3.155188   1.000000
   40        3.183518   1.000000
   41        3.275526   1.000000
   42        3.371603   1.000000
   43        3.476729   1.000000
   44        3.524311   1.000000
   45        3.599041   1.000000
   46        3.643527   1.000000
   47        3.700239   1.000000
   48        3.715224   1.000000
   49        3.878234   1.000000
   50        3.911712   1.000000
   51        4.006322   1.000000
   52        4.057321   1.000000
   53        4.138003   1.000000
   54        4.177440   1.000000
   55        4.310462   1.000000
   56        4.383083   1.000000
   57        4.466263   1.000000
   58        4.513891   1.000000
   59        4.647374   1.000000
   60        4.683289   1.000000
   61        4.765373   1.000000
   62        4.811144   1.000000
   63        4.818409   1.000000
   64        4.911562   1.000000
   65        4.916808   1.000000
   66        5.010229   1.000000
   67        5.023648   1.000000
   68        5.110121   1.000000
   69        5.126363   1.000000
   70        5.179287   1.000000
   71        5.237048   1.000000
   72        5.264854   1.000000
   73        5.325117   1.000000
   74        5.370733   1.000000
   75        5.381030   1.000000
   76        5.399269   1.000000
   77        5.418271   1.000000
   78        5.539082   1.000000
   79        5.603646   1.000000
   80        5.692621   1.000000
   81        5.867370   1.000009
   82        5.914465   1.000037
   83        5.959963   1.000136
   84        5.997606   1.000364
   85        6.049388   1.001239
   86        6.111706   1.004392
   87        6.165170   1.010707
   88        6.199797   1.017145
   89        6.209684   1.019282
   90        6.233142   1.024640
   91        6.261186   1.030793
   92        6.286599   1.034697
   93        6.315386   1.034629
   94        6.379990   0.997729
   95        6.539711   0.528030
   96        6.566377   0.415681
   97        6.653704   0.110351
   98        6.670791   0.070248
   99        6.717186  -0.002651
  100        6.808445  -0.034451
  101        6.869563  -0.022322
  102        6.907193  -0.014268
  103        6.968363  -0.005512
  104        6.981240  -0.004371
  105        7.001148  -0.002992
  106        7.117067  -0.000207
  107        7.356966  -0.000000
  108        7.508111  -0.000000
  109        7.543863  -0.000000
  110        7.629518  -0.000000
  111        7.997236  -0.000000
  112        8.159242  -0.000000
  113        8.302652  -0.000000
  114        8.396278  -0.000000
  115        8.448407  -0.000000
  116        8.458547  -0.000000
  117        8.480136  -0.000000
  118        8.509611  -0.000000
  119        8.584649  -0.000000
  120        8.618590  -0.000000
 
  0.2000000E+00 -0.1387779E-16 -0.1040834E-15  0.1600000E-01
    1      -47.446767   1.000000
    2      -47.422143   1.000000
    3      -47.383817   1.000000
    4      -47.334233   1.000000
    5      -47.302740   1.000000
    6      -47.219791   1.000000
    7      -24.083121   1.000000
    8      -24.013453   1.000000
    9      -23.866118   1.000000
   10      -23.822536   1.000000
   11      -23.608436   1.000000
   12      -23.607584   1.000000
   13      -23.594897   1.000000
   14      -23.552439   1.000000
   15      -23.532472   1.000000
   16      -23.519415   1.000000
   17      -23.491903   1.000000
   18      -23.449616   1.000000
   19      -23.416086   1.000000
   20      -23.388265   1.000000
   21      -23.254489   1.000000
   22      -23.236127   1.000000
   23      -23.085360   1.000000
   24      -22.984451   1.000000
   25        0.088650   1.000000
   26        1.347262   1.000000
   27        1.692918   1.000000
   28        2.273871   1.000000
   29        2.581391   1.000000
   30        2.681575   1.000000
   31        2.723879   1.000000
   32        2.847017   1.000000
   33        2.874682   1.000000
   34        2.920111   1.000000
   35        3.054144   1.000000
   36        3.120060   1.000000
   37        3.170190   1.000000
   38        3.266117   1.000000
   39        3.294083   1.000000
   40        3.358108   1.000000
   41        3.405971   1.000000
   42        3.470503   1.000000
   43        3.522102   1.000000
   44        3.562765   1.000000
   45        3.688809   1.000000
   46        3.733141   1.000000
   47        3.797576   1.000000
   48        3.892958   1.000000
   49        3.949937   1.000000
   50        3.964520   1.000000
   51        4.084184   1.000000
   52        4.160466   1.000000
   53        4.188450   1.000000
   54        4.279472   1.000000
   55        4.334461   1.000000
   56        4.410277   1.000000
   57        4.486565   1.000000
   58        4.567601   1.000000
   59        4.685357   1.000000
   60        4.741475   1.000000
   61        4.802070   1.000000
   62        4.933142   1.000000
   63        4.953868   1.000000
   64        5.022654   1.000000
   65        5.054304   1.000000
   66        5.090282   1.000000
   67        5.140805   1.000000
   68        5.200300   1.000000
   69        5.219216   1.000000
   70        5.231053   1.000000
   71        5.301041   1.000000
   72        5.330688   1.000000
   73        5.394214   1.000000
   74        5.413595   1.000000
   75        5.493506   1.000000
   76        5.525792   1.000000
   77        5.545497   1.000000
   78        5.579783   1.000000
   79        5.624151   1.000000
   80        5.664605   1.000000
   81        5.680319   1.000000
   82        5.777221   1.000000
   83        5.830481   1.000003
   84        5.892509   1.000019
   85        5.950491   1.000105
   86        6.000628   1.000393
   87        6.028788   1.000775
   88        6.118204   1.004944
   89        6.210651   1.019496
   90        6.224435   1.022626
   91        6.263980   1.031333
   92        6.296483   1.035368
   93        6.328969   1.031951
   94        6.364870   1.012648
   95        6.452670   0.852219
   96        6.470559   0.796560
   97        6.531511   0.562554
   98        6.561659   0.435388
   99        6.627284   0.186617
  100        6.673060   0.065477
  101        6.697970   0.021446
  102        6.746366  -0.025141
  103        6.836414  -0.029796
  104        6.860816  -0.024344
  105        6.899836  -0.015712
  106        6.939067  -0.008975
  107        6.964308  -0.005916
  108        7.168347  -0.000050
  109        7.281047  -0.000001
  110        7.381565  -0.000000
  111        7.687988  -0.000000
  112        7.712870  -0.000000
  113        7.763165  -0.000000
  114        7.807056  -0.000000
  115        7.906100  -0.000000
  116        8.066142  -0.000000
  117        8.118291  -0.000000
  118        8.175964  -0.000000
  119        8.193524  -0.000000
  120        8.228915  -0.000000
 
  0.4000000E+00 -0.2775558E-16 -0.2081668E-15  0.1600000E-01
    1      -47.444188   1.000000
    2      -47.412430   1.000000
    3      -47.376648   1.000000
    4      -47.330829   1.000000
    5      -47.300491   1.000000
    6      -47.243951   1.000000
    7      -24.036712   1.000000
    8      -23.887147   1.000000
    9      -23.839169   1.000000
   10      -23.715965   1.000000
   11      -23.616674   1.000000
   12      -23.610092   1.000000
   13      -23.581686   1.000000
   14      -23.554281   1.000000
   15      -23.531914   1.000000
   16      -23.519439   1.000000
   17      -23.496102   1.000000
   18      -23.455769   1.000000
   19      -23.438782   1.000000
   20      -23.393578   1.000000
   21      -23.330342   1.000000
   22      -23.259864   1.000000
   23      -23.225448   1.000000
   24      -23.079820   1.000000
   25        0.925083   1.000000
   26        1.869424   1.000000
   27        2.200834   1.000000
   28        2.416960   1.000000
   29        2.496547   1.000000
   30        2.860444   1.000000
   31        2.915981   1.000000
   32        3.093297   1.000000
   33        3.197029   1.000000
   34        3.272288   1.000000
   35        3.320201   1.000000
   36        3.363982   1.000000
   37        3.431862   1.000000
   38        3.463196   1.000000
   39        3.555051   1.000000
   40        3.615249   1.000000
   41        3.686805   1.000000
   42        3.722548   1.000000
   43        3.740738   1.000000
   44        3.826502   1.000000
   45        3.932114   1.000000
   46        3.935696   1.000000
   47        4.007901   1.000000
   48        4.039725   1.000000
   49        4.139957   1.000000
   50        4.167379   1.000000
   51        4.300784   1.000000
   52        4.353574   1.000000
   53        4.413299   1.000000
   54        4.495621   1.000000
   55        4.556240   1.000000
   56        4.623919   1.000000
   57        4.696228   1.000000
   58        4.744259   1.000000
   59        4.773968   1.000000
   60        4.834817   1.000000
   61        4.865600   1.000000
   62        4.910643   1.000000
   63        4.969538   1.000000
   64        4.999500   1.000000
   65        5.033660   1.000000
   66        5.115845   1.000000
   67        5.140046   1.000000
   68        5.170139   1.000000
   69        5.209054   1.000000
   70        5.272053   1.000000
   71        5.321802   1.000000
   72        5.375282   1.000000
   73        5.412501   1.000000
   74        5.457525   1.000000
   75        5.500924   1.000000
   76        5.560814   1.000000
   77        5.614952   1.000000
   78        5.639959   1.000000
   79        5.651912   1.000000
   80        5.698988   1.000000
   81        5.792391   1.000001
   82        5.837484   1.000003
   83        5.872153   1.000010
   84        5.913883   1.000037
   85        5.967096   1.000165
   86        6.011433   1.000513
   87        6.073177   1.002065
   88        6.109008   1.004179
   89        6.147774   1.008182
   90        6.175144   1.012374
   91        6.205976   1.018468
   92        6.243264   1.026961
   93        6.275641   1.033327
   94        6.307040   1.035330
   95        6.312619   1.034934
   96        6.396949   0.975204
   97        6.439674   0.887849
   98        6.472930   0.788640
   99        6.513142   0.638348
  100        6.521451   0.604411
  101        6.565213   0.420531
  102        6.612983   0.234612
  103        6.620889   0.207534
  104        6.704864   0.011864
  105        6.709432   0.006101
  106        6.784329  -0.035262
  107        6.836933  -0.029688
  108        6.864724  -0.023439
  109        6.890707  -0.017606
  110        6.960142  -0.006356
  111        6.998412  -0.003157
  112        7.044268  -0.001213
  113        7.327691  -0.000000
  114        7.449025  -0.000000
  115        7.471357  -0.000000
  116        7.602029  -0.000000
  117        7.687240  -0.000000
  118        7.707217  -0.000000
  119        7.825998  -0.000000
  120        7.934216  -0.000000
 
  0.1387779E-16  0.2000000E+00  0.3469447E-16  0.1600000E-01
    1      -47.448937   1.000000
    2      -47.427881   1.000000
    3      -47.386449   1.000000
    4      -47.335567   1.000000
    5      -47.303465   1.000000
    6      -47.207777   1.000000
    7      -24.177571   1.000000
    8      -24.024770   1.000000
    9      -23.869223   1.000000
   10      -23.827850   1.000000
   11      -23.609261   1.000000
   12      -23.604094   1.000000
   13      -23.599509   1.000000
   14      -23.550387   1.000000
   15      -23.533492   1.000000
   16      -23.514901   1.000000
   17      -23.489587   1.000000
   18      -23.446317   1.000000
   19      -23.406037   1.000000
   20      -23.385663   1.000000
   21      -23.251294   1.000000
   22      -23.234232   1.000000
   23      -23.083608   1.000000
   24      -22.859070   1.000000
   25       -0.092045   1.000000
   26        1.136780   1.000000
   27        1.550306   1.000000
   28        1.769025   1.000000
   29        2.338484   1.000000
   30        2.499937   1.000000
   31        2.575553   1.000000
   32        2.693155   1.000000
   33        2.709160   1.000000
   34        2.795415   1.000000
   35        2.890615   1.000000
   36        2.948209   1.000000
   37        2.992002   1.000000
   38        3.038575   1.000000
   39        3.101834   1.000000
   40        3.139770   1.000000
   41        3.299580   1.000000
   42        3.336402   1.000000
   43        3.446719   1.000000
   44        3.519429   1.000000
   45        3.612247   1.000000
   46        3.699633   1.000000
   47        3.717905   1.000000
   48        3.824849   1.000000
   49        3.859497   1.000000
   50        3.945938   1.000000
   51        4.017101   1.000000
   52        4.087032   1.000000
   53        4.113590   1.000000
   54        4.170948   1.000000
   55        4.245378   1.000000
   56        4.326831   1.000000
   57        4.423147   1.000000
   58        4.587171   1.000000
   59        4.668752   1.000000
   60        4.732715   1.000000
   61        4.772966   1.000000
   62        4.881336   1.000000
   63        4.915713   1.000000
   64        4.965225   1.000000
   65        5.012296   1.000000
   66        5.044447   1.000000
   67        5.102367   1.000000
   68        5.154968   1.000000
   69        5.176964   1.000000
   70        5.207669   1.000000
   71        5.261179   1.000000
   72        5.290276   1.000000
   73        5.328896   1.000000
   74        5.390036   1.000000
   75        5.431238   1.000000
   76        5.460081   1.000000
   77        5.508797   1.000000
   78        5.531154   1.000000
   79        5.642542   1.000000
   80        5.676482   1.000000
   81        5.876856   1.000012
   82        5.897836   1.000023
   83        5.972047   1.000188
   84        6.001154   1.000398
   85        6.039177   1.000985
   86        6.053042   1.001343
   87        6.086854   1.002727
   88        6.137185   1.006876
   89        6.178186   1.012914
   90        6.196103   1.016376
   91        6.234330   1.024915
   92        6.270900   1.032573
   93        6.309262   1.035206
   94        6.346769   1.024903
   95        6.400488   0.969673
   96        6.410425   0.952539
   97        6.478563   0.769346
   98        6.540436   0.524966
   99        6.593056   0.308180
  100        6.854792  -0.025734
  101        6.901440  -0.015391
  102        6.925477  -0.011034
  103        6.999954  -0.003063
  104        7.068634  -0.000694
  105        7.168138  -0.000050
  106        7.200139  -0.000019
  107        7.333022  -0.000000
  108        7.514671  -0.000000
  109        7.544683  -0.000000
  110        7.627596  -0.000000
  111        7.744493  -0.000000
  112        7.814391  -0.000000
  113        7.944222  -0.000000
  114        8.153457  -0.000000
  115        8.228215  -0.000000
  116        8.357690  -0.000000
  117        8.383173  -0.000000
  118        8.440134  -0.000000
  119        8.479132  -0.000000
  120        8.523844  -0.000000
 
  0.2000000E+00  0.2000000E+00 -0.8326673E-16  0.1600000E-01
    1      -47.446929   1.000000
    2      -47.422279   1.000000
    3      -47.383812   1.000000
    4      -47.334011   1.000000
    5      -47.302667   1.000000
    6      -47.219793   1.000000
    7      -24.083246   1.000000
    8      -24.014489   1.000000
    9      -23.870014   1.000000
   10      -23.823065   1.000000
   11      -23.608486   1.000000
   12      -23.607546   1.000000
   13      -23.594837   1.000000
   14      -23.552478   1.000000
   15      -23.532399   1.000000
   16      -23.519354   1.000000
   17      -23.491916   1.000000
   18      -23.449645   1.000000
   19      -23.416030   1.000000
   20      -23.388207   1.000000
   21      -23.252423   1.000000
   22      -23.232106   1.000000
   23      -23.085026   1.000000
   24      -22.984437   1.000000
   25        0.093382   1.000000
   26        1.307619   1.000000
   27        1.721475   1.000000
   28        2.250634   1.000000
   29        2.530509   1.000000
   30        2.672565   1.000000
   31        2.677854   1.000000
   32        2.773287   1.000000
   33        2.828335   1.000000
   34        2.914982   1.000000
   35        2.974205   1.000000
   36        3.073550   1.000000
   37        3.167053   1.000000
   38        3.227639   1.000000
   39        3.271851   1.000000
   40        3.329610   1.000000
   41        3.371347   1.000000
   42        3.382624   1.000000
   43        3.589822   1.000000
   44        3.628624   1.000000
   45        3.685208   1.000000
   46        3.760161   1.000000
   47        3.814498   1.000000
   48        3.892662   1.000000
   49        4.002448   1.000000
   50        4.052815   1.000000
   51        4.080782   1.000000
   52        4.172446   1.000000
   53        4.248041   1.000000
   54        4.313209   1.000000
   55        4.375846   1.000000
   56        4.429794   1.000000
   57        4.540781   1.000000
   58        4.621048   1.000000
   59        4.693307   1.000000
   60        4.773654   1.000000
   61        4.826354   1.000000
   62        4.847760   1.000000
   63        4.938088   1.000000
   64        4.956817   1.000000
   65        4.992937   1.000000
   66        5.080074   1.000000
   67        5.112489   1.000000
   68        5.152001   1.000000
   69        5.192863   1.000000
   70        5.217439   1.000000
   71        5.252414   1.000000
   72        5.271465   1.000000
   73        5.299886   1.000000
   74        5.357109   1.000000
   75        5.386550   1.000000
   76        5.452352   1.000000
   77        5.535266   1.000000
   78        5.557875   1.000000
   79        5.638199   1.000000
   80        5.704683   1.000000
   81        5.758904   1.000000
   82        5.820849   1.000002
   83        5.890130   1.000018
   84        5.906026   1.000029
   85        5.957922   1.000129
   86        6.021172   1.000648
   87        6.067322   1.001827
   88        6.146225   1.007980
   89        6.167756   1.011124
   90        6.210273   1.019412
   91        6.242075   1.026691
   92        6.271693   1.032705
   93        6.307892   1.035288
   94        6.333099   1.030703
   95        6.427000   0.918527
   96        6.480009   0.764285
   97        6.527292   0.580194
   98        6.610210   0.244412
   99        6.661548   0.091027
  100        6.711404   0.003754
  101        6.756472  -0.029617
  102        6.816431  -0.033417
  103        6.874666  -0.021153
  104        6.910600  -0.013626
  105        6.938715  -0.009025
  106        7.011386  -0.002439
  107        7.067850  -0.000707
  108        7.119499  -0.000194
  109        7.203573  -0.000017
  110        7.238559  -0.000006
  111        7.312593  -0.000000
  112        7.694635  -0.000000
  113        8.003754  -0.000000
  114        8.109062  -0.000000
  115        8.183604  -0.000000
  116        8.216859  -0.000000
  117        8.370473  -0.000000
  118        8.434145  -0.000000
  119        8.472759  -0.000000
  120        8.550397  -0.000000
 
  0.4000000E+00  0.2000000E+00 -0.1804112E-15  0.1600000E-01
    1      -47.444505   1.000000
    2      -47.412640   1.000000
    3      -47.376579   1.000000
    4      -47.330462   1.000000
    5      -47.300399   1.000000
    6      -47.243956   1.000000
    7      -24.038179   1.000000
    8      -23.890746   1.000000
    9      -23.843421   1.000000
   10      -23.715933   1.000000
   11      -23.616706   1.000000
   12      -23.610042   1.000000
   13      -23.581600   1.000000
   14      -23.554286   1.000000
   15      -23.531881   1.000000
   16      -23.519345   1.000000
   17      -23.496143   1.000000
   18      -23.455821   1.000000
   19      -23.438682   1.000000
   20      -23.393516   1.000000
   21      -23.330311   1.000000
   22      -23.251895   1.000000
   23      -23.223210   1.000000
   24      -23.079370   1.000000
   25        0.829633   1.000000
   26        1.808927   1.000000
   27        2.160427   1.000000
   28        2.360736   1.000000
   29        2.492644   1.000000
   30        2.628025   1.000000
   31        2.930302   1.000000
   32        3.129293   1.000000
   33        3.230208   1.000000
   34        3.291462   1.000000
   35        3.368791   1.000000
   36        3.394532   1.000000
   37        3.462631   1.000000
   38        3.528087   1.000000
   39        3.538761   1.000000
   40        3.637034   1.000000
   41        3.703210   1.000000
   42        3.721286   1.000000
   43        3.811090   1.000000
   44        3.849934   1.000000
   45        3.882010   1.000000
   46        3.923984   1.000000
   47        3.997269   1.000000
   48        4.072768   1.000000
   49        4.137868   1.000000
   50        4.208903   1.000000
   51        4.258415   1.000000
   52        4.331049   1.000000
   53        4.384196   1.000000
   54        4.416080   1.000000
   55        4.483747   1.000000
   56        4.536299   1.000000
   57        4.591309   1.000000
   58        4.675116   1.000000
   59        4.745771   1.000000
   60        4.864700   1.000000
   61        4.892638   1.000000
   62        4.911745   1.000000
   63        4.976529   1.000000
   64        5.029271   1.000000
   65        5.065344   1.000000
   66        5.120834   1.000000
   67        5.147855   1.000000
   68        5.201383   1.000000
   69        5.233434   1.000000
   70        5.282639   1.000000
   71        5.335254   1.000000
   72        5.346852   1.000000
   73        5.388780   1.000000
   74        5.445378   1.000000
   75        5.481012   1.000000
   76        5.524826   1.000000
   77        5.551286   1.000000
   78        5.648028   1.000000
   79        5.685559   1.000000
   80        5.753094   1.000000
   81        5.775419   1.000000
   82        5.841580   1.000004
   83        5.888695   1.000017
   84        5.913161   1.000036
   85        5.932728   1.000064
   86        5.962976   1.000148
   87        6.041814   1.001046
   88        6.055624   1.001421
   89        6.103208   1.003748
   90        6.141540   1.007392
   91        6.168489   1.011244
   92        6.211185   1.019615
   93        6.232062   1.024390
   94        6.270704   1.032540
   95        6.299887   1.035449
   96        6.327301   1.032394
   97        6.373907   1.004286
   98        6.404924   0.962320
   99        6.428883   0.914226
  100        6.461498   0.825679
  101        6.500004   0.690349
  102        6.562007   0.433929
  103        6.606528   0.257655
  104        6.641282   0.144104
  105        6.691279   0.031799
  106        6.708101   0.007733
  107        6.830365  -0.031013
  108        6.937051  -0.009262
  109        6.980911  -0.004397
  110        7.067985  -0.000704
  111        7.140784  -0.000109
  112        7.485942  -0.000000
  113        7.606342  -0.000000
  114        7.670573  -0.000000
  115        7.751891  -0.000000
  116        7.867783  -0.000000
  117        7.932068  -0.000000
  118        7.992445  -0.000000
  119        8.053939  -0.000000
  120        8.092197  -0.000000
 
 -0.4000000E+00  0.2000000E+00  0.0000000E+00  0.1600000E-01
    1      -47.444182   1.000000
    2      -47.412429   1.000000
    3      -47.376648   1.000000
    4      -47.330835   1.000000
    5      -47.300492   1.000000
    6      -47.243951   1.000000
    7      -24.036691   1.000000
    8      -23.887125   1.000000
    9      -23.839138   1.000000
   10      -23.715966   1.000000
   11      -23.616819   1.000000
   12      -23.610063   1.000000
   13      -23.581715   1.000000
   14      -23.554298   1.000000
   15      -23.531790   1.000000
   16      -23.519426   1.000000
   17      -23.496054   1.000000
   18      -23.455762   1.000000
   19      -23.438765   1.000000
   20      -23.393575   1.000000
   21      -23.330331   1.000000
   22      -23.259914   1.000000
   23      -23.225487   1.000000
   24      -23.079828   1.000000
   25        1.189126   1.000000
   26        1.852799   1.000000
   27        1.976852   1.000000
   28        2.267057   1.000000
   29        2.541512   1.000000
   30        2.770694   1.000000
   31        2.864339   1.000000
   32        2.975161   1.000000
   33        3.207491   1.000000
   34        3.262337   1.000000
   35        3.335880   1.000000
   36        3.363716   1.000000
   37        3.411458   1.000000
   38        3.496506   1.000000
   39        3.548222   1.000000
   40        3.618503   1.000000
   41        3.658349   1.000000
   42        3.704132   1.000000
   43        3.777025   1.000000
   44        3.827237   1.000000
   45        3.902423   1.000000
   46        3.999082   1.000000
   47        4.039823   1.000000
   48        4.133135   1.000000
   49        4.203309   1.000000
   50        4.261099   1.000000
   51        4.288297   1.000000
   52        4.344731   1.000000
   53        4.405234   1.000000
   54        4.511437   1.000000
   55        4.597320   1.000000
   56        4.686202   1.000000
   57        4.740437   1.000000
   58        4.773154   1.000000
   59        4.784675   1.000000
   60        4.824019   1.000000
   61        4.839715   1.000000
   62        4.918119   1.000000
   63        4.930723   1.000000
   64        4.998317   1.000000
   65        5.038399   1.000000
   66        5.094500   1.000000
   67        5.148292   1.000000
   68        5.192013   1.000000
   69        5.222947   1.000000
   70        5.242293   1.000000
   71        5.248350   1.000000
   72        5.357779   1.000000
   73        5.385800   1.000000
   74        5.431542   1.000000
   75        5.500157   1.000000
   76        5.510699   1.000000
   77        5.564518   1.000000
   78        5.590814   1.000000
   79        5.682528   1.000000
   80        5.734494   1.000000
   81        5.751130   1.000000
   82        5.810936   1.000001
   83        5.835644   1.000003
   84        5.888570   1.000017
   85        5.990886   1.000307
   86        6.024304   1.000698
   87        6.069996   1.001932
   88        6.103041   1.003736
   89        6.149424   1.008401
   90        6.181492   1.013517
   91        6.234818   1.025028
   92        6.249956   1.028450
   93        6.279075   1.033817
   94        6.313969   1.034795
   95        6.352901   1.021379
   96        6.405554   0.961236
   97        6.437521   0.893347
   98        6.486186   0.742216
   99        6.508262   0.657923
  100        6.538818   0.531799
  101        6.570706   0.397738
  102        6.603192   0.269876
  103        6.635855   0.160036
  104        6.682964   0.046157
  105        6.703933   0.013095
  106        6.745623  -0.024752
  107        6.784612  -0.035278
  108        6.806390  -0.034667
  109        6.907679  -0.014175
  110        6.963991  -0.005949
  111        7.099969  -0.000322
  112        7.127581  -0.000156
  113        7.157728  -0.000068
  114        7.273535  -0.000002
  115        7.549061  -0.000000
  116        7.720751  -0.000000
  117        7.934455  -0.000000
  118        7.947023  -0.000000
  119        8.006047  -0.000000
  120        8.043135  -0.000000
 
 -0.2000000E+00  0.2000000E+00  0.1040834E-16  0.1600000E-01
    1      -47.446492   1.000000
    2      -47.421911   1.000000
    3      -47.383825   1.000000
    4      -47.334614   1.000000
    5      -47.302859   1.000000
    6      -47.219786   1.000000
    7      -24.082931   1.000000
    8      -24.011799   1.000000
    9      -23.859687   1.000000
   10      -23.821347   1.000000
   11      -23.608682   1.000000
   12      -23.607619   1.000000
   13      -23.595035   1.000000
   14      -23.552487   1.000000
   15      -23.532436   1.000000
   16      -23.519338   1.000000
   17      -23.491762   1.000000
   18      -23.449515   1.000000
   19      -23.416160   1.000000
   20      -23.388355   1.000000
   21      -23.260161   1.000000
   22      -23.240821   1.000000
   23      -23.085891   1.000000
   24      -22.984466   1.000000
   25        0.328190   1.000000
   26        1.453285   1.000000
   27        1.703284   1.000000
   28        1.897167   1.000000
   29        2.450155   1.000000
   30        2.731747   1.000000
   31        2.820436   1.000000
   32        2.903782   1.000000
   33        2.915024   1.000000
   34        2.958643   1.000000
   35        3.098071   1.000000
   36        3.135610   1.000000
   37        3.166538   1.000000
   38        3.226132   1.000000
   39        3.248506   1.000000
   40        3.295918   1.000000
   41        3.351220   1.000000
   42        3.420313   1.000000
   43        3.513590   1.000000
   44        3.582953   1.000000
   45        3.656486   1.000000
   46        3.729450   1.000000
   47        3.798087   1.000000