 vasp.5.4.4.18Apr17-6-g9f103f2a35 (build Aug 09 2018 16:20:53) complex          
  
 executed on             LinuxIFC date 2020.04.28  21:16:22
 running on   32 total cores
 distrk:  each k-point on   32 cores,    1 groups
 distr:  one band on NCORES_PER_BAND=   4 cores,    8 groups


--------------------------------------------------------------------------------------------------------


 INCAR:
 POTCAR:    PAW_PBE Nb_sv 25May2007               
 POTCAR:    PAW_PBE Mo 08Apr2002                  
 POTCAR:    PAW_PBE Ta 17Jan2003                  
 POTCAR:    PAW_PBE Ti 08Apr2002                  
 POTCAR:    PAW_PBE V 08Apr2002                   
 POTCAR:    PAW_PBE Nb_sv 25May2007               
   VRHFIN =Nb: 4p5s4d                                                           
   LEXCH  = PE                                                                  
   EATOM  =  1555.1913 eV,  114.3033 Ry                                         
                                                                                
   TITEL  = PAW_PBE Nb_sv 25May2007                                             
   LULTRA =        F    use ultrasoft PP ?                                      
   IUNSCR =        1    unscreen: 0-lin 1-nonlin 2-no                           
   RPACOR =    1.800    partial core radius                                     
   POMASS =   92.910; ZVAL   =   13.000    mass and valenz                      
   RCORE  =    2.400    outmost cutoff radius                                   
   RWIGS  =    2.400; RWIGS  =    1.270    wigner-seitz radius (au A)           
   ENMAX  =  293.235; ENMIN  =  219.927 eV                                      
   ICORE  =        3    local potential                                         
   LCOR   =        T    correct aug charges                                     
   LPAW   =        T    paw PP                                                  
   EAUG   =  455.659                                                            
   DEXC   =    0.000                                                            
   RMAX   =    2.456    core radius for proj-oper                               
   RAUG   =    1.300    factor for augmentation sphere                          
   RDEP   =    2.451    radius for radial grids                                 
   RDEPT  =    1.956    core radius for aug-charge                              
                                                                                
   Atomic configuration                                                         
   11 entries                                                                   
     n  l   j            E        occ.                                          
     1  0  0.50    -18805.2457   2.0000                                         
     2  0  0.50     -2630.2869   2.0000                                         
     2  1  1.50     -2348.4046   6.0000                                         
     3  0  0.50      -438.8757   2.0000                                         
     3  1  1.50      -346.7588   6.0000                                         
     3  2  2.50      -196.2560  10.0000                                         
     4  0  0.50       -58.3859   2.0000                                         
     5  0  0.50        -3.9816   1.0000                                         
     4  1  1.50       -34.5141   6.0000                                         
     4  2  2.50        -3.0408   4.0000                                         
     4  3  2.50        -1.3606   0.0000                                         
   Description                                                                  
     l       E           TYP  RCUT    TYP  RCUT                                 
     0    -58.3859094     23  2.200                                             
     0     -3.9816262     23  2.200                                             
     1    -34.5140738     23  2.200                                             
     1     13.6058260     23  2.200                                             
     2     -3.0408010     23  2.200                                             
     2     -0.1283038     23  2.200                                             
     3     -1.3605826     23  2.400                                             
  local pseudopotential read in
  partial core-charges read in
  partial kinetic energy density read in
  atomic valenz-charges read in
  non local Contribution for L=           0  read in
    real space projection operators read in
  non local Contribution for L=           0  read in
    real space projection operators read in
  non local Contribution for L=           1  read in
    real space projection operators read in
  non local Contribution for L=           1  read in
    real space projection operators read in
  non local Contribution for L=           2  read in
    real space projection operators read in
  non local Contribution for L=           2  read in
    real space projection operators read in
    PAW grid and wavefunctions read in
 
   number of l-projection  operators is LMAX  =           6
   number of lm-projection operators is LMMAX =          18
 
 POTCAR:    PAW_PBE Mo 08Apr2002                  
   VRHFIN =Mo: 4p5s4d                                                           
   LEXCH  = PE                                                                  
   EATOM  =   217.5176 eV,   15.9871 Ry                                         
                                                                                
   TITEL  = PAW_PBE Mo 08Apr2002                                                
   LULTRA =        F    use ultrasoft PP ?                                      
   IUNSCR =        1    unscreen: 0-lin 1-nonlin 2-no                           
   RPACOR =    2.200    partial core radius                                     
   POMASS =   95.940; ZVAL   =    6.000    mass and valenz                      
   RCORE  =    2.750    outmost cutoff radius                                   
   RWIGS  =    2.750; RWIGS  =    1.455    wigner-seitz radius (au A)           
   ENMAX  =  224.584; ENMIN  =  168.438 eV                                      
   RCLOC  =    2.111    cutoff for local pot                                    
   LCOR   =        T    correct aug charges                                     
   LPAW   =        T    paw PP                                                  
   EAUG   =  345.278                                                            
   DEXC   =    0.000                                                            
   RMAX   =    2.821    core radius for proj-oper                               
   RAUG   =    1.300    factor for augmentation sphere                          
   RDEP   =    2.815    radius for radial grids                                 
   RDEPT  =    2.211    core radius for aug-charge                              
                                                                                
   Atomic configuration                                                         
   12 entries                                                                   
     n  l   j            E        occ.                                          
     1  0  0.50    -19819.0341   2.0000                                         
     2  0  0.50     -2799.0127   2.0000                                         
     2  1  1.50     -2502.0276   6.0000                                         
     3  0  0.50      -476.4448   2.0000                                         
     3  1  1.50      -379.1496   6.0000                                         
     3  2  2.50      -220.9367  10.0000                                         
     4  0  0.50       -64.3378   2.0000                                         
     4  1  1.50       -38.4773   6.0000                                         
     4  2  2.50        -3.7535   5.0000                                         
     5  0  0.50        -4.0862   1.0000                                         
     5  1  0.50        -2.7701   0.0000                                         
     4  3  2.50        -1.3606   0.0000                                         
   Description                                                                  
     l       E           TYP  RCUT    TYP  RCUT                                 
     2     -3.7534765     23  2.500                                             
     2     -5.1140591     23  2.500                                             
     0     -4.0861560     23  2.600                                             
     0     13.6058260     23  2.600                                             
     1      5.4423304     23  2.750                                             
     1     27.2116520     23  2.750                                             
  local pseudopotential read in
  partial core-charges read in
  partial kinetic energy density read in
  atomic valenz-charges read in
  non local Contribution for L=           2  read in
    real space projection operators read in
  non local Contribution for L=           2  read in
    real space projection operators read in
  non local Contribution for L=           0  read in
    real space projection operators read in
  non local Contribution for L=           0  read in
    real space projection operators read in
  non local Contribution for L=           1  read in
    real space projection operators read in
  non local Contribution for L=           1  read in
    real space projection operators read in
    PAW grid and wavefunctions read in
 
   number of l-projection  operators is LMAX  =           6
   number of lm-projection operators is LMMAX =          18
 
 POTCAR:    PAW_PBE Ta 17Jan2003                  
   VRHFIN =Ta:  6s5d                                                            
   LEXCH  = PE                                                                  
   EATOM  =   130.6506 eV,    9.6025 Ry                                         
                                                                                
   TITEL  = PAW_PBE Ta 17Jan2003                                                
   LULTRA =        F    use ultrasoft PP ?                                      
   IUNSCR =        1    unscreen: 0-lin 1-nonlin 2-no                           
   RPACOR =    2.330    partial core radius                                     
   POMASS =  180.948; ZVAL   =    5.000    mass and valenz                      
   RCORE  =    2.900    outmost cutoff radius                                   
   RWIGS  =    2.840; RWIGS  =    1.503    wigner-seitz radius (au A)           
   ENMAX  =  223.667; ENMIN  =  167.750 eV                                      
   RCLOC  =    2.205    cutoff for local pot                                    
   LCOR   =        T    correct aug charges                                     
   LPAW   =        T    paw PP                                                  
   EAUG   =  332.075                                                            
   DEXC   =    0.000                                                            
   RMAX   =    2.970    core radius for proj-oper                               
   RAUG   =    1.300    factor for augmentation sphere                          
   RDEP   =    3.060    radius for radial grids                                 
   RDEPT  =    2.354    core radius for aug-charge                              
                                                                                
   Atomic configuration                                                         
   16 entries                                                                   
     n  l   j            E        occ.                                          
     1  0  0.50    -67341.2807   2.0000                                         
     2  0  0.50    -11566.9376   2.0000                                         
     2  1  1.50    -10134.1182   6.0000                                         
     3  0  0.50     -2648.5620   2.0000                                         
     3  1  1.50     -2222.6012   6.0000                                         
     3  2  2.50     -1726.3120  10.0000                                         
     4  0  0.50      -538.6961   2.0000                                         
     4  1  1.50      -399.0129   6.0000                                         
     4  2  2.50      -220.3959  10.0000                                         
     4  3  3.50       -23.0374  14.0000                                         
     5  0  0.50       -71.2901   2.0000                                         
     5  1  1.50       -37.8225   6.0000                                         
     5  2  2.50        -2.6455   4.0000                                         
     6  0  0.50        -4.9623   1.0000                                         
     6  1  1.50        -1.3606   0.0000                                         
     5  3  2.50        -1.3606   0.0000                                         
   Description                                                                  
     l       E           TYP  RCUT    TYP  RCUT                                 
     2     -2.6455043     23  2.500                                             
     2     -0.6258895     23  2.500                                             
     0     -4.9622780     23  2.500                                             
     0      4.7531321     23  2.500                                             
     1     -1.3605826     23  2.900                                             
     1     27.2116520     23  2.900                                             
  local pseudopotential read in
  partial core-charges read in
  partial kinetic energy density read in
  atomic valenz-charges read in
  non local Contribution for L=           2  read in
    real space projection operators read in
  non local Contribution for L=           2  read in
    real space projection operators read in
  non local Contribution for L=           0  read in
    real space projection operators read in
  non local Contribution for L=           0  read in
    real space projection operators read in
  non local Contribution for L=           1  read in
    real space projection operators read in
  non local Contribution for L=           1  read in
    real space projection operators read in
    PAW grid and wavefunctions read in
 
   number of l-projection  operators is LMAX  =           6
   number of lm-projection operators is LMMAX =          18
 
 POTCAR:    PAW_PBE Ti 08Apr2002                  
   VRHFIN =Ti: d3 s1                                                            
   LEXCH  = PE                                                                  
   EATOM  =    94.7928 eV,    6.9671 Ry                                         
                                                                                
   TITEL  = PAW_PBE Ti 08Apr2002                                                
   LULTRA =        F    use ultrasoft PP ?                                      
   IUNSCR =        1    unscreen: 0-lin 1-nonlin 2-no                           
   RPACOR =    2.200    partial core radius                                     
   POMASS =   47.880; ZVAL   =    4.000    mass and valenz                      
   RCORE  =    2.800    outmost cutoff radius                                   
   RWIGS  =    2.500; RWIGS  =    1.323    wigner-seitz radius (au A)           
   ENMAX  =  178.330; ENMIN  =  133.747 eV                                      
   RCLOC  =    2.215    cutoff for local pot                                    
   LCOR   =        T    correct aug charges                                     
   LPAW   =        T    paw PP                                                  
   EAUG   =  328.883                                                            
   DEXC   =    0.000                                                            
   RMAX   =    2.868    core radius for proj-oper                               
   RAUG   =    1.300    factor for augmentation sphere                          
   RDEP   =    2.885    radius for radial grids                                 
   RDEPT  =    2.320    core radius for aug-charge                              
                                                                                
   Atomic configuration                                                         
    9 entries                                                                   
     n  l   j            E        occ.                                          
     1  0  0.50     -4865.3608   2.0000                                         
     2  0  0.50      -533.1367   2.0000                                         
     2  1  1.50      -440.5031   6.0000                                         
     3  0  0.50       -59.3186   2.0000                                         
     3  1  1.50       -35.7012   6.0000                                         
     3  2  2.50        -1.9157   3.0000                                         
     4  0  0.50        -3.7291   1.0000                                         
     4  1  1.50        -4.0817   0.0000                                         
     4  3  2.50        -1.3606   0.0000                                         
   Description                                                                  
     l       E           TYP  RCUT    TYP  RCUT                                 
     2     -1.9156924     23  2.800                                             
     2     -0.4062961     23  2.800                                             
     0     -3.7290832     23  2.800                                             
     0     20.4087390     23  2.800                                             
     1     -5.4423304     23  2.800                                             
  local pseudopotential read in
  partial core-charges read in
  partial kinetic energy density read in
  atomic valenz-charges read in
  non local Contribution for L=           2  read in
    real space projection operators read in
  non local Contribution for L=           2  read in
    real space projection operators read in
  non local Contribution for L=           0  read in
    real space projection operators read in
  non local Contribution for L=           0  read in
    real space projection operators read in
  non local Contribution for L=           1  read in
    real space projection operators read in
    PAW grid and wavefunctions read in
 
   number of l-projection  operators is LMAX  =           5
   number of lm-projection operators is LMMAX =          15
 
 POTCAR:    PAW_PBE V 08Apr2002                   
   VRHFIN =V: p6 d4 s1                                                          
   LEXCH  = PE                                                                  
   EATOM  =   170.8679 eV,   12.5584 Ry                                         
                                                                                
   TITEL  = PAW_PBE V 08Apr2002                                                 
   LULTRA =        F    use ultrasoft PP ?                                      
   IUNSCR =        1    unscreen: 0-lin 1-nonlin 2-no                           
   RPACOR =    2.000    partial core radius                                     
   POMASS =   50.941; ZVAL   =    5.000    mass and valenz                      
   RCORE  =    2.700    outmost cutoff radius                                   
   RWIGS  =    2.500; RWIGS  =    1.323    wigner-seitz radius (au A)           
   ENMAX  =  192.543; ENMIN  =  144.408 eV                                      
   RCLOC  =    1.779    cutoff for local pot                                    
   LCOR   =        T    correct aug charges                                     
   LPAW   =        T    paw PP                                                  
   EAUG   =  358.662                                                            
   DEXC   =    0.000                                                            
   RMAX   =    2.768    core radius for proj-oper                               
   RAUG   =    1.300    factor for augmentation sphere                          
   RDEP   =    2.762    radius for radial grids                                 
   RDEPT  =    2.240    core radius for aug-charge                              
                                                                                
   Atomic configuration                                                         
    9 entries                                                                   
     n  l   j            E        occ.                                          
     1  0  0.50     -5360.7193   2.0000                                         
     2  0  0.50      -598.4546   2.0000                                         
     2  1  1.50      -499.0155   6.0000                                         
     3  0  0.50       -66.5711   2.0000                                         
     3  1  1.50       -40.5282   6.0000                                         
     3  2  2.50        -2.4291   4.0000                                         
     4  0  0.50        -3.8743   1.0000                                         
     4  1  0.50        -2.7212   0.0000                                         
     4  3  2.50        -1.3606   0.0000                                         
   Description                                                                  
     l       E           TYP  RCUT    TYP  RCUT                                 
     2     -2.4290901     23  2.700                                             
     2     -3.7896727     23  2.700                                             
     0     -3.8742752     23  2.700                                             
     0     27.2116520     23  2.700                                             
     1     -2.7211652     23  2.700                                             
     1     27.2116520     23  2.700                                             
  local pseudopotential read in
  partial core-charges read in
  partial kinetic energy density read in
  atomic valenz-charges read in
  non local Contribution for L=           2  read in
    real space projection operators read in
  non local Contribution for L=           2  read in
    real space projection operators read in
  non local Contribution for L=           0  read in
    real space projection operators read in
  non local Contribution for L=           0  read in
    real space projection operators read in
  non local Contribution for L=           1  read in
    real space projection operators read in
  non local Contribution for L=           1  read in
    real space projection operators read in
    PAW grid and wavefunctions read in
 
   number of l-projection  operators is LMAX  =           6
   number of lm-projection operators is LMMAX =          18
 
 Optimization of the real space projectors (new method)

 maximal supplied QI-value         = 15.68
 optimisation between [QCUT,QGAM] = [ 12.55, 25.10] = [ 44.09,176.36] Ry 
 Optimized for a Real-space Cutoff    1.56 Angstroem

   l    n(q)    QCUT    max X(q) W(low)/X(q) W(high)/X(q)  e(spline) 
   0     12    12.548    10.201    0.21E-04    0.36E-05    0.83E-07
   0     12    12.548     8.174    0.31E-04    0.62E-05    0.15E-06
   1     11    12.548     3.488    0.79E-05    0.23E-04    0.21E-06
   1     11    12.548     4.917    0.56E-04    0.13E-03    0.11E-05
   2     11    12.548   153.744    0.25E-03    0.10E-03    0.15E-05
   2     11    12.548   126.342    0.25E-03    0.10E-03    0.15E-05
 Optimization of the real space projectors (new method)

 maximal supplied QI-value         = 13.61
 optimisation between [QCUT,QGAM] = [ 12.52, 25.04] = [ 43.88,175.51] Ry 
 Optimized for a Real-space Cutoff    1.56 Angstroem

   l    n(q)    QCUT    max X(q) W(low)/X(q) W(high)/X(q)  e(spline) 
   2     11    12.518    80.908    0.42E-03    0.30E-03    0.14E-05
   2     11    12.518    79.000    0.42E-03    0.30E-03    0.14E-05
   0     12    12.518    52.066    0.58E-04    0.50E-04    0.55E-06
   0     12    12.518    24.514    0.48E-04    0.41E-04    0.46E-06
   1     11    12.518    16.033    0.62E-04    0.13E-03    0.37E-06
   1     11    12.518    11.179    0.47E-04    0.10E-03    0.31E-06
 Optimization of the real space projectors (new method)

 maximal supplied QI-value         = 12.85
 optimisation between [QCUT,QGAM] = [ 12.46, 25.06] = [ 43.51,175.83] Ry 
 Optimized for a Real-space Cutoff    1.56 Angstroem

   l    n(q)    QCUT    max X(q) W(low)/X(q) W(high)/X(q)  e(spline) 
   2     11    12.465    62.315    0.36E-03    0.20E-03    0.15E-05
   2     11    12.465    52.185    0.36E-03    0.20E-03    0.15E-05
   0     12    12.465   103.837    0.22E-04    0.37E-05    0.56E-06
   0     12    12.465    59.728    0.20E-04    0.34E-05    0.51E-06
   1     11    12.465    13.958    0.44E-03    0.81E-03    0.81E-05
   1     11    12.465     8.441    0.31E-03    0.56E-03    0.56E-05
 Optimization of the real space projectors (new method)

 maximal supplied QI-value         = 13.42
 optimisation between [QCUT,QGAM] = [ 12.48, 25.09] = [ 43.60,176.28] Ry 
 Optimized for a Real-space Cutoff    1.56 Angstroem

   l    n(q)    QCUT    max X(q) W(low)/X(q) W(high)/X(q)  e(spline) 
   2     11    12.478    49.363    0.45E-03    0.34E-03    0.89E-06
   2     11    12.478    47.669    0.44E-03    0.33E-03    0.87E-06
   0     12    12.478    26.374    0.17E-03    0.37E-04    0.21E-05
   0     12    12.478    11.549    0.13E-03    0.31E-04    0.17E-05
   1     11    12.478     9.492    0.91E-05    0.64E-04    0.34E-06
 Optimization of the real space projectors (new method)

 maximal supplied QI-value         = 13.98
 optimisation between [QCUT,QGAM] = [ 12.45, 25.03] = [ 43.38,175.46] Ry 
 Optimized for a Real-space Cutoff    1.56 Angstroem

   l    n(q)    QCUT    max X(q) W(low)/X(q) W(high)/X(q)  e(spline) 
   2     11    12.446    96.114    0.19E-03    0.47E-04    0.85E-06
   2     11    12.446    88.986    0.19E-03    0.46E-04    0.86E-06
   0     12    12.446    20.919    0.37E-04    0.64E-04    0.43E-06
   0     12    12.446     9.593    0.25E-04    0.48E-04    0.33E-06
   1     11    12.446    11.615    0.75E-04    0.30E-04    0.59E-06
   1     11    12.446     7.031    0.53E-04    0.23E-04    0.40E-06

 ----------------------------------------------------------------------------- 
|                                                                             |
|  ADVICE TO THIS USER RUNNING 'VASP/VAMP'   (HEAR YOUR MASTER'S VOICE ...):  |
|                                                                             |
|      You enforced a specific xc-type in the INCAR file,                     |
|      a different type was found on the POTCAR file                          |
|          I HOPE YOU KNOW, WHAT YOU ARE  DOING                               |
|                                                                             |
 ----------------------------------------------------------------------------- 

  PAW_PBE Nb_sv 25May2007               :
 energy of atom  1       EATOM=-1555.1913
 kinetic energy error for atom=    0.0037 (will be added to EATOM!!)
  PAW_PBE Mo 08Apr2002                  :
 energy of atom  2       EATOM= -217.5176
 kinetic energy error for atom=    0.0005 (will be added to EATOM!!)
  PAW_PBE Ta 17Jan2003                  :
 energy of atom  3       EATOM= -130.6506
 kinetic energy error for atom=    0.0004 (will be added to EATOM!!)
  PAW_PBE Ti 08Apr2002                  :
 energy of atom  4       EATOM=  -94.7928
 kinetic energy error for atom=    0.0001 (will be added to EATOM!!)
  PAW_PBE V 08Apr2002                   :
 energy of atom  5       EATOM= -170.8679
 kinetic energy error for atom=    0.0002 (will be added to EATOM!!)
 
 
 POSCAR: Nb - Mo - Ta - Ti - V SQS-30 BCC        
  positions in direct lattice
  No initial velocities read in
 exchange correlation table for  LEXCH =       14
   RHO(1)=    0.500       N(1)  =     2000
   RHO(2)=  100.500       N(2)  =     4000

 VTST: version 3.2, (02/03/18)

 CHAIN: initializing optimizer
 
 OPT: Using VASP Conjugate-Gradient optimizer
 CHAIN: Read ICHAIN            0
 
 POSCAR: Nb - Mo - Ta - Ti - V SQS-30 BCC        
  positions in direct lattice
  No initial velocities read in
 


--------------------------------------------------------------------------------------------------------


 ion  position               nearest neighbor table
   1  0.967  0.933  0.400-  18 2.75   7 2.75  24 2.75  20 2.75  20 2.75  19 2.75   6 2.75   2 2.75
                            16 3.18   8 3.18  15 3.18  11 3.18  12 3.18
   2  0.633  0.267  0.400-  18 2.75  26 2.75   9 2.75  12 2.75  12 2.75  28 2.75  15 2.75   1 2.75
                             8 3.18
   3  0.500  0.000  0.000-  13 2.75  21 2.75  17 2.75  15 2.75   4 2.75   4 2.75  27 2.75  16 2.75
                            10 3.18  14 3.18   7 3.18
   4  0.000  0.000  0.000-  10 2.75  29 2.75  24 2.75  14 2.75   3 2.75   3 2.75   7 2.75   5 2.75
                            15 3.18  13 3.18  17 3.18  16 3.18
   5  0.100  0.200  0.800-  25 2.75  17 2.75   6 2.75  21 2.75  23 2.75  27 2.75  27 2.75   4 2.75
                            10 3.18  14 3.18
   6  0.033  0.067  0.600-  26 2.75   5 2.75  14 2.75  28 2.75  28 2.75  12 2.75   1 2.75  11 2.75
                            17 3.18
   7  0.900  0.800  0.200-  30 2.75  15 2.75   1 2.75  13 2.75   8 2.75  16 2.75  16 2.75   4 2.75
                            20 3.18   9 3.18  24 3.18  29 3.18  18 3.18   3 3.18
   8  0.800  0.600  0.400-  20 2.75  12 2.75   9 2.75  19 2.75   7 2.75  18 2.75  18 2.75  26 2.75
                            30 3.18   1 3.18  11 3.18   2 3.18  16 3.18  23 3.18
   9  0.733  0.467  0.200-  16 2.75   8 2.75   2 2.75  30 2.75  30 2.75  13 2.75  10 2.75  24 2.75
                             7 3.18  18 3.18  12 3.18  29 3.18  15 3.18  21 3.18
  10  0.667  0.333  0.000-   4 2.75  27 2.75  21 2.75  21 2.75  25 2.75  15 2.75   9 2.75  29 2.75
                             3 3.18   5 3.18  22 3.18  24 3.18  13 3.18  30 3.18
  11  0.367  0.733  0.600-  26 2.75  18 2.75  22 2.75  19 2.75  19 2.75  20 2.75  17 2.75   6 2.75
                             8 3.18  23 3.18  25 3.18   1 3.18  28 3.18  14 3.18
  12  0.133  0.267  0.400-   8 2.75  23 2.75  30 2.75   2 2.75   2 2.75   6 2.75  24 2.75  20 2.75
                            18 3.18  26 3.18   9 3.18  28 3.18  15 3.18   1 3.18
  13  0.833  0.667  0.000-   3 2.75   7 2.75  29 2.75  29 2.75   9 2.75  14 2.75  25 2.75  21 2.75
                             4 3.18  16 3.18  30 3.18  17 3.18  10 3.18  22 3.18
  14  0.933  0.867  0.800-  27 2.75   4 2.75   6 2.75  17 2.75  13 2.75  17 2.75  19 2.75  22 2.75
                             3 3.18   5 3.18  28 3.18  29 3.18  11 3.18  25 3.18
  15  0.567  0.133  0.200-   7 2.75   3 2.75  24 2.75  20 2.75  10 2.75  24 2.75   2 2.75  30 2.75
                             4 3.18  16 3.18   1 3.18  21 3.18  12 3.18   9 3.18
  16  0.400  0.800  0.200-   9 2.75  24 2.75  20 2.75  29 2.75  18 2.75   7 2.75   7 2.75   3 2.75
                             1 3.18  30 3.18  13 3.18  15 3.18   8 3.18   4 3.18
  17  0.433  0.867  0.800-   5 2.75   3 2.75  28 2.75  14 2.75  29 2.75  14 2.75  11 2.75  25 2.75
                            27 3.18   4 3.18   6 3.18  13 3.18  19 3.18  22 3.18
  18  0.300  0.600  0.400-   1 2.75   2 2.75  30 2.75  11 2.75  16 2.75   8 2.75   8 2.75  23 2.75
                            20 3.18   9 3.18  12 3.18  19 3.18   7 3.18  26 3.18
  19  0.867  0.733  0.600-  23 2.75   8 2.75  25 2.75  11 2.75  11 2.75   1 2.75  14 2.75  28 2.75
                            18 3.18  17 3.18
  20  0.467  0.933  0.400-   8 2.75  16 2.75  15 2.75   1 2.75   1 2.75  11 2.75  28 2.75  12 2.75
                             7 3.18  18 3.18
  21  0.167  0.333  0.000-   3 2.75   5 2.75  10 2.75  10 2.75  22 2.75  24 2.75  30 2.75  13 2.75
                            15 3.18   9 3.18
  22  0.267  0.533  0.800-  27 2.75  23 2.75  11 2.75  25 2.75  25 2.75  21 2.75  29 2.75  14 2.75
                            10 3.18  13 3.18  17 3.18
  23  0.200  0.400  0.600-  28 2.75  19 2.75  22 2.75  12 2.75   5 2.75  26 2.75  26 2.75  18 2.75
                            11 3.18   8 3.18
  24  0.067  0.133  0.200-  16 2.75   4 2.75  15 2.75   1 2.75  15 2.75  21 2.75  12 2.75   9 2.75
                             7 3.18  10 3.18
  25  0.767  0.533  0.800-   5 2.75  26 2.75  19 2.75  22 2.75  22 2.75  10 2.75  13 2.75  17 2.75
                            11 3.18  14 3.18
  26  0.700  0.400  0.600-   6 2.75  11 2.75  25 2.75   2 2.75  27 2.75  23 2.75  23 2.75   8 2.75
                            12 3.18  18 3.18
  27  0.600  0.200  0.800-  22 2.75  14 2.75  28 2.75  10 2.75  26 2.75   5 2.75   5 2.75   3 2.75
                            17 3.18
  28  0.533  0.067  0.600-  23 2.75  27 2.75  17 2.75   6 2.75   6 2.75   2 2.75  20 2.75  19 2.75
                            14 3.18  12 3.18  11 3.18
  29  0.333  0.667  0.000-   4 2.75  16 2.75  13 2.75  13 2.75  30 2.75  17 2.75  22 2.75  10 2.75
                             7 3.18   9 3.18  14 3.18
  30  0.233  0.467  0.200-   7 2.75  18 2.75  12 2.75   9 2.75   9 2.75  29 2.75  21 2.75  15 2.75
                            16 3.18   8 3.18  13 3.18  10 3.18
 
  LATTYP: Found a triclinic cell.
 ALAT       =     5.5079215681
 B/A-ratio  =     2.8722813233
 C/A-ratio  =     2.0615528128
 COS(alpha) =     0.0140733444
 COS(beta)  =     0.0808452083
 COS(gamma) =     0.8703882798
  
  Lattice vectors:
  
 A1 = (   3.1800000000,   3.1800000000,   3.1800000000)
 A2 = (  11.1300000000,  11.1300000000,   1.5900000000)
 A3 = (  -7.9500000000,   7.9500000000,   1.5900000000)


Analysis of symmetry for initial positions (statically):
=====================================================================
 Subroutine PRICEL returns:
 Original cell was already a primitive cell.
 

 Routine SETGRP: Setting up the symmetry group for a 
 triclinic supercell.


 Subroutine GETGRP returns: Found  1 space group operations
 (whereof  1 operations were pure point group operations)
 out of a pool of  2 trial point group operations.


The static configuration has the point symmetry C_1 .


Analysis of symmetry for dynamics (positions and initial velocities):
=====================================================================
 Subroutine PRICEL returns:
 Original cell was already a primitive cell.
 

 Routine SETGRP: Setting up the symmetry group for a 
 triclinic supercell.


 Subroutine GETGRP returns: Found  1 space group operations
 (whereof  1 operations were pure point group operations)
 out of a pool of  2 trial point group operations.


The dynamic configuration has the point symmetry C_1 .


 Subroutine INISYM returns: Found  1 space group operations
 (whereof  1 operations are pure point group operations),
 and found     1 'primitive' translations

 
 
 KPOINTS: k-points                                

Automatic generation of k-mesh.
Space group operators:
 irot       det(A)        alpha          n_x          n_y          n_z        tau_x        tau_y        tau_z
    1     1.000000     0.000000     1.000000     0.000000     0.000000     0.000000     0.000000     0.000000
 
 Subroutine IBZKPT returns following result:
 ===========================================
 
 Found     63 irreducible k-points:
 
 Following reciprocal coordinates:
            Coordinates               Weight
  0.000000  0.000000  0.000000      1.000000
  0.200000 -0.000000 -0.000000      2.000000
  0.400000 -0.000000 -0.000000      2.000000
  0.000000  0.200000  0.000000      2.000000
  0.200000  0.200000 -0.000000      2.000000
  0.400000  0.200000 -0.000000      2.000000
 -0.400000  0.200000  0.000000      2.000000
 -0.200000  0.200000  0.000000      2.000000
  0.000000  0.400000  0.000000      2.000000
  0.200000  0.400000 -0.000000      2.000000
  0.400000  0.400000 -0.000000      2.000000
 -0.400000  0.400000  0.000000      2.000000
 -0.200000  0.400000  0.000000      2.000000
  0.000000  0.000000  0.200000      2.000000
  0.200000 -0.000000  0.200000      2.000000
  0.400000 -0.000000  0.200000      2.000000
 -0.400000  0.000000  0.200000      2.000000
 -0.200000  0.000000  0.200000      2.000000
  0.000000  0.200000  0.200000      2.000000
  0.200000  0.200000  0.200000      2.000000
  0.400000  0.200000  0.200000      2.000000
 -0.400000  0.200000  0.200000      2.000000
 -0.200000  0.200000  0.200000      2.000000
  0.000000  0.400000  0.200000      2.000000
  0.200000  0.400000  0.200000      2.000000
  0.400000  0.400000  0.200000      2.000000
 -0.400000  0.400000  0.200000      2.000000
 -0.200000  0.400000  0.200000      2.000000
 -0.000000 -0.400000  0.200000      2.000000
  0.200000 -0.400000  0.200000      2.000000
  0.400000 -0.400000  0.200000      2.000000
 -0.400000 -0.400000  0.200000      2.000000
 -0.200000 -0.400000  0.200000      2.000000
  0.000000 -0.200000  0.200000      2.000000
  0.200000 -0.200000  0.200000      2.000000
  0.400000 -0.200000  0.200000      2.000000
 -0.400000 -0.200000  0.200000      2.000000
 -0.200000 -0.200000  0.200000      2.000000
  0.000000  0.000000  0.400000      2.000000
  0.200000 -0.000000  0.400000      2.000000
  0.400000 -0.000000  0.400000      2.000000
 -0.400000  0.000000  0.400000      2.000000
 -0.200000  0.000000  0.400000      2.000000
  0.000000  0.200000  0.400000      2.000000
  0.200000  0.200000  0.400000      2.000000
  0.400000  0.200000  0.400000      2.000000
 -0.400000  0.200000  0.400000      2.000000
 -0.200000  0.200000  0.400000      2.000000
  0.000000  0.400000  0.400000      2.000000
  0.200000  0.400000  0.400000      2.000000
  0.400000  0.400000  0.400000      2.000000
 -0.400000  0.400000  0.400000      2.000000
 -0.200000  0.400000  0.400000      2.000000
  0.000000 -0.400000  0.400000      2.000000
  0.200000 -0.400000  0.400000      2.000000
  0.400000 -0.400000  0.400000      2.000000
 -0.400000 -0.400000  0.400000      2.000000
 -0.200000 -0.400000  0.400000      2.000000
 -0.000000 -0.200000  0.400000      2.000000
  0.200000 -0.200000  0.400000      2.000000
  0.400000 -0.200000  0.400000      2.000000
 -0.400000 -0.200000  0.400000      2.000000
 -0.200000 -0.200000  0.400000      2.000000
 
 Following cartesian coordinates:
            Coordinates               Weight
  0.000000  0.000000  0.000000      1.000000
 -0.086667 -0.080000 -0.033333      2.000000
 -0.173333 -0.160000 -0.066667      2.000000
  0.026667  0.040000 -0.066667      2.000000
 -0.060000 -0.040000 -0.100000      2.000000
 -0.146667 -0.120000 -0.133333      2.000000
  0.200000  0.200000  0.000000      2.000000
  0.113333  0.120000 -0.033333      2.000000
  0.053333  0.080000 -0.133333      2.000000
 -0.033333 -0.000000 -0.166667      2.000000
 -0.120000 -0.080000 -0.200000      2.000000
  0.226667  0.240000 -0.066667      2.000000
  0.140000  0.160000 -0.100000      2.000000
  0.040000 -0.040000  0.000000      2.000000
 -0.046667 -0.120000 -0.033333      2.000000
 -0.133333 -0.200000 -0.066667      2.000000
  0.213333  0.120000  0.066667      2.000000
  0.126667  0.040000  0.033333      2.000000
  0.066667  0.000000 -0.066667      2.000000
 -0.020000 -0.080000 -0.100000      2.000000
 -0.106667 -0.160000 -0.133333      2.000000
  0.240000  0.160000  0.000000      2.000000
  0.153333  0.080000 -0.033333      2.000000
  0.093333  0.040000 -0.133333      2.000000
  0.006667 -0.040000 -0.166667      2.000000
 -0.080000 -0.120000 -0.200000      2.000000
  0.266667  0.200000 -0.066667      2.000000
  0.180000  0.120000 -0.100000      2.000000
 -0.013333 -0.120000  0.133333      2.000000
 -0.100000 -0.200000  0.100000      2.000000
 -0.186667 -0.280000  0.066667      2.000000
  0.160000  0.040000  0.200000      2.000000
  0.073333 -0.040000  0.166667      2.000000
  0.013333 -0.080000  0.066667      2.000000
 -0.073333 -0.160000  0.033333      2.000000
 -0.160000 -0.240000  0.000000      2.000000
  0.186667  0.080000  0.133333      2.000000
  0.100000  0.000000  0.100000      2.000000
  0.080000 -0.080000  0.000000      2.000000
 -0.006667 -0.160000 -0.033333      2.000000
 -0.093333 -0.240000 -0.066667      2.000000
  0.253333  0.080000  0.066667      2.000000
  0.166667  0.000000  0.033333      2.000000
  0.106667 -0.040000 -0.066667      2.000000
  0.020000 -0.120000 -0.100000      2.000000
 -0.066667 -0.200000 -0.133333      2.000000
  0.280000  0.120000  0.000000      2.000000
  0.193333  0.040000 -0.033333      2.000000
  0.133333  0.000000 -0.133333      2.000000
  0.046667 -0.080000 -0.166667      2.000000
 -0.040000 -0.160000 -0.200000      2.000000
  0.306667  0.160000 -0.066667      2.000000
  0.220000  0.080000 -0.100000      2.000000
  0.026667 -0.160000  0.133333      2.000000
 -0.060000 -0.240000  0.100000      2.000000
 -0.146667 -0.320000  0.066667      2.000000
  0.200000  0.000000  0.200000      2.000000
  0.113333 -0.080000  0.166667      2.000000
  0.053333 -0.120000  0.066667      2.000000
 -0.033333 -0.200000  0.033333      2.000000
 -0.120000 -0.280000  0.000000      2.000000
  0.226667  0.040000  0.133333      2.000000
  0.140000 -0.040000  0.100000      2.000000
 


--------------------------------------------------------------------------------------------------------




 Dimension of arrays:
   k-points           NKPTS =     63   k-points in BZ     NKDIM =     63   number of bands    NBANDS=    120
   number of dos      NEDOS =    301   number of ions     NIONS =     30
   non local maximal  LDIM  =      6   non local SUM 2l+1 LMDIM =     18
   total plane-waves  NPLWV = 126000
   max r-space proj   IRMAX =   4206   max aug-charges    IRDMAX=  18238
   dimension x,y,z NGX =    36 NGY =   50 NGZ =   70
   dimension x,y,z NGXF=    72 NGYF=  100 NGZF=  140
   support grid    NGXF=    72 NGYF=  100 NGZF=  140
   ions per type =               6   6   6   6   6
   NGX,Y,Z   is equivalent  to a cutoff of  10.87, 10.06, 10.25 a.u.
   NGXF,Y,Z  is equivalent  to a cutoff of  21.73, 20.12, 20.50 a.u.

 SYSTEM =  Nb - Mo - Ta - Ti - V SQS               
 POSCAR =  Nb - Mo - Ta - Ti - V SQS-30 BCC        

 Startparameter for this run:
   NWRITE =      2    write-flag & timer
   PREC   = normal    normal or accurate (medium, high low for compatibility)
   ISTART =      1    job   : 0-new  1-cont  2-samecut
   ICHARG =      1    charge: 1-file 2-atom 10-const
   ISPIN  =      1    spin polarized calculation?
   LNONCOLLINEAR =      F non collinear calculations
   LSORBIT =      F    spin-orbit coupling
   INIWAV =      1    electr: 0-lowe 1-rand  2-diag
   LASPH  =      F    aspherical Exc in radial PAW
   METAGGA=      F    non-selfconsistent MetaGGA calc.

 Electronic Relaxation 1
   ENCUT  =  600.0 eV  44.10 Ry    6.64 a.u.  11.00 16.50 22.68*2*pi/ulx,y,z
   ENINI  =  600.0     initial cutoff
   ENAUG  =  455.7 eV  augmentation charge cutoff
   NELM   =    100;   NELMIN=  2; NELMDL=  0     # of ELM steps 
   EDIFF  = 0.1E-03   stopping-criterion for ELM
   LREAL  =      T    real-space projection
   NLSPLINE    = F    spline interpolate recip. space projectors
   LCOMPAT=      F    compatible to vasp.4.4
   GGA_COMPAT  = T    GGA compatible to vasp.4.4-vasp.4.6
   LMAXPAW     = -100 max onsite density
   LMAXMIX     =    2 max onsite mixed and CHGCAR
   VOSKOWN=      0    Vosko Wilk Nusair interpolation
   ROPT   =   -0.00050  -0.00050  -0.00050  -0.00050
   ROPT   =   -0.00050
 Ionic relaxation
   EDIFFG = 0.1E-02   stopping-criterion for IOM
   NSW    =      0    number of steps for IOM
   NBLOCK =      1;   KBLOCK =      1    inner block; outer block 
   IBRION =     -1    ionic relax: 0-MD 1-quasi-New 2-CG
   NFREE  =      1    steps in history (QN), initial steepest desc. (CG)
   ISIF   =      2    stress and relaxation
   IWAVPR =     10    prediction:  0-non 1-charg 2-wave 3-comb
   ISYM   =      2    0-nonsym 1-usesym 2-fastsym
   LCORR  =      T    Harris-Foulkes like correction to forces

   POTIM  = 0.5000    time-step for ionic-motion
   TEIN   =    0.0    initial temperature
   TEBEG  =    0.0;   TEEND  =   0.0 temperature during run
   SMASS  =  -3.00    Nose mass-parameter (am)
   estimated Nose-frequenzy (Omega)   =  0.10E-29 period in steps =****** mass=  -0.693E-27a.u.
   SCALEE = 1.0000    scale energy and forces
   NPACO  =    256;   APACO  = 16.0  distance and # of slots for P.C.
   PSTRESS=    0.0 pullay stress

  Mass of Ions in am
   POMASS =  92.91 95.94180.95 47.88 50.94
  Ionic Valenz
   ZVAL   =  13.00  6.00  5.00  4.00  5.00
  Atomic Wigner-Seitz radii
   RWIGS  =  -1.00 -1.00 -1.00 -1.00 -1.00
  virtual crystal weights 
   VCA    =   1.00  1.00  1.00  1.00  1.00
   NELECT =     198.0000    total number of electrons
   NUPDOWN=      -1.0000    fix difference up-down

 DOS related values:
   EMIN   =  10.00;   EMAX   =-10.00  energy-range for DOS
   EFERMI =   0.00
   ISMEAR =     1;   SIGMA  =   0.20  broadening in eV -4-tet -1-fermi 0-gaus

 Electronic relaxation 2 (details)
   IALGO  =     38    algorithm
   LDIAG  =      T    sub-space diagonalisation (order eigenvalues)
   LSUBROT=      F    optimize rotation matrix (better conditioning)
   TURBO    =      0    0=normal 1=particle mesh
   IRESTART =      0    0=no restart 2=restart with 2 vectors
   NREBOOT  =      0    no. of reboots
   NMIN     =      0    reboot dimension
   EREF     =   0.00    reference energy to select bands
   IMIX   =      4    mixing-type and parameters
     AMIX     =   0.40;   BMIX     =  1.00
     AMIX_MAG =   1.60;   BMIX_MAG =  1.00
     AMIN     =   0.10
     WC   =   100.;   INIMIX=   1;  MIXPRE=   1;  MAXMIX= -45

 Intra band minimization:
   WEIMIN = 0.0000     energy-eigenvalue tresh-hold
   EBREAK =  0.21E-06  absolut break condition
   DEPER  =   0.30     relativ break condition  

   TIME   =   0.40     timestep for ELM

  volume/ion in A,a.u.               =      16.08       108.50
  Fermi-wavevector in a.u.,A,eV,Ry     =   1.216669  2.299171 20.140471  1.480283
  Thomas-Fermi vector in A             =   2.352015
 
 Write flags
   LWAVE        =      T    write WAVECAR
   LDOWNSAMPLE  =      F    k-point downsampling of WAVECAR
   LCHARG       =      T    write CHGCAR
   LVTOT        =      F    write LOCPOT, total local potential
   LVHAR        =      F    write LOCPOT, Hartree potential only
   LELF         =      F    write electronic localiz. function (ELF)
   LORBIT       =      0    0 simple, 1 ext, 2 COOP (PROOUT), +10 PAW based schemes


 Dipole corrections
   LMONO  =      F    monopole corrections only (constant potential shift)
   LDIPOL =      F    correct potential (dipole corrections)
   IDIPOL =      0    1-x, 2-y, 3-z, 4-all directions 
   EPSILON=  1.0000000 bulk dielectric constant

 Exchange correlation treatment:
   GGA     =    PS    GGA type
   LEXCH   =    14    internal setting for exchange type
   VOSKOWN=      0    Vosko Wilk Nusair interpolation
   LHFCALC =     F    Hartree Fock is set to
   LHFONE  =     F    Hartree Fock one center treatment
   AEXX    =    0.0000 exact exchange contribution

 Linear response parameters
   LEPSILON=     F    determine dielectric tensor
   LRPA    =     F    only Hartree local field effects (RPA)
   LNABLA  =     F    use nabla operator in PAW spheres
   LVEL    =     F    velocity operator in full k-point grid
   LINTERFAST=   F  fast interpolation
   KINTER  =     0    interpolate to denser k-point grid
   CSHIFT  =0.1000    complex shift for real part using Kramers Kronig
   OMEGAMAX=  -1.0    maximum frequency
   DEG_THRESHOLD= 0.2000000E-02 threshold for treating states as degnerate
   RTIME   =   -0.100 relaxation time in fs
  (WPLASMAI=    0.000 imaginary part of plasma frequency in eV, 0.658/RTIME)
   DFIELD  = 0.0000000 0.0000000 0.0000000 field for delta impulse in time
 
 Orbital magnetization related:
   ORBITALMAG=     F  switch on orbital magnetization
   LCHIMAG   =     F  perturbation theory with respect to B field
   DQ        =  0.001000  dq finite difference perturbation B field
   LLRAUG    =     F  two centre corrections for induced B field



--------------------------------------------------------------------------------------------------------


 Static calculation
 charge density and potential will be updated during run
 non-spin polarized calculation
 Variant of blocked Davidson
 Davidson routine will perform the subspace rotation
 perform sub-space diagonalisation
    after iterative eigenvector-optimisation
 modified Broyden-mixing scheme, WC =      100.0
 initial mixing is a Kerker type mixing with AMIX =  0.4000 and BMIX =      1.0000
 Hartree-type preconditioning will be used
 using additional bands           21
 real space projection scheme for non local part
 use partial core corrections
 calculate Harris-corrections to forces 
   (improved forces if not selfconsistent)
 use gradient corrections 
 use of overlap-Matrix (Vanderbilt PP)
 Methfessel and Paxton  Order N= 1 SIGMA  =   0.20


--------------------------------------------------------------------------------------------------------


  energy-cutoff  :      600.00
  volume of cell :      482.36
      direct lattice vectors                 reciprocal lattice vectors
    -3.180000000 -3.180000000 -3.180000000    -0.136268344 -0.125786164 -0.052410901
     1.590000000  1.590000000 -7.950000000     0.041928721  0.062893082 -0.104821803
     7.950000000 -7.950000000 -1.590000000     0.062893082 -0.062893082  0.000000000

  length of vectors
     5.507921568  8.261882352 11.354871201     0.192712540  0.129232998  0.088944249


 
 old parameters found on file WAVECAR:
  energy-cutoff  :      600.00
  volume of cell :      482.36
      direct lattice vectors                 reciprocal lattice vectors
    -3.180000000 -3.180000000 -3.180000000    -0.136268344 -0.125786164 -0.052410901
     1.590000000  1.590000000 -7.950000000     0.041928721  0.062893082 -0.104821803
     7.950000000 -7.950000000 -1.590000000     0.062893082 -0.062893082  0.000000000

  length of vectors

 
 k-points in units of 2pi/SCALE and weight: k-points                                
   0.00000000  0.00000000  0.00000000       0.008
  -0.08666667 -0.08000000 -0.03333333       0.016
  -0.17333333 -0.16000000 -0.06666667       0.016
   0.02666667  0.04000000 -0.06666667       0.016
  -0.06000000 -0.04000000 -0.10000000       0.016
  -0.14666667 -0.12000000 -0.13333333       0.016
   0.20000000  0.20000000  0.00000000       0.016
   0.11333333  0.12000000 -0.03333333       0.016
   0.05333333  0.08000000 -0.13333333       0.016
  -0.03333333 -0.00000000 -0.16666667       0.016
  -0.12000000 -0.08000000 -0.20000000       0.016
   0.22666667  0.24000000 -0.06666667       0.016
   0.14000000  0.16000000 -0.10000000       0.016
   0.04000000 -0.04000000  0.00000000       0.016
  -0.04666667 -0.12000000 -0.03333333       0.016
  -0.13333333 -0.20000000 -0.06666667       0.016
   0.21333333  0.12000000  0.06666667       0.016
   0.12666667  0.04000000  0.03333333       0.016
   0.06666667  0.00000000 -0.06666667       0.016
  -0.02000000 -0.08000000 -0.10000000       0.016
  -0.10666667 -0.16000000 -0.13333333       0.016
   0.24000000  0.16000000  0.00000000       0.016
   0.15333333  0.08000000 -0.03333333       0.016
   0.09333333  0.04000000 -0.13333333       0.016
   0.00666667 -0.04000000 -0.16666667       0.016
  -0.08000000 -0.12000000 -0.20000000       0.016
   0.26666667  0.20000000 -0.06666667       0.016
   0.18000000  0.12000000 -0.10000000       0.016
  -0.01333333 -0.12000000  0.13333333       0.016
  -0.10000000 -0.20000000  0.10000000       0.016
  -0.18666667 -0.28000000  0.06666667       0.016
   0.16000000  0.04000000  0.20000000       0.016
   0.07333333 -0.04000000  0.16666667       0.016
   0.01333333 -0.08000000  0.06666667       0.016
  -0.07333333 -0.16000000  0.03333333       0.016
  -0.16000000 -0.24000000  0.00000000       0.016
   0.18666667  0.08000000  0.13333333       0.016
   0.10000000  0.00000000  0.10000000       0.016
   0.08000000 -0.08000000  0.00000000       0.016
  -0.00666667 -0.16000000 -0.03333333       0.016
  -0.09333333 -0.24000000 -0.06666667       0.016
   0.25333333  0.08000000  0.06666667       0.016
   0.16666667  0.00000000  0.03333333       0.016
   0.10666667 -0.04000000 -0.06666667       0.016
   0.02000000 -0.12000000 -0.10000000       0.016
  -0.06666667 -0.20000000 -0.13333333       0.016
   0.28000000  0.12000000  0.00000000       0.016
   0.19333333  0.04000000 -0.03333333       0.016
   0.13333333  0.00000000 -0.13333333       0.016
   0.04666667 -0.08000000 -0.16666667       0.016
  -0.04000000 -0.16000000 -0.20000000       0.016
   0.30666667  0.16000000 -0.06666667       0.016
   0.22000000  0.08000000 -0.10000000       0.016
   0.02666667 -0.16000000  0.13333333       0.016
  -0.06000000 -0.24000000  0.10000000       0.016
  -0.14666667 -0.32000000  0.06666667       0.016
   0.20000000  0.00000000  0.20000000       0.016
   0.11333333 -0.08000000  0.16666667       0.016
   0.05333333 -0.12000000  0.06666667       0.016
  -0.03333333 -0.20000000  0.03333333       0.016
  -0.12000000 -0.28000000  0.00000000       0.016
   0.22666667  0.04000000  0.13333333       0.016
   0.14000000 -0.04000000  0.10000000       0.016
 
 k-points in reciprocal lattice and weights: k-points                                
   0.00000000  0.00000000  0.00000000       0.008
   0.20000000 -0.00000000 -0.00000000       0.016
   0.40000000 -0.00000000 -0.00000000       0.016
   0.00000000  0.20000000  0.00000000       0.016
   0.20000000  0.20000000 -0.00000000       0.016
   0.40000000  0.20000000 -0.00000000       0.016
  -0.40000000  0.20000000  0.00000000       0.016
  -0.20000000  0.20000000  0.00000000       0.016
   0.00000000  0.40000000  0.00000000       0.016
   0.20000000  0.40000000 -0.00000000       0.016
   0.40000000  0.40000000 -0.00000000       0.016
  -0.40000000  0.40000000  0.00000000       0.016
  -0.20000000  0.40000000  0.00000000       0.016
   0.00000000  0.00000000  0.20000000       0.016
   0.20000000 -0.00000000  0.20000000       0.016
   0.40000000 -0.00000000  0.20000000       0.016
  -0.40000000  0.00000000  0.20000000       0.016
  -0.20000000  0.00000000  0.20000000       0.016
   0.00000000  0.20000000  0.20000000       0.016
   0.20000000  0.20000000  0.20000000       0.016
   0.40000000  0.20000000  0.20000000       0.016
  -0.40000000  0.20000000  0.20000000       0.016
  -0.20000000  0.20000000  0.20000000       0.016
   0.00000000  0.40000000  0.20000000       0.016
   0.20000000  0.40000000  0.20000000       0.016
   0.40000000  0.40000000  0.20000000       0.016
  -0.40000000  0.40000000  0.20000000       0.016
  -0.20000000  0.40000000  0.20000000       0.016
  -0.00000000 -0.40000000  0.20000000       0.016
   0.20000000 -0.40000000  0.20000000       0.016
   0.40000000 -0.40000000  0.20000000       0.016
  -0.40000000 -0.40000000  0.20000000       0.016
  -0.20000000 -0.40000000  0.20000000       0.016
   0.00000000 -0.20000000  0.20000000       0.016
   0.20000000 -0.20000000  0.20000000       0.016
   0.40000000 -0.20000000  0.20000000       0.016
  -0.40000000 -0.20000000  0.20000000       0.016
  -0.20000000 -0.20000000  0.20000000       0.016
   0.00000000  0.00000000  0.40000000       0.016
   0.20000000 -0.00000000  0.40000000       0.016
   0.40000000 -0.00000000  0.40000000       0.016
  -0.40000000  0.00000000  0.40000000       0.016
  -0.20000000  0.00000000  0.40000000       0.016
   0.00000000  0.20000000  0.40000000       0.016
   0.20000000  0.20000000  0.40000000       0.016
   0.40000000  0.20000000  0.40000000       0.016
  -0.40000000  0.20000000  0.40000000       0.016
  -0.20000000  0.20000000  0.40000000       0.016
   0.00000000  0.40000000  0.40000000       0.016
   0.20000000  0.40000000  0.40000000       0.016
   0.40000000  0.40000000  0.40000000       0.016
  -0.40000000  0.40000000  0.40000000       0.016
  -0.20000000  0.40000000  0.40000000       0.016
   0.00000000 -0.40000000  0.40000000       0.016
   0.20000000 -0.40000000  0.40000000       0.016
   0.40000000 -0.40000000  0.40000000       0.016
  -0.40000000 -0.40000000  0.40000000       0.016
  -0.20000000 -0.40000000  0.40000000       0.016
  -0.00000000 -0.20000000  0.40000000       0.016
   0.20000000 -0.20000000  0.40000000       0.016
   0.40000000 -0.20000000  0.40000000       0.016
  -0.40000000 -0.20000000  0.40000000       0.016
  -0.20000000 -0.20000000  0.40000000       0.016
 
 position of ions in fractional coordinates (direct lattice) 
   0.96666667  0.93333333  0.40000000
   0.63333333  0.26666667  0.40000000
   0.50000000  0.00000000  0.00000000
   0.00000000  0.00000000  0.00000000
   0.10000000  0.20000000  0.80000000
   0.03333333  0.06666667  0.60000000
   0.90000000  0.80000000  0.20000000
   0.80000000  0.60000000  0.40000000
   0.73333333  0.46666667  0.20000000
   0.66666667  0.33333333  0.00000000
   0.36666667  0.73333333  0.60000000
   0.13333333  0.26666667  0.40000000
   0.83333333  0.66666667  0.00000000
   0.93333333  0.86666667  0.80000000
   0.56666667  0.13333333  0.20000000
   0.40000000  0.80000000  0.20000000
   0.43333333  0.86666667  0.80000000
   0.30000000  0.60000000  0.40000000
   0.86666667  0.73333333  0.60000000
   0.46666667  0.93333333  0.40000000
   0.16666667  0.33333333  0.00000000
   0.26666667  0.53333333  0.80000000
   0.20000000  0.40000000  0.60000000
   0.06666667  0.13333333  0.20000000
   0.76666667  0.53333333  0.80000000
   0.70000000  0.40000000  0.60000000
   0.60000000  0.20000000  0.80000000
   0.53333333  0.06666667  0.60000000
   0.33333333  0.66666667  0.00000000
   0.23333333  0.46666667  0.20000000
 
 position of ions in cartesian coordinates  (Angst):
   1.58999998 -4.77000002-11.12999998
   1.59000002 -4.76999998 -4.77000002
  -1.59000000 -1.59000000 -1.59000000
   0.00000000  0.00000000  0.00000000
   6.36000000 -6.36000000 -3.18000000
   4.77000002 -4.76999998 -1.59000002
   0.00000000 -3.18000000 -9.54000000
   1.59000000 -4.77000000 -7.95000000
   0.00000002 -3.17999998 -6.36000002
  -1.59000002 -1.59000002 -4.76999998
   4.76999998 -4.77000002 -7.94999998
   3.18000002 -3.17999998 -3.18000002
  -1.58999998 -1.58999998 -7.95000002
   4.77000002 -7.94999998-11.13000002
  -0.00000002 -3.18000002 -3.17999998
   1.59000000 -1.59000000 -7.95000000
   6.36000002 -6.35999998 -9.54000002
   3.18000000 -3.18000000 -6.36000000
   3.17999998 -6.36000002 -9.53999998
   3.17999998 -3.18000002 -9.53999998
  -0.00000002 -0.00000002 -3.17999998
   6.35999998 -6.36000002 -6.35999998
   4.77000000 -4.77000000 -4.77000000
   1.58999998 -1.59000002 -1.58999998
   4.76999998 -7.95000002 -7.94999998
   3.18000000 -6.36000000 -6.36000000
   4.77000000 -7.95000000 -4.77000000
   3.18000002 -6.35999998 -3.18000002
   0.00000002  0.00000002 -6.36000002
   1.59000002 -1.58999998 -4.77000002
 


--------------------------------------------------------------------------------------------------------


 k-point  1 :   0.0000 0.0000 0.0000  plane waves:   16095
 k-point  2 :   0.2000-0.0000-0.0000  plane waves:   16118
 k-point  3 :   0.4000-0.0000-0.0000  plane waves:   16129
 k-point  4 :   0.0000 0.2000 0.0000  plane waves:   16070
 k-point  5 :   0.2000 0.2000-0.0000  plane waves:   16091
 k-point  6 :   0.4000 0.2000-0.0000  plane waves:   16118
 k-point  7 :  -0.4000 0.2000 0.0000  plane waves:   16087
 k-point  8 :  -0.2000 0.2000 0.0000  plane waves:   16104
 k-point  9 :   0.0000 0.4000 0.0000  plane waves:   16056
 k-point 10 :   0.2000 0.4000-0.0000  plane waves:   16091
 k-point 11 :   0.4000 0.4000-0.0000  plane waves:   16105
 k-point 12 :  -0.4000 0.4000 0.0000  plane waves:   16116
 k-point 13 :  -0.2000 0.4000 0.0000  plane waves:   16110
 k-point 14 :   0.0000 0.0000 0.2000  plane waves:   16092
 k-point 15 :   0.2000-0.0000 0.2000  plane waves:   16112
 k-point 16 :   0.4000-0.0000 0.2000  plane waves:   16123
 k-point 17 :  -0.4000 0.0000 0.2000  plane waves:   16109
 k-point 18 :  -0.2000 0.0000 0.2000  plane waves:   16091
 k-point 19 :   0.0000 0.2000 0.2000  plane waves:   16077
 k-point 20 :   0.2000 0.2000 0.2000  plane waves:   16106
 k-point 21 :   0.4000 0.2000 0.2000  plane waves:   16110
 k-point 22 :  -0.4000 0.2000 0.2000  plane waves:   16114
 k-point 23 :  -0.2000 0.2000 0.2000  plane waves:   16094
 k-point 24 :   0.0000 0.4000 0.2000  plane waves:   16033
 k-point 25 :   0.2000 0.4000 0.2000  plane waves:   16109
 k-point 26 :   0.4000 0.4000 0.2000  plane waves:   16133
 k-point 27 :  -0.4000 0.4000 0.2000  plane waves:   16082
 k-point 28 :  -0.2000 0.4000 0.2000  plane waves:   16083
 k-point 29 :  -0.0000-0.4000 0.2000  plane waves:   16054
 k-point 30 :   0.2000-0.4000 0.2000  plane waves:   16077
 k-point 31 :   0.4000-0.4000 0.2000  plane waves:   16111
 k-point 32 :  -0.4000-0.4000 0.2000  plane waves:   16102
 k-point 33 :  -0.2000-0.4000 0.2000  plane waves:   16095
 k-point 34 :   0.0000-0.2000 0.2000  plane waves:   16087
 k-point 35 :   0.2000-0.2000 0.2000  plane waves:   16104
 k-point 36 :   0.4000-0.2000 0.2000  plane waves:   16112
 k-point 37 :  -0.4000-0.2000 0.2000  plane waves:   16122
 k-point 38 :  -0.2000-0.2000 0.2000  plane waves:   16097
 k-point 39 :   0.0000 0.0000 0.4000  plane waves:   16075
 k-point 40 :   0.2000-0.0000 0.4000  plane waves:   16107
 k-point 41 :   0.4000-0.0000 0.4000  plane waves:   16096
 k-point 42 :  -0.4000 0.0000 0.4000  plane waves:   16116
 k-point 43 :  -0.2000 0.0000 0.4000  plane waves:   16099
 k-point 44 :   0.0000 0.2000 0.4000  plane waves:   16097
 k-point 45 :   0.2000 0.2000 0.4000  plane waves:   16125
 k-point 46 :   0.4000 0.2000 0.4000  plane waves:   16110
 k-point 47 :  -0.4000 0.2000 0.4000  plane waves:   16095
 k-point 48 :  -0.2000 0.2000 0.4000  plane waves:   16095
 k-point 49 :   0.0000 0.4000 0.4000  plane waves:   16040
 k-point 50 :   0.2000 0.4000 0.4000  plane waves:   16104
 k-point 51 :   0.4000 0.4000 0.4000  plane waves:   16122
 k-point 52 :  -0.4000 0.4000 0.4000  plane waves:   16109
 k-point 53 :  -0.2000 0.4000 0.4000  plane waves:   16079
 k-point 54 :   0.0000-0.4000 0.4000  plane waves:   16031
 k-point 55 :   0.2000-0.4000 0.4000  plane waves:   16084
 k-point 56 :   0.4000-0.4000 0.4000  plane waves:   16114
 k-point 57 :  -0.4000-0.4000 0.4000  plane waves:   16112
 k-point 58 :  -0.2000-0.4000 0.4000  plane waves:   16085
 k-point 59 :  -0.0000-0.2000 0.4000  plane waves:   16072
 k-point 60 :   0.2000-0.2000 0.4000  plane waves:   16094
 k-point 61 :   0.4000-0.2000 0.4000  plane waves:   16102
 k-point 62 :  -0.4000-0.2000 0.4000  plane waves:   16119
 k-point 63 :  -0.2000-0.2000 0.4000  plane waves:   16092

 maximum and minimum number of plane-waves per node :      4071     3951

 maximum number of plane-waves:     16133
 maximum index in each direction: 
   IXMAX=   11   IYMAX=   16   IZMAX=   22
   IXMIN=  -11   IYMIN=  -16   IZMIN=  -23


 real space projection operators:
  total allocation   :      16472.25 KBytes
  max/ min on nodes  :       4120.76       4115.46


 parallel 3D FFT for wavefunctions:
    minimum data exchange during FFTs selected (reduces bandwidth)
 parallel 3D FFT for charge:
    minimum data exchange during FFTs selected (reduces bandwidth)


 total amount of memory used by VASP MPI-rank0   107819. kBytes
=======================================================================

   base      :      30000. kBytes
   nonlr-proj:       7197. kBytes
   fftplans  :       2329. kBytes
   grid      :       4665. kBytes
   one-center:        124. kBytes
   wavefun   :      63504. kBytes
 
     INWAV:  cpu time    5.7861: real time    8.9482
 Broyden mixing: mesh for mixing (old mesh)
   NGX = 21   NGY = 33   NGZ = 45
  (NGX  = 72   NGY  =100   NGZ  =140)
  gives a total of  31185 points

 initial charge density was supplied:
 number of electron     198.0000011 magnetization 
 keeping initial charge density in first step


--------------------------------------------------------------------------------------------------------


 Maximum index for non-local projection operator         1018
 Maximum index for augmentation-charges         1411 (set IRDMAX)


--------------------------------------------------------------------------------------------------------


 First call to EWALD:  gamma=   0.226
 Maximum number of real-space cells 4x 3x 2
 Maximum number of reciprocal cells 2x 3x 4

    FEWALD:  cpu time    0.0024: real time    0.0025


--------------------------------------- Iteration      1(   1)  ---------------------------------------


    POTLOK:  cpu time    0.0269: real time    0.6978
    SETDIJ:  cpu time    0.0060: real time    0.0060
     EDDAV:  cpu time   30.0424: real time   30.0898
       DOS:  cpu time    0.0040: real time    0.0040
    CHARGE:  cpu time    0.6022: real time    0.6026
    MIXING:  cpu time    0.0015: real time    0.0016
    --------------------------------------------
      LOOP:  cpu time   30.6830: real time   31.4018

 eigenvalue-minimisations  : 26984
 total energy-change (2. order) :-0.3828527E+03  (-0.1949065E+02)
 number of electron     198.0000007 magnetization 
 augmentation part       37.7755844 magnetization 

 Broyden mixing:
  rms(total) = 0.10028E+02    rms(broyden)= 0.10028E+02
  rms(prec ) = 0.12410E+02
  weight for this iteration     100.00

 Free energy of the ion-electron system (eV)
  ---------------------------------------------------
  alpha Z        PSCENC =      1206.99273337
  Ewald energy   TEWEN  =    -11461.91017046
  -Hartree energ DENC   =     -3131.28669878
  -exchange      EXHF   =         0.00000000
  -V(xc)+E(xc)   XCENC  =      -882.90586698
  PAW double counting   =     23692.08024815   -22163.35105596
  entropy T*S    EENTRO =         0.00500148
  eigenvalues    EBANDS =      -648.38480278
  atomic energy  EATOM  =     13005.90793652
  Solvation  Ediel_sol  =         0.00000000
  ---------------------------------------------------
  free energy    TOTEN  =      -382.85267544 eV

  energy without entropy =     -382.85767692  energy(sigma->0) =     -382.85434260


--------------------------------------------------------------------------------------------------------




--------------------------------------- Iteration      1(   2)  ---------------------------------------


    POTLOK:  cpu time    0.0382: real time    0.0440
    SETDIJ:  cpu time    0.0056: real time    0.0056
     EDDAV:  cpu time   28.8086: real time   28.8409
       DOS:  cpu time    0.0039: real time    0.0039
    CHARGE:  cpu time    0.5990: real time    0.5994
    MIXING:  cpu time    0.0011: real time    0.0011
    --------------------------------------------
      LOOP:  cpu time   29.4563: real time   29.4949

 eigenvalue-minimisations  : 25496
 total energy-change (2. order) :-0.1293795E+03  (-0.3544375E+03)
 number of electron     198.0000013 magnetization 
 augmentation part       44.9717161 magnetization 

 Broyden mixing:
  rms(total) = 0.20722E+02    rms(broyden)= 0.20722E+02
  rms(prec ) = 0.23938E+02
  weight for this iteration     100.00

 eigenvalues of (default mixing * dielectric matrix)
  average eigenvalue GAMMA=   0.1766
  0.1766

 Free energy of the ion-electron system (eV)
  ---------------------------------------------------
  alpha Z        PSCENC =      1206.99273337
  Ewald energy   TEWEN  =    -11461.91017046
  -Hartree energ DENC   =     -2937.33570373
  -exchange      EXHF   =         0.00000000
  -V(xc)+E(xc)   XCENC  =      -889.50928716
  PAW double counting   =     21896.86509472   -20397.36613848
  entropy T*S    EENTRO =        -0.00588032
  eigenvalues    EBANDS =      -935.87073230
  atomic energy  EATOM  =     13005.90793652
  Solvation  Ediel_sol  =         0.00000000
  ---------------------------------------------------
  free energy    TOTEN  =      -512.23214783 eV

  energy without entropy =     -512.22626751  energy(sigma->0) =     -512.23018772


--------------------------------------------------------------------------------------------------------




--------------------------------------- Iteration      1(   3)  ---------------------------------------


    POTLOK:  cpu time    0.0290: real time    0.0334
    SETDIJ:  cpu time    0.0060: real time    0.0060
     EDDAV:  cpu time   29.2108: real time   29.2430
       DOS:  cpu time    0.0039: real time    0.0040
    CHARGE:  cpu time    0.5996: real time    0.6000
    MIXING:  cpu time    0.0011: real time    0.0011
    --------------------------------------------
      LOOP:  cpu time   29.8505: real time   29.8875

 eigenvalue-minimisations  : 25432
 total energy-change (2. order) : 0.1200871E+03  (-0.8417645E+02)
 number of electron     198.0000013 magnetization 
 augmentation part       31.4228621 magnetization 

 Broyden mixing:
  rms(total) = 0.72542E+01    rms(broyden)= 0.72542E+01
  rms(prec ) = 0.89702E+01
  weight for this iteration     100.00

 eigenvalues of (default mixing * dielectric matrix)
  average eigenvalue GAMMA=   0.5076
  0.7728  0.2425

 Free energy of the ion-electron system (eV)
  ---------------------------------------------------
  alpha Z        PSCENC =      1206.99273337
  Ewald energy   TEWEN  =    -11461.91017046
  -Hartree energ DENC   =     -2941.90149987
  -exchange      EXHF   =         0.00000000
  -V(xc)+E(xc)   XCENC  =      -890.38001828
  PAW double counting   =     21813.08428339   -20320.16419749
  entropy T*S    EENTRO =         0.00278122
  eigenvalues    EBANDS =      -803.77684992
  atomic energy  EATOM  =     13005.90793652
  Solvation  Ediel_sol  =         0.00000000
  ---------------------------------------------------
  free energy    TOTEN  =      -392.14500151 eV

  energy without entropy =     -392.14778273  energy(sigma->0) =     -392.14592858


--------------------------------------------------------------------------------------------------------




--------------------------------------- Iteration      1(   4)  ---------------------------------------


    POTLOK:  cpu time    0.0231: real time    0.0236
    SETDIJ:  cpu time    0.0053: real time    0.0053
     EDDAV:  cpu time   30.1552: real time   30.1884
       DOS:  cpu time    0.0041: real time    0.0041
    CHARGE:  cpu time    0.5983: real time    0.5988
    MIXING:  cpu time    0.0011: real time    0.0011
    --------------------------------------------
      LOOP:  cpu time   30.7871: real time   30.8213

 eigenvalue-minimisations  : 27104
 total energy-change (2. order) : 0.5013909E+02  (-0.3310717E+02)
 number of electron     198.0000011 magnetization 
 augmentation part       36.8868278 magnetization 

 Broyden mixing:
  rms(total) = 0.61992E+01    rms(broyden)= 0.61992E+01
  rms(prec ) = 0.80275E+01
  weight for this iteration     100.00

 eigenvalues of (default mixing * dielectric matrix)
  average eigenvalue GAMMA=   0.5677
  1.0706  0.3162  0.3162

 Free energy of the ion-electron system (eV)
  ---------------------------------------------------
  alpha Z        PSCENC =      1206.99273337
  Ewald energy   TEWEN  =    -11461.91017046
  -Hartree energ DENC   =     -3001.10369129
  -exchange      EXHF   =         0.00000000
  -V(xc)+E(xc)   XCENC  =      -888.34340082
  PAW double counting   =     21150.16778070   -19649.31904410
  entropy T*S    EENTRO =        -0.00018767
  eigenvalues    EBANDS =      -704.39786318
  atomic energy  EATOM  =     13005.90793652
  Solvation  Ediel_sol  =         0.00000000
  ---------------------------------------------------
  free energy    TOTEN  =      -342.00590692 eV

  energy without entropy =     -342.00571925  energy(sigma->0) =     -342.00584436


--------------------------------------------------------------------------------------------------------




--------------------------------------- Iteration      1(   5)  ---------------------------------------


    POTLOK:  cpu time    0.0249: real time    0.0404
    SETDIJ:  cpu time    0.0053: real time    0.0053
     EDDAV:  cpu time   28.6298: real time   28.6647
       DOS:  cpu time    0.0042: real time    0.0042
    CHARGE:  cpu time    0.5982: real time    0.5987
    MIXING:  cpu time    0.0009: real time    0.0009
    --------------------------------------------
      LOOP:  cpu time   29.2632: real time   29.3142

 eigenvalue-minimisations  : 25632
 total energy-change (2. order) : 0.7404076E+01  (-0.3881120E+02)
 number of electron     198.0000008 magnetization 
 augmentation part       31.8003247 magnetization 

 Broyden mixing:
  rms(total) = 0.49972E+01    rms(broyden)= 0.49972E+01
  rms(prec ) = 0.64631E+01
  weight for this iteration     100.00

 eigenvalues of (default mixing * dielectric matrix)
  average eigenvalue GAMMA=   0.8049
  2.0740  0.6459  0.2750  0.2247

 Free energy of the ion-electron system (eV)
  ---------------------------------------------------
  alpha Z        PSCENC =      1206.99273337
  Ewald energy   TEWEN  =    -11461.91017046
  -Hartree energ DENC   =     -3001.60449835
  -exchange      EXHF   =         0.00000000
  -V(xc)+E(xc)   XCENC  =      -888.32412585
  PAW double counting   =     20815.87461684   -19318.36700835
  entropy T*S    EENTRO =        -0.01261960
  eigenvalues    EBANDS =      -693.15869516
  atomic energy  EATOM  =     13005.90793652
  Solvation  Ediel_sol  =         0.00000000
  ---------------------------------------------------
  free energy    TOTEN  =      -334.60183102 eV

  energy without entropy =     -334.58921142  energy(sigma->0) =     -334.59762449


--------------------------------------------------------------------------------------------------------




--------------------------------------- Iteration      1(   6)  ---------------------------------------


    POTLOK:  cpu time    0.0223: real time    0.0229
    SETDIJ:  cpu time    0.0053: real time    0.0053
     EDDAV:  cpu time   30.7431: real time   30.7806
       DOS:  cpu time    0.0044: real time    0.0044
    CHARGE:  cpu time    0.5988: real time    0.5994
    MIXING:  cpu time    0.0011: real time    0.0011
    --------------------------------------------
      LOOP:  cpu time   31.3749: real time   31.4137

 eigenvalue-minimisations  : 27808
 total energy-change (2. order) :-0.3359251E+02  (-0.4796689E+02)
 number of electron     198.0000014 magnetization 
 augmentation part       38.0355204 magnetization 

 Broyden mixing:
  rms(total) = 0.83910E+01    rms(broyden)= 0.83910E+01
  rms(prec ) = 0.10827E+02
  weight for this iteration     100.00

 eigenvalues of (default mixing * dielectric matrix)
  average eigenvalue GAMMA=   0.6705
  2.0964  0.4197  0.4197  0.2083  0.2083

 Free energy of the ion-electron system (eV)
  ---------------------------------------------------
  alpha Z        PSCENC =      1206.99273337
  Ewald energy   TEWEN  =    -11461.91017046
  -Hartree energ DENC   =     -2957.45199406
  -exchange      EXHF   =         0.00000000
  -V(xc)+E(xc)   XCENC  =      -889.25823480
  PAW double counting   =     19839.19537688   -18343.83895935
  entropy T*S    EENTRO =        -0.00111535
  eigenvalues    EBANDS =      -767.82990986
  atomic energy  EATOM  =     13005.90793652
  Solvation  Ediel_sol  =         0.00000000
  ---------------------------------------------------
  free energy    TOTEN  =      -368.19433711 eV

  energy without entropy =     -368.19322176  energy(sigma->0) =     -368.19396533


--------------------------------------------------------------------------------------------------------




--------------------------------------- Iteration      1(   7)  ---------------------------------------


    POTLOK:  cpu time    0.0259: real time    0.0359
    SETDIJ:  cpu time    0.0053: real time    0.0053
     EDDAV:  cpu time   30.7458: real time   30.7765
       DOS:  cpu time    0.0039: real time    0.0039
    CHARGE:  cpu time    0.5944: real time    0.5948
    MIXING:  cpu time    0.0010: real time    0.0010
    --------------------------------------------
      LOOP:  cpu time   31.3763: real time   31.4174

 eigenvalue-minimisations  : 27656
 total energy-change (2. order) : 0.3861514E+02  (-0.3696546E+02)
 number of electron     198.0000010 magnetization 
 augmentation part       33.2215059 magnetization 

 Broyden mixing:
  rms(total) = 0.36354E+01    rms(broyden)= 0.36354E+01
  rms(prec ) = 0.57320E+01
  weight for this iteration     100.00

 eigenvalues of (default mixing * dielectric matrix)
  average eigenvalue GAMMA=   0.6755
  2.4474  0.4398  0.4398  0.2703  0.2703  0.1851

 Free energy of the ion-electron system (eV)
  ---------------------------------------------------
  alpha Z        PSCENC =      1206.99273337
  Ewald energy   TEWEN  =    -11461.91017046
  -Hartree energ DENC   =     -2973.40652770
  -exchange      EXHF   =         0.00000000
  -V(xc)+E(xc)   XCENC  =      -888.88042585
  PAW double counting   =     19609.56696610   -18117.18258866
  entropy T*S    EENTRO =        -0.00275658
  eigenvalues    EBANDS =      -710.66435935
  atomic energy  EATOM  =     13005.90793652
  Solvation  Ediel_sol  =         0.00000000
  ---------------------------------------------------
  free energy    TOTEN  =      -329.57919261 eV

  energy without entropy =     -329.57643603  energy(sigma->0) =     -329.57827375


--------------------------------------------------------------------------------------------------------




--------------------------------------- Iteration      1(   8)  ---------------------------------------


    POTLOK:  cpu time    0.0223: real time    0.0228
    SETDIJ:  cpu time    0.0052: real time    0.0052
     EDDAV:  cpu time   31.3714: real time   31.4027
       DOS:  cpu time    0.0041: real time    0.0041
    CHARGE:  cpu time    0.5947: real time    0.5951
    MIXING:  cpu time    0.0011: real time    0.0011
    --------------------------------------------
      LOOP:  cpu time   31.9989: real time   32.0311

 eigenvalue-minimisations  : 28376
 total energy-change (2. order) : 0.6740424E+01  (-0.9559630E+01)
 number of electron     198.0000010 magnetization 
 augmentation part       32.5841646 magnetization 

 Broyden mixing:
  rms(total) = 0.24932E+01    rms(broyden)= 0.24932E+01
  rms(prec ) = 0.33170E+01
  weight for this iteration     100.00

 eigenvalues of (default mixing * dielectric matrix)
  average eigenvalue GAMMA=   0.6391
  2.5305  0.4370  0.4370  0.3053  0.3053  0.2294  0.2294

 Free energy of the ion-electron system (eV)
  ---------------------------------------------------
  alpha Z        PSCENC =      1206.99273337
  Ewald energy   TEWEN  =    -11461.91017046
  -Hartree energ DENC   =     -2982.26225360
  -exchange      EXHF   =         0.00000000
  -V(xc)+E(xc)   XCENC  =      -888.44086445
  PAW double counting   =     19430.25286077   -17938.37185135
  entropy T*S    EENTRO =        -0.01944721
  eigenvalues    EBANDS =      -694.98771206
  atomic energy  EATOM  =     13005.90793652
  Solvation  Ediel_sol  =         0.00000000
  ---------------------------------------------------
  free energy    TOTEN  =      -322.83876845 eV

  energy without entropy =     -322.81932124  energy(sigma->0) =     -322.83228605


--------------------------------------------------------------------------------------------------------




--------------------------------------- Iteration      1(   9)  ---------------------------------------


    POTLOK:  cpu time    0.0347: real time    0.0428
    SETDIJ:  cpu time    0.0091: real time    0.0091
     EDDAV:  cpu time   31.0836: real time   31.1149
       DOS:  cpu time    0.0041: real time    0.0041
    CHARGE:  cpu time    0.5907: real time    0.5911
[...]
    114       7.7980     -0.00000
    115       7.8600     -0.00000
    116       7.9154     -0.00000
    117       7.9788     -0.00000
    118       8.0505     -0.00000
    119       8.0846     -0.00000
    120       8.1211     -0.00000

 k-point    63 :      -0.2000   -0.2000    0.4000
  band No.  band energies     occupation 
      1     -47.4467      2.00000
      2     -47.4227      2.00000
      3     -47.3836      2.00000
      4     -47.3340      2.00000
      5     -47.3027      2.00000
      6     -47.2198      2.00000
      7     -24.0826      2.00000
      8     -24.0149      2.00000
      9     -23.8700      2.00000
     10     -23.8238      2.00000
     11     -23.6086      2.00000
     12     -23.6064      2.00000
     13     -23.5949      2.00000
     14     -23.5527      2.00000
     15     -23.5329      2.00000
     16     -23.5201      2.00000
     17     -23.4922      2.00000
     18     -23.4483      2.00000
     19     -23.4164      2.00000
     20     -23.3881      2.00000
     21     -23.2520      2.00000
     22     -23.2318      2.00000
     23     -23.0856      2.00000
     24     -22.9845      2.00000
     25       0.3499      2.00000
     26       0.6304      2.00000
     27       2.2046      2.00000
     28       2.4054      2.00000
     29       2.4742      2.00000
     30       2.6236      2.00000
     31       2.7315      2.00000
     32       2.7470      2.00000
     33       2.9003      2.00000
     34       2.9599      2.00000
     35       3.0174      2.00000
     36       3.0717      2.00000
     37       3.1220      2.00000
     38       3.1852      2.00000
     39       3.2331      2.00000
     40       3.3278      2.00000
     41       3.3661      2.00000
     42       3.4026      2.00000
     43       3.4900      2.00000
     44       3.5505      2.00000
     45       3.6628      2.00000
     46       3.6900      2.00000
     47       3.8893      2.00000
     48       3.9298      2.00000
     49       4.0176      2.00000
     50       4.0410      2.00000
     51       4.0914      2.00000
     52       4.1611      2.00000
     53       4.1834      2.00000
     54       4.2675      2.00000
     55       4.3307      2.00000
     56       4.4161      2.00000
     57       4.5584      2.00000
     58       4.6481      2.00000
     59       4.7245      2.00000
     60       4.8085      2.00000
     61       4.8334      2.00000
     62       4.8835      2.00000
     63       4.9001      2.00000
     64       4.9550      2.00000
     65       5.0106      2.00000
     66       5.0413      2.00000
     67       5.0907      2.00000
     68       5.1491      2.00000
     69       5.1934      2.00000
     70       5.2112      2.00000
     71       5.3238      2.00000
     72       5.3738      2.00000
     73       5.4044      2.00000
     74       5.4333      2.00000
     75       5.5177      2.00000
     76       5.5564      2.00000
     77       5.5898      2.00000
     78       5.6234      2.00000
     79       5.6848      2.00000
     80       5.7199      2.00000
     81       5.7907      2.00000
     82       5.8398      2.00001
     83       5.8891      2.00003
     84       5.9378      2.00015
     85       5.9724      2.00038
     86       6.0056      2.00089
     87       6.0650      2.00348
     88       6.0697      2.00384
     89       6.1285      2.01187
     90       6.1621      2.02045
     91       6.1904      2.03044
     92       6.2140      2.04047
     93       6.2671      2.06384
     94       6.3067      2.07069
     95       6.3217      2.06729
     96       6.3548      2.04031
     97       6.3787      1.99842
     98       6.4135      1.89367
     99       6.4340      1.80405
    100       6.5652      0.84129
    101       6.6370      0.31322
    102       6.7216     -0.01416
    103       6.7456     -0.04949
    104       6.8298     -0.06225
    105       6.8763     -0.04157
    106       6.9865     -0.00792
    107       7.0726     -0.00126
    108       7.1593     -0.00013
    109       7.4349     -0.00000
    110       7.5455     -0.00000
    111       7.6050     -0.00000
    112       7.6476     -0.00000
    113       7.7560     -0.00000
    114       8.1824     -0.00000
    115       8.2421     -0.00000
    116       8.3024     -0.00000
    117       8.3977     -0.00000
    118       8.4277     -0.00000
    119       8.4783     -0.00000
    120       8.5266     -0.00000


--------------------------------------------------------------------------------------------------------


 soft charge-density along one line, spin component           1
         0         1         2         3         4         5         6         7         8         9
 total charge-density along one line
 
 pseudopotential strength for first ion, spin component:           1
  5.498 -20.955   0.002   0.001  -0.000  -0.005  -0.002   0.001
-20.955   9.834   0.003   0.002  -0.001  -0.000  -0.000   0.000
  0.002   0.003 -10.556  -0.001   0.003   6.812   0.001  -0.003
  0.001   0.002  -0.001 -10.555  -0.006   0.001   6.810   0.006
 -0.000  -0.001   0.003  -0.006 -10.557  -0.003   0.006   6.813
 -0.005  -0.000   6.812   0.001  -0.003   7.431  -0.001   0.002
 -0.002  -0.000   0.001   6.810   0.006  -0.001   7.432  -0.004
  0.001   0.000  -0.003   0.006   6.813   0.002  -0.004   7.430
  0.002   0.001  -0.000  -0.000   0.002   0.001   0.000  -0.003
 -0.001  -0.000   0.001   0.002  -0.000  -0.001  -0.003   0.000
  0.001   0.000  -0.001   0.001   0.000   0.001  -0.001  -0.000
 -0.004  -0.002  -0.000  -0.000   0.001   0.000   0.001  -0.001
 -0.000  -0.000  -0.002   0.000  -0.000   0.002  -0.000   0.000
  0.003   0.001  -0.000  -0.000   0.002   0.001   0.001  -0.004
 -0.001  -0.000   0.001   0.003  -0.000  -0.002  -0.004   0.001
  0.001   0.001  -0.001   0.002   0.000   0.002  -0.002  -0.000
 -0.005  -0.002  -0.000  -0.000   0.001   0.001   0.001  -0.002
 -0.000  -0.000  -0.002   0.000  -0.000   0.003  -0.000   0.000
 total augmentation occupancy for first ion, spin component:           1
  1.996  -0.035  -0.000  -0.000   0.000  -0.000  -0.000   0.000   0.006  -0.004   0.001  -0.009  -0.001  -0.005   0.003  -0.001
 -0.035   1.549  -0.002  -0.001   0.003   0.002   0.000  -0.004   0.015  -0.024  -0.017  -0.038  -0.005  -0.006   0.009   0.007
 -0.000  -0.002   1.998   0.000  -0.000  -0.023  -0.001   0.001   0.007  -0.005  -0.000   0.006  -0.003  -0.004   0.002   0.001
 -0.000  -0.001   0.000   1.998  -0.000  -0.001  -0.023   0.001   0.004  -0.001   0.001   0.007   0.001  -0.003   0.001  -0.000
  0.000   0.003  -0.000  -0.000   1.998   0.001   0.001  -0.023  -0.006   0.006  -0.001  -0.001   0.001   0.003  -0.003   0.000
 -0.000   0.002  -0.023  -0.001   0.001   0.066   0.001  -0.001  -0.007   0.006  -0.000  -0.005   0.002   0.003  -0.002   0.000
 -0.000   0.000  -0.001  -0.023   0.001   0.001   0.066  -0.004  -0.000  -0.005  -0.003  -0.007  -0.000   0.000   0.001   0.001
  0.000  -0.004   0.001   0.001  -0.023  -0.001  -0.004   0.067   0.003  -0.005   0.004  -0.001  -0.004  -0.001   0.002  -0.003
  0.006   0.015   0.007   0.004  -0.006  -0.007  -0.000   0.003   2.710  -0.255  -0.046  -0.019  -0.007  -1.037   0.116   0.018
 -0.004  -0.024  -0.005  -0.001   0.006   0.006  -0.005  -0.005  -0.255   2.732  -0.017   0.033   0.026   0.116  -1.042   0.007
  0.001  -0.017  -0.000   0.001  -0.001  -0.000  -0.003   0.004  -0.046  -0.017   2.493  -0.017   0.016   0.018   0.007  -1.040
 -0.009  -0.038   0.006   0.007  -0.001  -0.005  -0.007  -0.001  -0.019   0.033  -0.017   2.716  -0.034   0.005  -0.010   0.018
 -0.001  -0.005  -0.003   0.001   0.001   0.002  -0.000  -0.004  -0.007   0.026   0.016  -0.034   2.503   0.002  -0.011  -0.008
 -0.005  -0.006  -0.004  -0.003   0.003   0.003   0.000  -0.001  -1.037   0.116   0.018   0.005   0.002   0.412  -0.052  -0.007
  0.003   0.009   0.002   0.001  -0.003  -0.002   0.001   0.002   0.116  -1.042   0.007  -0.010  -0.011  -0.052   0.413  -0.003
 -0.001   0.007   0.001  -0.000   0.000   0.000   0.001  -0.003   0.018   0.007  -1.040   0.018  -0.008  -0.007  -0.003   0.444
  0.008   0.038  -0.003  -0.004   0.001   0.002   0.003  -0.001   0.005  -0.010   0.018  -1.033   0.034  -0.002   0.004  -0.012
  0.001   0.005   0.003  -0.001  -0.000  -0.001  -0.000   0.003   0.002  -0.011  -0.008   0.035  -1.045  -0.000   0.005   0.004


------------------------ aborting loop because EDIFF is reached ----------------------------------------


    CHARGE:  cpu time    0.6225: real time    0.6229
    FORLOC:  cpu time    0.0065: real time    0.0065
    FORNL :  cpu time    3.9442: real time    3.9474
    STRESS:  cpu time   11.8515: real time   11.8608
    FORCOR:  cpu time    0.0291: real time    0.0307
    FORHAR:  cpu time    0.0108: real time    0.0108
    MIXING:  cpu time    0.0034: real time    0.0034
    OFIELD:  cpu time    0.0001: real time    0.0001

  FORCE on cell =-STRESS in cart. coord.  units (eV):
  Direction    XX          YY          ZZ          XY          YZ          ZX
  --------------------------------------------------------------------------------------
  Alpha Z  1206.99273  1206.99273  1206.99273
  Ewald   -3780.49733 -3464.83311 -4216.60916  -128.31282   443.53574   306.85475
  Hartree  1046.49443  1291.32347   633.77071  -108.70588   400.64018   301.79060
  E(xc)    -889.10547  -888.85004  -888.99829    -0.05883    -0.04820    -0.37166
  Local    -374.58977  -935.60112   474.49417   237.05502  -844.10780  -606.94213
  n-local  -278.60841  -278.83898  -278.53803     0.44564     0.11884     1.18203
  augment   330.59538   330.56456   330.37626    -0.01984    -0.02263    -0.33118
  Kinetic  2729.39174  2729.02791  2728.81511    -1.43285    -0.29507    -1.92336
  Fock        0.00000     0.00000     0.00000     0.00000     0.00000     0.00000
  -------------------------------------------------------------------------------------
  Total      -9.32669   -10.21458    -9.69649    -1.02955    -0.17895     0.25906
  in kB     -30.97888   -33.92801   -32.20717    -3.41968    -0.59438     0.86046
  external pressure =      -32.37 kB  Pullay stress =        0.00 kB


 VOLUME and BASIS-vectors are now :
 -----------------------------------------------------------------------------
  energy-cutoff  :      600.00
  volume of cell :      482.36
      direct lattice vectors                 reciprocal lattice vectors
    -3.180000000 -3.180000000 -3.180000000    -0.136268344 -0.125786164 -0.052410901
     1.590000000  1.590000000 -7.950000000     0.041928721  0.062893082 -0.104821803
     7.950000000 -7.950000000 -1.590000000     0.062893082 -0.062893082  0.000000000

  length of vectors
     5.507921568  8.261882352 11.354871201     0.192712540  0.129232998  0.088944249


 FORCES acting on ions
    electron-ion (+dipol)            ewald-force                    non-local-force                 convergence-correction
 -----------------------------------------------------------------------------------------------
   0.150E+03 0.407E+02 -.193E+03   -.150E+03 -.402E+02 0.193E+03   0.369E+00 -.236E+00 -.124E+00   -.413E+00 0.175E+00 0.671E-01
   -.799E+02 -.188E+03 0.111E+03   0.805E+02 0.187E+03 -.111E+03   0.313E-01 -.248E-01 -.207E+00   -.326E+00 0.364E+00 -.219E+00
   -.250E+02 0.809E+02 -.275E+02   0.247E+02 -.805E+02 0.275E+02   0.116E+00 -.740E-02 -.244E+00   0.756E-01 -.364E-01 0.152E-01
   -.607E+02 0.105E+03 -.795E+02   0.610E+02 -.105E+03 0.796E+02   -.680E-01 0.390E-01 -.189E+00   0.226E-01 -.113E+00 0.201E-01
   -.236E+02 -.109E+03 0.252E+03   0.232E+02 0.109E+03 -.252E+03   0.450E-01 0.284E+00 -.217E+00   0.365E+00 -.278E+00 0.247E-01
   0.358E+01 0.768E+02 -.276E+02   -.425E+01 -.765E+02 0.273E+02   0.340E+00 0.579E-01 0.106E-01   0.104E+00 -.938E-01 0.184E-01
   0.118E+02 0.476E+02 -.920E+02   -.116E+02 -.480E+02 0.920E+02   -.113E+00 -.166E+00 0.141E+00   -.889E-01 0.468E-01 0.836E-02
   -.161E+02 0.576E+01 0.127E+02   0.159E+02 -.608E+01 -.124E+02   -.251E+00 -.517E-01 0.229E+00   -.764E-01 0.768E-01 -.304E-03
   0.399E+02 -.500E+02 0.425E+02   -.399E+02 0.502E+02 -.423E+02   -.502E-01 0.129E-01 -.115E+00   -.616E-01 0.630E-01 -.228E-01
   -.833E+02 -.632E+02 0.107E+03   0.832E+02 0.637E+02 -.107E+03   0.249E+00 0.427E-01 -.152E+00   0.382E-01 -.109E-01 0.124E-01
   0.317E+02 0.926E+02 -.707E+02   -.318E+02 -.928E+02 0.710E+02   -.105E+00 -.170E+00 -.201E+00   -.847E-02 -.282E-01 0.878E-01
   0.379E+02 -.511E+02 0.858E+02   -.380E+02 0.511E+02 -.862E+02   0.290E+00 -.156E-01 -.241E+00   -.961E-01 0.196E+00 -.268E-01
   0.547E+02 0.371E+02 -.795E+02   -.546E+02 -.370E+02 0.796E+02   0.440E-02 -.481E+00 0.384E+00   0.276E-01 -.380E-01 -.187E-01
   0.522E+02 0.228E+02 -.131E+03   -.520E+02 -.225E+02 0.131E+03   -.110E+00 0.257E+00 0.861E-01   0.972E-01 -.142E+00 -.111E-01
   -.376E+02 -.361E+02 0.126E+02   0.374E+02 0.364E+02 -.126E+02   0.517E-01 0.154E+00 -.512E-01   -.627E-01 0.764E-01 0.110E-01
   0.342E+00 0.601E+02 -.451E+02   -.692E+00 -.602E+02 0.454E+02   -.309E+00 -.137E+00 0.391E+00   -.543E-01 0.711E-01 0.162E-01
   0.996E+02 0.475E+02 -.975E+02   -.100E+03 -.474E+02 0.981E+02   -.365E+00 -.580E-01 0.553E-01   0.156E+00 -.142E+00 0.540E-01
   -.524E+01 0.512E+01 -.364E+01   0.554E+01 -.525E+01 0.329E+01   0.106E+00 -.262E+00 0.156E+00   -.673E-01 0.810E-01 -.135E-01
   -.165E+02 0.466E+02 -.643E+02   0.168E+02 -.464E+02 0.645E+02   -.146E+00 0.711E-01 0.196E+00   -.424E-01 -.480E-01 0.521E-01
   0.305E+02 0.912E+01 -.378E+02   -.298E+02 -.957E+01 0.378E+02   0.618E-02 -.173E+00 0.862E-01   -.111E+00 0.929E-01 0.721E-01
   -.542E+02 -.172E+02 0.940E+02   0.544E+02 0.170E+02 -.943E+02   -.200E+00 0.850E-01 -.823E-01   0.210E-01 -.367E-01 -.373E-02
   -.698E+01 -.839E+01 0.204E+02   0.678E+01 0.836E+01 -.206E+02   -.233E+00 0.778E-01 -.521E-01   0.670E-01 -.802E-01 -.147E-01
   -.274E+02 -.243E+02 0.763E+02   0.271E+02 0.242E+02 -.757E+02   0.981E-01 -.389E-01 0.232E-01   0.568E-01 0.354E-01 -.585E-01
   0.447E+01 -.540E+01 0.548E+02   -.399E+01 0.512E+01 -.554E+02   0.206E+00 0.998E-01 -.230E+00   -.605E-01 0.427E-01 -.150E-02
   -.228E+02 -.354E+02 0.467E+02   0.226E+02 0.351E+02 -.465E+02   0.207E+00 -.128E-01 0.382E+00   0.881E-01 -.716E-01 0.157E-01
   -.820E+02 -.342E+02 0.901E+02   0.826E+02 0.342E+02 -.906E+02   -.114E+00 0.780E-01 0.173E+00   0.355E-01 -.653E-04 -.680E-01
   -.195E+02 -.749E+02 0.601E+02   0.193E+02 0.754E+02 -.602E+02   0.100E+00 -.151E-01 -.177E-01   0.132E+00 -.140E+00 -.458E-01
   -.187E+02 0.274E+02 -.352E+02   0.189E+02 -.279E+02 0.349E+02   -.140E-02 0.965E-01 -.137E+00   0.394E-01 -.519E-01 -.527E-02
   0.474E+02 0.339E+02 -.861E+02   -.477E+02 -.340E+02 0.865E+02   -.588E-01 -.136E+00 0.150E+00   0.492E-01 -.223E-01 -.511E-03
   0.151E+02 -.417E+02 0.491E+01   -.150E+02 0.418E+02 -.495E+01   0.135E+00 0.374E-01 -.102E+00   -.516E-01 0.777E-01 -.142E-01
 -----------------------------------------------------------------------------------------------
   -.707E-01 0.530E+00 -.396E-01   0.178E-12 -.128E-12 0.188E-12   0.229E+00 -.592E+00 0.104E+00   -.145E+00 0.670E-01 -.493E-01
 
 
 POSITION                                       TOTAL-FORCE (eV/Angst)
 -----------------------------------------------------------------------------------
      1.59000     -4.77000    -11.13000         0.063597      0.446267      0.235226
      1.59000     -4.77000     -4.77000         0.323997     -0.145049      0.016269
     -1.59000     -1.59000     -1.59000        -0.119005      0.364425     -0.212323
      0.00000      0.00000      0.00000         0.250662     -0.023026     -0.032147
      6.36000     -6.36000     -3.18000        -0.053191      0.682941     -0.529281
      4.77000     -4.77000     -1.59000        -0.232724      0.269206     -0.342774
      0.00000     -3.18000     -9.54000        -0.004414     -0.547209      0.174900
      1.59000     -4.77000     -7.95000        -0.555535     -0.293238      0.585767
      0.00000     -3.18000     -6.36000        -0.160412      0.292320      0.047548
     -1.59000     -1.59000     -4.77000         0.177275      0.499586     -0.575562
      4.77000     -4.77000     -7.95000        -0.137447     -0.376829      0.258041
      3.18000     -3.18000     -3.18000         0.137628      0.167943     -0.624230
     -1.59000     -1.59000     -7.95000         0.097296     -0.482691      0.450154
      4.77000     -7.95000    -11.13000         0.239672      0.360830     -0.075329
     -0.00000     -3.18000     -3.18000        -0.259004      0.477382     -0.125891
      1.59000     -1.59000     -7.95000        -0.714043     -0.118647      0.784789
      6.36000     -6.36000     -9.54000        -0.846120     -0.103342      0.616468
      3.18000     -3.18000     -6.36000         0.333331     -0.318632     -0.209353
      3.18000     -6.36000     -9.54000         0.085095      0.228710      0.488966
      3.18000     -3.18000     -9.54000         0.557910     -0.536596      0.116790
     -0.00000     -0.00000     -3.18000        -0.029498     -0.169126     -0.405012
      6.36000     -6.36000     -6.36000        -0.365187     -0.029913     -0.266254
      4.77000     -4.77000     -4.77000        -0.234652     -0.082363      0.516449
      1.59000     -1.59000     -1.59000         0.626665     -0.134155     -0.839351
      4.77000     -7.95000     -7.95000         0.067671     -0.365821      0.573809
      3.18000     -6.36000     -6.36000         0.551049      0.131213     -0.390331
      4.77000     -7.95000     -4.77000         0.006868      0.262221     -0.192423
      3.18000     -6.36000     -3.18000         0.190070     -0.442848     -0.465136
      0.00000      0.00000     -6.36000        -0.244321     -0.248581      0.583021
      1.59000     -1.59000     -4.77000         0.246767      0.235021     -0.162800
 -----------------------------------------------------------------------------------
    total drift:                                0.014194      0.004331      0.014725


--------------------------------------------------------------------------------------------------------



  FREE ENERGIE OF THE ION-ELECTRON SYSTEM (eV)
  ---------------------------------------------------
  free  energy   TOTEN  =      -318.72899378 eV

  energy  without entropy=     -318.71655530  energy(sigma->0) =     -318.72484762
 


--------------------------------------------------------------------------------------------------------


    POTLOK:  cpu time    0.0280: real time    0.0280


--------------------------------------------------------------------------------------------------------


 stress matrix after NEB project (eV)
     -9.32669     -1.02955      0.25906
     -1.02955    -10.21458     -0.17895
      0.25906     -0.17895     -9.69649
  FORCES: max atom, RMS     1.067627    0.642857
  FORCE total and by dimension    3.521075    0.846120
  Stress total and by dimension   16.960689   10.214577
 writing wavefunctions
     LOOP+:  cpu time  926.7555: real time  933.1714
    4ORBIT:  cpu time    0.0000: real time    0.0000

 total amount of memory used by VASP MPI-rank0   107819. kBytes
=======================================================================

   base      :      30000. kBytes
   nonlr-proj:       7197. kBytes
   fftplans  :       2329. kBytes
   grid      :       4665. kBytes
   one-center:        124. kBytes
   wavefun   :      63504. kBytes
 
  
  
 General timing and accounting informations for this job:
 ========================================================
  
                  Total CPU time used (sec):      936.643
                            User time (sec):      928.708
                          System time (sec):        7.935
                         Elapsed time (sec):      947.372
  
                   Maximum memory used (kb):      154980.
                   Average memory used (kb):           0.
  
                          Minor page faults:        80272
                          Major page faults:            0
                 Voluntary context switches:         2284
