 running on   32 total cores
 distrk:  each k-point on   32 cores,    1 groups
 distr:  one band on    4 cores,    8 groups
 using from now: INCAR     
 vasp.5.4.4.18Apr17-6-g9f103f2a35 (build Aug 09 2018 16:20:53) complex          
  
 POSCAR found type information on POSCAR  Nb Mo Ta Ti V 
 POSCAR found :  5 types and      30 ions
 scaLAPACK will be used

 ----------------------------------------------------------------------------- 
|                                                                             |
|  ADVICE TO THIS USER RUNNING 'VASP/VAMP'   (HEAR YOUR MASTER'S VOICE ...):  |
|                                                                             |
|      You enforced a specific xc-type in the INCAR file,                     |
|      a different type was found on the POTCAR file                          |
|          I HOPE YOU KNOW, WHAT YOU ARE  DOING                               |
|                                                                             |
 ----------------------------------------------------------------------------- 

 LDA part: xc-table for Pade appr. of Perdew
 POSCAR found type information on POSCAR  Nb Mo Ta Ti V 
 POSCAR found :  5 types and      30 ions
 found WAVECAR, reading the header
 POSCAR, INCAR and KPOINTS ok, starting setup
 FFT: planning ...
 reading WAVECAR
 the WAVECAR file was read successfully
 charge-density read from file: Nb                                      
 entering main loop
       N       E                     dE             d eps       ncg     rms          rms(c)
DAV:   1    -0.382852675442E+03   -0.38285E+03   -0.19491E+02 26984   0.561E+01    0.100E+02
DAV:   2    -0.512232147825E+03   -0.12938E+03   -0.35444E+03 25496   0.392E+02    0.207E+02
DAV:   3    -0.392145001513E+03    0.12009E+03   -0.84176E+02 25432   0.158E+02    0.725E+01
DAV:   4    -0.342005906918E+03    0.50139E+02   -0.33107E+02 27104   0.569E+01    0.620E+01
DAV:   5    -0.334601831023E+03    0.74041E+01   -0.38811E+02 25632   0.112E+02    0.500E+01
DAV:   6    -0.368194337109E+03   -0.33593E+02   -0.47967E+02 27808   0.859E+01    0.839E+01
DAV:   7    -0.329579192605E+03    0.38615E+02   -0.36965E+02 27656   0.705E+01    0.364E+01
DAV:   8    -0.322838768450E+03    0.67404E+01   -0.95596E+01 28376   0.434E+01    0.249E+01
DAV:   9    -0.321580548631E+03    0.12582E+01   -0.15515E+01 27912   0.134E+01    0.209E+01
DAV:  10    -0.320457259685E+03    0.11233E+01   -0.13923E+01 26480   0.136E+01    0.185E+01
DAV:  11    -0.319380993926E+03    0.10763E+01   -0.11687E+01 27048   0.141E+01    0.162E+01
DAV:  12    -0.319150422869E+03    0.23057E+00   -0.10633E+00 24928   0.446E+00    0.149E+01
DAV:  13    -0.319219788665E+03   -0.69366E-01   -0.73006E-01 24440   0.349E+00    0.141E+01
DAV:  14    -0.319353529356E+03   -0.13374E+00   -0.33157E+00 23144   0.776E+00    0.128E+01
DAV:  15    -0.319058386465E+03    0.29514E+00   -0.10342E+00 26256   0.440E+00    0.103E+01
DAV:  16    -0.318992671341E+03    0.65715E-01   -0.62896E-01 26408   0.288E+00    0.928E+00
DAV:  17    -0.318977020599E+03    0.15651E-01   -0.83610E-01 23536   0.408E+00    0.829E+00
DAV:  18    -0.318838393082E+03    0.13863E+00   -0.41769E-01 25160   0.282E+00    0.670E+00
DAV:  19    -0.318789981294E+03    0.48412E-01   -0.22097E-01 26528   0.186E+00    0.591E+00
DAV:  20    -0.318781350596E+03    0.86307E-02   -0.24941E-02 26144   0.557E-01    0.541E+00
DAV:  21    -0.318769429584E+03    0.11921E-01   -0.85888E-02 26040   0.114E+00    0.451E+00
DAV:  22    -0.318752611453E+03    0.16818E-01   -0.36329E-02 24152   0.817E-01    0.380E+00
DAV:  23    -0.318743456352E+03    0.91551E-02   -0.17313E-02 23728   0.469E-01    0.316E+00
DAV:  24    -0.318735696383E+03    0.77600E-02   -0.19342E-02 24224   0.522E-01    0.231E+00
DAV:  25    -0.318733074956E+03    0.26214E-02   -0.12982E-02 22448   0.533E-01    0.197E+00
DAV:  26    -0.318732506751E+03    0.56821E-03   -0.18163E-03 22448   0.151E-01    0.178E+00
DAV:  27    -0.318731715017E+03    0.79173E-03   -0.57565E-04 15664   0.108E-01    0.161E+00
DAV:  28    -0.318730917011E+03    0.79801E-03   -0.14794E-03 21664   0.139E-01    0.142E+00
DAV:  29    -0.318729807003E+03    0.11100E-02   -0.12590E-03 20288   0.120E-01    0.928E-01
DAV:  30    -0.318729687388E+03    0.11962E-03   -0.70472E-04 17128   0.126E-01    0.885E-01
DAV:  31    -0.318729296841E+03    0.39055E-03   -0.19166E-04  9360   0.795E-02    0.655E-01
DAV:  32    -0.318729055512E+03    0.24133E-03   -0.82260E-04 17512   0.631E-02    0.481E-01
DAV:  33    -0.318728993783E+03    0.61729E-04   -0.75578E-05  9264   0.467E-02
   1 F= -.31872899E+03 E0= -.31872485E+03  d E =-.124385E-01
 writing wavefunctions
VASP is done!
