<?xml version="1.0" encoding="ISO-8859-1"?>
<modeling>
 <generator>
  <i name="program" type="string">vasp </i>
  <i name="version" type="string">5.4.4.18Apr17-6-g9f103f2a35  </i>
  <i name="subversion" type="string">(build Aug 09 2018 16:20:53) complex            parallel </i>
  <i name="platform" type="string">LinuxIFC </i>
  <i name="date" type="string">2020 04 28 </i>
  <i name="time" type="string">21:16:22 </i>
 </generator>
 <incar>
  <i type="string" name="SYSTEM"> Nb - Mo - Ta - Ti - V SQS</i>
  <i type="string" name="PREC">normal</i>
  <i type="int" name="ICHARG">     1</i>
  <i type="int" name="NELM">   100</i>
  <i type="int" name="IBRION">     2</i>
  <i name="ENCUT">    600.00000000</i>
  <i type="string" name="LREAL"> Auto</i>
  <i type="int" name="ISMEAR">     1</i>
  <i name="SIGMA">      0.20000000</i>
  <v type="int" name="KPOINT_BSE">    -1     0     0     0</v>
  <i type="int" name="NELM">   100</i>
  <i type="string" name="GGA"> PS</i>
 </incar>
 <structure name="primitive_cell" >
  <crystal>
   <varray name="basis" >
    <v>      -3.18000000      -3.18000000      -3.18000000 </v>
    <v>       1.59000000       1.59000000      -7.95000000 </v>
    <v>       7.95000000      -7.95000000      -1.59000000 </v>
   </varray>
   <i name="volume">    482.36148000 </i>
   <varray name="rec_basis" >
    <v>      -0.13626834      -0.12578616      -0.05241090 </v>
    <v>       0.04192872       0.06289308      -0.10482180 </v>
    <v>       0.06289308      -0.06289308       0.00000000 </v>
   </varray>
  </crystal>
  <varray name="positions" >
   <v>      -0.03333333      -0.06666667       0.40000000 </v>
   <v>       0.30000000      -0.40000000       0.40000000 </v>
   <v>      -0.10000000      -0.20000000       0.20000000 </v>
   <v>       0.06666667       0.13333333       0.20000000 </v>
   <v>       0.46666667      -0.06666667       0.40000000 </v>
   <v>      -0.13333333      -0.26666667      -0.40000000 </v>
   <v>       0.03333333       0.06666667      -0.40000000 </v>
   <v>      -0.36666667       0.26666667       0.40000000 </v>
   <v>       0.40000000      -0.20000000       0.20000000 </v>
   <v>      -0.20000000      -0.40000000       0.40000000 </v>
   <v>      -0.43333333       0.13333333       0.20000000 </v>
   <v>       0.36666667      -0.26666667      -0.40000000 </v>
   <v>       0.13333333       0.26666667       0.40000000 </v>
   <v>      -0.46666667       0.06666667      -0.40000000 </v>
   <v>       0.23333333       0.46666667       0.20000000 </v>
   <v>       0.20000000       0.40000000      -0.40000000 </v>
   <v>       0.00000000       0.00000000       0.00000000 </v>
   <v>      -0.06666667      -0.13333333      -0.20000000 </v>
   <v>      -0.30000000       0.40000000      -0.40000000 </v>
   <v>      -0.26666667       0.46666667       0.20000000 </v>
   <v>       0.33333333      -0.33333333       0.00000000 </v>
   <v>       0.43333333      -0.13333333      -0.20000000 </v>
   <v>      -0.50000000       0.00000000       0.00000000 </v>
   <v>       0.26666667      -0.46666667      -0.20000000 </v>
   <v>      -0.33333333       0.33333333       0.00000000 </v>
   <v>      -0.40000000       0.20000000      -0.20000000 </v>
   <v>      -0.16666667      -0.33333333       0.00000000 </v>
   <v>      -0.23333333      -0.46666667      -0.20000000 </v>
   <v>       0.16666667       0.33333333       0.00000000 </v>
   <v>       0.10000000       0.20000000      -0.20000000 </v>
  </varray>
 </structure>
 <varray name="primitive_index" >
  <v type="int" >        1 </v>
  <v type="int" >       18 </v>
  <v type="int" >        7 </v>
  <v type="int" >       24 </v>
  <v type="int" >       20 </v>
  <v type="int" >       19 </v>
  <v type="int" >        6 </v>
  <v type="int" >        2 </v>
  <v type="int" >       16 </v>
  <v type="int" >        8 </v>
  <v type="int" >       15 </v>
  <v type="int" >       11 </v>
  <v type="int" >       12 </v>
  <v type="int" >       28 </v>
  <v type="int" >       30 </v>
  <v type="int" >       23 </v>
  <v type="int" >        4 </v>
  <v type="int" >       14 </v>
  <v type="int" >       26 </v>
  <v type="int" >        9 </v>
  <v type="int" >       29 </v>
  <v type="int" >       17 </v>
  <v type="int" >        3 </v>
  <v type="int" >       22 </v>
  <v type="int" >       10 </v>
  <v type="int" >       27 </v>
  <v type="int" >       13 </v>
  <v type="int" >       25 </v>
  <v type="int" >       21 </v>
  <v type="int" >        5 </v>
 </varray>
 <kpoints>
  <generation param="Gamma">
   <v type="int" name="divisions">       5        5        5 </v>
   <v name="usershift">      0.00000000       0.00000000       0.00000000 </v>
   <v name="genvec1">      0.20000000       0.00000000       0.00000000 </v>
   <v name="genvec2">      0.00000000       0.20000000       0.00000000 </v>
   <v name="genvec3">      0.00000000       0.00000000       0.20000000 </v>
   <v name="shift">      0.00000000       0.00000000       0.00000000 </v>
  </generation>
  <varray name="kpointlist" >
   <v>       0.00000000       0.00000000       0.00000000 </v>
   <v>       0.20000000      -0.00000000      -0.00000000 </v>
   <v>       0.40000000      -0.00000000      -0.00000000 </v>
   <v>       0.00000000       0.20000000       0.00000000 </v>
   <v>       0.20000000       0.20000000      -0.00000000 </v>
   <v>       0.40000000       0.20000000      -0.00000000 </v>
   <v>      -0.40000000       0.20000000       0.00000000 </v>
   <v>      -0.20000000       0.20000000       0.00000000 </v>
   <v>       0.00000000       0.40000000       0.00000000 </v>
   <v>       0.20000000       0.40000000      -0.00000000 </v>
   <v>       0.40000000       0.40000000      -0.00000000 </v>
   <v>      -0.40000000       0.40000000       0.00000000 </v>
   <v>      -0.20000000       0.40000000       0.00000000 </v>
   <v>       0.00000000       0.00000000       0.20000000 </v>
   <v>       0.20000000      -0.00000000       0.20000000 </v>
   <v>       0.40000000      -0.00000000       0.20000000 </v>
   <v>      -0.40000000       0.00000000       0.20000000 </v>
   <v>      -0.20000000       0.00000000       0.20000000 </v>
   <v>       0.00000000       0.20000000       0.20000000 </v>
   <v>       0.20000000       0.20000000       0.20000000 </v>
   <v>       0.40000000       0.20000000       0.20000000 </v>
   <v>      -0.40000000       0.20000000       0.20000000 </v>
   <v>      -0.20000000       0.20000000       0.20000000 </v>
   <v>       0.00000000       0.40000000       0.20000000 </v>
   <v>       0.20000000       0.40000000       0.20000000 </v>
   <v>       0.40000000       0.40000000       0.20000000 </v>
   <v>      -0.40000000       0.40000000       0.20000000 </v>
   <v>      -0.20000000       0.40000000       0.20000000 </v>
   <v>      -0.00000000      -0.40000000       0.20000000 </v>
   <v>       0.20000000      -0.40000000       0.20000000 </v>
   <v>       0.40000000      -0.40000000       0.20000000 </v>
   <v>      -0.40000000      -0.40000000       0.20000000 </v>
   <v>      -0.20000000      -0.40000000       0.20000000 </v>
   <v>       0.00000000      -0.20000000       0.20000000 </v>
   <v>       0.20000000      -0.20000000       0.20000000 </v>
   <v>       0.40000000      -0.20000000       0.20000000 </v>
   <v>      -0.40000000      -0.20000000       0.20000000 </v>
   <v>      -0.20000000      -0.20000000       0.20000000 </v>
   <v>       0.00000000       0.00000000       0.40000000 </v>
   <v>       0.20000000      -0.00000000       0.40000000 </v>
   <v>       0.40000000      -0.00000000       0.40000000 </v>
   <v>      -0.40000000       0.00000000       0.40000000 </v>
   <v>      -0.20000000       0.00000000       0.40000000 </v>
   <v>       0.00000000       0.20000000       0.40000000 </v>
   <v>       0.20000000       0.20000000       0.40000000 </v>
   <v>       0.40000000       0.20000000       0.40000000 </v>
   <v>      -0.40000000       0.20000000       0.40000000 </v>
   <v>      -0.20000000       0.20000000       0.40000000 </v>
   <v>       0.00000000       0.40000000       0.40000000 </v>
   <v>       0.20000000       0.40000000       0.40000000 </v>
   <v>       0.40000000       0.40000000       0.40000000 </v>
   <v>      -0.40000000       0.40000000       0.40000000 </v>
   <v>      -0.20000000       0.40000000       0.40000000 </v>
   <v>       0.00000000      -0.40000000       0.40000000 </v>
   <v>       0.20000000      -0.40000000       0.40000000 </v>
   <v>       0.40000000      -0.40000000       0.40000000 </v>
   <v>      -0.40000000      -0.40000000       0.40000000 </v>
   <v>      -0.20000000      -0.40000000       0.40000000 </v>
   <v>      -0.00000000      -0.20000000       0.40000000 </v>
   <v>       0.20000000      -0.20000000       0.40000000 </v>
   <v>       0.40000000      -0.20000000       0.40000000 </v>
   <v>      -0.40000000      -0.20000000       0.40000000 </v>
   <v>      -0.20000000      -0.20000000       0.40000000 </v>
  </varray>
  <varray name="weights" >
   <v>       0.00800000 </v>
   <v>       0.01600000 </v>
   <v>       0.01600000 </v>
   <v>       0.01600000 </v>
   <v>       0.01600000 </v>
   <v>       0.01600000 </v>
   <v>       0.01600000 </v>
   <v>       0.01600000 </v>
   <v>       0.01600000 </v>
   <v>       0.01600000 </v>
   <v>       0.01600000 </v>
   <v>       0.01600000 </v>
   <v>       0.01600000 </v>
   <v>       0.01600000 </v>
   <v>       0.01600000 </v>
   <v>       0.01600000 </v>
   <v>       0.01600000 </v>
   <v>       0.01600000 </v>
   <v>       0.01600000 </v>
   <v>       0.01600000 </v>
   <v>       0.01600000 </v>
   <v>       0.01600000 </v>
   <v>       0.01600000 </v>
   <v>       0.01600000 </v>
   <v>       0.01600000 </v>
   <v>       0.01600000 </v>
   <v>       0.01600000 </v>
   <v>       0.01600000 </v>
   <v>       0.01600000 </v>
   <v>       0.01600000 </v>
   <v>       0.01600000 </v>
   <v>       0.01600000 </v>
   <v>       0.01600000 </v>
   <v>       0.01600000 </v>
   <v>       0.01600000 </v>
   <v>       0.01600000 </v>
   <v>       0.01600000 </v>
   <v>       0.01600000 </v>
   <v>       0.01600000 </v>
   <v>       0.01600000 </v>
   <v>       0.01600000 </v>
   <v>       0.01600000 </v>
   <v>       0.01600000 </v>
   <v>       0.01600000 </v>
   <v>       0.01600000 </v>
   <v>       0.01600000 </v>
   <v>       0.01600000 </v>
   <v>       0.01600000 </v>
   <v>       0.01600000 </v>
   <v>       0.01600000 </v>
   <v>       0.01600000 </v>
   <v>       0.01600000 </v>
   <v>       0.01600000 </v>
   <v>       0.01600000 </v>
   <v>       0.01600000 </v>
   <v>       0.01600000 </v>
   <v>       0.01600000 </v>
   <v>       0.01600000 </v>
   <v>       0.01600000 </v>
   <v>       0.01600000 </v>
   <v>       0.01600000 </v>
   <v>       0.01600000 </v>
   <v>       0.01600000 </v>
  </varray>
 </kpoints>
 <parameters>
  <separator name="general" >
   <i type="string" name="SYSTEM">Nb - Mo - Ta - Ti - V SQS</i>
   <i type="logical" name="LCOMPAT"> F  </i>
  </separator>
  <separator name="electronic" >
   <i type="string" name="PREC">normal</i>
   <i name="ENMAX">    600.00000000</i>
   <i name="ENAUG">    455.65900000</i>
   <i name="EDIFF">      0.00010000</i>
   <i type="int" name="IALGO">    38</i>
   <i type="int" name="IWAVPR">    10</i>
   <i type="int" name="NBANDS">   120</i>
   <i name="NELECT">    198.00000000</i>
   <i type="int" name="TURBO">     0</i>
   <i type="int" name="IRESTART">     0</i>
   <i type="int" name="NREBOOT">     0</i>
   <i type="int" name="NMIN">     0</i>
   <i name="EREF">      0.00000000</i>
   <separator name="electronic smearing" >
    <i type="int" name="ISMEAR">     1</i>
    <i name="SIGMA">      0.20000000</i>
    <i name="KSPACING">      0.50000000</i>
    <i type="logical" name="KGAMMA"> T  </i>
   </separator>
   <separator name="electronic projectors" >
    <i type="logical" name="LREAL"> T  </i>
    <v name="ROPT">     -0.00050000     -0.00050000     -0.00050000     -0.00050000     -0.00050000</v>
    <i type="int" name="LMAXPAW">  -100</i>
    <i type="int" name="LMAXMIX">     2</i>
    <i type="logical" name="NLSPLINE"> F  </i>
   </separator>
   <separator name="electronic startup" >
    <i type="int" name="ISTART">     1</i>
    <i type="int" name="ICHARG">     1</i>
    <i type="int" name="INIWAV">     1</i>
   </separator>
   <separator name="electronic spin" >
    <i type="int" name="ISPIN">     1</i>
    <i type="logical" name="LNONCOLLINEAR"> F  </i>
    <v name="MAGMOM">      1.00000000      1.00000000      1.00000000      1.00000000      1.00000000      1.00000000      1.00000000      1.00000000      1.00000000      1.00000000      1.00000000      1.00000000      1.00000000      1.00000000      1.00000000      1.00000000      1.00000000      1.00000000      1.00000000      1.00000000
      1.00000000      1.00000000      1.00000000      1.00000000      1.00000000      1.00000000      1.00000000      1.00000000      1.00000000      1.00000000</v>
    <i name="NUPDOWN">     -1.00000000</i>
    <i type="logical" name="LSORBIT"> F  </i>
    <v name="SAXIS">      0.00000000      0.00000000      1.00000000</v>
    <i type="logical" name="LSPIRAL"> F  </i>
    <v name="QSPIRAL">      0.00000000      0.00000000      0.00000000</v>
    <i type="logical" name="LZEROZ"> F  </i>
   </separator>
   <separator name="electronic exchange-correlation" >
    <i type="logical" name="LASPH"> F  </i>
    <i type="logical" name="LMETAGGA"> F  </i>
   </separator>
   <separator name="electronic convergence" >
    <i type="int" name="NELM">   100</i>
    <i type="int" name="NELMDL">     0</i>
    <i type="int" name="NELMIN">     2</i>
    <i name="ENINI">    600.00000000</i>
    <separator name="electronic convergence detail" >
     <i type="logical" name="LDIAG"> T  </i>
     <i type="logical" name="LSUBROT"> F  </i>
     <i name="WEIMIN">      0.00000000</i>
     <i name="EBREAK">      0.00000021</i>
     <i name="DEPER">      0.30000000</i>
     <i type="int" name="NRMM">     4</i>
     <i name="TIME">      0.40000000</i>
    </separator>
   </separator>
   <separator name="electronic mixer" >
    <i name="AMIX">      0.40000000</i>
    <i name="BMIX">      1.00000000</i>
    <i name="AMIN">      0.10000000</i>
    <i name="AMIX_MAG">      1.60000000</i>
    <i name="BMIX_MAG">      1.00000000</i>
    <separator name="electronic mixer details" >
     <i type="int" name="IMIX">     4</i>
     <i type="logical" name="MIXFIRST"> F  </i>
     <i type="int" name="MAXMIX">   -45</i>
     <i name="WC">    100.00000000</i>
     <i type="int" name="INIMIX">     1</i>
     <i type="int" name="MIXPRE">     1</i>
     <i type="int" name="MREMOVE">     5</i>
    </separator>
   </separator>
   <separator name="electronic dipolcorrection" >
    <i type="logical" name="LDIPOL"> F  </i>
    <i type="logical" name="LMONO"> F  </i>
    <i type="int" name="IDIPOL">     0</i>
    <i name="EPSILON">      1.00000000</i>
    <v name="DIPOL">   -100.00000000   -100.00000000   -100.00000000</v>
    <i name="EFIELD">      0.00000000</i>
   </separator>
  </separator>
  <separator name="grids" >
   <i type="int" name="NGX">    36</i>
   <i type="int" name="NGY">    50</i>
   <i type="int" name="NGZ">    70</i>
   <i type="int" name="NGXF">    72</i>
   <i type="int" name="NGYF">   100</i>
   <i type="int" name="NGZF">   140</i>
   <i type="logical" name="ADDGRID"> F  </i>
  </separator>
  <separator name="ionic" >
   <i type="int" name="NSW">     0</i>
   <i type="int" name="IBRION">    -1</i>
   <i type="int" name="MDALGO">     0</i>
   <i type="int" name="ISIF">     2</i>
   <i name="PSTRESS">      0.00000000</i>
   <i name="EDIFFG">      0.00100000</i>
   <i type="int" name="NFREE">     1</i>
   <i name="POTIM">      0.50000000</i>
   <i name="SMASS">     -3.00000000</i>
   <i name="SCALEE">      1.00000000</i>
  </separator>
  <separator name="ionic md" >
   <i name="TEBEG">      0.00010000</i>
   <i name="TEEND">      0.00010000</i>
   <i type="int" name="NBLOCK">     1</i>
   <i type="int" name="KBLOCK">     1</i>
   <i type="int" name="NPACO">   256</i>
   <i name="APACO">     16.00000000</i>
  </separator>
  <separator name="symmetry" >
   <i type="int" name="ISYM">     2</i>
   <i name="SYMPREC">      0.00001000</i>
  </separator>
  <separator name="dos" >
   <i type="int" name="LORBIT">     0</i>
   <v name="RWIGS">     -1.00000000     -1.00000000     -1.00000000     -1.00000000     -1.00000000</v>
   <i type="int" name="NEDOS">   301</i>
   <i name="EMIN">     10.00000000</i>
   <i name="EMAX">    -10.00000000</i>
   <i name="EFERMI">      0.00000000</i>
  </separator>
  <separator name="writing" >
   <i type="int" name="NWRITE">     2</i>
   <i type="logical" name="LWAVE"> T  </i>
   <i type="logical" name="LDOWNSAMPLE"> F  </i>
   <i type="logical" name="LCHARG"> T  </i>
   <i type="logical" name="LPARD"> F  </i>
   <i type="logical" name="LVTOT"> F  </i>
   <i type="logical" name="LVHAR"> F  </i>
   <i type="logical" name="LELF"> F  </i>
   <i type="logical" name="LOPTICS"> F  </i>
   <v name="STM">      0.00000000      0.00000000      0.00000000      0.00000000      0.00000000      0.00000000      0.00000000</v>
  </separator>
  <separator name="performance" >
   <i type="int" name="NPAR">     8</i>
   <i type="int" name="NSIM">     4</i>
   <i type="int" name="NBLK">    -1</i>
   <i type="logical" name="LPLANE"> T  </i>
   <i type="logical" name="LSCALAPACK"> T  </i>
   <i type="logical" name="LSCAAWARE"> F  </i>
   <i type="logical" name="LSCALU"> F  </i>
   <i type="logical" name="LASYNC"> F  </i>
   <i type="logical" name="LORBITALREAL"> F  </i>
  </separator>
  <separator name="miscellaneous" >
   <i type="int" name="IDIOT">     3</i>
   <i type="int" name="ISPECIAL">     0</i>
   <i type="logical" name="LMUSIC"> F  </i>
   <v name="POMASS">     92.91000000     95.94000000    180.94800000     47.88000000     50.94100000</v>
   <v name="DARWINR">      0.00000000      0.00000000      0.00000000      0.00000000      0.00000000</v>
   <v name="DARWINV">      1.00000000      1.00000000      1.00000000      1.00000000      1.00000000</v>
   <i type="logical" name="LCORR"> T  </i>
  </separator>
  <i type="logical" name="GGA_COMPAT"> T  </i>
  <i type="logical" name="LBERRY"> F  </i>
  <i type="int" name="ICORELEVEL">     0</i>
  <i type="logical" name="LDAU"> F  </i>
  <i type="int" name="I_CONSTRAINED_M">     0</i>
  <separator name="electronic exchange-correlation" >
   <i type="string" name="GGA">PS</i>
   <i type="int" name="VOSKOWN">     0</i>
   <i type="logical" name="LHFCALC"> F  </i>
   <i type="string" name="PRECFOCK"></i>
   <i type="logical" name="LSYMGRAD"> F  </i>
   <i type="logical" name="LHFONE"> F  </i>
   <i type="logical" name="LRHFCALC"> F  </i>
   <i type="logical" name="LTHOMAS"> F  </i>
   <i type="logical" name="LMODELHF"> F  </i>
   <i name="ENCUT4O">     -1.00000000</i>
   <i type="int" name="EXXOEP">     0</i>
   <i type="int" name="FOURORBIT">     0</i>
   <i name="AEXX">      0.00000000</i>
   <i name="HFALPHA">      0.00000000</i>
   <i name="MCALPHA">      0.00000000</i>
   <i name="ALDAX">      1.00000000</i>
   <i name="AGGAX">      1.00000000</i>
   <i name="ALDAC">      1.00000000</i>
   <i name="AGGAC">      1.00000000</i>
   <i type="int" name="NKREDX">     1</i>
   <i type="int" name="NKREDY">     1</i>
   <i type="int" name="NKREDZ">     1</i>
   <i type="logical" name="SHIFTRED"> F  </i>
   <i type="logical" name="ODDONLY"> F  </i>
   <i type="logical" name="EVENONLY"> F  </i>
   <i type="int" name="LMAXFOCK">     0</i>
   <i type="int" name="NMAXFOCKAE">     0</i>
   <i type="logical" name="LFOCKAEDFT"> F  </i>
   <i name="HFSCREEN">      0.00000000</i>
   <i name="HFSCREENC">      0.00000000</i>
   <i type="int" name="NBANDSGWLOW">     0</i>
  </separator>
  <separator name="vdW DFT" >
   <i type="logical" name="LUSE_VDW"> F  </i>
   <i name="Zab_VDW">     -0.84910000</i>
   <i name="PARAM1">      0.12340000</i>
   <i name="PARAM2">      1.00000000</i>
   <i name="PARAM3">      0.00000000</i>
  </separator>
  <separator name="model GW" >
   <i type="int" name="MODEL_GW">     0</i>
   <i name="MODEL_EPS0">      9.64722960</i>
   <i name="MODEL_ALPHA">      1.00000000</i>
  </separator>
  <separator name="linear response parameters" >
   <i type="logical" name="LEPSILON"> F  </i>
   <i type="logical" name="LRPA"> F  </i>
   <i type="logical" name="LNABLA"> F  </i>
   <i type="logical" name="LVEL"> F  </i>
   <i type="int" name="KINTER">     0</i>
   <i name="CSHIFT">      0.10000000</i>
   <i name="OMEGAMAX">     -1.00000000</i>
   <i name="DEG_THRESHOLD">      0.00200000</i>
   <i name="RTIME">     -0.10000000</i>
   <i name="WPLASMAI">      0.00000000</i>
   <v name="DFIELD">      0.00000000      0.00000000      0.00000000</v>
   <v name="WPLASMA">      0.00000000      0.00000000      0.00000000      0.00000000      0.00000000      0.00000000      0.00000000      0.00000000      0.00000000</v>
  </separator>
  <separator name="orbital magnetization" >
   <i type="logical" name="NUCIND"> F  </i>
   <v name="MAGPOS">      0.00000000      0.00000000      0.00000000</v>
   <i type="logical" name="LNICSALL"> T  </i>
   <i type="logical" name="ORBITALMAG"> F  </i>
   <i type="logical" name="LMAGBLOCH"> F  </i>
   <i type="logical" name="LCHIMAG"> F  </i>
   <i type="logical" name="LGAUGE"> T  </i>
   <i type="int" name="MAGATOM">     0</i>
   <v name="MAGDIPOL">      0.00000000      0.00000000      0.00000000</v>
   <v name="AVECCONST">      0.00000000      0.00000000      0.00000000</v>
  </separator>
  <separator name="response functions" >
   <i type="logical" name="LADDER"> F  </i>
   <i type="logical" name="LRPAFORCE"> F  </i>
   <i type="logical" name="LFXC"> F  </i>
   <i type="logical" name="LHARTREE"> T  </i>
   <i type="int" name="IBSE">     0</i>
   <v type="int" name="KPOINT">    -1     0     0     0</v>
   <i type="logical" name="LTCTE"> F  </i>
   <i type="logical" name="LTETE"> F  </i>
   <i type="logical" name="LTRIPLET"> F  </i>
   <i type="logical" name="LFXCEPS"> F  </i>
   <i type="logical" name="LFXHEG"> F  </i>
   <i type="int" name="NATURALO">     2</i>
   <i type="logical" name="L2ORDER"> F  </i>
   <i type="logical" name="LMP2LT"> F  </i>
   <i type="logical" name="LUSEW"> F  </i>
   <i name="ENCUTGW">     -2.00000000</i>
   <i name="ENCUTGWSOFT">     -2.00000000</i>
   <i name="ENCUTLF">     -1.00000000</i>
   <i type="int" name="LMAXMP2">    -1</i>
   <i name="SCISSOR">      0.00000000</i>
   <i type="int" name="NOMEGA">     0</i>
   <i type="int" name="NOMEGAR">     0</i>
   <i type="int" name="NBANDSGW">    -1</i>
   <i type="int" name="NBANDSO">    -1</i>
   <i type="int" name="NBANDSV">    -1</i>
   <i type="int" name="NELM">   100</i>
   <i type="int" name="NELMHF">     1</i>
   <i type="int" name="DIM">     3</i>
   <i type="int" name="ANTIRES">     0</i>
   <i name="OMEGAMAX">    -30.00000000</i>
   <i name="OMEGAMIN">    -30.00000000</i>
   <i name="OMEGATL">   -200.00000000</i>
   <i type="int" name="OMEGAGRID">   140</i>
   <i name="CSHIFT">     -0.10000000</i>
   <i type="logical" name="SELFENERGY"> F  </i>
   <i type="logical" name="LSPECTRAL"> F  </i>
   <i type="logical" name="LSPECTRALGW"> F  </i>
   <i type="logical" name="LSINGLES"> F  </i>
   <i type="logical" name="LFERMIGW"> F  </i>
   <i type="logical" name="ODDONLYGW"> F  </i>
   <i type="logical" name="EVENONLYGW"> F  </i>
   <i type="int" name="NKREDLFX">     1</i>
   <i type="int" name="NKREDLFY">     1</i>
   <i type="int" name="NKREDLFZ">     1</i>
   <i type="int" name="MAXMEM">  2800</i>
   <i type="int" name="TELESCOPE">     0</i>
   <i type="int" name="TAUPAR">     1</i>
   <i type="int" name="OMEGAPAR">    -1</i>
   <i name="LAMBDA">      1.00000000</i>
  </separator>
  <separator name="External order field" >
   <i name="OFIELD_KAPPA">      0.00000000</i>
   <v name="OFIELD_K">      0.00000000      0.00000000      0.00000000</v>
   <i name="OFIELD_Q6_NEAR">      0.00000000</i>
   <i name="OFIELD_Q6_FAR">      0.00000000</i>
   <i name="OFIELD_A">      0.00000000</i>
  </separator>
  <separator name="solvation model" >
   <i type="logical" name="LSOL"> F  </i>
  </separator>
 </parameters>
 <atominfo>
  <atoms>      30 </atoms>
  <types>       5 </types>
  <array name="atoms" >
   <dimension dim="1">ion</dimension>
   <field type="string">element</field>
   <field type="int">atomtype</field>
   <set>
    <rc><c>Nb</c><c>   1</c></rc>
    <rc><c>Nb</c><c>   1</c></rc>
    <rc><c>Nb</c><c>   1</c></rc>
    <rc><c>Nb</c><c>   1</c></rc>
    <rc><c>Nb</c><c>   1</c></rc>
    <rc><c>Nb</c><c>   1</c></rc>
    <rc><c>Mo</c><c>   2</c></rc>
    <rc><c>Mo</c><c>   2</c></rc>
    <rc><c>Mo</c><c>   2</c></rc>
    <rc><c>Mo</c><c>   2</c></rc>
    <rc><c>Mo</c><c>   2</c></rc>
    <rc><c>Mo</c><c>   2</c></rc>
    <rc><c>Ta</c><c>   3</c></rc>
    <rc><c>Ta</c><c>   3</c></rc>
    <rc><c>Ta</c><c>   3</c></rc>
    <rc><c>Ta</c><c>   3</c></rc>
    <rc><c>Ta</c><c>   3</c></rc>
    <rc><c>Ta</c><c>   3</c></rc>
    <rc><c>Ti</c><c>   4</c></rc>
    <rc><c>Ti</c><c>   4</c></rc>
    <rc><c>Ti</c><c>   4</c></rc>
    <rc><c>Ti</c><c>   4</c></rc>
    <rc><c>Ti</c><c>   4</c></rc>
    <rc><c>Ti</c><c>   4</c></rc>
    <rc><c>V </c><c>   5</c></rc>
    <rc><c>V </c><c>   5</c></rc>
    <rc><c>V </c><c>   5</c></rc>
    <rc><c>V </c><c>   5</c></rc>
    <rc><c>V </c><c>   5</c></rc>
    <rc><c>V </c><c>   5</c></rc>
   </set>
  </array>
  <array name="atomtypes" >
   <dimension dim="1">type</dimension>
   <field type="int">atomspertype</field>
   <field type="string">element</field>
   <field>mass</field>
   <field>valence</field>
   <field type="string">pseudopotential</field>
   <set>
    <rc><c>   6</c><c>Nb</c><c>     92.91000000</c><c>     13.00000000</c><c>  PAW_PBE Nb_sv 25May2007               </c></rc>
    <rc><c>   6</c><c>Mo</c><c>     95.94000000</c><c>      6.00000000</c><c>  PAW_PBE Mo 08Apr2002                  </c></rc>
    <rc><c>   6</c><c>Ta</c><c>    180.94800000</c><c>      5.00000000</c><c>  PAW_PBE Ta 17Jan2003                  </c></rc>
    <rc><c>   6</c><c>Ti</c><c>     47.88000000</c><c>      4.00000000</c><c>  PAW_PBE Ti 08Apr2002                  </c></rc>
    <rc><c>   6</c><c>V </c><c>     50.94100000</c><c>      5.00000000</c><c>  PAW_PBE V 08Apr2002                   </c></rc>
   </set>
  </array>
 </atominfo>
 <structure name="initialpos" >
  <crystal>
   <varray name="basis" >
    <v>      -3.18000000      -3.18000000      -3.18000000 </v>
    <v>       1.59000000       1.59000000      -7.95000000 </v>
    <v>       7.95000000      -7.95000000      -1.59000000 </v>
   </varray>
   <i name="volume">    482.36148000 </i>
   <varray name="rec_basis" >
    <v>      -0.13626834      -0.12578616      -0.05241090 </v>
    <v>       0.04192872       0.06289308      -0.10482180 </v>
    <v>       0.06289308      -0.06289308       0.00000000 </v>
   </varray>
  </crystal>
  <varray name="positions" >
   <v>       0.96666667       0.93333333       0.40000000 </v>
   <v>       0.63333333       0.26666667       0.40000000 </v>
   <v>       0.50000000       0.00000000       0.00000000 </v>
   <v>       0.00000000       0.00000000       0.00000000 </v>
   <v>       0.10000000       0.20000000       0.80000000 </v>
   <v>       0.03333333       0.06666667       0.60000000 </v>
   <v>       0.90000000       0.80000000       0.20000000 </v>
   <v>       0.80000000       0.60000000       0.40000000 </v>
   <v>       0.73333333       0.46666667       0.20000000 </v>
   <v>       0.66666667       0.33333333       0.00000000 </v>
   <v>       0.36666667       0.73333333       0.60000000 </v>
   <v>       0.13333333       0.26666667       0.40000000 </v>
   <v>       0.83333333       0.66666667       0.00000000 </v>
   <v>       0.93333333       0.86666667       0.80000000 </v>
   <v>       0.56666667       0.13333333       0.20000000 </v>
   <v>       0.40000000       0.80000000       0.20000000 </v>
   <v>       0.43333333       0.86666667       0.80000000 </v>
   <v>       0.30000000       0.60000000       0.40000000 </v>
   <v>       0.86666667       0.73333333       0.60000000 </v>
   <v>       0.46666667       0.93333333       0.40000000 </v>
   <v>       0.16666667       0.33333333       0.00000000 </v>
   <v>       0.26666667       0.53333333       0.80000000 </v>
   <v>       0.20000000       0.40000000       0.60000000 </v>
   <v>       0.06666667       0.13333333       0.20000000 </v>
   <v>       0.76666667       0.53333333       0.80000000 </v>
   <v>       0.70000000       0.40000000       0.60000000 </v>
   <v>       0.60000000       0.20000000       0.80000000 </v>
   <v>       0.53333333       0.06666667       0.60000000 </v>
   <v>       0.33333333       0.66666667       0.00000000 </v>
   <v>       0.23333333       0.46666667       0.20000000 </v>
  </varray>
 </structure>
 <calculation>
  <scstep>
   <time name="dav">   30.04   30.09</time>
   <time name="total">   30.68   31.40</time>
   <energy>
    <i name="alphaZ">   1206.99273337 </i>
    <i name="ewald"> -11461.91017046 </i>
    <i name="hartreedc">  -3131.28669878 </i>
    <i name="XCdc">   -882.90586698 </i>
    <i name="pawpsdc">  23692.08024815 </i>
    <i name="pawaedc"> -22163.35105596 </i>
    <i name="eentropy">      0.00500148 </i>
    <i name="bandstr">   -648.38480278 </i>
    <i name="atom">  13005.90793652 </i>
    <i name="e_fr_energy">   -382.85267544 </i>
    <i name="e_wo_entrp">   -382.85767692 </i>
    <i name="e_0_energy">   -382.85434260 </i>
   </energy>
  </scstep>
  <scstep>
   <time name="dav">   28.81   28.84</time>
   <time name="total">   29.46   29.49</time>
   <energy>
    <i name="e_fr_energy">   -512.23214783 </i>
    <i name="e_wo_entrp">   -512.22626751 </i>
    <i name="e_0_energy">   -512.23018772 </i>
   </energy>
  </scstep>
  <scstep>
   <time name="dav">   29.21   29.24</time>
   <time name="total">   29.85   29.89</time>
   <energy>
    <i name="e_fr_energy">   -392.14500151 </i>
    <i name="e_wo_entrp">   -392.14778273 </i>
    <i name="e_0_energy">   -392.14592858 </i>
   </energy>
  </scstep>
  <scstep>
   <time name="dav">   30.16   30.19</time>
   <time name="total">   30.79   30.82</time>
   <energy>
    <i name="e_fr_energy">   -342.00590692 </i>
    <i name="e_wo_entrp">   -342.00571925 </i>
    <i name="e_0_energy">   -342.00584436 </i>
   </energy>
  </scstep>
  <scstep>
   <time name="dav">   28.63   28.66</time>
   <time name="total">   29.26   29.31</time>
   <energy>
    <i name="e_fr_energy">   -334.60183102 </i>
    <i name="e_wo_entrp">   -334.58921142 </i>
    <i name="e_0_energy">   -334.59762449 </i>
   </energy>
  </scstep>
  <scstep>
   <time name="dav">   30.74   30.78</time>
   <time name="total">   31.37   31.41</time>
   <energy>
    <i name="e_fr_energy">   -368.19433711 </i>
    <i name="e_wo_entrp">   -368.19322176 </i>
    <i name="e_0_energy">   -368.19396533 </i>
   </energy>
  </scstep>
  <scstep>
   <time name="dav">   30.75   30.78</time>
   <time name="total">   31.38   31.42</time>
   <energy>
    <i name="e_fr_energy">   -329.57919261 </i>
    <i name="e_wo_entrp">   -329.57643603 </i>
    <i name="e_0_energy">   -329.57827375 </i>
   </energy>
  </scstep>
  <scstep>
   <time name="dav">   31.37   31.40</time>
   <time name="total">   32.00   32.03</time>
   <energy>
    <i name="e_fr_energy">   -322.83876845 </i>
    <i name="e_wo_entrp">   -322.81932124 </i>
    <i name="e_0_energy">   -322.83228605 </i>
   </energy>
  </scstep>
  <scstep>
   <time name="dav">   31.08   31.11</time>
   <time name="total">   31.72   31.76</time>
   <energy>
    <i name="e_fr_energy">   -321.58054863 </i>
    <i name="e_wo_entrp">   -321.56480690 </i>
    <i name="e_0_energy">   -321.57530139 </i>
   </energy>
  </scstep>
  <scstep>
   <time name="dav">   29.68   29.71</time>
   <time name="total">   30.31   30.34</time>
   <energy>
    <i name="e_fr_energy">   -320.45725969 </i>
    <i name="e_wo_entrp">   -320.44305430 </i>
    <i name="e_0_energy">   -320.45252456 </i>
   </energy>
  </scstep>
  <scstep>
   <time name="dav">   30.17   30.22</time>
   <time name="total">   30.80   30.88</time>
   <energy>
    <i name="e_fr_energy">   -319.38099393 </i>
    <i name="e_wo_entrp">   -319.36879217 </i>
    <i name="e_0_energy">   -319.37692667 </i>
   </energy>
  </scstep>
  <scstep>
   <time name="dav">   28.13   28.17</time>
   <time name="total">   28.76   28.80</time>
   <energy>
    <i name="e_fr_energy">   -319.15042287 </i>
    <i name="e_wo_entrp">   -319.13914429 </i>
    <i name="e_0_energy">   -319.14666334 </i>
   </energy>
  </scstep>
  <scstep>
   <time name="dav">   27.42   27.46</time>
   <time name="total">   28.05   28.09</time>
   <energy>
    <i name="e_fr_energy">   -319.21978867 </i>
    <i name="e_wo_entrp">   -319.20684707 </i>
    <i name="e_0_energy">   -319.21547480 </i>
   </energy>
  </scstep>
  <scstep>
   <time name="dav">   26.32   26.34</time>
   <time name="total">   26.95   26.98</time>
   <energy>
    <i name="e_fr_energy">   -319.35352936 </i>
    <i name="e_wo_entrp">   -319.33661298 </i>
    <i name="e_0_energy">   -319.34789057 </i>
   </energy>
  </scstep>
  <scstep>
   <time name="dav">   29.32   29.35</time>
   <time name="total">   29.95   29.98</time>
   <energy>
    <i name="e_fr_energy">   -319.05838646 </i>
    <i name="e_wo_entrp">   -319.04287371 </i>
    <i name="e_0_energy">   -319.05321555 </i>
   </energy>
  </scstep>
  <scstep>
   <time name="dav">   29.73   29.76</time>
   <time name="total">   30.37   30.41</time>
   <energy>
    <i name="e_fr_energy">   -318.99267134 </i>
    <i name="e_wo_entrp">   -318.97876230 </i>
    <i name="e_0_energy">   -318.98803499 </i>
   </energy>
  </scstep>
  <scstep>
   <time name="dav">   27.36   27.39</time>
   <time name="total">   28.00   28.03</time>
   <energy>
    <i name="e_fr_energy">   -318.97702060 </i>
    <i name="e_wo_entrp">   -318.95915940 </i>
    <i name="e_0_energy">   -318.97106686 </i>
   </energy>
  </scstep>
  <scstep>
   <time name="dav">   28.06   28.09</time>
   <time name="total">   28.69   28.72</time>
   <energy>
    <i name="e_fr_energy">   -318.83839308 </i>
    <i name="e_wo_entrp">   -318.82253830 </i>
    <i name="e_0_energy">   -318.83310815 </i>
   </energy>
  </scstep>
  <scstep>
   <time name="dav">   29.38   29.41</time>
   <time name="total">   30.01   30.04</time>
   <energy>
    <i name="e_fr_energy">   -318.78998129 </i>
    <i name="e_wo_entrp">   -318.77675921 </i>
    <i name="e_0_energy">   -318.78557393 </i>
   </energy>
  </scstep>
  <scstep>
   <time name="dav">   29.01   29.04</time>
   <time name="total">   29.64   29.68</time>
   <energy>
    <i name="e_fr_energy">   -318.78135060 </i>
    <i name="e_wo_entrp">   -318.76830364 </i>
    <i name="e_0_energy">   -318.77700161 </i>
   </energy>
  </scstep>
  <scstep>
   <time name="dav">   28.96   28.98</time>
   <time name="total">   29.59   29.61</time>
   <energy>
    <i name="e_fr_energy">   -318.76942958 </i>
    <i name="e_wo_entrp">   -318.75595859 </i>
    <i name="e_0_energy">   -318.76493925 </i>
   </energy>
  </scstep>
  <scstep>
   <time name="dav">   27.17   27.19</time>
   <time name="total">   27.80   27.82</time>
   <energy>
    <i name="e_fr_energy">   -318.75261145 </i>
    <i name="e_wo_entrp">   -318.73915996 </i>
    <i name="e_0_energy">   -318.74812762 </i>
   </energy>
  </scstep>
  <scstep>
   <time name="dav">   26.72   26.74</time>
   <time name="total">   27.35   27.38</time>
   <energy>
    <i name="e_fr_energy">   -318.74345635 </i>
    <i name="e_wo_entrp">   -318.73043986 </i>
    <i name="e_0_energy">   -318.73911752 </i>
   </energy>
  </scstep>
  <scstep>
   <time name="dav">   27.18   27.20</time>
   <time name="total">   27.81   27.83</time>
   <energy>
    <i name="e_fr_energy">   -318.73569638 </i>
    <i name="e_wo_entrp">   -318.72271301 </i>
    <i name="e_0_energy">   -318.73136859 </i>
   </energy>
  </scstep>
  <scstep>
   <time name="dav">   25.50   25.53</time>
   <time name="total">   26.13   26.15</time>
   <energy>
    <i name="e_fr_energy">   -318.73307496 </i>
    <i name="e_wo_entrp">   -318.72036068 </i>
    <i name="e_0_energy">   -318.72883687 </i>
   </energy>
  </scstep>
  <scstep>
   <time name="dav">   25.52   25.55</time>
   <time name="total">   26.15   26.18</time>
   <energy>
    <i name="e_fr_energy">   -318.73250675 </i>
    <i name="e_wo_entrp">   -318.71997172 </i>
    <i name="e_0_energy">   -318.72832841 </i>
   </energy>
  </scstep>
  <scstep>
   <time name="dav">   19.34   19.36</time>
   <time name="total">   19.97   19.99</time>
   <energy>
    <i name="e_fr_energy">   -318.73171502 </i>
    <i name="e_wo_entrp">   -318.71911965 </i>
    <i name="e_0_energy">   -318.72751656 </i>
   </energy>
  </scstep>
  <scstep>
   <time name="dav">   24.87   24.89</time>
   <time name="total">   25.49   25.52</time>
   <energy>
    <i name="e_fr_energy">   -318.73091701 </i>
    <i name="e_wo_entrp">   -318.71829838 </i>
    <i name="e_0_energy">   -318.72671080 </i>
   </energy>
  </scstep>
  <scstep>
   <time name="dav">   23.48   23.51</time>
   <time name="total">   24.11   24.15</time>
   <energy>
    <i name="e_fr_energy">   -318.72980700 </i>
    <i name="e_wo_entrp">   -318.71721072 </i>
    <i name="e_0_energy">   -318.72560824 </i>
   </energy>
  </scstep>
  <scstep>
   <time name="dav">   20.54   20.56</time>
   <time name="total">   21.17   21.19</time>
   <energy>
    <i name="e_fr_energy">   -318.72968739 </i>
    <i name="e_wo_entrp">   -318.71710109 </i>
    <i name="e_0_energy">   -318.72549196 </i>
   </energy>
  </scstep>
  <scstep>
   <time name="dav">   13.38   13.40</time>
   <time name="total">   14.01   14.02</time>
   <energy>
    <i name="e_fr_energy">   -318.72929684 </i>
    <i name="e_wo_entrp">   -318.71677491 </i>
    <i name="e_0_energy">   -318.72512286 </i>
   </energy>
  </scstep>
  <scstep>
   <time name="dav">   20.94   20.96</time>
   <time name="total">   21.58   21.60</time>
   <energy>
    <i name="e_fr_energy">   -318.72905551 </i>
    <i name="e_wo_entrp">   -318.71659758 </i>
    <i name="e_0_energy">   -318.72490287 </i>
   </energy>
  </scstep>
  <scstep>
   <time name="dav">   13.31   13.32</time>
   <time name="total">   13.34   13.36</time>
   <energy>
    <i name="alphaZ">   1206.99273337 </i>
    <i name="ewald"> -11461.91017046 </i>
    <i name="hartreedc">  -2971.13897780 </i>
    <i name="XCdc">   -888.02142700 </i>
    <i name="pawpsdc">  18894.15169233 </i>
    <i name="pawaedc"> -17384.62186784 </i>
    <i name="eentropy">     -0.01243848 </i>
    <i name="bandstr">   -720.07647444 </i>
    <i name="atom">  13005.90793652 </i>
    <i name="e_fr_energy">   -318.72899378 </i>
    <i name="e_wo_entrp">   -318.71655530 </i>
    <i name="e_0_energy">   -318.72484762 </i>
   </energy>
  </scstep>
  <structure>
   <crystal>
    <varray name="basis" >
     <v>      -3.18000000      -3.18000000      -3.18000000 </v>
     <v>       1.59000000       1.59000000      -7.95000000 </v>
     <v>       7.95000000      -7.95000000      -1.59000000 </v>
    </varray>
    <i name="volume">    482.36148000 </i>
    <varray name="rec_basis" >
     <v>      -0.13626834      -0.12578616      -0.05241090 </v>
     <v>       0.04192872       0.06289308      -0.10482180 </v>
     <v>       0.06289308      -0.06289308       0.00000000 </v>
    </varray>
   </crystal>
   <varray name="positions" >
    <v>       0.96666667       0.93333333       0.40000000 </v>
    <v>       0.63333333       0.26666667       0.40000000 </v>
    <v>       0.50000000       0.00000000       0.00000000 </v>
    <v>       0.00000000       0.00000000       0.00000000 </v>
    <v>       0.10000000       0.20000000       0.80000000 </v>
    <v>       0.03333333       0.06666667       0.60000000 </v>
    <v>       0.90000000       0.80000000       0.20000000 </v>
    <v>       0.80000000       0.60000000       0.40000000 </v>
    <v>       0.73333333       0.46666667       0.20000000 </v>
    <v>       0.66666667       0.33333333       0.00000000 </v>
    <v>       0.36666667       0.73333333       0.60000000 </v>
    <v>       0.13333333       0.26666667       0.40000000 </v>
    <v>       0.83333333       0.66666667       0.00000000 </v>
    <v>       0.93333333       0.86666667       0.80000000 </v>
    <v>       0.56666667       0.13333333       0.20000000 </v>
    <v>       0.40000000       0.80000000       0.20000000 </v>
    <v>       0.43333333       0.86666667       0.80000000 </v>
    <v>       0.30000000       0.60000000       0.40000000 </v>
    <v>       0.86666667       0.73333333       0.60000000 </v>
    <v>       0.46666667       0.93333333       0.40000000 </v>
    <v>       0.16666667       0.33333333       0.00000000 </v>
    <v>       0.26666667       0.53333333       0.80000000 </v>
    <v>       0.20000000       0.40000000       0.60000000 </v>
    <v>       0.06666667       0.13333333       0.20000000 </v>
    <v>       0.76666667       0.53333333       0.80000000 </v>
    <v>       0.70000000       0.40000000       0.60000000 </v>
    <v>       0.60000000       0.20000000       0.80000000 </v>
    <v>       0.53333333       0.06666667       0.60000000 </v>
    <v>       0.33333333       0.66666667       0.00000000 </v>
    <v>       0.23333333       0.46666667       0.20000000 </v>
   </varray>
  </structure>
  <varray name="forces" >
   <v>       0.06359683       0.44626725       0.23522611 </v>
   <v>       0.32399713      -0.14504860       0.01626913 </v>
   <v>      -0.11900543       0.36442474      -0.21232267 </v>
   <v>       0.25066215      -0.02302574      -0.03214681 </v>
   <v>      -0.05319054       0.68294120      -0.52928075 </v>
   <v>      -0.23272427       0.26920619      -0.34277365 </v>
   <v>      -0.00441430      -0.54720941       0.17489954 </v>
   <v>      -0.55553476      -0.29323835       0.58576662 </v>
   <v>      -0.16041174       0.29232034       0.04754756 </v>
   <v>       0.17727526       0.49958626      -0.57556182 </v>
   <v>      -0.13744692      -0.37682909       0.25804090 </v>
   <v>       0.13762765       0.16794326      -0.62422978 </v>
   <v>       0.09729627      -0.48269051       0.45015396 </v>
   <v>       0.23967178       0.36083016      -0.07532910 </v>
   <v>      -0.25900415       0.47738184      -0.12589076 </v>
   <v>      -0.71404348      -0.11864669       0.78478863 </v>
   <v>      -0.84612030      -0.10334234       0.61646823 </v>
   <v>       0.33333080      -0.31863204      -0.20935317 </v>
   <v>       0.08509501       0.22870988       0.48896610 </v>
   <v>       0.55791003      -0.53659642       0.11678952 </v>
   <v>      -0.02949761      -0.16912625      -0.40501170 </v>
   <v>      -0.36518744      -0.02991309      -0.26625375 </v>
   <v>      -0.23465156      -0.08236347       0.51644908 </v>
   <v>       0.62666493      -0.13415470      -0.83935075 </v>
   <v>       0.06767097      -0.36582107       0.57380888 </v>
   <v>       0.55104940       0.13121289      -0.39033086 </v>
   <v>       0.00686836       0.26222145      -0.19242265 </v>
   <v>       0.19007041      -0.44284817      -0.46513632 </v>
   <v>      -0.24432100      -0.24858059       0.58302067 </v>
   <v>       0.24676651       0.23502109      -0.16280039 </v>
  </varray>
  <varray name="stress" >
   <v>     -30.97888122      -3.41968008       0.86046139 </v>
   <v>      -3.41968011     -33.92800739      -0.59438454 </v>
   <v>       0.86046145      -0.59438452     -32.20716939 </v>
  </varray>
  <energy>
   <i name="e_fr_energy">   -318.72899378 </i>
   <i name="e_wo_entrp">   -318.72484762 </i>
   <i name="e_0_energy">     -0.01243848 </i>
  </energy>
  <time name="totalsc">  926.76  933.17</time>
  <eigenvalues>
   <array>
    <dimension dim="1">band</dimension>
    <dimension dim="2">kpoint</dimension>
    <dimension dim="3">spin</dimension>
    <field>eigene</field>
    <field>occ</field>
    <set>
     <set comment="spin 1">
      <set comment="kpoint 1">
       <r>  -47.4491    1.0000 </r>
       <r>  -47.4280    1.0000 </r>
       <r>  -47.3865    1.0000 </r>
       <r>  -47.3353    1.0000 </r>
       <r>  -47.3034    1.0000 </r>
       <r>  -47.2078    1.0000 </r>
       <r>  -24.1776    1.0000 </r>
       <r>  -24.0259    1.0000 </r>
       <r>  -23.8729    1.0000 </r>
       <r>  -23.8288    1.0000 </r>
       <r>  -23.6092    1.0000 </r>
       <r>  -23.6040    1.0000 </r>
       <r>  -23.5994    1.0000 </r>
       <r>  -23.5503    1.0000 </r>
       <r>  -23.5335    1.0000 </r>
       <r>  -23.5150    1.0000 </r>
       <r>  -23.4897    1.0000 </r>
       <r>  -23.4464    1.0000 </r>
       <r>  -23.4060    1.0000 </r>
       <r>  -23.3856    1.0000 </r>
       <r>  -23.2486    1.0000 </r>
       <r>  -23.2307    1.0000 </r>
       <r>  -23.0832    1.0000 </r>
       <r>  -22.8591    1.0000 </r>
       <r>   -0.2233    1.0000 </r>
       <r>    1.0719    1.0000 </r>
       <r>    1.4294    1.0000 </r>
       <r>    2.2294    1.0000 </r>
       <r>    2.3663    1.0000 </r>
       <r>    2.4433    1.0000 </r>
       <r>    2.5498    1.0000 </r>
       <r>    2.6768    1.0000 </r>
       <r>    2.7244    1.0000 </r>
       <r>    2.8048    1.0000 </r>
       <r>    2.8622    1.0000 </r>
       <r>    2.9207    1.0000 </r>
       <r>    2.9805    1.0000 </r>
       <r>    3.0355    1.0000 </r>
       <r>    3.1552    1.0000 </r>
       <r>    3.1835    1.0000 </r>
       <r>    3.2755    1.0000 </r>
       <r>    3.3716    1.0000 </r>
       <r>    3.4767    1.0000 </r>
       <r>    3.5243    1.0000 </r>
       <r>    3.5990    1.0000 </r>
       <r>    3.6435    1.0000 </r>
       <r>    3.7002    1.0000 </r>
       <r>    3.7152    1.0000 </r>
       <r>    3.8782    1.0000 </r>
       <r>    3.9117    1.0000 </r>
       <r>    4.0063    1.0000 </r>
       <r>    4.0573    1.0000 </r>
       <r>    4.1380    1.0000 </r>
       <r>    4.1774    1.0000 </r>
       <r>    4.3105    1.0000 </r>
       <r>    4.3831    1.0000 </r>
       <r>    4.4663    1.0000 </r>
       <r>    4.5139    1.0000 </r>
       <r>    4.6474    1.0000 </r>
       <r>    4.6833    1.0000 </r>
       <r>    4.7654    1.0000 </r>
       <r>    4.8111    1.0000 </r>
       <r>    4.8184    1.0000 </r>
       <r>    4.9116    1.0000 </r>
       <r>    4.9168    1.0000 </r>
       <r>    5.0102    1.0000 </r>
       <r>    5.0236    1.0000 </r>
       <r>    5.1101    1.0000 </r>
       <r>    5.1264    1.0000 </r>
       <r>    5.1793    1.0000 </r>
       <r>    5.2370    1.0000 </r>
       <r>    5.2649    1.0000 </r>
       <r>    5.3251    1.0000 </r>
       <r>    5.3707    1.0000 </r>
       <r>    5.3810    1.0000 </r>
       <r>    5.3993    1.0000 </r>
       <r>    5.4183    1.0000 </r>
       <r>    5.5391    1.0000 </r>
       <r>    5.6036    1.0000 </r>
       <r>    5.6926    1.0000 </r>
       <r>    5.8674    1.0000 </r>
       <r>    5.9145    1.0000 </r>
       <r>    5.9600    1.0001 </r>
       <r>    5.9976    1.0004 </r>
       <r>    6.0494    1.0012 </r>
       <r>    6.1117    1.0044 </r>
       <r>    6.1652    1.0107 </r>
       <r>    6.1998    1.0171 </r>
       <r>    6.2097    1.0193 </r>
       <r>    6.2331    1.0246 </r>
       <r>    6.2612    1.0308 </r>
       <r>    6.2866    1.0347 </r>
       <r>    6.3154    1.0346 </r>
       <r>    6.3800    0.9977 </r>
       <r>    6.5397    0.5280 </r>
       <r>    6.5664    0.4157 </r>
       <r>    6.6537    0.1104 </r>
       <r>    6.6708    0.0702 </r>
       <r>    6.7172   -0.0027 </r>
       <r>    6.8084   -0.0345 </r>
       <r>    6.8696   -0.0223 </r>
       <r>    6.9072   -0.0143 </r>
       <r>    6.9684   -0.0055 </r>
       <r>    6.9812   -0.0044 </r>
       <r>    7.0011   -0.0030 </r>
       <r>    7.1171   -0.0002 </r>
       <r>    7.3570   -0.0000 </r>
       <r>    7.5081   -0.0000 </r>
       <r>    7.5439   -0.0000 </r>
       <r>    7.6295   -0.0000 </r>
       <r>    7.9972   -0.0000 </r>
       <r>    8.1592   -0.0000 </r>
       <r>    8.3027   -0.0000 </r>
       <r>    8.3963   -0.0000 </r>
       <r>    8.4484   -0.0000 </r>
       <r>    8.4585   -0.0000 </r>
       <r>    8.4801   -0.0000 </r>
       <r>    8.5096   -0.0000 </r>
       <r>    8.5846   -0.0000 </r>
       <r>    8.6186   -0.0000 </r>
      </set>
      <set comment="kpoint 2">
       <r>  -47.4468    1.0000 </r>
       <r>  -47.4221    1.0000 </r>
       <r>  -47.3838    1.0000 </r>
       <r>  -47.3342    1.0000 </r>
       <r>  -47.3027    1.0000 </r>
       <r>  -47.2198    1.0000 </r>
       <r>  -24.0831    1.0000 </r>
       <r>  -24.0135    1.0000 </r>
       <r>  -23.8661    1.0000 </r>
       <r>  -23.8225    1.0000 </r>
       <r>  -23.6084    1.0000 </r>
       <r>  -23.6076    1.0000 </r>
       <r>  -23.5949    1.0000 </r>
       <r>  -23.5524    1.0000 </r>
       <r>  -23.5325    1.0000 </r>
       <r>  -23.5194    1.0000 </r>
       <r>  -23.4919    1.0000 </r>
       <r>  -23.4496    1.0000 </r>
       <r>  -23.4161    1.0000 </r>
       <r>  -23.3883    1.0000 </r>
       <r>  -23.2545    1.0000 </r>
       <r>  -23.2361    1.0000 </r>
       <r>  -23.0854    1.0000 </r>
       <r>  -22.9845    1.0000 </r>
       <r>    0.0886    1.0000 </r>
       <r>    1.3473    1.0000 </r>
       <r>    1.6929    1.0000 </r>
       <r>    2.2739    1.0000 </r>
       <r>    2.5814    1.0000 </r>
       <r>    2.6816    1.0000 </r>
       <r>    2.7239    1.0000 </r>
       <r>    2.8470    1.0000 </r>
       <r>    2.8747    1.0000 </r>
       <r>    2.9201    1.0000 </r>
       <r>    3.0541    1.0000 </r>
       <r>    3.1201    1.0000 </r>
       <r>    3.1702    1.0000 </r>
       <r>    3.2661    1.0000 </r>
       <r>    3.2941    1.0000 </r>
       <r>    3.3581    1.0000 </r>
       <r>    3.4060    1.0000 </r>
       <r>    3.4705    1.0000 </r>
       <r>    3.5221    1.0000 </r>
       <r>    3.5628    1.0000 </r>
       <r>    3.6888    1.0000 </r>
       <r>    3.7331    1.0000 </r>
       <r>    3.7976    1.0000 </r>
       <r>    3.8930    1.0000 </r>
       <r>    3.9499    1.0000 </r>
       <r>    3.9645    1.0000 </r>
       <r>    4.0842    1.0000 </r>
       <r>    4.1605    1.0000 </r>
       <r>    4.1884    1.0000 </r>
       <r>    4.2795    1.0000 </r>
       <r>    4.3345    1.0000 </r>
       <r>    4.4103    1.0000 </r>
       <r>    4.4866    1.0000 </r>
       <r>    4.5676    1.0000 </r>
       <r>    4.6854    1.0000 </r>
       <r>    4.7415    1.0000 </r>
       <r>    4.8021    1.0000 </r>
       <r>    4.9331    1.0000 </r>
       <r>    4.9539    1.0000 </r>
       <r>    5.0227    1.0000 </r>
       <r>    5.0543    1.0000 </r>
       <r>    5.0903    1.0000 </r>
       <r>    5.1408    1.0000 </r>
       <r>    5.2003    1.0000 </r>
       <r>    5.2192    1.0000 </r>
       <r>    5.2311    1.0000 </r>
       <r>    5.3010    1.0000 </r>
       <r>    5.3307    1.0000 </r>
       <r>    5.3942    1.0000 </r>
       <r>    5.4136    1.0000 </r>
       <r>    5.4935    1.0000 </r>
       <r>    5.5258    1.0000 </r>
       <r>    5.5455    1.0000 </r>
       <r>    5.5798    1.0000 </r>
       <r>    5.6242    1.0000 </r>
       <r>    5.6646    1.0000 </r>
       <r>    5.6803    1.0000 </r>
       <r>    5.7772    1.0000 </r>
       <r>    5.8305    1.0000 </r>
       <r>    5.8925    1.0000 </r>
       <r>    5.9505    1.0001 </r>
       <r>    6.0006    1.0004 </r>
       <r>    6.0288    1.0008 </r>
       <r>    6.1182    1.0049 </r>
       <r>    6.2107    1.0195 </r>
       <r>    6.2244    1.0226 </r>
       <r>    6.2640    1.0313 </r>
       <r>    6.2965    1.0354 </r>
       <r>    6.3290    1.0320 </r>
       <r>    6.3649    1.0126 </r>
       <r>    6.4527    0.8522 </r>
       <r>    6.4706    0.7966 </r>
       <r>    6.5315    0.5626 </r>
       <r>    6.5617    0.4354 </r>
       <r>    6.6273    0.1866 </r>
       <r>    6.6731    0.0655 </r>
       <r>    6.6980    0.0214 </r>
       <r>    6.7464   -0.0251 </r>
       <r>    6.8364   -0.0298 </r>
       <r>    6.8608   -0.0243 </r>
       <r>    6.8998   -0.0157 </r>
       <r>    6.9391   -0.0090 </r>
       <r>    6.9643   -0.0059 </r>
       <r>    7.1683   -0.0000 </r>
       <r>    7.2810   -0.0000 </r>
       <r>    7.3816   -0.0000 </r>
       <r>    7.6880   -0.0000 </r>
       <r>    7.7129   -0.0000 </r>
       <r>    7.7632   -0.0000 </r>
       <r>    7.8071   -0.0000 </r>
       <r>    7.9061   -0.0000 </r>
       <r>    8.0661   -0.0000 </r>
       <r>    8.1183   -0.0000 </r>
       <r>    8.1760   -0.0000 </r>
       <r>    8.1935   -0.0000 </r>
       <r>    8.2289   -0.0000 </r>
      </set>
      <set comment="kpoint 3">
       <r>  -47.4442    1.0000 </r>
       <r>  -47.4124    1.0000 </r>
       <r>  -47.3766    1.0000 </r>
       <r>  -47.3308    1.0000 </r>
       <r>  -47.3005    1.0000 </r>
       <r>  -47.2440    1.0000 </r>
       <r>  -24.0367    1.0000 </r>
       <r>  -23.8871    1.0000 </r>
       <r>  -23.8392    1.0000 </r>
       <r>  -23.7160    1.0000 </r>
       <r>  -23.6167    1.0000 </r>
       <r>  -23.6101    1.0000 </r>
       <r>  -23.5817    1.0000 </r>
       <r>  -23.5543    1.0000 </r>
       <r>  -23.5319    1.0000 </r>
       <r>  -23.5194    1.0000 </r>
       <r>  -23.4961    1.0000 </r>
       <r>  -23.4558    1.0000 </r>
       <r>  -23.4388    1.0000 </r>
       <r>  -23.3936    1.0000 </r>
       <r>  -23.3303    1.0000 </r>
       <r>  -23.2599    1.0000 </r>
       <r>  -23.2254    1.0000 </r>
       <r>  -23.0798    1.0000 </r>
       <r>    0.9251    1.0000 </r>
       <r>    1.8694    1.0000 </r>
       <r>    2.2008    1.0000 </r>
       <r>    2.4170    1.0000 </r>
       <r>    2.4965    1.0000 </r>
       <r>    2.8604    1.0000 </r>
       <r>    2.9160    1.0000 </r>
       <r>    3.0933    1.0000 </r>
       <r>    3.1970    1.0000 </r>
       <r>    3.2723    1.0000 </r>
       <r>    3.3202    1.0000 </r>
       <r>    3.3640    1.0000 </r>
       <r>    3.4319    1.0000 </r>
       <r>    3.4632    1.0000 </r>
       <r>    3.5551    1.0000 </r>
       <r>    3.6152    1.0000 </r>
       <r>    3.6868    1.0000 </r>
       <r>    3.7225    1.0000 </r>
       <r>    3.7407    1.0000 </r>
       <r>    3.8265    1.0000 </r>
       <r>    3.9321    1.0000 </r>
       <r>    3.9357    1.0000 </r>
       <r>    4.0079    1.0000 </r>
       <r>    4.0397    1.0000 </r>
       <r>    4.1400    1.0000 </r>
       <r>    4.1674    1.0000 </r>
       <r>    4.3008    1.0000 </r>
       <r>    4.3536    1.0000 </r>
       <r>    4.4133    1.0000 </r>
       <r>    4.4956    1.0000 </r>
       <r>    4.5562    1.0000 </r>
       <r>    4.6239    1.0000 </r>
       <r>    4.6962    1.0000 </r>
       <r>    4.7443    1.0000 </r>
       <r>    4.7740    1.0000 </r>
       <r>    4.8348    1.0000 </r>
       <r>    4.8656    1.0000 </r>
       <r>    4.9106    1.0000 </r>
       <r>    4.9695    1.0000 </r>
       <r>    4.9995    1.0000 </r>
       <r>    5.0337    1.0000 </r>
       <r>    5.1158    1.0000 </r>
       <r>    5.1400    1.0000 </r>
       <r>    5.1701    1.0000 </r>
       <r>    5.2091    1.0000 </r>
       <r>    5.2721    1.0000 </r>
       <r>    5.3218    1.0000 </r>
       <r>    5.3753    1.0000 </r>
       <r>    5.4125    1.0000 </r>
       <r>    5.4575    1.0000 </r>
       <r>    5.5009    1.0000 </r>
       <r>    5.5608    1.0000 </r>
       <r>    5.6150    1.0000 </r>
       <r>    5.6400    1.0000 </r>
       <r>    5.6519    1.0000 </r>
       <r>    5.6990    1.0000 </r>
       <r>    5.7924    1.0000 </r>
       <r>    5.8375    1.0000 </r>
       <r>    5.8722    1.0000 </r>
       <r>    5.9139    1.0000 </r>
       <r>    5.9671    1.0002 </r>
       <r>    6.0114    1.0005 </r>
       <r>    6.0732    1.0021 </r>
       <r>    6.1090    1.0042 </r>
       <r>    6.1478    1.0082 </r>
       <r>    6.1751    1.0124 </r>
       <r>    6.2060    1.0185 </r>
       <r>    6.2433    1.0270 </r>
       <r>    6.2756    1.0333 </r>
       <r>    6.3070    1.0353 </r>
       <r>    6.3126    1.0349 </r>
       <r>    6.3969    0.9752 </r>
       <r>    6.4397    0.8878 </r>
       <r>    6.4729    0.7886 </r>
       <r>    6.5131    0.6383 </r>
       <r>    6.5215    0.6044 </r>
       <r>    6.5652    0.4205 </r>
       <r>    6.6130    0.2346 </r>
       <r>    6.6209    0.2075 </r>
       <r>    6.7049    0.0119 </r>
       <r>    6.7094    0.0061 </r>
       <r>    6.7843   -0.0353 </r>
       <r>    6.8369   -0.0297 </r>
       <r>    6.8647   -0.0234 </r>
       <r>    6.8907   -0.0176 </r>
       <r>    6.9601   -0.0064 </r>
       <r>    6.9984   -0.0032 </r>
       <r>    7.0443   -0.0012 </r>
       <r>    7.3277   -0.0000 </r>
       <r>    7.4490   -0.0000 </r>
       <r>    7.4714   -0.0000 </r>
       <r>    7.6020   -0.0000 </r>
       <r>    7.6872   -0.0000 </r>
       <r>    7.7072   -0.0000 </r>
       <r>    7.8260   -0.0000 </r>
       <r>    7.9342   -0.0000 </r>
      </set>
      <set comment="kpoint 4">
       <r>  -47.4489    1.0000 </r>
       <r>  -47.4279    1.0000 </r>
       <r>  -47.3864    1.0000 </r>
       <r>  -47.3356    1.0000 </r>
       <r>  -47.3035    1.0000 </r>
       <r>  -47.2078    1.0000 </r>
       <r>  -24.1776    1.0000 </r>
       <r>  -24.0248    1.0000 </r>
       <r>  -23.8692    1.0000 </r>
       <r>  -23.8279    1.0000 </r>
       <r>  -23.6093    1.0000 </r>
       <r>  -23.6041    1.0000 </r>
       <r>  -23.5995    1.0000 </r>
       <r>  -23.5504    1.0000 </r>
       <r>  -23.5335    1.0000 </r>
       <r>  -23.5149    1.0000 </r>
       <r>  -23.4896    1.0000 </r>
       <r>  -23.4463    1.0000 </r>
       <r>  -23.4060    1.0000 </r>
       <r>  -23.3857    1.0000 </r>
       <r>  -23.2513    1.0000 </r>
       <r>  -23.2342    1.0000 </r>
       <r>  -23.0836    1.0000 </r>
       <r>  -22.8591    1.0000 </r>
       <r>   -0.0920    1.0000 </r>
       <r>    1.1368    1.0000 </r>
       <r>    1.5503    1.0000 </r>
       <r>    1.7690    1.0000 </r>
       <r>    2.3385    1.0000 </r>
       <r>    2.4999    1.0000 </r>
       <r>    2.5756    1.0000 </r>
       <r>    2.6932    1.0000 </r>
       <r>    2.7092    1.0000 </r>
       <r>    2.7954    1.0000 </r>
       <r>    2.8906    1.0000 </r>
       <r>    2.9482    1.0000 </r>
       <r>    2.9920    1.0000 </r>
       <r>    3.0386    1.0000 </r>
       <r>    3.1018    1.0000 </r>
       <r>    3.1398    1.0000 </r>
       <r>    3.2996    1.0000 </r>
       <r>    3.3364    1.0000 </r>
       <r>    3.4467    1.0000 </r>
       <r>    3.5194    1.0000 </r>
       <r>    3.6122    1.0000 </r>
       <r>    3.6996    1.0000 </r>
       <r>    3.7179    1.0000 </r>
       <r>    3.8248    1.0000 </r>
       <r>    3.8595    1.0000 </r>
       <r>    3.9459    1.0000 </r>
       <r>    4.0171    1.0000 </r>
       <r>    4.0870    1.0000 </r>
       <r>    4.1136    1.0000 </r>
       <r>    4.1709    1.0000 </r>
       <r>    4.2454    1.0000 </r>
       <r>    4.3268    1.0000 </r>
       <r>    4.4231    1.0000 </r>
       <r>    4.5872    1.0000 </r>
       <r>    4.6688    1.0000 </r>
       <r>    4.7327    1.0000 </r>
       <r>    4.7730    1.0000 </r>
       <r>    4.8813    1.0000 </r>
       <r>    4.9157    1.0000 </r>
       <r>    4.9652    1.0000 </r>
       <r>    5.0123    1.0000 </r>
       <r>    5.0444    1.0000 </r>
       <r>    5.1024    1.0000 </r>
       <r>    5.1550    1.0000 </r>
       <r>    5.1770    1.0000 </r>
       <r>    5.2077    1.0000 </r>
       <r>    5.2612    1.0000 </r>
       <r>    5.2903    1.0000 </r>
       <r>    5.3289    1.0000 </r>
       <r>    5.3900    1.0000 </r>
       <r>    5.4312    1.0000 </r>
       <r>    5.4601    1.0000 </r>
       <r>    5.5088    1.0000 </r>
       <r>    5.5312    1.0000 </r>
       <r>    5.6425    1.0000 </r>
       <r>    5.6765    1.0000 </r>
       <r>    5.8769    1.0000 </r>
       <r>    5.8978    1.0000 </r>
       <r>    5.9720    1.0002 </r>
       <r>    6.0012    1.0004 </r>
       <r>    6.0392    1.0010 </r>
       <r>    6.0530    1.0013 </r>
       <r>    6.0869    1.0027 </r>
       <r>    6.1372    1.0069 </r>
       <r>    6.1782    1.0129 </r>
       <r>    6.1961    1.0164 </r>
       <r>    6.2343    1.0249 </r>
       <r>    6.2709    1.0326 </r>
       <r>    6.3093    1.0352 </r>
       <r>    6.3468    1.0249 </r>
       <r>    6.4005    0.9697 </r>
       <r>    6.4104    0.9525 </r>
       <r>    6.4786    0.7693 </r>
       <r>    6.5404    0.5250 </r>
       <r>    6.5931    0.3082 </r>
       <r>    6.8548   -0.0257 </r>
       <r>    6.9014   -0.0154 </r>
       <r>    6.9255   -0.0110 </r>
       <r>    7.0000   -0.0031 </r>
       <r>    7.0686   -0.0007 </r>
       <r>    7.1681   -0.0001 </r>
       <r>    7.2001   -0.0000 </r>
       <r>    7.3330   -0.0000 </r>
       <r>    7.5147   -0.0000 </r>
       <r>    7.5447   -0.0000 </r>
       <r>    7.6276   -0.0000 </r>
       <r>    7.7445   -0.0000 </r>
       <r>    7.8144   -0.0000 </r>
       <r>    7.9442   -0.0000 </r>
       <r>    8.1535   -0.0000 </r>
       <r>    8.2282   -0.0000 </r>
       <r>    8.3577   -0.0000 </r>
       <r>    8.3832   -0.0000 </r>
       <r>    8.4401   -0.0000 </r>
       <r>    8.4791   -0.0000 </r>
       <r>    8.5238   -0.0000 </r>
      </set>
      <set comment="kpoint 5">
       <r>  -47.4469    1.0000 </r>
       <r>  -47.4223    1.0000 </r>
       <r>  -47.3838    1.0000 </r>
       <r>  -47.3340    1.0000 </r>
       <r>  -47.3027    1.0000 </r>
       <r>  -47.2198    1.0000 </r>
       <r>  -24.0832    1.0000 </r>
       <r>  -24.0145    1.0000 </r>
       <r>  -23.8700    1.0000 </r>
       <r>  -23.8231    1.0000 </r>
       <r>  -23.6085    1.0000 </r>
       <r>  -23.6075    1.0000 </r>
       <r>  -23.5948    1.0000 </r>
       <r>  -23.5525    1.0000 </r>
       <r>  -23.5324    1.0000 </r>
       <r>  -23.5194    1.0000 </r>
       <r>  -23.4919    1.0000 </r>
       <r>  -23.4496    1.0000 </r>
       <r>  -23.4160    1.0000 </r>
       <r>  -23.3882    1.0000 </r>
       <r>  -23.2524    1.0000 </r>
       <r>  -23.2321    1.0000 </r>
       <r>  -23.0850    1.0000 </r>
       <r>  -22.9844    1.0000 </r>
       <r>    0.0934    1.0000 </r>
       <r>    1.3076    1.0000 </r>
       <r>    1.7215    1.0000 </r>
       <r>    2.2506    1.0000 </r>
       <r>    2.5305    1.0000 </r>
       <r>    2.6726    1.0000 </r>
       <r>    2.6779    1.0000 </r>
       <r>    2.7733    1.0000 </r>
       <r>    2.8283    1.0000 </r>
       <r>    2.9150    1.0000 </r>
       <r>    2.9742    1.0000 </r>
       <r>    3.0735    1.0000 </r>
       <r>    3.1671    1.0000 </r>
       <r>    3.2276    1.0000 </r>
       <r>    3.2719    1.0000 </r>
       <r>    3.3296    1.0000 </r>
       <r>    3.3713    1.0000 </r>
       <r>    3.3826    1.0000 </r>
       <r>    3.5898    1.0000 </r>
       <r>    3.6286    1.0000 </r>
       <r>    3.6852    1.0000 </r>
       <r>    3.7602    1.0000 </r>
       <r>    3.8145    1.0000 </r>
       <r>    3.8927    1.0000 </r>
       <r>    4.0024    1.0000 </r>
       <r>    4.0528    1.0000 </r>
       <r>    4.0808    1.0000 </r>
       <r>    4.1724    1.0000 </r>
       <r>    4.2480    1.0000 </r>
       <r>    4.3132    1.0000 </r>
       <r>    4.3758    1.0000 </r>
       <r>    4.4298    1.0000 </r>
       <r>    4.5408    1.0000 </r>
       <r>    4.6210    1.0000 </r>
       <r>    4.6933    1.0000 </r>
       <r>    4.7737    1.0000 </r>
       <r>    4.8264    1.0000 </r>
       <r>    4.8478    1.0000 </r>
       <r>    4.9381    1.0000 </r>
       <r>    4.9568    1.0000 </r>
       <r>    4.9929    1.0000 </r>
       <r>    5.0801    1.0000 </r>
       <r>    5.1125    1.0000 </r>
       <r>    5.1520    1.0000 </r>
       <r>    5.1929    1.0000 </r>
       <r>    5.2174    1.0000 </r>
       <r>    5.2524    1.0000 </r>
       <r>    5.2715    1.0000 </r>
       <r>    5.2999    1.0000 </r>
       <r>    5.3571    1.0000 </r>
       <r>    5.3865    1.0000 </r>
       <r>    5.4524    1.0000 </r>
       <r>    5.5353    1.0000 </r>
       <r>    5.5579    1.0000 </r>
       <r>    5.6382    1.0000 </r>
       <r>    5.7047    1.0000 </r>
       <r>    5.7589    1.0000 </r>
       <r>    5.8208    1.0000 </r>
       <r>    5.8901    1.0000 </r>
       <r>    5.9060    1.0000 </r>
       <r>    5.9579    1.0001 </r>
       <r>    6.0212    1.0006 </r>
       <r>    6.0673    1.0018 </r>
       <r>    6.1462    1.0080 </r>
       <r>    6.1678    1.0111 </r>
       <r>    6.2103    1.0194 </r>
       <r>    6.2421    1.0267 </r>
       <r>    6.2717    1.0327 </r>
       <r>    6.3079    1.0353 </r>
       <r>    6.3331    1.0307 </r>
       <r>    6.4270    0.9185 </r>
       <r>    6.4800    0.7643 </r>
       <r>    6.5273    0.5802 </r>
       <r>    6.6102    0.2444 </r>
       <r>    6.6615    0.0910 </r>
       <r>    6.7114    0.0038 </r>
       <r>    6.7565   -0.0296 </r>
       <r>    6.8164   -0.0334 </r>
       <r>    6.8747   -0.0212 </r>
       <r>    6.9106   -0.0136 </r>
       <r>    6.9387   -0.0090 </r>
       <r>    7.0114   -0.0024 </r>
       <r>    7.0678   -0.0007 </r>
       <r>    7.1195   -0.0002 </r>
       <r>    7.2036   -0.0000 </r>
       <r>    7.2386   -0.0000 </r>
       <r>    7.3126   -0.0000 </r>
       <r>    7.6946   -0.0000 </r>
       <r>    8.0038   -0.0000 </r>
       <r>    8.1091   -0.0000 </r>
       <r>    8.1836   -0.0000 </r>
       <r>    8.2169   -0.0000 </r>
       <r>    8.3705   -0.0000 </r>
       <r>    8.4341   -0.0000 </r>
       <r>    8.4728   -0.0000 </r>
       <r>    8.5504   -0.0000 </r>
      </set>
      <set comment="kpoint 6">
       <r>  -47.4445    1.0000 </r>
       <r>  -47.4126    1.0000 </r>
       <r>  -47.3766    1.0000 </r>
       <r>  -47.3305    1.0000 </r>
       <r>  -47.3004    1.0000 </r>
       <r>  -47.2440    1.0000 </r>
       <r>  -24.0382    1.0000 </r>
       <r>  -23.8907    1.0000 </r>
       <r>  -23.8434    1.0000 </r>
       <r>  -23.7159    1.0000 </r>
       <r>  -23.6167    1.0000 </r>
       <r>  -23.6100    1.0000 </r>
       <r>  -23.5816    1.0000 </r>
       <r>  -23.5543    1.0000 </r>
       <r>  -23.5319    1.0000 </r>
       <r>  -23.5193    1.0000 </r>
       <r>  -23.4961    1.0000 </r>
       <r>  -23.4558    1.0000 </r>
       <r>  -23.4387    1.0000 </r>
       <r>  -23.3935    1.0000 </r>
       <r>  -23.3303    1.0000 </r>
       <r>  -23.2519    1.0000 </r>
       <r>  -23.2232    1.0000 </r>
       <r>  -23.0794    1.0000 </r>
       <r>    0.8296    1.0000 </r>
       <r>    1.8089    1.0000 </r>
       <r>    2.1604    1.0000 </r>
       <r>    2.3607    1.0000 </r>
       <r>    2.4926    1.0000 </r>
       <r>    2.6280    1.0000 </r>
       <r>    2.9303    1.0000 </r>
       <r>    3.1293    1.0000 </r>
       <r>    3.2302    1.0000 </r>
       <r>    3.2915    1.0000 </r>
       <r>    3.3688    1.0000 </r>
       <r>    3.3945    1.0000 </r>
       <r>    3.4626    1.0000 </r>
       <r>    3.5281    1.0000 </r>
       <r>    3.5388    1.0000 </r>
       <r>    3.6370    1.0000 </r>
       <r>    3.7032    1.0000 </r>
       <r>    3.7213    1.0000 </r>
       <r>    3.8111    1.0000 </r>
       <r>    3.8499    1.0000 </r>
       <r>    3.8820    1.0000 </r>
       <r>    3.9240    1.0000 </r>
       <r>    3.9973    1.0000 </r>
       <r>    4.0728    1.0000 </r>
       <r>    4.1379    1.0000 </r>
       <r>    4.2089    1.0000 </r>
       <r>    4.2584    1.0000 </r>
       <r>    4.3310    1.0000 </r>
       <r>    4.3842    1.0000 </r>
       <r>    4.4161    1.0000 </r>
       <r>    4.4837    1.0000 </r>
       <r>    4.5363    1.0000 </r>
       <r>    4.5913    1.0000 </r>
       <r>    4.6751    1.0000 </r>
       <r>    4.7458    1.0000 </r>
       <r>    4.8647    1.0000 </r>
       <r>    4.8926    1.0000 </r>
       <r>    4.9117    1.0000 </r>
       <r>    4.9765    1.0000 </r>
       <r>    5.0293    1.0000 </r>
       <r>    5.0653    1.0000 </r>
       <r>    5.1208    1.0000 </r>
       <r>    5.1479    1.0000 </r>
       <r>    5.2014    1.0000 </r>
       <r>    5.2334    1.0000 </r>
       <r>    5.2826    1.0000 </r>
       <r>    5.3353    1.0000 </r>
       <r>    5.3469    1.0000 </r>
       <r>    5.3888    1.0000 </r>
       <r>    5.4454    1.0000 </r>
       <r>    5.4810    1.0000 </r>
       <r>    5.5248    1.0000 </r>
       <r>    5.5513    1.0000 </r>
       <r>    5.6480    1.0000 </r>
       <r>    5.6856    1.0000 </r>
       <r>    5.7531    1.0000 </r>
       <r>    5.7754    1.0000 </r>
       <r>    5.8416    1.0000 </r>
       <r>    5.8887    1.0000 </r>
       <r>    5.9132    1.0000 </r>
       <r>    5.9327    1.0001 </r>
       <r>    5.9630    1.0001 </r>
       <r>    6.0418    1.0010 </r>
       <r>    6.0556    1.0014 </r>
       <r>    6.1032    1.0037 </r>
       <r>    6.1415    1.0074 </r>
       <r>    6.1685    1.0112 </r>
       <r>    6.2112    1.0196 </r>
       <r>    6.2321    1.0244 </r>
       <r>    6.2707    1.0325 </r>
       <r>    6.2999    1.0354 </r>
       <r>    6.3273    1.0324 </r>
       <r>    6.3739    1.0043 </r>
       <r>    6.4049    0.9623 </r>
       <r>    6.4289    0.9142 </r>
       <r>    6.4615    0.8257 </r>
       <r>    6.5000    0.6903 </r>
       <r>    6.5620    0.4339 </r>
       <r>    6.6065    0.2577 </r>
       <r>    6.6413    0.1441 </r>
       <r>    6.6913    0.0318 </r>
       <r>    6.7081    0.0077 </r>
       <r>    6.8304   -0.0310 </r>
       <r>    6.9371   -0.0093 </r>
       <r>    6.9809   -0.0044 </r>
       <r>    7.0680   -0.0007 </r>
       <r>    7.1408   -0.0001 </r>
       <r>    7.4859   -0.0000 </r>
       <r>    7.6063   -0.0000 </r>
       <r>    7.6706   -0.0000 </r>
       <r>    7.7519   -0.0000 </r>
       <r>    7.8678   -0.0000 </r>
       <r>    7.9321   -0.0000 </r>
       <r>    7.9924   -0.0000 </r>
       <r>    8.0539   -0.0000 </r>
       <r>    8.0922   -0.0000 </r>
      </set>
      <set comment="kpoint 7">
       <r>  -47.4442    1.0000 </r>
       <r>  -47.4124    1.0000 </r>
       <r>  -47.3766    1.0000 </r>
       <r>  -47.3308    1.0000 </r>
       <r>  -47.3005    1.0000 </r>
       <r>  -47.2440    1.0000 </r>
       <r>  -24.0367    1.0000 </r>
       <r>  -23.8871    1.0000 </r>
       <r>  -23.8391    1.0000 </r>
       <r>  -23.7160    1.0000 </r>
       <r>  -23.6168    1.0000 </r>
       <r>  -23.6101    1.0000 </r>
       <r>  -23.5817    1.0000 </r>
       <r>  -23.5543    1.0000 </r>
       <r>  -23.5318    1.0000 </r>
       <r>  -23.5194    1.0000 </r>
       <r>  -23.4961    1.0000 </r>
       <r>  -23.4558    1.0000 </r>
       <r>  -23.4388    1.0000 </r>
       <r>  -23.3936    1.0000 </r>
       <r>  -23.3303    1.0000 </r>
       <r>  -23.2599    1.0000 </r>
       <r>  -23.2255    1.0000 </r>
       <r>  -23.0798    1.0000 </r>
       <r>    1.1891    1.0000 </r>
       <r>    1.8528    1.0000 </r>
       <r>    1.9769    1.0000 </r>
       <r>    2.2671    1.0000 </r>
       <r>    2.5415    1.0000 </r>
       <r>    2.7707    1.0000 </r>
       <r>    2.8643    1.0000 </r>
       <r>    2.9752    1.0000 </r>
       <r>    3.2075    1.0000 </r>
       <r>    3.2623    1.0000 </r>
       <r>    3.3359    1.0000 </r>
       <r>    3.3637    1.0000 </r>
       <r>    3.4115    1.0000 </r>
       <r>    3.4965    1.0000 </r>
       <r>    3.5482    1.0000 </r>
       <r>    3.6185    1.0000 </r>
       <r>    3.6583    1.0000 </r>
       <r>    3.7041    1.0000 </r>
       <r>    3.7770    1.0000 </r>
       <r>    3.8272    1.0000 </r>
       <r>    3.9024    1.0000 </r>
       <r>    3.9991    1.0000 </r>
       <r>    4.0398    1.0000 </r>
       <r>    4.1331    1.0000 </r>
       <r>    4.2033    1.0000 </r>
       <r>    4.2611    1.0000 </r>
       <r>    4.2883    1.0000 </r>
       <r>    4.3447    1.0000 </r>
       <r>    4.4052    1.0000 </r>
       <r>    4.5114    1.0000 </r>
       <r>    4.5973    1.0000 </r>
       <r>    4.6862    1.0000 </r>
       <r>    4.7404    1.0000 </r>
       <r>    4.7732    1.0000 </r>
       <r>    4.7847    1.0000 </r>
       <r>    4.8240    1.0000 </r>
       <r>    4.8397    1.0000 </r>
       <r>    4.9181    1.0000 </r>
       <r>    4.9307    1.0000 </r>
       <r>    4.9983    1.0000 </r>
       <r>    5.0384    1.0000 </r>
       <r>    5.0945    1.0000 </r>
       <r>    5.1483    1.0000 </r>
       <r>    5.1920    1.0000 </r>
       <r>    5.2229    1.0000 </r>
       <r>    5.2423    1.0000 </r>
       <r>    5.2484    1.0000 </r>
       <r>    5.3578    1.0000 </r>
       <r>    5.3858    1.0000 </r>
       <r>    5.4315    1.0000 </r>
       <r>    5.5002    1.0000 </r>
       <r>    5.5107    1.0000 </r>
       <r>    5.5645    1.0000 </r>
       <r>    5.5908    1.0000 </r>
       <r>    5.6825    1.0000 </r>
       <r>    5.7345    1.0000 </r>
       <r>    5.7511    1.0000 </r>
       <r>    5.8109    1.0000 </r>
       <r>    5.8356    1.0000 </r>
       <r>    5.8886    1.0000 </r>
       <r>    5.9909    1.0003 </r>
       <r>    6.0243    1.0007 </r>
       <r>    6.0700    1.0019 </r>
       <r>    6.1030    1.0037 </r>
       <r>    6.1494    1.0084 </r>
       <r>    6.1815    1.0135 </r>
       <r>    6.2348    1.0250 </r>
       <r>    6.2500    1.0284 </r>
       <r>    6.2791    1.0338 </r>
       <r>    6.3140    1.0348 </r>
       <r>    6.3529    1.0214 </r>
       <r>    6.4056    0.9612 </r>
       <r>    6.4375    0.8933 </r>
       <r>    6.4862    0.7422 </r>
       <r>    6.5083    0.6579 </r>
       <r>    6.5388    0.5318 </r>
       <r>    6.5707    0.3977 </r>
       <r>    6.6032    0.2699 </r>
       <r>    6.6359    0.1600 </r>
       <r>    6.6830    0.0462 </r>
       <r>    6.7039    0.0131 </r>
       <r>    6.7456   -0.0248 </r>
       <r>    6.7846   -0.0353 </r>
       <r>    6.8064   -0.0347 </r>
       <r>    6.9077   -0.0142 </r>
       <r>    6.9640   -0.0059 </r>
       <r>    7.1000   -0.0003 </r>
       <r>    7.1276   -0.0002 </r>
       <r>    7.1577   -0.0001 </r>
       <r>    7.2735   -0.0000 </r>
       <r>    7.5491   -0.0000 </r>
       <r>    7.7208   -0.0000 </r>
       <r>    7.9345   -0.0000 </r>
       <r>    7.9470   -0.0000 </r>
       <r>    8.0060   -0.0000 </r>
       <r>    8.0431   -0.0000 </r>
      </set>
      <set comment="kpoint 8">
       <r>  -47.4465    1.0000 </r>
       <r>  -47.4219    1.0000 </r>
       <r>  -47.3838    1.0000 </r>
       <r>  -47.3346    1.0000 </r>
       <r>  -47.3029    1.0000 </r>
       <r>  -47.2198    1.0000 </r>
       <r>  -24.0829    1.0000 </r>
       <r>  -24.0118    1.0000 </r>
       <r>  -23.8597    1.0000 </r>
       <r>  -23.8213    1.0000 </r>
       <r>  -23.6087    1.0000 </r>
       <r>  -23.6076    1.0000 </r>
       <r>  -23.5950    1.0000 </r>
       <r>  -23.5525    1.0000 </r>
       <r>  -23.5324    1.0000 </r>
       <r>  -23.5193    1.0000 </r>
       <r>  -23.4918    1.0000 </r>
       <r>  -23.4495    1.0000 </r>
       <r>  -23.4162    1.0000 </r>
       <r>  -23.3884    1.0000 </r>
       <r>  -23.2602    1.0000 </r>
       <r>  -23.2408    1.0000 </r>
       <r>  -23.0859    1.0000 </r>
       <r>  -22.9845    1.0000 </r>
       <r>    0.3282    1.0000 </r>
       <r>    1.4533    1.0000 </r>
       <r>    1.7033    1.0000 </r>
       <r>    1.8972    1.0000 </r>
       <r>    2.4502    1.0000 </r>
       <r>    2.7317    1.0000 </r>
       <r>    2.8204    1.0000 </r>
       <r>    2.9038    1.0000 </r>
       <r>    2.9150    1.0000 </r>
       <r>    2.9586    1.0000 </r>
       <r>    3.0981    1.0000 </r>
       <r>    3.1356    1.0000 </r>
       <r>    3.1665    1.0000 </r>
       <r>    3.2261    1.0000 </r>
       <r>    3.2485    1.0000 </r>
       <r>    3.2959    1.0000 </r>
       <r>    3.3512    1.0000 </r>
       <r>    3.4203    1.0000 </r>
       <r>    3.5136    1.0000 </r>
       <r>    3.5830    1.0000 </r>
       <r>    3.6565    1.0000 </r>
       <r>    3.7294    1.0000 </r>
       <r>    3.7981    1.0000 </r>
       <r>    3.9130    1.0000 </r>
       <r>    3.9510    1.0000 </r>
       <r>    4.0256    1.0000 </r>
       <r>    4.0627    1.0000 </r>
       <r>    4.1326    1.0000 </r>
       <r>    4.1943    1.0000 </r>
       <r>    4.2903    1.0000 </r>
       <r>    4.3568    1.0000 </r>
       <r>    4.4270    1.0000 </r>
       <r>    4.5975    1.0000 </r>
       <r>    4.6482    1.0000 </r>
       <r>    4.7188    1.0000 </r>
       <r>    4.7814    1.0000 </r>
       <r>    4.8711    1.0000 </r>
       <r>    4.9190    1.0000 </r>
       <r>    4.9474    1.0000 </r>
       <r>    5.0348    1.0000 </r>
       <r>    5.1154    1.0000 </r>
       <r>    5.1258    1.0000 </r>
       <r>    5.2068    1.0000 </r>
       <r>    5.2331    1.0000 </r>
       <r>    5.2708    1.0000 </r>
       <r>    5.2891    1.0000 </r>
       <r>    5.3846    1.0000 </r>
       <r>    5.4204    1.0000 </r>
       <r>    5.4275    1.0000 </r>
       <r>    5.4765    1.0000 </r>
       <r>    5.5128    1.0000 </r>
       <r>    5.5712    1.0000 </r>
       <r>    5.6039    1.0000 </r>
       <r>    5.6188    1.0000 </r>
       <r>    5.6434    1.0000 </r>
       <r>    5.7098    1.0000 </r>
       <r>    5.7278    1.0000 </r>
       <r>    5.7638    1.0000 </r>
       <r>    5.7976    1.0000 </r>
       <r>    5.8548    1.0000 </r>
       <r>    5.9392    1.0001 </r>
       <r>    6.0301    1.0008 </r>
       <r>    6.0660    1.0018 </r>
       <r>    6.1098    1.0042 </r>
       <r>    6.1576    1.0096 </r>
       <r>    6.1930    1.0157 </r>
       <r>    6.2428    1.0269 </r>
       <r>    6.2936    1.0352 </r>
       <r>    6.3295    1.0318 </r>
       <r>    6.3920    0.9824 </r>
       <r>    6.4356    0.8981 </r>
       <r>    6.4592    0.8326 </r>
       <r>    6.4962    0.7049 </r>
       <r>    6.5137    0.6361 </r>
       <r>    6.5445    0.5078 </r>
       <r>    6.6319    0.1720 </r>
       <r>    6.6717    0.0684 </r>
       <r>    6.6950    0.0259 </r>
       <r>    6.7297   -0.0142 </r>
       <r>    6.7578   -0.0301 </r>
       <r>    6.8007   -0.0351 </r>
       <r>    6.8604   -0.0244 </r>
       <r>    6.8994   -0.0158 </r>
       <r>    7.0353   -0.0015 </r>
       <r>    7.1575   -0.0001 </r>
       <r>    7.2111   -0.0000 </r>
       <r>    7.2927   -0.0000 </r>
       <r>    7.4499   -0.0000 </r>
       <r>    7.7101   -0.0000 </r>
       <r>    7.7760   -0.0000 </r>
       <r>    7.8151   -0.0000 </r>
       <r>    7.9080   -0.0000 </r>
       <r>    7.9847   -0.0000 </r>
       <r>    8.0629   -0.0000 </r>
       <r>    8.1154   -0.0000 </r>
       <r>    8.2371   -0.0000 </r>
      </set>
      <set comment="kpoint 9">
       <r>  -47.4487    1.0000 </r>
       <r>  -47.4276    1.0000 </r>
       <r>  -47.3864    1.0000 </r>
       <r>  -47.3360    1.0000 </r>
       <r>  -47.3036    1.0000 </r>
       <r>  -47.2078    1.0000 </r>
       <r>  -24.1776    1.0000 </r>
       <r>  -24.0230    1.0000 </r>
       <r>  -23.8634    1.0000 </r>
       <r>  -23.8259    1.0000 </r>
       <r>  -23.6094    1.0000 </r>
       <r>  -23.6043    1.0000 </r>
       <r>  -23.5996    1.0000 </r>
       <r>  -23.5505    1.0000 </r>
       <r>  -23.5335    1.0000 </r>
       <r>  -23.5147    1.0000 </r>
       <r>  -23.4894    1.0000 </r>
       <r>  -23.4462    1.0000 </r>
       <r>  -23.4061    1.0000 </r>
       <r>  -23.3858    1.0000 </r>
       <r>  -23.2581    1.0000 </r>
       <r>  -23.2378    1.0000 </r>
       <r>  -23.0841    1.0000 </r>
       <r>  -22.8591    1.0000 </r>
[...]
       <r>    4.8334    1.0000 </r>
       <r>    4.8835    1.0000 </r>
       <r>    4.9001    1.0000 </r>
       <r>    4.9550    1.0000 </r>
       <r>    5.0106    1.0000 </r>
       <r>    5.0413    1.0000 </r>
       <r>    5.0907    1.0000 </r>
       <r>    5.1491    1.0000 </r>
       <r>    5.1934    1.0000 </r>
       <r>    5.2112    1.0000 </r>
       <r>    5.3238    1.0000 </r>
       <r>    5.3738    1.0000 </r>
       <r>    5.4044    1.0000 </r>
       <r>    5.4333    1.0000 </r>
       <r>    5.5177    1.0000 </r>
       <r>    5.5564    1.0000 </r>
       <r>    5.5898    1.0000 </r>
       <r>    5.6234    1.0000 </r>
       <r>    5.6848    1.0000 </r>
       <r>    5.7199    1.0000 </r>
       <r>    5.7907    1.0000 </r>
       <r>    5.8398    1.0000 </r>
       <r>    5.8891    1.0000 </r>
       <r>    5.9378    1.0001 </r>
       <r>    5.9724    1.0002 </r>
       <r>    6.0056    1.0004 </r>
       <r>    6.0650    1.0017 </r>
       <r>    6.0697    1.0019 </r>
       <r>    6.1285    1.0059 </r>
       <r>    6.1621    1.0102 </r>
       <r>    6.1904    1.0152 </r>
       <r>    6.2140    1.0202 </r>
       <r>    6.2671    1.0319 </r>
       <r>    6.3067    1.0353 </r>
       <r>    6.3217    1.0336 </r>
       <r>    6.3548    1.0202 </r>
       <r>    6.3787    0.9992 </r>
       <r>    6.4135    0.9468 </r>
       <r>    6.4340    0.9020 </r>
       <r>    6.5652    0.4206 </r>
       <r>    6.6370    0.1566 </r>
       <r>    6.7216   -0.0071 </r>
       <r>    6.7456   -0.0247 </r>
       <r>    6.8298   -0.0311 </r>
       <r>    6.8763   -0.0208 </r>
       <r>    6.9865   -0.0040 </r>
       <r>    7.0726   -0.0006 </r>
       <r>    7.1593   -0.0001 </r>
       <r>    7.4349   -0.0000 </r>
       <r>    7.5455   -0.0000 </r>
       <r>    7.6050   -0.0000 </r>
       <r>    7.6476   -0.0000 </r>
       <r>    7.7560   -0.0000 </r>
       <r>    8.1824   -0.0000 </r>
       <r>    8.2421   -0.0000 </r>
       <r>    8.3024   -0.0000 </r>
       <r>    8.3977   -0.0000 </r>
       <r>    8.4277   -0.0000 </r>
       <r>    8.4783   -0.0000 </r>
       <r>    8.5266   -0.0000 </r>
      </set>
     </set>
    </set>
   </array>
  </eigenvalues>
  <separator name="orbital magnetization" >
   <v name="MAGDIPOLOUT">      0.00000000      0.00000000      0.00000000</v>
  </separator>
  <dos>
   <i name="efermi">      6.54633924 </i>
   <total>
    <array>
     <dimension dim="1">gridpoints</dimension>
     <dimension dim="2">spin</dimension>
     <field>energy</field>
     <field>total</field>
     <field>integrated</field>
     <set>
      <set comment="spin 1">
       <r>   -50.2552     0.0000     0.0000 </r>
       <r>   -50.0494     0.0000     0.0000 </r>
       <r>   -49.8436     0.0000     0.0000 </r>
       <r>   -49.6379     0.0000     0.0000 </r>
       <r>   -49.4321     0.0000     0.0000 </r>
       <r>   -49.2263    -0.0000    -0.0000 </r>
       <r>   -49.0205    -0.0000    -0.0000 </r>
       <r>   -48.8147    -0.0000    -0.0000 </r>
       <r>   -48.6089    -0.0000    -0.0000 </r>
       <r>   -48.4032    -0.0000    -0.0000 </r>
       <r>   -48.1974    -0.0000    -0.0000 </r>
       <r>   -47.9916    -0.0067    -0.0014 </r>
       <r>   -47.7858    -0.4251    -0.0889 </r>
       <r>   -47.5800    -0.0224    -0.0935 </r>
       <r>   -47.3742    25.4870     5.1513 </r>
       <r>   -47.1685    31.1061    11.5524 </r>
       <r>   -46.9627     2.9071    12.1506 </r>
       <r>   -46.7569    -0.7034    12.0059 </r>
       <r>   -46.5511    -0.0283    12.0000 </r>
       <r>   -46.3453    -0.0001    12.0000 </r>
       <r>   -46.1396    -0.0000    12.0000 </r>
       <r>   -45.9338    -0.0000    12.0000 </r>
       <r>   -45.7280     0.0000    12.0000 </r>
       <r>   -45.5222     0.0000    12.0000 </r>
       <r>   -45.3164     0.0000    12.0000 </r>
       <r>   -45.1106     0.0000    12.0000 </r>
       <r>   -44.9049     0.0000    12.0000 </r>
       <r>   -44.6991     0.0000    12.0000 </r>
       <r>   -44.4933     0.0000    12.0000 </r>
       <r>   -44.2875     0.0000    12.0000 </r>
       <r>   -44.0817     0.0000    12.0000 </r>
       <r>   -43.8760     0.0000    12.0000 </r>
       <r>   -43.6702     0.0000    12.0000 </r>
       <r>   -43.4644     0.0000    12.0000 </r>
       <r>   -43.2586     0.0000    12.0000 </r>
       <r>   -43.0528     0.0000    12.0000 </r>
       <r>   -42.8470     0.0000    12.0000 </r>
       <r>   -42.6413     0.0000    12.0000 </r>
       <r>   -42.4355     0.0000    12.0000 </r>
       <r>   -42.2297     0.0000    12.0000 </r>
       <r>   -42.0239     0.0000    12.0000 </r>
       <r>   -41.8181     0.0000    12.0000 </r>
       <r>   -41.6123     0.0000    12.0000 </r>
       <r>   -41.4066     0.0000    12.0000 </r>
       <r>   -41.2008     0.0000    12.0000 </r>
       <r>   -40.9950     0.0000    12.0000 </r>
       <r>   -40.7892     0.0000    12.0000 </r>
       <r>   -40.5834     0.0000    12.0000 </r>
       <r>   -40.3777     0.0000    12.0000 </r>
       <r>   -40.1719     0.0000    12.0000 </r>
       <r>   -39.9661     0.0000    12.0000 </r>
       <r>   -39.7603     0.0000    12.0000 </r>
       <r>   -39.5545     0.0000    12.0000 </r>
       <r>   -39.3487     0.0000    12.0000 </r>
       <r>   -39.1430     0.0000    12.0000 </r>
       <r>   -38.9372     0.0000    12.0000 </r>
       <r>   -38.7314     0.0000    12.0000 </r>
       <r>   -38.5256     0.0000    12.0000 </r>
       <r>   -38.3198     0.0000    12.0000 </r>
       <r>   -38.1141     0.0000    12.0000 </r>
       <r>   -37.9083     0.0000    12.0000 </r>
       <r>   -37.7025     0.0000    12.0000 </r>
       <r>   -37.4967     0.0000    12.0000 </r>
       <r>   -37.2909     0.0000    12.0000 </r>
       <r>   -37.0851     0.0000    12.0000 </r>
       <r>   -36.8794     0.0000    12.0000 </r>
       <r>   -36.6736     0.0000    12.0000 </r>
       <r>   -36.4678     0.0000    12.0000 </r>
       <r>   -36.2620     0.0000    12.0000 </r>
       <r>   -36.0562     0.0000    12.0000 </r>
       <r>   -35.8504     0.0000    12.0000 </r>
       <r>   -35.6447     0.0000    12.0000 </r>
       <r>   -35.4389     0.0000    12.0000 </r>
       <r>   -35.2331     0.0000    12.0000 </r>
       <r>   -35.0273     0.0000    12.0000 </r>
       <r>   -34.8215     0.0000    12.0000 </r>
       <r>   -34.6158     0.0000    12.0000 </r>
       <r>   -34.4100     0.0000    12.0000 </r>
       <r>   -34.2042     0.0000    12.0000 </r>
       <r>   -33.9984     0.0000    12.0000 </r>
       <r>   -33.7926     0.0000    12.0000 </r>
       <r>   -33.5868     0.0000    12.0000 </r>
       <r>   -33.3811     0.0000    12.0000 </r>
       <r>   -33.1753     0.0000    12.0000 </r>
       <r>   -32.9695     0.0000    12.0000 </r>
       <r>   -32.7637     0.0000    12.0000 </r>
       <r>   -32.5579     0.0000    12.0000 </r>
       <r>   -32.3522     0.0000    12.0000 </r>
       <r>   -32.1464     0.0000    12.0000 </r>
       <r>   -31.9406     0.0000    12.0000 </r>
       <r>   -31.7348     0.0000    12.0000 </r>
       <r>   -31.5290     0.0000    12.0000 </r>
       <r>   -31.3232     0.0000    12.0000 </r>
       <r>   -31.1175     0.0000    12.0000 </r>
       <r>   -30.9117     0.0000    12.0000 </r>
       <r>   -30.7059     0.0000    12.0000 </r>
       <r>   -30.5001     0.0000    12.0000 </r>
       <r>   -30.2943     0.0000    12.0000 </r>
       <r>   -30.0885     0.0000    12.0000 </r>
       <r>   -29.8828     0.0000    12.0000 </r>
       <r>   -29.6770     0.0000    12.0000 </r>
       <r>   -29.4712     0.0000    12.0000 </r>
       <r>   -29.2654     0.0000    12.0000 </r>
       <r>   -29.0596     0.0000    12.0000 </r>
       <r>   -28.8539     0.0000    12.0000 </r>
       <r>   -28.6481     0.0000    12.0000 </r>
       <r>   -28.4423     0.0000    12.0000 </r>
       <r>   -28.2365     0.0000    12.0000 </r>
       <r>   -28.0307     0.0000    12.0000 </r>
       <r>   -27.8249     0.0000    12.0000 </r>
       <r>   -27.6192     0.0000    12.0000 </r>
       <r>   -27.4134     0.0000    12.0000 </r>
       <r>   -27.2076     0.0000    12.0000 </r>
       <r>   -27.0018     0.0000    12.0000 </r>
       <r>   -26.7960     0.0000    12.0000 </r>
       <r>   -26.5903     0.0000    12.0000 </r>
       <r>   -26.3845     0.0000    12.0000 </r>
       <r>   -26.1787     0.0000    12.0000 </r>
       <r>   -25.9729    -0.0000    12.0000 </r>
       <r>   -25.7671    -0.0000    12.0000 </r>
       <r>   -25.5613    -0.0000    12.0000 </r>
       <r>   -25.3556    -0.0000    12.0000 </r>
       <r>   -25.1498    -0.0000    12.0000 </r>
       <r>   -24.9440    -0.0000    12.0000 </r>
       <r>   -24.7382    -0.0006    11.9999 </r>
       <r>   -24.5324    -0.0522    11.9891 </r>
       <r>   -24.3266    -0.3461    11.9179 </r>
       <r>   -24.1209     3.8516    12.7105 </r>
       <r>   -23.9151    14.9083    15.7784 </r>
       <r>   -23.7093    20.1600    19.9269 </r>
       <r>   -23.5035    53.7177    30.9811 </r>
       <r>   -23.2977    50.9818    41.4722 </r>
       <r>   -23.0920    21.5232    45.9013 </r>
       <r>   -22.8862     9.0387    47.7613 </r>
       <r>   -22.6804     1.3635    48.0419 </r>
       <r>   -22.4746    -0.1795    48.0050 </r>
       <r>   -22.2688    -0.0239    48.0001 </r>
       <r>   -22.0630    -0.0002    48.0000 </r>
       <r>   -21.8573    -0.0000    48.0000 </r>
       <r>   -21.6515    -0.0000    48.0000 </r>
       <r>   -21.4457    -0.0000    48.0000 </r>
       <r>   -21.2399     0.0000    48.0000 </r>
       <r>   -21.0341     0.0000    48.0000 </r>
       <r>   -20.8284     0.0000    48.0000 </r>
       <r>   -20.6226     0.0000    48.0000 </r>
       <r>   -20.4168     0.0000    48.0000 </r>
       <r>   -20.2110     0.0000    48.0000 </r>
       <r>   -20.0052     0.0000    48.0000 </r>
       <r>   -19.7994     0.0000    48.0000 </r>
       <r>   -19.5937     0.0000    48.0000 </r>
       <r>   -19.3879     0.0000    48.0000 </r>
       <r>   -19.1821     0.0000    48.0000 </r>
       <r>   -18.9763     0.0000    48.0000 </r>
       <r>   -18.7705     0.0000    48.0000 </r>
       <r>   -18.5647     0.0000    48.0000 </r>
       <r>   -18.3590     0.0000    48.0000 </r>
       <r>   -18.1532     0.0000    48.0000 </r>
       <r>   -17.9474     0.0000    48.0000 </r>
       <r>   -17.7416     0.0000    48.0000 </r>
       <r>   -17.5358     0.0000    48.0000 </r>
       <r>   -17.3301     0.0000    48.0000 </r>
       <r>   -17.1243     0.0000    48.0000 </r>
       <r>   -16.9185     0.0000    48.0000 </r>
       <r>   -16.7127     0.0000    48.0000 </r>
       <r>   -16.5069     0.0000    48.0000 </r>
       <r>   -16.3011     0.0000    48.0000 </r>
       <r>   -16.0954     0.0000    48.0000 </r>
       <r>   -15.8896     0.0000    48.0000 </r>
       <r>   -15.6838     0.0000    48.0000 </r>
       <r>   -15.4780     0.0000    48.0000 </r>
       <r>   -15.2722     0.0000    48.0000 </r>
       <r>   -15.0665     0.0000    48.0000 </r>
       <r>   -14.8607     0.0000    48.0000 </r>
       <r>   -14.6549     0.0000    48.0000 </r>
       <r>   -14.4491     0.0000    48.0000 </r>
       <r>   -14.2433     0.0000    48.0000 </r>
       <r>   -14.0375     0.0000    48.0000 </r>
       <r>   -13.8318     0.0000    48.0000 </r>
       <r>   -13.6260     0.0000    48.0000 </r>
       <r>   -13.4202     0.0000    48.0000 </r>
       <r>   -13.2144     0.0000    48.0000 </r>
       <r>   -13.0086     0.0000    48.0000 </r>
       <r>   -12.8028     0.0000    48.0000 </r>
       <r>   -12.5971     0.0000    48.0000 </r>
       <r>   -12.3913     0.0000    48.0000 </r>
       <r>   -12.1855     0.0000    48.0000 </r>
       <r>   -11.9797     0.0000    48.0000 </r>
       <r>   -11.7739     0.0000    48.0000 </r>
       <r>   -11.5682     0.0000    48.0000 </r>
       <r>   -11.3624     0.0000    48.0000 </r>
       <r>   -11.1566     0.0000    48.0000 </r>
       <r>   -10.9508     0.0000    48.0000 </r>
       <r>   -10.7450     0.0000    48.0000 </r>
       <r>   -10.5392     0.0000    48.0000 </r>
       <r>   -10.3335     0.0000    48.0000 </r>
       <r>   -10.1277     0.0000    48.0000 </r>
       <r>    -9.9219     0.0000    48.0000 </r>
       <r>    -9.7161     0.0000    48.0000 </r>
       <r>    -9.5103     0.0000    48.0000 </r>
       <r>    -9.3045     0.0000    48.0000 </r>
       <r>    -9.0988     0.0000    48.0000 </r>
       <r>    -8.8930     0.0000    48.0000 </r>
       <r>    -8.6872     0.0000    48.0000 </r>
       <r>    -8.4814     0.0000    48.0000 </r>
       <r>    -8.2756     0.0000    48.0000 </r>
       <r>    -8.0699     0.0000    48.0000 </r>
       <r>    -7.8641     0.0000    48.0000 </r>
       <r>    -7.6583     0.0000    48.0000 </r>
       <r>    -7.4525     0.0000    48.0000 </r>
       <r>    -7.2467     0.0000    48.0000 </r>
       <r>    -7.0409     0.0000    48.0000 </r>
       <r>    -6.8352     0.0000    48.0000 </r>
       <r>    -6.6294     0.0000    48.0000 </r>
       <r>    -6.4236     0.0000    48.0000 </r>
       <r>    -6.2178     0.0000    48.0000 </r>
       <r>    -6.0120     0.0000    48.0000 </r>
       <r>    -5.8063     0.0000    48.0000 </r>
       <r>    -5.6005     0.0000    48.0000 </r>
       <r>    -5.3947     0.0000    48.0000 </r>
       <r>    -5.1889     0.0000    48.0000 </r>
       <r>    -4.9831     0.0000    48.0000 </r>
       <r>    -4.7773     0.0000    48.0000 </r>
       <r>    -4.5716     0.0000    48.0000 </r>
       <r>    -4.3658     0.0000    48.0000 </r>
       <r>    -4.1600     0.0000    48.0000 </r>
       <r>    -3.9542     0.0000    48.0000 </r>
       <r>    -3.7484     0.0000    48.0000 </r>
       <r>    -3.5426     0.0000    48.0000 </r>
       <r>    -3.3369     0.0000    48.0000 </r>
       <r>    -3.1311     0.0000    48.0000 </r>
       <r>    -2.9253     0.0000    48.0000 </r>
       <r>    -2.7195     0.0000    48.0000 </r>
       <r>    -2.5137     0.0000    48.0000 </r>
       <r>    -2.3080     0.0000    48.0000 </r>
       <r>    -2.1022     0.0000    48.0000 </r>
       <r>    -1.8964    -0.0000    48.0000 </r>
       <r>    -1.6906    -0.0000    48.0000 </r>
       <r>    -1.4848    -0.0000    48.0000 </r>
       <r>    -1.2790    -0.0000    48.0000 </r>
       <r>    -1.0733    -0.0000    48.0000 </r>
       <r>    -0.8675    -0.0000    48.0000 </r>
       <r>    -0.6617    -0.0005    47.9999 </r>
       <r>    -0.4559    -0.0111    47.9976 </r>
       <r>    -0.2501     0.0389    48.0056 </r>
       <r>    -0.0444     0.4611    48.1005 </r>
       <r>     0.1614     1.1694    48.3412 </r>
       <r>     0.3672     1.8806    48.7282 </r>
       <r>     0.5730     1.7673    49.0918 </r>
       <r>     0.7788     1.6446    49.4303 </r>
       <r>     0.9846     2.6538    49.9764 </r>
       <r>     1.1903     3.4302    50.6823 </r>
       <r>     1.3961     3.3827    51.3784 </r>
       <r>     1.6019     2.6306    51.9197 </r>
       <r>     1.8077     4.5115    52.8481 </r>
       <r>     2.0135     4.7701    53.8297 </r>
       <r>     2.2193     5.8456    55.0326 </r>
       <r>     2.4250     7.8878    56.6558 </r>
       <r>     2.6308    11.7660    59.0770 </r>
       <r>     2.8366    18.3322    62.8494 </r>
       <r>     3.0424    22.7030    67.5213 </r>
       <r>     3.2482    26.7810    73.0324 </r>
       <r>     3.4539    31.2345    79.4599 </r>
       <r>     3.6597    30.7843    85.7947 </r>
       <r>     3.8655    31.8117    92.3410 </r>
       <r>     4.0713    32.2399    98.9754 </r>
       <r>     4.2771    30.8561   105.3250 </r>
       <r>     4.4829    25.2606   110.5232 </r>
       <r>     4.6886    24.0825   115.4790 </r>
       <r>     4.8944    34.3777   122.5533 </r>
       <r>     5.1002    41.8373   131.1626 </r>
       <r>     5.3060    46.3281   140.6962 </r>
       <r>     5.5118    45.6529   150.0907 </r>
       <r>     5.7175    42.1446   158.7633 </r>
       <r>     5.9233    41.5522   167.3140 </r>
       <r>     6.1291    46.5443   176.8920 </r>
       <r>     6.3349    51.5822   187.5067 </r>
       <r>     6.5407    49.7077   197.7356 </r>
       <r>     6.7465    43.5285   206.6930 </r>
       <r>     6.9522    32.6367   213.4091 </r>
       <r>     7.1580    20.4191   217.6110 </r>
       <r>     7.3638    13.3087   220.3497 </r>
       <r>     7.5696    13.4106   223.1093 </r>
       <r>     7.7754    16.8529   226.5773 </r>
       <r>     7.9812    19.4557   230.5810 </r>
       <r>     8.1869    20.7159   234.8439 </r>
       <r>     8.3927    16.2263   238.1830 </r>
       <r>     8.5985     7.8664   239.8018 </r>
       <r>     8.8043     1.1567   240.0398 </r>
       <r>     9.0101    -0.1767   240.0034 </r>
       <r>     9.2158    -0.0165   240.0000 </r>
       <r>     9.4216    -0.0002   240.0000 </r>
       <r>     9.6274    -0.0000   240.0000 </r>
       <r>     9.8332    -0.0000   240.0000 </r>
       <r>    10.0390    -0.0000   240.0000 </r>
       <r>    10.2448     0.0000   240.0000 </r>
       <r>    10.4505     0.0000   240.0000 </r>
       <r>    10.6563     0.0000   240.0000 </r>
       <r>    10.8621     0.0000   240.0000 </r>
       <r>    11.0679     0.0000   240.0000 </r>
       <r>    11.2737     0.0000   240.0000 </r>
       <r>    11.4794     0.0000   240.0000 </r>
      </set>
     </set>
    </array>
   </total>
  </dos>
 </calculation>
 <structure name="finalpos" >
  <crystal>
   <varray name="basis" >
    <v>      -3.18000000      -3.18000000      -3.18000000 </v>
    <v>       1.59000000       1.59000000      -7.95000000 </v>
    <v>       7.95000000      -7.95000000      -1.59000000 </v>
   </varray>
   <i name="volume">    482.36148000 </i>
   <varray name="rec_basis" >
    <v>      -0.13626834      -0.12578616      -0.05241090 </v>
    <v>       0.04192872       0.06289308      -0.10482180 </v>
    <v>       0.06289308      -0.06289308       0.00000000 </v>
   </varray>
  </crystal>
  <varray name="positions" >
   <v>       0.96666667       0.93333333       0.40000000 </v>
   <v>       0.63333333       0.26666667       0.40000000 </v>
   <v>       0.50000000       0.00000000       0.00000000 </v>
   <v>       0.00000000       0.00000000       0.00000000 </v>
   <v>       0.10000000       0.20000000       0.80000000 </v>
   <v>       0.03333333       0.06666667       0.60000000 </v>
   <v>       0.90000000       0.80000000       0.20000000 </v>
   <v>       0.80000000       0.60000000       0.40000000 </v>
   <v>       0.73333333       0.46666667       0.20000000 </v>
   <v>       0.66666667       0.33333333       0.00000000 </v>
   <v>       0.36666667       0.73333333       0.60000000 </v>
   <v>       0.13333333       0.26666667       0.40000000 </v>
   <v>       0.83333333       0.66666667       0.00000000 </v>
   <v>       0.93333333       0.86666667       0.80000000 </v>
   <v>       0.56666667       0.13333333       0.20000000 </v>
   <v>       0.40000000       0.80000000       0.20000000 </v>
   <v>       0.43333333       0.86666667       0.80000000 </v>
   <v>       0.30000000       0.60000000       0.40000000 </v>
   <v>       0.86666667       0.73333333       0.60000000 </v>
   <v>       0.46666667       0.93333333       0.40000000 </v>
   <v>       0.16666667       0.33333333       0.00000000 </v>
   <v>       0.26666667       0.53333333       0.80000000 </v>
   <v>       0.20000000       0.40000000       0.60000000 </v>
   <v>       0.06666667       0.13333333       0.20000000 </v>
   <v>       0.76666667       0.53333333       0.80000000 </v>
   <v>       0.70000000       0.40000000       0.60000000 </v>
   <v>       0.60000000       0.20000000       0.80000000 </v>
   <v>       0.53333333       0.06666667       0.60000000 </v>
   <v>       0.33333333       0.66666667       0.00000000 </v>
   <v>       0.23333333       0.46666667       0.20000000 </v>
  </varray>
 </structure>
</modeling>
