  29  29   0   0
  0.1632129E+02  0.5473281E-09  0.8209921E-09  0.1128346E-08  0.5000000E-15
  1.000000000000000E-004
  CAR 
 Nb - Mo - Ta - Ti - V SQS               
     11.74928058    -50.31690107  301      6.74068469      1.00000000
    -50.317  0.0000E+00  0.0000E+00
    -50.110  0.0000E+00  0.0000E+00
    -49.903  0.0000E+00  0.0000E+00
    -49.696  0.0000E+00  0.0000E+00
    -49.489  0.0000E+00  0.0000E+00
    -49.282 -0.1019E-34 -0.2109E-35
    -49.076 -0.3305E-27 -0.6838E-28
    -48.869 -0.1239E-20 -0.2563E-21
    -48.662 -0.5234E-15 -0.1083E-15
    -48.455 -0.2513E-10 -0.5198E-11
    -48.248 -0.1350E-06 -0.2793E-07
    -48.041 -0.7650E-04 -0.1586E-04
    -47.834 -0.3864E-02 -0.8152E-03
    -47.627  0.6110E-02  0.4488E-03
    -47.420  0.1764E+00  0.3694E-01
    -47.214  0.3833E+00  0.1162E+00
    -47.007  0.4643E+00  0.2123E+00
    -46.800  0.1474E+00  0.2428E+00
    -46.593 -0.1162E-01  0.2404E+00
    -46.386 -0.1800E-02  0.2400E+00
    -46.179 -0.1550E-04  0.2400E+00
    -45.972 -0.1364E-07  0.2400E+00
    -45.765 -0.1323E-11  0.2400E+00
    -45.558 -0.6133E-17  0.2400E+00
    -45.352  0.0000E+00  0.2400E+00
    -45.145  0.0000E+00  0.2400E+00
    -44.938  0.0000E+00  0.2400E+00
    -44.731  0.0000E+00  0.2400E+00
    -44.524  0.0000E+00  0.2400E+00
    -44.317  0.0000E+00  0.2400E+00
    -44.110  0.0000E+00  0.2400E+00
    -43.903  0.0000E+00  0.2400E+00
    -43.697  0.0000E+00  0.2400E+00
    -43.490  0.0000E+00  0.2400E+00
    -43.283  0.0000E+00  0.2400E+00
    -43.076  0.0000E+00  0.2400E+00
    -42.869  0.0000E+00  0.2400E+00
    -42.662  0.0000E+00  0.2400E+00
    -42.455  0.0000E+00  0.2400E+00
    -42.248  0.0000E+00  0.2400E+00
    -42.041  0.0000E+00  0.2400E+00
    -41.835  0.0000E+00  0.2400E+00
    -41.628  0.0000E+00  0.2400E+00
    -41.421  0.0000E+00  0.2400E+00
    -41.214  0.0000E+00  0.2400E+00
    -41.007  0.0000E+00  0.2400E+00
    -40.800  0.0000E+00  0.2400E+00
    -40.593  0.0000E+00  0.2400E+00
    -40.386  0.0000E+00  0.2400E+00
    -40.179  0.0000E+00  0.2400E+00
    -39.973  0.0000E+00  0.2400E+00
    -39.766  0.0000E+00  0.2400E+00
    -39.559  0.0000E+00  0.2400E+00
    -39.352  0.0000E+00  0.2400E+00
    -39.145  0.0000E+00  0.2400E+00
    -38.938  0.0000E+00  0.2400E+00
    -38.731  0.0000E+00  0.2400E+00
    -38.524  0.0000E+00  0.2400E+00
    -38.317  0.0000E+00  0.2400E+00
    -38.111  0.0000E+00  0.2400E+00
    -37.904  0.0000E+00  0.2400E+00
    -37.697  0.0000E+00  0.2400E+00
    -37.490  0.0000E+00  0.2400E+00
    -37.283  0.0000E+00  0.2400E+00
    -37.076  0.0000E+00  0.2400E+00
    -36.869  0.0000E+00  0.2400E+00
    -36.662  0.0000E+00  0.2400E+00
    -36.455  0.0000E+00  0.2400E+00
    -36.249  0.0000E+00  0.2400E+00
    -36.042  0.0000E+00  0.2400E+00
    -35.835  0.0000E+00  0.2400E+00
    -35.628  0.0000E+00  0.2400E+00
    -35.421  0.0000E+00  0.2400E+00
    -35.214  0.0000E+00  0.2400E+00
    -35.007  0.0000E+00  0.2400E+00
    -34.800  0.0000E+00  0.2400E+00
    -34.593  0.0000E+00  0.2400E+00
    -34.387  0.0000E+00  0.2400E+00
    -34.180  0.0000E+00  0.2400E+00
    -33.973  0.0000E+00  0.2400E+00
    -33.766  0.0000E+00  0.2400E+00
    -33.559  0.0000E+00  0.2400E+00
    -33.352  0.0000E+00  0.2400E+00
    -33.145  0.0000E+00  0.2400E+00
    -32.938  0.0000E+00  0.2400E+00
    -32.731  0.0000E+00  0.2400E+00
    -32.525  0.0000E+00  0.2400E+00
    -32.318  0.0000E+00  0.2400E+00
    -32.111  0.0000E+00  0.2400E+00
    -31.904  0.0000E+00  0.2400E+00
    -31.697  0.0000E+00  0.2400E+00
    -31.490  0.0000E+00  0.2400E+00
    -31.283  0.0000E+00  0.2400E+00
    -31.076  0.0000E+00  0.2400E+00
    -30.869  0.0000E+00  0.2400E+00
    -30.663  0.0000E+00  0.2400E+00
    -30.456  0.0000E+00  0.2400E+00
    -30.249  0.0000E+00  0.2400E+00
    -30.042  0.0000E+00  0.2400E+00
    -29.835  0.0000E+00  0.2400E+00
    -29.628  0.0000E+00  0.2400E+00
    -29.421  0.0000E+00  0.2400E+00
    -29.214  0.0000E+00  0.2400E+00
    -29.008  0.0000E+00  0.2400E+00
    -28.801  0.0000E+00  0.2400E+00
    -28.594  0.0000E+00  0.2400E+00
    -28.387  0.0000E+00  0.2400E+00
    -28.180  0.0000E+00  0.2400E+00
    -27.973  0.0000E+00  0.2400E+00
    -27.766  0.0000E+00  0.2400E+00
    -27.559  0.0000E+00  0.2400E+00
    -27.352  0.0000E+00  0.2400E+00
    -27.146  0.0000E+00  0.2400E+00
    -26.939  0.0000E+00  0.2400E+00
    -26.732  0.0000E+00  0.2400E+00
    -26.525  0.0000E+00  0.2400E+00
    -26.318  0.0000E+00  0.2400E+00
    -26.111  0.0000E+00  0.2400E+00
    -25.904  0.0000E+00  0.2400E+00
    -25.697 -0.4706E-31  0.2400E+00
    -25.490 -0.4683E-24  0.2400E+00
    -25.284 -0.5579E-18  0.2400E+00
    -25.077 -0.7747E-13  0.2400E+00
    -24.870 -0.1326E-08  0.2400E+00
    -24.663 -0.2671E-05  0.2400E+00
    -24.456 -0.5830E-03  0.2399E+00
    -24.249 -0.9045E-02  0.2380E+00
    -24.042  0.6688E-01  0.2518E+00
    -23.835  0.2659E+00  0.3068E+00
    -23.628  0.4370E+00  0.3973E+00
    -23.422  0.8351E+00  0.5700E+00
    -23.215  0.9711E+00  0.7709E+00
    -23.008  0.5368E+00  0.8820E+00
    -22.801  0.3075E+00  0.9456E+00
    -22.594  0.7302E-01  0.9607E+00
    -22.387 -0.2025E-02  0.9603E+00
    -22.180 -0.1453E-02  0.9600E+00
    -21.973 -0.3057E-04  0.9600E+00
    -21.766 -0.6469E-07  0.9600E+00
    -21.560 -0.1530E-10  0.9600E+00
    -21.353 -0.4109E-15  0.9600E+00
    -21.146  0.0000E+00  0.9600E+00
    -20.939  0.0000E+00  0.9600E+00
    -20.732  0.0000E+00  0.9600E+00
    -20.525  0.0000E+00  0.9600E+00
    -20.318  0.0000E+00  0.9600E+00
    -20.111  0.0000E+00  0.9600E+00
    -19.904  0.0000E+00  0.9600E+00
    -19.698  0.0000E+00  0.9600E+00
    -19.491  0.0000E+00  0.9600E+00
    -19.284  0.0000E+00  0.9600E+00
    -19.077  0.0000E+00  0.9600E+00
    -18.870  0.0000E+00  0.9600E+00
    -18.663  0.0000E+00  0.9600E+00
    -18.456  0.0000E+00  0.9600E+00
    -18.249  0.0000E+00  0.9600E+00
    -18.042  0.0000E+00  0.9600E+00
    -17.836  0.0000E+00  0.9600E+00
    -17.629  0.0000E+00  0.9600E+00
    -17.422  0.0000E+00  0.9600E+00
    -17.215  0.0000E+00  0.9600E+00
    -17.008  0.0000E+00  0.9600E+00
    -16.801  0.0000E+00  0.9600E+00
    -16.594  0.0000E+00  0.9600E+00
    -16.387  0.0000E+00  0.9600E+00
    -16.181  0.0000E+00  0.9600E+00
    -15.974  0.0000E+00  0.9600E+00
    -15.767  0.0000E+00  0.9600E+00
    -15.560  0.0000E+00  0.9600E+00
    -15.353  0.0000E+00  0.9600E+00
    -15.146  0.0000E+00  0.9600E+00
    -14.939  0.0000E+00  0.9600E+00
    -14.732  0.0000E+00  0.9600E+00
    -14.525  0.0000E+00  0.9600E+00
    -14.319  0.0000E+00  0.9600E+00
    -14.112  0.0000E+00  0.9600E+00
    -13.905  0.0000E+00  0.9600E+00
    -13.698  0.0000E+00  0.9600E+00
    -13.491  0.0000E+00  0.9600E+00
    -13.284  0.0000E+00  0.9600E+00
    -13.077  0.0000E+00  0.9600E+00
    -12.870  0.0000E+00  0.9600E+00
    -12.663  0.0000E+00  0.9600E+00
    -12.457  0.0000E+00  0.9600E+00
    -12.250  0.0000E+00  0.9600E+00
    -12.043  0.0000E+00  0.9600E+00
    -11.836  0.0000E+00  0.9600E+00
    -11.629  0.0000E+00  0.9600E+00
    -11.422  0.0000E+00  0.9600E+00
    -11.215  0.0000E+00  0.9600E+00
    -11.008  0.0000E+00  0.9600E+00
    -10.801  0.0000E+00  0.9600E+00
    -10.595  0.0000E+00  0.9600E+00
    -10.388  0.0000E+00  0.9600E+00
    -10.181  0.0000E+00  0.9600E+00
     -9.974  0.0000E+00  0.9600E+00
     -9.767  0.0000E+00  0.9600E+00
     -9.560  0.0000E+00  0.9600E+00
     -9.353  0.0000E+00  0.9600E+00
     -9.146  0.0000E+00  0.9600E+00
     -8.939  0.0000E+00  0.9600E+00
     -8.733  0.0000E+00  0.9600E+00
     -8.526  0.0000E+00  0.9600E+00
     -8.319  0.0000E+00  0.9600E+00
     -8.112  0.0000E+00  0.9600E+00
     -7.905  0.0000E+00  0.9600E+00
     -7.698  0.0000E+00  0.9600E+00
     -7.491  0.0000E+00  0.9600E+00
     -7.284  0.0000E+00  0.9600E+00
     -7.077  0.0000E+00  0.9600E+00
     -6.871  0.0000E+00  0.9600E+00
     -6.664  0.0000E+00  0.9600E+00
     -6.457  0.0000E+00  0.9600E+00
     -6.250  0.0000E+00  0.9600E+00
     -6.043  0.0000E+00  0.9600E+00
     -5.836  0.0000E+00  0.9600E+00
     -5.629  0.0000E+00  0.9600E+00
     -5.422  0.0000E+00  0.9600E+00
     -5.215  0.0000E+00  0.9600E+00
     -5.009  0.0000E+00  0.9600E+00
     -4.802  0.0000E+00  0.9600E+00
     -4.595  0.0000E+00  0.9600E+00
     -4.388  0.0000E+00  0.9600E+00
     -4.181  0.0000E+00  0.9600E+00
     -3.974  0.0000E+00  0.9600E+00
     -3.767  0.0000E+00  0.9600E+00
     -3.560  0.0000E+00  0.9600E+00
     -3.353  0.0000E+00  0.9600E+00
     -3.147  0.0000E+00  0.9600E+00
     -2.940  0.0000E+00  0.9600E+00
     -2.733  0.0000E+00  0.9600E+00
     -2.526  0.0000E+00  0.9600E+00
     -2.319  0.0000E+00  0.9600E+00
     -2.112  0.0000E+00  0.9600E+00
     -1.905  0.0000E+00  0.9600E+00
     -1.698 -0.2166E-30  0.9600E+00
     -1.492 -0.1068E-23  0.9600E+00
     -1.285 -0.6209E-18  0.9600E+00
     -1.078 -0.4103E-13  0.9600E+00
     -0.871 -0.3294E-09  0.9600E+00
     -0.664 -0.3135E-06  0.9600E+00
     -0.457 -0.3499E-04  0.9600E+00
     -0.250 -0.3525E-03  0.9599E+00
     -0.043  0.2563E-02  0.9604E+00
      0.164  0.1661E-01  0.9639E+00
      0.370  0.2503E-01  0.9691E+00
      0.577  0.3338E-01  0.9760E+00
      0.784  0.4255E-01  0.9848E+00
      0.991  0.3499E-01  0.9920E+00
      1.198  0.5421E-01  0.1003E+01
      1.405  0.6395E-01  0.1016E+01
      1.612  0.6254E-01  0.1029E+01
      1.819  0.7100E-01  0.1044E+01
      2.026  0.8884E-01  0.1062E+01
      2.232  0.1079E+00  0.1085E+01
      2.439  0.1267E+00  0.1111E+01
      2.646  0.2078E+00  0.1154E+01
      2.853  0.3325E+00  0.1223E+01
      3.060  0.4210E+00  0.1310E+01
      3.267  0.5117E+00  0.1416E+01
      3.474  0.5906E+00  0.1538E+01
      3.681  0.6221E+00  0.1667E+01
      3.888  0.5904E+00  0.1789E+01
      4.094  0.5990E+00  0.1913E+01
      4.301  0.6206E+00  0.2041E+01
      4.508  0.5748E+00  0.2160E+01
      4.715  0.5279E+00  0.2269E+01
      4.922  0.6302E+00  0.2400E+01
      5.129  0.7480E+00  0.2554E+01
      5.336  0.8284E+00  0.2726E+01
      5.543  0.8301E+00  0.2897E+01
      5.750  0.8477E+00  0.3073E+01
      5.956  0.8013E+00  0.3239E+01
      6.163  0.8175E+00  0.3408E+01
      6.370  0.8593E+00  0.3586E+01
      6.577  0.8279E+00  0.3757E+01
      6.784  0.7409E+00  0.3910E+01
      6.991  0.6296E+00  0.4040E+01
      7.198  0.5343E+00  0.4151E+01
      7.405  0.4519E+00  0.4244E+01
      7.612  0.3919E+00  0.4325E+01
      7.818  0.3842E+00  0.4405E+01
      8.025  0.4207E+00  0.4492E+01
      8.232  0.4903E+00  0.4593E+01
      8.439  0.5002E+00  0.4697E+01
      8.646  0.3596E+00  0.4771E+01
      8.853  0.1324E+00  0.4799E+01
      9.060  0.9096E-02  0.4801E+01
      9.267 -0.2527E-02  0.4800E+01
      9.474 -0.1894E-03  0.4800E+01
      9.680 -0.1681E-05  0.4800E+01
      9.887 -0.1905E-08  0.4800E+01
     10.094 -0.2699E-12  0.4800E+01
     10.301 -0.4506E-17  0.4800E+01
     10.508  0.0000E+00  0.4800E+01
     10.715  0.0000E+00  0.4800E+01
     10.922  0.0000E+00  0.4800E+01
     11.129  0.0000E+00  0.4800E+01
     11.336  0.0000E+00  0.4800E+01
     11.542  0.0000E+00  0.4800E+01
     11.749  0.0000E+00  0.4800E+01
