   29   29   50    1
  0.1632129E+02  0.5473281E-09  0.8209921E-09  0.1128346E-08  0.5000000E-15
  1.000000000000000E-004
  CAR 
 Nb - Mo - Ta - Ti - V SQS               
    194    172    120
 
  0.0000000E+00  0.0000000E+00  0.0000000E+00  0.2915452E-02
    1      -47.495711   1.000000
    2      -47.354732   1.000000
    3      -47.234531   1.000000
    4      -47.167552   1.000000
    5      -47.088102   1.000000
    6      -46.984284   1.000000
    7      -24.030040   1.000000
    8      -23.971829   1.000000
    9      -23.760061   1.000000
   10      -23.719041   1.000000
   11      -23.596967   1.000000
   12      -23.510326   1.000000
   13      -23.476919   1.000000
   14      -23.447679   1.000000
   15      -23.411432   1.000000
   16      -23.399177   1.000000
   17      -23.349681   1.000000
   18      -23.276890   1.000000
   19      -23.236768   1.000000
   20      -23.187920   1.000000
   21      -23.167017   1.000000
   22      -22.980689   1.000000
   23      -22.914256   1.000000
   24      -22.696449   1.000000
   25       -0.097330   1.000000
   26        1.225173   1.000000
   27        1.575477   1.000000
   28        2.366169   1.000000
   29        2.469654   1.000000
   30        2.583855   1.000000
   31        2.642319   1.000000
   32        2.812739   1.000000
   33        2.840954   1.000000
   34        2.901476   1.000000
   35        2.966494   1.000000
   36        3.079815   1.000000
   37        3.115520   1.000000
   38        3.209327   1.000000
   39        3.222290   1.000000
   40        3.357227   1.000000
   41        3.389139   1.000000
   42        3.450196   1.000000
   43        3.532200   1.000000
   44        3.623813   1.000000
   45        3.645204   1.000000
   46        3.777184   1.000000
   47        3.803315   1.000000
   48        3.894789   1.000000
   49        3.936390   1.000000
   50        4.012807   1.000000
   51        4.045370   1.000000
   52        4.158124   1.000000
   53        4.186921   1.000000
   54        4.406845   1.000000
   55        4.451177   1.000000
   56        4.483817   1.000000
   57        4.588740   1.000000
   58        4.664693   1.000000
   59        4.703925   1.000000
   60        4.806276   1.000000
   61        4.888972   1.000000
   62        4.910785   1.000000
   63        4.932244   1.000000
   64        5.018982   1.000000
   65        5.093083   1.000000
   66        5.133937   1.000000
   67        5.191013   1.000000
   68        5.229263   1.000000
   69        5.268969   1.000000
   70        5.285532   1.000000
   71        5.365919   1.000000
   72        5.450356   1.000000
   73        5.525347   1.000000
   74        5.532889   1.000000
   75        5.558691   1.000000
   76        5.645338   1.000000
   77        5.682990   1.000000
   78        5.701578   1.000000
   79        5.825093   1.000000
   80        5.917069   1.000000
   81        5.982188   1.000001
   82        6.058538   1.000008
   83        6.180017   1.000269
   84        6.239392   1.001125
   85        6.283659   1.002864
   86        6.373679   1.013122
   87        6.407168   1.019981
   88        6.425159   1.024101
   89        6.448886   1.029435
   90        6.518203   1.033203
   91        6.531097   1.029413
   92        6.603510   0.954844
   93        6.628570   0.901538
   94        6.695632   0.685374
   95        6.745849   0.478154
   96        6.856834   0.088812
   97        6.905548   0.003990
   98        6.941896  -0.025744
   99        7.024246  -0.031103
  100        7.157010  -0.006087
  101        7.268124  -0.000614
  102        7.284368  -0.000413
  103        7.505836  -0.000000
  104        7.555408  -0.000000
  105        7.634966  -0.000000
  106        7.652003  -0.000000
  107        7.738074  -0.000000
  108        7.894003  -0.000000
  109        8.017080  -0.000000
  110        8.161001  -0.000000
  111        8.236271  -0.000000
  112        8.406833  -0.000000
  113        8.502518  -0.000000
  114        8.572400  -0.000000
  115        8.639935  -0.000000
  116        8.701889  -0.000000
  117        8.723493  -0.000000
  118        8.746787  -0.000000
  119        8.820682  -0.000000
  120        8.826582  -0.000000
 
  0.1428571E+00  0.0000000E+00 -0.1561251E-16  0.5830904E-02
    1      -47.495538   1.000000
    2      -47.351510   1.000000
    3      -47.234126   1.000000
    4      -47.167392   1.000000
    5      -47.088187   1.000000
    6      -46.987856   1.000000
    7      -23.986620   1.000000
    8      -23.959223   1.000000
    9      -23.757349   1.000000
   10      -23.717647   1.000000
   11      -23.598385   1.000000
   12      -23.506902   1.000000
   13      -23.477368   1.000000
   14      -23.446333   1.000000
   15      -23.413484   1.000000
   16      -23.399554   1.000000
   17      -23.351282   1.000000
   18      -23.278150   1.000000
   19      -23.238056   1.000000
   20      -23.191782   1.000000
   21      -23.170547   1.000000
   22      -22.983278   1.000000
   23      -22.916492   1.000000
   24      -22.762966   1.000000
   25        0.066178   1.000000
   26        1.370599   1.000000
   27        1.717959   1.000000
   28        2.391485   1.000000
   29        2.597390   1.000000
   30        2.694206   1.000000
   31        2.744904   1.000000
   32        2.898333   1.000000
   33        2.915299   1.000000
   34        2.957011   1.000000
   35        3.081202   1.000000
   36        3.171743   1.000000
   37        3.229122   1.000000
   38        3.282236   1.000000
   39        3.310278   1.000000
   40        3.409852   1.000000
   41        3.439089   1.000000
   42        3.522082   1.000000
   43        3.592575   1.000000
   44        3.670261   1.000000
   45        3.741387   1.000000
   46        3.794431   1.000000
   47        3.892856   1.000000
   48        3.940901   1.000000
   49        3.984604   1.000000
   50        4.058588   1.000000
   51        4.122308   1.000000
   52        4.204383   1.000000
   53        4.270149   1.000000
   54        4.378972   1.000000
   55        4.447267   1.000000
   56        4.525612   1.000000
   57        4.607640   1.000000
   58        4.695625   1.000000
   59        4.758875   1.000000
   60        4.786132   1.000000
   61        4.897585   1.000000
   62        4.955988   1.000000
   63        5.021845   1.000000
   64        5.097518   1.000000
   65        5.134714   1.000000
   66        5.196929   1.000000
   67        5.212781   1.000000
   68        5.290463   1.000000
   69        5.321609   1.000000
   70        5.328747   1.000000
   71        5.399055   1.000000
   72        5.465070   1.000000
   73        5.523311   1.000000
   74        5.567417   1.000000
   75        5.590845   1.000000
   76        5.626331   1.000000
   77        5.693084   1.000000
   78        5.731238   1.000000
   79        5.755470   1.000000
   80        5.849147   1.000000
   81        5.980562   1.000001
   82        6.024019   1.000002
   83        6.179600   1.000266
   84        6.209610   1.000563
   85        6.249317   1.001401
   86        6.285370   1.002962
   87        6.321915   1.005835
   88        6.384362   1.015148
   89        6.435300   1.026437
   90        6.472866   1.033742
   91        6.512055   1.034314
   92        6.568412   1.004124
   93        6.605477   0.951229
   94        6.666634   0.790792
   95        6.703546   0.654182
   96        6.744128   0.485431
   97        6.802597   0.251426
   98        6.858594   0.084731
   99        6.938225  -0.023803
  100        7.075156  -0.019767
  101        7.155488  -0.006248
  102        7.223010  -0.001703
  103        7.274991  -0.000520
  104        7.398676  -0.000017
  105        7.434946  -0.000005
  106        7.488669  -0.000001
  107        7.619919  -0.000000
  108        7.690398  -0.000000
  109        7.920313  -0.000000
  110        8.046840  -0.000000
  111        8.075476  -0.000000
  112        8.227176  -0.000000
  113        8.285387  -0.000000
  114        8.387826  -0.000000
  115        8.407201  -0.000000
  116        8.460941  -0.000000
  117        8.525055  -0.000000
  118        8.582199  -0.000000
  119        8.622239  -0.000000
  120        8.709391  -0.000000
 
  0.2857143E+00  0.1387779E-16  0.3469447E-17  0.5830904E-02
    1      -47.495153   1.000000
    2      -47.344022   1.000000
    3      -47.233213   1.000000
    4      -47.167031   1.000000
    5      -47.088382   1.000000
    6      -46.996123   1.000000
    7      -23.977526   1.000000
    8      -23.818523   1.000000
    9      -23.750117   1.000000
   10      -23.709189   1.000000
   11      -23.601111   1.000000
   12      -23.499038   1.000000
   13      -23.478269   1.000000
   14      -23.443824   1.000000
   15      -23.417548   1.000000
   16      -23.400190   1.000000
   17      -23.354724   1.000000
   18      -23.281161   1.000000
   19      -23.240722   1.000000
   20      -23.200817   1.000000
   21      -23.178764   1.000000
   22      -22.989791   1.000000
   23      -22.943392   1.000000
   24      -22.920714   1.000000
   25        0.530595   1.000000
   26        1.761706   1.000000
   27        2.099384   1.000000
   28        2.521352   1.000000
   29        2.726764   1.000000
   30        2.851098   1.000000
   31        2.982501   1.000000
   32        3.032166   1.000000
   33        3.087785   1.000000
   34        3.192422   1.000000
   35        3.293723   1.000000
   36        3.329089   1.000000
   37        3.430642   1.000000
   38        3.447350   1.000000
   39        3.555835   1.000000
   40        3.575084   1.000000
   41        3.624506   1.000000
   42        3.662740   1.000000
   43        3.775410   1.000000
   44        3.796044   1.000000
   45        3.867402   1.000000
   46        3.939203   1.000000
   47        4.019564   1.000000
   48        4.089302   1.000000
   49        4.140987   1.000000
   50        4.214911   1.000000
   51        4.277689   1.000000
   52        4.325363   1.000000
   53        4.393252   1.000000
   54        4.470608   1.000000
   55        4.553149   1.000000
   56        4.639091   1.000000
   57        4.687694   1.000000
   58        4.774241   1.000000
   59        4.836338   1.000000
   60        4.892878   1.000000
   61        4.927275   1.000000
   62        5.017950   1.000000
   63        5.077549   1.000000
   64        5.114735   1.000000
   65        5.164783   1.000000
   66        5.208431   1.000000
   67        5.253684   1.000000
   68        5.287770   1.000000
   69        5.349581   1.000000
   70        5.414347   1.000000
   71        5.471530   1.000000
   72        5.494965   1.000000
   73        5.562335   1.000000
   74        5.630695   1.000000
   75        5.643310   1.000000
   76        5.683448   1.000000
   77        5.708715   1.000000
   78        5.742317   1.000000
   79        5.828283   1.000000
   80        5.841219   1.000000
   81        5.915760   1.000000
   82        5.977844   1.000000
   83        6.039413   1.000004
   84        6.070450   1.000011
   85        6.121974   1.000055
   86        6.199175   1.000436
   87        6.245384   1.001285
   88        6.339292   1.007816
   89        6.358021   1.010471
   90        6.406852   1.019910
   91        6.437082   1.026841
   92        6.480000   1.034603
   93        6.523711   1.031841
   94        6.579324   0.991767
   95        6.596426   0.967087
   96        6.650230   0.842771
   97        6.685692   0.723225
   98        6.750974   0.456526
   99        6.794896   0.279691
  100        6.863158   0.074513
  101        6.918104  -0.009099
  102        6.945849  -0.027604
  103        7.032246  -0.029485
  104        7.143011  -0.007698
  105        7.236250  -0.001278
  106        7.263925  -0.000678
  107        7.365161  -0.000046
  108        7.507170  -0.000000
  109        7.560674  -0.000000
  110        7.616241  -0.000000
  111        7.688329  -0.000000
  112        7.817624  -0.000000
  113        7.860033  -0.000000
  114        7.950520  -0.000000
  115        8.024056  -0.000000
  116        8.136614  -0.000000
  117        8.200318  -0.000000
  118        8.277464  -0.000000
  119        8.352510  -0.000000
  120        8.448283  -0.000000
 
  0.4285714E+00  0.5551115E-16 -0.4163336E-16  0.5830904E-02
    1      -47.494849   1.000000
    2      -47.337745   1.000000
    3      -47.232480   1.000000
    4      -47.166739   1.000000
    5      -47.088543   1.000000
    6      -47.003021   1.000000
    7      -23.977693   1.000000
    8      -23.749805   1.000000
    9      -23.728140   1.000000
   10      -23.614090   1.000000
   11      -23.574601   1.000000
   12      -23.492780   1.000000
   13      -23.478744   1.000000
   14      -23.442759   1.000000
   15      -23.419927   1.000000
   16      -23.399682   1.000000
   17      -23.357186   1.000000
   18      -23.283717   1.000000
   19      -23.242741   1.000000
   20      -23.209086   1.000000
   21      -23.187410   1.000000
   22      -23.167690   1.000000
   23      -22.995196   1.000000
   24      -22.924160   1.000000
   25        1.205764   1.000000
   26        1.978058   1.000000
   27        2.389875   1.000000
   28        2.615555   1.000000
   29        2.721162   1.000000
   30        2.941663   1.000000
   31        3.051674   1.000000
   32        3.219162   1.000000
   33        3.303278   1.000000
   34        3.357603   1.000000
   35        3.404833   1.000000
   36        3.485193   1.000000
   37        3.506400   1.000000
   38        3.562460   1.000000
   39        3.661861   1.000000
   40        3.719738   1.000000
   41        3.822506   1.000000
   42        3.861829   1.000000
   43        3.941968   1.000000
   44        3.981789   1.000000
   45        4.076948   1.000000
   46        4.136122   1.000000
   47        4.159490   1.000000
   48        4.238418   1.000000
   49        4.290339   1.000000
   50        4.344507   1.000000
   51        4.410679   1.000000
   52        4.434525   1.000000
   53        4.558049   1.000000
   54        4.594030   1.000000
   55        4.665812   1.000000
   56        4.763577   1.000000
   57        4.788324   1.000000
   58        4.822814   1.000000
   59        4.880900   1.000000
   60        4.935528   1.000000
   61        4.978854   1.000000
   62        5.007402   1.000000
   63        5.051736   1.000000
   64        5.081032   1.000000
   65        5.118474   1.000000
   66        5.154810   1.000000
   67        5.204943   1.000000
   68        5.329105   1.000000
   69        5.366672   1.000000
   70        5.423984   1.000000
   71        5.491445   1.000000
   72        5.557016   1.000000
   73        5.591496   1.000000
   74        5.603302   1.000000
   75        5.650541   1.000000
   76        5.663967   1.000000
   77        5.701489   1.000000
   78        5.781134   1.000000
   79        5.810008   1.000000
   80        5.861946   1.000000
   81        5.922707   1.000000
   82        5.969683   1.000000
   83        6.016245   1.000002
   84        6.054658   1.000007
   85        6.093531   1.000024
   86        6.143518   1.000101
   87        6.180497   1.000272
   88        6.229500   1.000899
   89        6.254375   1.001564
   90        6.310827   1.004792
   91        6.344868   1.008549
   92        6.397633   1.017887
   93        6.407677   1.020095
   94        6.466990   1.032860
   95        6.514076   1.033994
   96        6.578507   0.992781
   97        6.639687   0.872826
   98        6.678281   0.750342
   99        6.752593   0.449712
  100        6.762503   0.408284
  101        6.835335   0.144946
  102        6.895695   0.016614
  103        6.998646  -0.034862
  104        7.041537  -0.027461
  105        7.108300  -0.013011
  106        7.122322  -0.010633
  107        7.209936  -0.002238
  108        7.274941  -0.000521
  109        7.355048  -0.000062
  110        7.448558  -0.000003
  111        7.555199  -0.000000
  112        7.610585  -0.000000
  113        7.714409  -0.000000
  114        7.760907  -0.000000
  115        7.833220  -0.000000
  116        7.908869  -0.000000
  117        8.015443  -0.000000
  118        8.150825  -0.000000
  119        8.252013  -0.000000
  120        8.322281  -0.000000
 
 -0.6938894E-17  0.1428571E+00  0.1040834E-16  0.5830904E-02
    1      -47.495708   1.000000
    2      -47.354730   1.000000
    3      -47.234350   1.000000
    4      -47.167491   1.000000
    5      -47.088350   1.000000
    6      -46.984282   1.000000
    7      -24.030033   1.000000
    8      -23.971474   1.000000
    9      -23.756971   1.000000
   10      -23.718927   1.000000
   11      -23.597018   1.000000
   12      -23.510381   1.000000
   13      -23.476788   1.000000
   14      -23.447704   1.000000
   15      -23.411553   1.000000
   16      -23.399157   1.000000
   17      -23.349694   1.000000
   18      -23.276796   1.000000
   19      -23.236697   1.000000
   20      -23.187949   1.000000
   21      -23.167083   1.000000
   22      -22.982904   1.000000
   23      -22.916404   1.000000
   24      -22.696458   1.000000
   25       -0.025461   1.000000
   26        1.260638   1.000000
   27        1.645974   1.000000
   28        2.117557   1.000000
   29        2.514727   1.000000
   30        2.575931   1.000000
   31        2.635399   1.000000
   32        2.786705   1.000000
   33        2.829522   1.000000
   34        2.907399   1.000000
   35        3.001192   1.000000
   36        3.056910   1.000000
   37        3.113000   1.000000
   38        3.173361   1.000000
   39        3.213165   1.000000
   40        3.280294   1.000000
   41        3.436725   1.000000
   42        3.461234   1.000000
   43        3.558421   1.000000
   44        3.603568   1.000000
   45        3.682540   1.000000
   46        3.758095   1.000000
   47        3.844225   1.000000
   48        3.877835   1.000000
   49        3.975018   1.000000
   50        4.061135   1.000000
   51        4.113475   1.000000
   52        4.171502   1.000000
   53        4.222805   1.000000
   54        4.344161   1.000000
   55        4.436657   1.000000
   56        4.515327   1.000000
   57        4.588364   1.000000
   58        4.656798   1.000000
   59        4.690710   1.000000
   60        4.823370   1.000000
   61        4.895455   1.000000
   62        4.929127   1.000000
   63        4.968290   1.000000
   64        5.060595   1.000000
   65        5.111663   1.000000
   66        5.180047   1.000000
   67        5.209005   1.000000
   68        5.246741   1.000000
   69        5.303462   1.000000
   70        5.314846   1.000000
   71        5.393183   1.000000
   72        5.460051   1.000000
   73        5.516498   1.000000
   74        5.542436   1.000000
   75        5.603417   1.000000
   76        5.658130   1.000000
   77        5.689731   1.000000
   78        5.750826   1.000000
   79        5.830576   1.000000
   80        5.954331   1.000000
   81        5.984637   1.000001
   82        6.064166   1.000009
   83        6.141219   1.000095
   84        6.219768   1.000717
   85        6.246701   1.001323
   86        6.304751   1.004288
   87        6.360656   1.010890
   88        6.370323   1.012521
   89        6.444644   1.028525
   90        6.475295   1.034062
   91        6.548477   1.020597
   92        6.575348   0.996563
   93        6.613197   0.936106
   94        6.632646   0.891371
   95        6.724935   0.566416
   96        6.784264   0.320367
   97        6.868012   0.064223
   98        6.899689   0.011237
   99        7.014751  -0.032800
  100        7.124203  -0.010338
  101        7.246001  -0.001027
  102        7.343352  -0.000087
  103        7.428398  -0.000007
  104        7.550655  -0.000000
  105        7.687016  -0.000000
  106        7.742767  -0.000000
  107        7.792539  -0.000000
  108        7.917226  -0.000000
  109        8.027356  -0.000000
  110        8.069824  -0.000000
  111        8.222700  -0.000000
  112        8.317059  -0.000000
  113        8.356216  -0.000000
  114        8.439685  -0.000000
  115        8.529878  -0.000000
  116        8.616025  -0.000000
  117        8.659034  -0.000000
  118        8.688501  -0.000000
  119        8.713790  -0.000000
  120        8.761496  -0.000000
 
  0.1428571E+00  0.1428571E+00 -0.1387779E-16  0.5830904E-02
    1      -47.495540   1.000000
    2      -47.351512   1.000000
    3      -47.234296   1.000000
    4      -47.167452   1.000000
    5      -47.087950   1.000000
    6      -46.987859   1.000000
    7      -23.986796   1.000000
    8      -23.959385   1.000000
    9      -23.760356   1.000000
   10      -23.717735   1.000000
   11      -23.598337   1.000000
   12      -23.506879   1.000000
   13      -23.477545   1.000000
   14      -23.446332   1.000000
   15      -23.413509   1.000000
   16      -23.399536   1.000000
   17      -23.351285   1.000000
   18      -23.278129   1.000000
   19      -23.238048   1.000000
   20      -23.191749   1.000000
   21      -23.170484   1.000000
   22      -22.981075   1.000000
   23      -22.914507   1.000000
   24      -22.762958   1.000000
   25        0.068984   1.000000
   26        1.346025   1.000000
   27        1.736495   1.000000
   28        2.391147   1.000000
   29        2.570732   1.000000
   30        2.697242   1.000000
   31        2.751676   1.000000
   32        2.819743   1.000000
   33        2.900913   1.000000
   34        2.951820   1.000000
   35        3.017837   1.000000
   36        3.073932   1.000000
   37        3.225248   1.000000
   38        3.262037   1.000000
   39        3.310424   1.000000
   40        3.400793   1.000000
   41        3.444380   1.000000
   42        3.578000   1.000000
   43        3.626130   1.000000
   44        3.658954   1.000000
   45        3.706542   1.000000
   46        3.801574   1.000000
   47        3.870332   1.000000
   48        3.936559   1.000000
   49        4.018107   1.000000
   50        4.072966   1.000000
   51        4.156668   1.000000
   52        4.194378   1.000000
   53        4.287526   1.000000
   54        4.442418   1.000000
   55        4.474563   1.000000
   56        4.587514   1.000000
   57        4.629388   1.000000
   58        4.708931   1.000000
   59        4.736506   1.000000
   60        4.827923   1.000000
   61        4.883035   1.000000
   62        4.921747   1.000000
   63        4.981209   1.000000
   64        5.043822   1.000000
   65        5.129559   1.000000
   66        5.177368   1.000000
   67        5.213857   1.000000
   68        5.250676   1.000000
   69        5.285698   1.000000
   70        5.356666   1.000000
   71        5.373100   1.000000
   72        5.432195   1.000000
   73        5.464956   1.000000
   74        5.552420   1.000000
   75        5.569428   1.000000
   76        5.633665   1.000000
   77        5.686807   1.000000
   78        5.742549   1.000000
   79        5.806822   1.000000
   80        5.881648   1.000000
   81        5.939723   1.000000
   82        5.992786   1.000001
   83        6.099727   1.000028
   84        6.176339   1.000244
   85        6.236095   1.001044
   86        6.250573   1.001440
   87        6.332981   1.007045
   88        6.380920   1.014477
   89        6.430564   1.025351
   90        6.473931   1.033886
   91        6.544443   1.023065
   92        6.589892   0.977315
   93        6.626551   0.906417
   94        6.687971   0.714692
   95        6.723106   0.574067
   96        6.798982   0.264559
   97        6.848389   0.109483
   98        6.891009   0.023386
   99        6.987206  -0.035448
  100        7.087558  -0.017076
  101        7.180467  -0.003992
  102        7.237128  -0.001253
  103        7.305603  -0.000241
  104        7.373464  -0.000036
  105        7.461619  -0.000002
  106        7.539755  -0.000000
  107        7.597622  -0.000000
  108        7.711559  -0.000000
  109        7.904173  -0.000000
  110        7.970519  -0.000000
  111        8.086540  -0.000000
  112        8.248759  -0.000000
  113        8.367669  -0.000000
  114        8.440378  -0.000000
  115        8.564910  -0.000000
  116        8.599828  -0.000000
  117        8.660657  -0.000000
  118        8.670673  -0.000000
  119        8.753766  -0.000000
  120        8.830843  -0.000000
 
  0.2857143E+00  0.1428571E+00  0.2775558E-16  0.5830904E-02
    1      -47.495159   1.000000
    2      -47.344027   1.000000
    3      -47.233604   1.000000
    4      -47.167169   1.000000
    5      -47.087839   1.000000
    6      -46.996129   1.000000
    7      -23.978275   1.000000
    8      -23.818658   1.000000
    9      -23.757051   1.000000
   10      -23.709260   1.000000
   11      -23.601008   1.000000
   12      -23.499001   1.000000
   13      -23.478647   1.000000
   14      -23.443797   1.000000
   15      -23.417531   1.000000
   16      -23.400168   1.000000
   17      -23.354711   1.000000
   18      -23.281182   1.000000
   19      -23.240751   1.000000
   20      -23.200742   1.000000
   21      -23.178623   1.000000
   22      -22.984298   1.000000
   23      -22.943238   1.000000
   24      -22.916680   1.000000
   25        0.470298   1.000000
   26        1.675186   1.000000
   27        2.060608   1.000000
   28        2.604048   1.000000
   29        2.646567   1.000000
   30        2.831105   1.000000
   31        2.959087   1.000000
   32        3.067103   1.000000
   33        3.123400   1.000000
   34        3.163311   1.000000
   35        3.240542   1.000000
   36        3.306906   1.000000
   37        3.387116   1.000000
   38        3.471859   1.000000
   39        3.511986   1.000000
   40        3.574383   1.000000
   41        3.662798   1.000000
   42        3.696565   1.000000
   43        3.757310   1.000000
   44        3.832663   1.000000
   45        3.864440   1.000000
   46        3.944573   1.000000
   47        4.006044   1.000000
   48        4.079745   1.000000
   49        4.116715   1.000000
   50        4.227730   1.000000
   51        4.255255   1.000000
   52        4.342132   1.000000
   53        4.377097   1.000000
   54        4.486742   1.000000
   55        4.532143   1.000000
   56        4.618668   1.000000
   57        4.702196   1.000000
   58        4.759762   1.000000
   59        4.832838   1.000000
   60        4.890592   1.000000
   61        4.918336   1.000000
   62        5.005806   1.000000
   63        5.063423   1.000000
   64        5.134317   1.000000
   65        5.161902   1.000000
   66        5.186099   1.000000
   67        5.250153   1.000000
   68        5.283043   1.000000
   69        5.317368   1.000000
   70        5.383112   1.000000
   71        5.436290   1.000000
   72        5.451300   1.000000
   73        5.497697   1.000000
   74        5.541072   1.000000
   75        5.594298   1.000000
   76        5.621110   1.000000
   77        5.712670   1.000000
   78        5.767721   1.000000
   79        5.812738   1.000000
   80        5.871744   1.000000
   81        5.922766   1.000000
   82        6.016214   1.000002
   83        6.103784   1.000032
   84        6.149428   1.000119
   85        6.174321   1.000232
   86        6.193637   1.000380
   87        6.224333   1.000797
   88        6.305705   1.004365
   89        6.325083   1.006163
   90        6.385456   1.015365
   91        6.421055   1.023151
   92        6.464171   1.032390
   93        6.522318   1.032220
   94        6.552315   1.017992
   95        6.596671   0.966684
   96        6.623103   0.914514
   97        6.720541   0.584760
   98        6.731012   0.540875
   99        6.813279   0.214112
  100        6.862246   0.076513
  101        6.903360   0.006609
  102        6.963636  -0.033303
  103        7.038238  -0.028193
  104        7.090490  -0.016465
  105        7.215106  -0.002012
  106        7.288955  -0.000368
  107        7.381390  -0.000029
  108        7.543983  -0.000000
  109        7.637983  -0.000000
  110        7.731608  -0.000000
  111        7.782463  -0.000000
  112        7.946497  -0.000000
  113        8.084024  -0.000000
  114        8.199528  -0.000000
  115        8.271640  -0.000000
  116        8.342353  -0.000000
  117        8.404531  -0.000000
  118        8.452579  -0.000000
  119        8.530959  -0.000000
  120        8.572803  -0.000000
 
  0.4285714E+00  0.1428571E+00 -0.2081668E-16  0.5830904E-02
    1      -47.494854   1.000000
    2      -47.337749   1.000000
    3      -47.232794   1.000000
    4      -47.166852   1.000000
    5      -47.088105   1.000000
    6      -47.003026   1.000000
    7      -23.978273   1.000000
    8      -23.754829   1.000000
    9      -23.728960   1.000000
   10      -23.614030   1.000000
   11      -23.574565   1.000000
   12      -23.492812   1.000000
   13      -23.479034   1.000000
   14      -23.442735   1.000000
   15      -23.419944   1.000000
   16      -23.399654   1.000000
   17      -23.357165   1.000000
   18      -23.283719   1.000000
   19      -23.242760   1.000000
   20      -23.209030   1.000000
   21      -23.187283   1.000000
   22      -23.167680   1.000000
   23      -22.990179   1.000000
   24      -22.921303   1.000000
   25        1.112329   1.000000
   26        2.006033   1.000000
   27        2.315801   1.000000
   28        2.513819   1.000000
   29        2.696133   1.000000
   30        2.801609   1.000000
   31        3.115715   1.000000
   32        3.279730   1.000000
   33        3.365246   1.000000
   34        3.406001   1.000000
   35        3.443345   1.000000
   36        3.492637   1.000000
   37        3.546672   1.000000
   38        3.625005   1.000000
   39        3.704199   1.000000
   40        3.715601   1.000000
   41        3.785837   1.000000
   42        3.872277   1.000000
   43        3.880889   1.000000
   44        3.986217   1.000000
   45        4.072200   1.000000
   46        4.107348   1.000000
   47        4.140927   1.000000