       N       E                     dE             d eps       ncg     rms          rms(c)
DAV:   1    -0.392708341954E+04   -0.39271E+04   -0.16008E+05 59856   0.198E+03
DAV:   2    -0.957521937310E+04   -0.56481E+04   -0.53535E+04 74832   0.121E+03
DAV:   3    -0.104532435973E+05   -0.87802E+03   -0.85238E+03 82548   0.522E+02
DAV:   4    -0.106888179349E+05   -0.23557E+03   -0.21773E+03 82560   0.232E+02
DAV:   5    -0.108396643369E+05   -0.15085E+03   -0.13539E+03 82560   0.171E+02    0.528E+03
DAV:   6    -0.918938941751E+03    0.99207E+04   -0.23859E+04 64944   0.597E+02    0.248E+03
DAV:   7    -0.852114395200E+03    0.66825E+02   -0.16936E+04 70104   0.586E+02    0.191E+03
DAV:   8    -0.610168676255E+03    0.24195E+03   -0.41309E+03 68580   0.326E+02    0.171E+03
DAV:   9    -0.552300032180E+03    0.57869E+02   -0.70760E+02 74580   0.787E+01    0.164E+03
DAV:  10    -0.561575162555E+03   -0.92751E+01   -0.13453E+02 80088   0.354E+01    0.164E+03
DAV:  11    -0.801131195393E+03   -0.23956E+03   -0.65683E+02 68820   0.129E+02    0.170E+03
DAV:  12    -0.544342062856E+03    0.25679E+03   -0.24753E+03 74424   0.941E+01    0.143E+03
DAV:  13    -0.678772929424E+03   -0.13443E+03   -0.78423E+02 72036   0.171E+02    0.129E+03
DAV:  14    -0.118844143576E+04   -0.50967E+03   -0.25725E+03 77472   0.195E+02    0.109E+03
DAV:  15    -0.148377171375E+04   -0.29533E+03   -0.14482E+03 67236   0.147E+02    0.867E+02
DAV:  16    -0.151965794308E+04   -0.35886E+02   -0.83489E+02 68784   0.116E+02    0.705E+02
DAV:  17    -0.260611752413E+04   -0.10865E+04   -0.15506E+03 76200   0.160E+02    0.658E+02
DAV:  18    -0.261891522503E+04   -0.12798E+02   -0.29676E+02 68784   0.692E+01    0.628E+02
DAV:  19    -0.210163523580E+04    0.51728E+03   -0.29238E+02 71628   0.644E+01    0.549E+02
DAV:  20    -0.154686277679E+04    0.55477E+03   -0.45470E+02 65496   0.792E+01    0.370E+02
DAV:  21    -0.105331635033E+04    0.49355E+03   -0.38947E+02 64644   0.946E+01    0.216E+02
DAV:  22    -0.110075032600E+04   -0.47434E+02   -0.19106E+02 73104   0.888E+01    0.191E+02
DAV:  23    -0.112911689482E+04   -0.28367E+02   -0.62194E+01 74076   0.364E+01    0.192E+02
DAV:  24    -0.112360446269E+04    0.55124E+01   -0.89569E+00 69120   0.858E+00    0.192E+02
DAV:  25    -0.111101649265E+04    0.12588E+02   -0.50309E+00 65796   0.885E+00    0.189E+02
DAV:  26    -0.106979450192E+04    0.41222E+02   -0.20602E+01 67068   0.232E+01    0.178E+02
DAV:  27    -0.993943380530E+03    0.75851E+02   -0.58305E+01 63660   0.360E+01    0.174E+02
DAV:  28    -0.907537254970E+03    0.86406E+02   -0.61138E+01 67884   0.401E+01    0.162E+02
DAV:  29    -0.859338680778E+03    0.48199E+02   -0.21821E+01 70536   0.174E+01    0.153E+02
DAV:  30    -0.801657252073E+03    0.57681E+02   -0.23153E+01 71172   0.242E+01    0.154E+02
DAV:  31    -0.793254067594E+03    0.84032E+01   -0.31539E+00 68340   0.697E+00    0.152E+02
DAV:  32    -0.818072474115E+03   -0.24818E+02   -0.12846E+00 69360   0.758E+00    0.156E+02
DAV:  33    -0.769902487637E+03    0.48170E+02   -0.48136E+00 71844   0.169E+01    0.155E+02
DAV:  34    -0.627123475166E+03    0.14278E+03   -0.51508E+01 63648   0.421E+01    0.148E+02
DAV:  35    -0.478416950481E+03    0.14871E+03   -0.12409E+02 69456   0.760E+01    0.130E+02
DAV:  36    -0.489176287593E+03   -0.10759E+02   -0.39061E+01 76728   0.392E+01    0.125E+02
DAV:  37    -0.536413051587E+03   -0.47237E+02   -0.45745E+01 73200   0.390E+01    0.147E+02
DAV:  38    -0.458734465491E+03    0.77679E+02   -0.37974E+01 72144   0.422E+01    0.136E+02
DAV:  39    -0.369614984282E+03    0.89119E+02   -0.10935E+02 72516   0.550E+01    0.112E+02
DAV:  40    -0.367505751413E+03    0.21092E+01   -0.19058E+01 79296   0.149E+01    0.104E+02
DAV:  41    -0.391348336694E+03   -0.23843E+02   -0.30221E+01 64140   0.287E+01    0.115E+02
DAV:  42    -0.371700175093E+03    0.19648E+02   -0.14266E+01 71424   0.158E+01    0.101E+02
DAV:  43    -0.332986584986E+03    0.38714E+02   -0.67134E+01 73512   0.467E+01    0.870E+01
DAV:  44    -0.331322497634E+03    0.16641E+01   -0.38128E+01 69000   0.243E+01    0.900E+01
DAV:  45    -0.334204213790E+03   -0.28817E+01   -0.13043E+01 62652   0.159E+01    0.958E+01
DAV:  46    -0.334873334195E+03   -0.66912E+00   -0.12503E+01 72636   0.141E+01    0.929E+01
DAV:  47    -0.339006155026E+03   -0.41328E+01   -0.42275E+00 79752   0.880E+00    0.871E+01
DAV:  48    -0.338343054435E+03    0.66310E+00   -0.31893E+00 71496   0.544E+00    0.750E+01
DAV:  49    -0.331735881897E+03    0.66072E+01   -0.30795E+00 70392   0.717E+00    0.564E+01
DAV:  50    -0.323261804436E+03    0.84741E+01   -0.16065E+01 74124   0.117E+01    0.402E+01
DAV:  51    -0.342478427716E+03   -0.19217E+02   -0.62199E+01 74304   0.279E+01    0.422E+01
DAV:  52    -0.339861386229E+03    0.26170E+01   -0.91325E+00 75492   0.936E+00    0.399E+01
DAV:  53    -0.339887184024E+03   -0.25798E-01   -0.11076E+00 78996   0.330E+00    0.402E+01
DAV:  54    -0.337644940946E+03    0.22422E+01   -0.11980E+00 74304   0.414E+00    0.383E+01
DAV:  55    -0.320341838307E+03    0.17303E+02   -0.37984E+01 74304   0.205E+01    0.318E+01
DAV:  56    -0.313698342988E+03    0.66435E+01   -0.17092E+01 74352   0.155E+01    0.303E+01
DAV:  57    -0.311215008742E+03    0.24833E+01   -0.87847E+00 76356   0.103E+01    0.338E+01
DAV:  58    -0.311033062547E+03    0.18195E+00   -0.21227E+00 78240   0.502E+00    0.338E+01
DAV:  59    -0.310211564410E+03    0.82150E+00   -0.56859E-01 72420   0.349E+00    0.297E+01
DAV:  60    -0.309226422627E+03    0.98514E+00   -0.23848E+00 69888   0.595E+00
   1 F= -.30922642E+03 E0= -.30922723E+03  d E =-.309226E+03
       N       E                     dE             d eps       ncg     rms          rms(c)
DAV:   1    -0.320350629037E+03   -0.10139E+02   -0.84083E+02 57192   0.132E+02    0.362E+01
DAV:   2    -0.366073493938E+03   -0.45723E+02   -0.56527E+02 78432   0.121E+02    0.670E+01
DAV:   3    -0.312957692760E+03    0.53116E+02   -0.48241E+02 79968   0.932E+01    0.282E+01
DAV:   4    -0.312169038797E+03    0.78865E+00   -0.17676E+02 72348   0.540E+01    0.299E+01
DAV:   5    -0.307809659964E+03    0.43594E+01   -0.11024E+02 68676   0.523E+01    0.157E+01
DAV:   6    -0.306038076672E+03    0.17716E+01   -0.30386E+01 68208   0.235E+01    0.150E+01
DAV:   7    -0.304849896457E+03    0.11882E+01   -0.23872E+01 69120   0.231E+01    0.116E+01
DAV:   8    -0.304225849421E+03    0.62405E+00   -0.10520E+01 70836   0.143E+01    0.707E+00
DAV:   9    -0.304010209559E+03    0.21564E+00   -0.28901E+00 71880   0.694E+00    0.604E+00
DAV:  10    -0.303977755629E+03    0.32454E-01   -0.23141E+00 69504   0.652E+00    0.562E+00
DAV:  11    -0.303904885429E+03    0.72870E-01   -0.11222E+00 75012   0.425E+00    0.416E+00
DAV:  12    -0.304031527353E+03   -0.12664E+00   -0.17325E+00 71760   0.544E+00    0.478E+00
DAV:  13    -0.303932103896E+03    0.99423E-01   -0.17727E+00 71724   0.519E+00    0.314E+00
DAV:  14    -0.303869305152E+03    0.62799E-01   -0.88350E-01 70056   0.372E+00    0.175E+00
DAV:  15    -0.303857731237E+03    0.11574E-01   -0.44610E-01 76284   0.202E+00    0.139E+00
DAV:  16    -0.303843884229E+03    0.13847E-01   -0.16202E-01 77400   0.141E+00    0.726E-01
DAV:  17    -0.303841551586E+03    0.23326E-02   -0.54180E-02 71988   0.899E-01    0.671E-01
DAV:  18    -0.303838799765E+03    0.27518E-02   -0.24905E-02 68844   0.619E-01    0.362E-01
DAV:  19    -0.303838503370E+03    0.29639E-03   -0.14165E-02 72060   0.469E-01    0.326E-01
DAV:  20    -0.303837829658E+03    0.67371E-03   -0.96838E-03 70992   0.300E-01    0.164E-01
DAV:  21    -0.303837615417E+03    0.21424E-03   -0.24434E-03 66036   0.152E-01    0.115E-01
DAV:  22    -0.303837573995E+03    0.41422E-04   -0.13187E-03 56688   0.106E-01    0.827E-02
DAV:  23    -0.303837511797E+03    0.62199E-04   -0.61338E-04 46176   0.934E-02
   2 F= -.30383751E+03 E0= -.30382895E+03  d E =0.538891E+01
       N       E                     dE             d eps       ncg     rms          rms(c)
DAV:   1    -0.311259513836E+03   -0.74219E+01   -0.24527E+02 56964   0.720E+01    0.185E+01
DAV:   2    -0.324594221221E+03   -0.13335E+02   -0.13764E+02 72192   0.540E+01    0.450E+01
DAV:   3    -0.309301603960E+03    0.15293E+02   -0.12516E+02 74724   0.781E+01    0.137E+01
DAV:   4    -0.308908568727E+03    0.39304E+00   -0.33150E+01 73680   0.202E+01    0.133E+01
DAV:   5    -0.308081040119E+03    0.82753E+00   -0.25311E+01 76044   0.198E+01    0.109E+01
DAV:   6    -0.307395520858E+03    0.68552E+00   -0.13575E+01 68676   0.171E+01    0.692E+00
DAV:   7    -0.307175124581E+03    0.22040E+00   -0.63440E+00 67440   0.106E+01    0.560E+00
DAV:   8    -0.306959949584E+03    0.21517E+00   -0.27421E+00 70356   0.673E+00    0.349E+00
DAV:   9    -0.306904385915E+03    0.55564E-01   -0.99375E-01 75816   0.404E+00    0.249E+00
DAV:  10    -0.306880012752E+03    0.24373E-01   -0.31615E-01 75492   0.217E+00    0.199E+00
DAV:  11    -0.306876165147E+03    0.38476E-02   -0.10820E-01 71028   0.141E+00    0.164E+00
DAV:  12    -0.306881395344E+03   -0.52302E-02   -0.64429E-02 72600   0.103E+00    0.139E+00
DAV:  13    -0.306905671264E+03   -0.24276E-01   -0.14160E-01 68376   0.168E+00    0.165E+00
DAV:  14    -0.306896806007E+03    0.88653E-02   -0.17015E-01 68124   0.183E+00    0.776E-01
DAV:  15    -0.306894019590E+03    0.27864E-02   -0.71627E-02 70296   0.943E-01    0.465E-01
DAV:  16    -0.306892883738E+03    0.11359E-02   -0.32896E-02 74328   0.565E-01    0.345E-01
DAV:  17    -0.306892568362E+03    0.31538E-03   -0.11294E-02 70116   0.440E-01    0.295E-01
DAV:  18    -0.306892112727E+03    0.45563E-03   -0.36854E-03 60540   0.261E-01    0.166E-01
DAV:  19    -0.306892130976E+03   -0.18249E-04   -0.73594E-04 49800   0.116E-01
   3 F= -.30689213E+03 E0= -.30688921E+03  d E =0.233429E+01
       N       E                     dE             d eps       ncg     rms          rms(c)
DAV:   1    -0.307754018610E+03   -0.86191E+00   -0.22723E+01 57372   0.221E+01    0.564E+00
DAV:   2    -0.309188772970E+03   -0.14348E+01   -0.13008E+01 70596   0.174E+01    0.136E+01
DAV:   3    -0.307649829744E+03    0.15389E+01   -0.12667E+01 72564   0.203E+01    0.467E+00
DAV:   4    -0.307560074731E+03    0.89755E-01   -0.28007E+00 73260   0.640E+00    0.397E+00
DAV:   5    -0.307477352602E+03    0.82722E-01   -0.22158E+00 70008   0.602E+00    0.332E+00
DAV:   6    -0.307419047515E+03    0.58305E-01   -0.11956E+00 69000   0.514E+00    0.234E+00
DAV:   7    -0.307385846950E+03    0.33201E-01   -0.56022E-01 70440   0.327E+00    0.165E+00
DAV:   8    -0.307366314388E+03    0.19533E-01   -0.25346E-01 76344   0.211E+00    0.881E-01
DAV:   9    -0.307363741989E+03    0.25724E-02   -0.74829E-02 71496   0.112E+00    0.668E-01
DAV:  10    -0.307361887984E+03    0.18540E-02   -0.26327E-02 64320   0.727E-01    0.492E-01
DAV:  11    -0.307361727018E+03    0.16097E-03   -0.84489E-03 65880   0.392E-01    0.394E-01
DAV:  12    -0.307362925540E+03   -0.11985E-02   -0.74181E-03 70644   0.349E-01    0.360E-01
DAV:  13    -0.307364804146E+03   -0.18786E-02   -0.16046E-02 67668   0.576E-01    0.423E-01
DAV:  14    -0.307363887729E+03    0.91642E-03   -0.12814E-02 73824   0.490E-01    0.133E-01
DAV:  15    -0.307363751532E+03    0.13620E-03   -0.41238E-03 61188   0.213E-01    0.766E-02
DAV:  16    -0.307363700506E+03    0.51026E-04   -0.13885E-03 58440   0.124E-01    0.491E-02
DAV:  17    -0.307363671129E+03    0.29378E-04   -0.14370E-04 26844   0.819E-02
   4 F= -.30736367E+03 E0= -.30736173E+03  d E =0.186275E+01
       N       E                     dE             d eps       ncg     rms          rms(c)
DAV:   1    -0.308104738200E+03   -0.74104E+00   -0.29221E+01 57312   0.252E+01    0.652E+00
DAV:   2    -0.309953590734E+03   -0.18489E+01   -0.16490E+01 69936   0.196E+01    0.158E+01
DAV:   3    -0.307978698070E+03    0.19749E+01   -0.16335E+01 73176   0.240E+01    0.528E+00
DAV:   4    -0.307836193881E+03    0.14250E+00   -0.34194E+00 72744   0.698E+00    0.419E+00
DAV:   5    -0.307752015608E+03    0.84178E-01   -0.27421E+00 70056   0.680E+00    0.366E+00
DAV:   6    -0.307664759083E+03    0.87257E-01   -0.14858E+00 68700   0.587E+00    0.231E+00
DAV:   7    -0.307637620971E+03    0.27138E-01   -0.64278E-01 69624   0.348E+00    0.190E+00
DAV:   8    -0.307614168354E+03    0.23453E-01   -0.31462E-01 74304   0.239E+00    0.104E+00
DAV:   9    -0.307609401437E+03    0.47669E-02   -0.84718E-02 71532   0.121E+00    0.728E-01
DAV:  10    -0.307607558644E+03    0.18428E-02   -0.27936E-02 66336   0.750E-01    0.565E-01
DAV:  11    -0.307607559991E+03   -0.13471E-05   -0.10486E-02 63216   0.454E-01    0.467E-01
DAV:  12    -0.307609177533E+03   -0.16175E-02   -0.91834E-03 72192   0.385E-01    0.380E-01
DAV:  13    -0.307612414249E+03   -0.32367E-02   -0.22268E-02 67740   0.672E-01    0.544E-01
DAV:  14    -0.307610445424E+03    0.19688E-02   -0.19400E-02 67488   0.642E-01    0.171E-01
DAV:  15    -0.307610173351E+03    0.27207E-03   -0.55236E-03 61728   0.267E-01    0.857E-02
DAV:  16    -0.307610104410E+03    0.68942E-04   -0.16939E-03 59016   0.139E-01    0.554E-02
DAV:  17    -0.307610071114E+03    0.33296E-04   -0.14253E-04 26880   0.734E-02
   5 F= -.30761007E+03 E0= -.30760838E+03  d E =0.161635E+01
       N       E                     dE             d eps       ncg     rms          rms(c)
DAV:   1    -0.307642975487E+03   -0.32871E-01   -0.13615E+00 57588   0.545E+00    0.139E+00
DAV:   2    -0.307731910481E+03   -0.88935E-01   -0.75191E-01 71160   0.431E+00    0.324E+00
DAV:   3    -0.307639626273E+03    0.92284E-01   -0.66907E-01 70656   0.404E+00    0.124E+00
DAV:   4    -0.307631592940E+03    0.80333E-02   -0.16446E-01 71976   0.163E+00    0.892E-01
DAV:   5    -0.307627830245E+03    0.37627E-02   -0.12235E-01 70128   0.148E+00    0.772E-01
DAV:   6    -0.307622768367E+03    0.50619E-02   -0.62555E-02 69072   0.118E+00    0.428E-01
DAV:   7    -0.307621897463E+03    0.87090E-03   -0.24579E-02 69516   0.682E-01    0.384E-01
DAV:   8    -0.307621059568E+03    0.83790E-03   -0.13689E-02 66504   0.526E-01    0.219E-01
DAV:   9    -0.307620871373E+03    0.18819E-03   -0.34504E-03 62232   0.256E-01    0.151E-01
DAV:  10    -0.307620780127E+03    0.91246E-04   -0.90030E-04 49824   0.146E-01
   6 F= -.30762078E+03 E0= -.30761897E+03  d E =0.160564E+01
       N       E                     dE             d eps       ncg     rms          rms(c)
DAV:   1    -0.308052135866E+03   -0.43126E+00   -0.10026E+02 41280   0.347E+01    0.558E+00
DAV:   2    -0.311564903259E+03   -0.35128E+01   -0.25672E+01 69624   0.314E+01    0.149E+01
DAV:   3    -0.308618676367E+03    0.29462E+01   -0.13915E+01 71040   0.161E+01    0.471E+00
DAV:   4    -0.308508923771E+03    0.10975E+00   -0.30596E+00 68040   0.749E+00    0.429E+00
DAV:   5    -0.308412394443E+03    0.96529E-01   -0.19429E+00 68460   0.637E+00    0.274E+00
DAV:   6    -0.308364548359E+03    0.47846E-01   -0.74628E-01 71124   0.369E+00    0.199E+00
DAV:   7    -0.308340432596E+03    0.24116E-01   -0.44232E-01 74148   0.321E+00    0.144E+00
DAV:   8    -0.308339141498E+03    0.12911E-02   -0.31217E-01 75972   0.251E+00    0.127E+00
DAV:   9    -0.308322098596E+03    0.17043E-01   -0.12328E-01 73560   0.158E+00    0.676E-01
DAV:  10    -0.308320487307E+03    0.16113E-02   -0.45063E-02 72936   0.891E-01    0.564E-01
DAV:  11    -0.308319878120E+03    0.60919E-03   -0.23602E-02 60708   0.639E-01    0.436E-01
DAV:  12    -0.308320368121E+03   -0.49000E-03   -0.13046E-02 71676   0.457E-01    0.328E-01
DAV:  13    -0.308321004086E+03   -0.63596E-03   -0.16306E-02 62424   0.566E-01    0.348E-01
DAV:  14    -0.308320214320E+03    0.78977E-03   -0.11583E-02 63444   0.472E-01    0.150E-01
DAV:  15    -0.308320028248E+03    0.18607E-03   -0.37660E-03 65232   0.225E-01    0.819E-02
DAV:  16    -0.308319967690E+03    0.60558E-04   -0.11555E-03 57912   0.134E-01    0.618E-02
DAV:  17    -0.308319941250E+03    0.26440E-04   -0.22018E-04 29976   0.104E-01
   7 F= -.30831994E+03 E0= -.30831929E+03  d E =-.699161E+00
       N       E                     dE             d eps       ncg     rms          rms(c)
DAV:   1    -0.308250450029E+03    0.69518E-01   -0.11728E+02 41712   0.376E+01    0.617E+00
DAV:   2    -0.311870696187E+03   -0.36202E+01   -0.28839E+01 68688   0.341E+01    0.147E+01
DAV:   3    -0.308877019727E+03    0.29937E+01   -0.14684E+01 70560   0.171E+01    0.487E+00
DAV:   4    -0.308766642467E+03    0.11038E+00   -0.32737E+00 67764   0.783E+00    0.459E+00
DAV:   5    -0.308665373324E+03    0.10127E+00   -0.21670E+00 67032   0.695E+00    0.297E+00
DAV:   6    -0.308609100856E+03    0.56272E-01   -0.84749E-01 71448   0.405E+00    0.212E+00
DAV:   7    -0.308587553160E+03    0.21548E-01   -0.57320E-01 73416   0.370E+00    0.165E+00
DAV:   8    -0.308577620232E+03    0.99329E-02   -0.35091E-01 75804   0.274E+00    0.121E+00
DAV:   9    -0.308561081041E+03    0.16539E-01   -0.11715E-01 73248   0.157E+00    0.667E-01
DAV:  10    -0.308559343335E+03    0.17377E-02   -0.43254E-02 73572   0.857E-01    0.532E-01
DAV:  11    -0.308559859074E+03   -0.51574E-03   -0.27175E-02 64512   0.700E-01    0.492E-01
DAV:  12    -0.308559757731E+03    0.10134E-03   -0.16062E-02 65700   0.540E-01    0.294E-01
DAV:  13    -0.308560339406E+03   -0.58167E-03   -0.14203E-02 62652   0.552E-01    0.325E-01
DAV:  14    -0.308559616133E+03    0.72327E-03   -0.11517E-02 63372   0.495E-01    0.156E-01
DAV:  15    -0.308559377415E+03    0.23872E-03   -0.30630E-03 61056   0.233E-01    0.673E-02
DAV:  16    -0.308559335850E+03    0.41565E-04   -0.77838E-04 50340   0.113E-01
   8 F= -.30855934E+03 E0= -.30855921E+03  d E =-.938556E+00
       N       E                     dE             d eps       ncg     rms          rms(c)
DAV:   1    -0.308597539184E+03   -0.38162E-01   -0.12451E+02 48840   0.441E+01    0.813E+00
DAV:   2    -0.310720392907E+03   -0.21229E+01   -0.24463E+01 69744   0.261E+01    0.120E+01
DAV:   3    -0.309113199740E+03    0.16072E+01   -0.15491E+01 73248   0.168E+01    0.620E+00
DAV:   4    -0.309112926816E+03    0.27292E-03   -0.57808E+00 69060   0.118E+01    0.570E+00
DAV:   5    -0.308790380273E+03    0.32255E+00   -0.30339E+00 68388   0.853E+00    0.277E+00
DAV:   6    -0.308712566086E+03    0.77814E-01   -0.10957E+00 70668   0.489E+00    0.190E+00
DAV:   7    -0.308705313131E+03    0.72530E-02   -0.54496E-01 73884   0.333E+00    0.183E+00
DAV:   8    -0.308688200276E+03    0.17113E-01   -0.32257E-01 70608   0.269E+00    0.124E+00
DAV:   9    -0.308677665227E+03    0.10535E-01   -0.88722E-02 72444   0.137E+00    0.646E-01
DAV:  10    -0.308678802587E+03   -0.11374E-02   -0.27768E-02 66348   0.769E-01    0.630E-01
DAV:  11    -0.308678812990E+03   -0.10403E-04   -0.16475E-02 63036   0.608E-01    0.423E-01
DAV:  12    -0.308680795790E+03   -0.19828E-02   -0.14139E-02 75600   0.518E-01    0.322E-01
DAV:  13    -0.308681329937E+03   -0.53415E-03   -0.21596E-02 69504   0.629E-01    0.346E-01
DAV:  14    -0.308680435414E+03    0.89452E-03   -0.11637E-02 63312   0.503E-01    0.147E-01
DAV:  15    -0.308680214600E+03    0.22081E-03   -0.29762E-03 62736   0.229E-01    0.739E-02
DAV:  16    -0.308680142222E+03    0.72378E-04   -0.46362E-04 40668   0.105E-01
   9 F= -.30868014E+03 E0= -.30867959E+03  d E =-.120806E+00
       N       E                     dE             d eps       ncg     rms          rms(c)
DAV:   1    -0.308700662192E+03   -0.20448E-01   -0.13396E+01 41280   0.142E+01    0.290E+00
DAV:   2    -0.308904598103E+03   -0.20394E+00   -0.25077E+00 70524   0.805E+00    0.365E+00
DAV:   3    -0.308797292211E+03    0.10731E+00   -0.17836E+00 70380   0.685E+00    0.246E+00
DAV:   4    -0.308757217352E+03    0.40075E-01   -0.56273E-01 71856   0.367E+00    0.163E+00
DAV:   5    -0.308730861199E+03    0.26356E-01   -0.31959E-01 69576   0.261E+00    0.101E+00
DAV:   6    -0.308722252320E+03    0.86089E-02   -0.13305E-01 69732   0.179E+00    0.612E-01
DAV:   7    -0.308719843097E+03    0.24092E-02   -0.48430E-02 76548   0.931E-01    0.429E-01
DAV:   8    -0.308719932078E+03   -0.88980E-04   -0.24159E-02 68376   0.744E-01    0.436E-01
DAV:   9    -0.308718677305E+03    0.12548E-02   -0.98538E-03 60456   0.470E-01    0.224E-01
DAV:  10    -0.308719020780E+03   -0.34347E-03   -0.33091E-03 59292   0.269E-01    0.235E-01
DAV:  11    -0.308718968787E+03    0.51993E-04   -0.26179E-03 57660   0.256E-01    0.137E-01
DAV:  12    -0.308719292289E+03   -0.32350E-03   -0.22468E-03 66060   0.223E-01    0.141E-01
DAV:  13    -0.308719167443E+03    0.12485E-03   -0.26415E-03 59124   0.250E-01    0.884E-02
DAV:  14    -0.308719113799E+03    0.53644E-04   -0.93060E-04 52740   0.149E-01
  10 F= -.30871911E+03 E0= -.30871899E+03  d E =-.159778E+00
       N       E                     dE             d eps       ncg     rms          rms(c)
DAV:   1    -0.308727923254E+03   -0.87558E-02   -0.24895E+01 41280   0.179E+01    0.237E+00
DAV:   2    -0.309108268445E+03   -0.38035E+00   -0.41086E+00 70716   0.107E+01    0.471E+00
DAV:   3    -0.308924088072E+03    0.18418E+00   -0.20803E+00 67464   0.716E+00    0.232E+00
DAV:   4    -0.308890821126E+03    0.33267E-01   -0.50988E-01 70644   0.339E+00    0.163E+00
DAV:   5    -0.308871961667E+03    0.18859E-01   -0.30016E-01 64788   0.239E+00    0.123E+00
DAV:   6    -0.308862269585E+03    0.96921E-02   -0.14849E-01 67668   0.186E+00    0.789E-01
DAV:   7    -0.308858475123E+03    0.37945E-02   -0.81602E-02 74928   0.127E+00    0.576E-01
DAV:   8    -0.308858550430E+03   -0.75307E-04   -0.58354E-02 72084   0.111E+00    0.577E-01
DAV:   9    -0.308855109076E+03    0.34414E-02   -0.23606E-02 67368   0.725E-01    0.228E-01
DAV:  10    -0.308854707795E+03    0.40128E-03   -0.51798E-03 67044   0.299E-01    0.161E-01
DAV:  11    -0.308854730755E+03   -0.22960E-04   -0.18330E-03 61236   0.192E-01    0.131E-01
DAV:  12    -0.308854786719E+03   -0.55964E-04   -0.14462E-03 57948   0.167E-01    0.104E-01
DAV:  13    -0.308854821254E+03   -0.34535E-04   -0.12550E-03 55728   0.169E-01    0.871E-02
DAV:  14    -0.308854804629E+03    0.16625E-04   -0.10291E-03 50844   0.178E-01    0.698E-02
DAV:  15    -0.308854745448E+03    0.59181E-04   -0.36966E-04 36288   0.125E-01
  11 F= -.30885475E+03 E0= -.30885512E+03  d E =-.135632E+00
       N       E                     dE             d eps       ncg     rms          rms(c)
DAV:   1    -0.308779055087E+03    0.75750E-01   -0.23174E+01 41280   0.173E+01    0.228E+00
DAV:   2    -0.309109474280E+03   -0.33042E+00   -0.36918E+00 70596   0.101E+01    0.424E+00
DAV:   3    -0.308966552048E+03    0.14292E+00   -0.18005E+00 67680   0.668E+00    0.229E+00
DAV:   4    -0.308931035594E+03    0.35516E-01   -0.46347E-01 70716   0.329E+00    0.149E+00
DAV:   5    -0.308915486407E+03    0.15549E-01   -0.26359E-01 65484   0.224E+00    0.117E+00
DAV:   6    -0.308906961495E+03    0.85249E-02   -0.13831E-01 66996   0.181E+00    0.763E-01
DAV:   7    -0.308903376565E+03    0.35849E-02   -0.73017E-02 76932   0.120E+00    0.543E-01
DAV:   8    -0.308903192928E+03    0.18364E-03   -0.50724E-02 72180   0.105E+00    0.539E-01
DAV:   9    -0.308900303970E+03    0.28890E-02   -0.20761E-02 66480   0.695E-01    0.221E-01
DAV:  10    -0.308899912712E+03    0.39126E-03   -0.45277E-03 63924   0.280E-01    0.149E-01
DAV:  11    -0.308899942374E+03   -0.29662E-04   -0.14598E-03 58032   0.175E-01    0.123E-01
DAV:  12    -0.308900003922E+03   -0.61548E-04   -0.12941E-03 57492   0.165E-01    0.101E-01
DAV:  13    -0.308900031503E+03   -0.27580E-04   -0.11356E-03 55092   0.162E-01    0.806E-02
DAV:  14    -0.308900018017E+03    0.13485E-04   -0.89546E-04 49500   0.168E-01
  12 F= -.30890002E+03 E0= -.30890054E+03  d E =-.180904E+00
       N       E                     dE             d eps       ncg     rms          rms(c)
DAV:   1    -0.308899078824E+03    0.95268E-03   -0.21232E+01 41364   0.181E+01    0.350E+00
DAV:   2    -0.309229176485E+03   -0.33010E+00   -0.38932E+00 69336   0.110E+01    0.512E+00
DAV:   3    -0.309055754395E+03    0.17342E+00   -0.27376E+00 68232   0.833E+00    0.329E+00
DAV:   4    -0.309025464396E+03    0.30290E-01   -0.12529E+00 67584   0.531E+00    0.243E+00
DAV:   5    -0.308957455101E+03    0.68009E-01   -0.56533E-01 62748   0.349E+00    0.141E+00
DAV:   6    -0.308945721931E+03    0.11733E-01   -0.28267E-01 72756   0.225E+00    0.902E-01
DAV:   7    -0.308940899497E+03    0.48224E-02   -0.11013E-01 74400   0.142E+00    0.674E-01
DAV:   8    -0.308938350077E+03    0.25494E-02   -0.51434E-02 74664   0.106E+00    0.532E-01
DAV:   9    -0.308936700883E+03    0.16492E-02   -0.16418E-02 69168   0.611E-01    0.353E-01
DAV:  10    -0.308936683469E+03    0.17414E-04   -0.81520E-03 63696   0.392E-01    0.294E-01
DAV:  11    -0.308937217593E+03   -0.53412E-03   -0.71621E-03 60912   0.380E-01    0.268E-01
DAV:  12    -0.308937095067E+03    0.12253E-03   -0.68764E-03 65592   0.372E-01    0.157E-01
DAV:  13    -0.308936892224E+03    0.20284E-03   -0.35837E-03 66132   0.257E-01    0.947E-02
DAV:  14    -0.308936900540E+03   -0.83159E-05   -0.20886E-03 68064   0.200E-01    0.924E-02
DAV:  15    -0.308936836131E+03    0.64409E-04   -0.71458E-04 47928   0.145E-01
  13 F= -.30893684E+03 E0= -.30893770E+03  d E =-.368181E-01
       N       E                     dE             d eps       ncg     rms          rms(c)
DAV:   1    -0.308938504235E+03   -0.16037E-02   -0.93041E-01 41316   0.376E+00    0.762E-01
DAV:   2    -0.308953349393E+03   -0.14845E-01   -0.17842E-01 69888   0.237E+00    0.109E+00
DAV:   3    -0.308945856073E+03    0.74933E-02   -0.12787E-01 67836   0.183E+00    0.726E-01
DAV:   4    -0.308943195088E+03    0.26610E-02   -0.51187E-02 65760   0.104E+00    0.498E-01
DAV:   5    -0.308940830072E+03    0.23650E-02   -0.28441E-02 63972   0.793E-01    0.331E-01
DAV:   6    -0.308940077207E+03    0.75287E-03   -0.13260E-02 67848   0.496E-01    0.187E-01
DAV:   7    -0.308939844763E+03    0.23244E-03   -0.47527E-03 64752   0.303E-01    0.137E-01
DAV:   8    -0.308939751359E+03    0.93404E-04   -0.23683E-03 61836   0.232E-01    0.110E-01
DAV:   9    -0.308939671748E+03    0.79611E-04   -0.74461E-04 47268   0.147E-01
  14 F= -.30893967E+03 E0= -.30894047E+03  d E =-.396537E-01
       N       E                     dE             d eps       ncg     rms          rms(c)
DAV:   1    -0.308901864696E+03    0.37887E-01   -0.17337E+01 41280   0.151E+01    0.242E+00
DAV:   2    -0.309112448034E+03   -0.21058E+00   -0.26608E+00 70200   0.836E+00    0.357E+00
DAV:   3    -0.309038011782E+03    0.74436E-01   -0.15132E+00 67368   0.612E+00    0.245E+00
DAV:   4    -0.308993434570E+03    0.44577E-01   -0.44914E-01 72024   0.327E+00    0.138E+00
DAV:   5    -0.308976906945E+03    0.16528E-01   -0.24769E-01 68940   0.212E+00    0.952E-01
DAV:   6    -0.308969975576E+03    0.69314E-02   -0.12001E-01 69492   0.168E+00    0.658E-01
DAV:   7    -0.308966906016E+03    0.30696E-02   -0.52837E-02 78552   0.938E-01    0.406E-01
DAV:   8    -0.308966365211E+03    0.54080E-03   -0.22806E-02 72696   0.681E-01    0.376E-01
DAV:   9    -0.308965389711E+03    0.97550E-03   -0.10300E-02 62256   0.494E-01    0.223E-01
DAV:  10    -0.308965326990E+03    0.62721E-04   -0.31567E-03 63528   0.250E-01    0.173E-01
DAV:  11    -0.308965588066E+03   -0.26108E-03   -0.22348E-03 61380   0.219E-01    0.156E-01
DAV:  12    -0.308965648927E+03   -0.60861E-04   -0.28589E-03 58668   0.270E-01    0.129E-01
DAV:  13    -0.308965553475E+03    0.95452E-04   -0.17913E-03 61572   0.196E-01    0.543E-02
DAV:  14    -0.308965535891E+03    0.17584E-04   -0.64277E-04 47916   0.119E-01
  15 F= -.30896554E+03 E0= -.30896664E+03  d E =-.258641E-01
       N       E                     dE             d eps       ncg     rms          rms(c)
DAV:   1    -0.308965018790E+03    0.53469E-03   -0.52153E-01 41316   0.263E+00    0.424E-01
DAV:   2    -0.308971355383E+03   -0.63366E-02   -0.80810E-02 69876   0.144E+00    0.640E-01
DAV:   3    -0.308969031505E+03    0.23239E-02   -0.46413E-02 67080   0.108E+00    0.422E-01
DAV:   4    -0.308967715134E+03    0.13164E-02   -0.12861E-02 64692   0.534E-01    0.245E-01
DAV:   5    -0.308967179732E+03    0.53540E-03   -0.79787E-03 65820   0.382E-01    0.174E-01
DAV:   6    -0.308966957059E+03    0.22267E-03   -0.38679E-03 65640   0.300E-01    0.118E-01
DAV:   7    -0.308966841061E+03    0.11600E-03   -0.16440E-03 62016   0.171E-01    0.676E-02
DAV:   8    -0.308966814164E+03    0.26897E-04   -0.72003E-04 47160   0.142E-01
  16 F= -.30896681E+03 E0= -.30896787E+03  d E =-.271424E-01
       N       E                     dE             d eps       ncg     rms          rms(c)
DAV:   1    -0.308969225101E+03   -0.23840E-02   -0.13289E+00 41280   0.380E+00    0.422E-01
DAV:   2    -0.308984677784E+03   -0.15453E-01   -0.14775E-01 68940   0.209E+00    0.943E-01
DAV:   3    -0.308976108274E+03    0.85695E-02   -0.64252E-02 67056   0.133E+00    0.311E-01
DAV:   4    -0.308975654268E+03    0.45401E-03   -0.11093E-02 64740   0.501E-01    0.238E-01
DAV:   5    -0.308975219586E+03    0.43468E-03   -0.72037E-03 62388   0.395E-01    0.192E-01
DAV:   6    -0.308974993855E+03    0.22573E-03   -0.39152E-03 59952   0.312E-01    0.137E-01
DAV:   7    -0.308975023526E+03   -0.29671E-04   -0.31851E-03 60300   0.253E-01    0.157E-01
DAV:   8    -0.308974848649E+03    0.17488E-03   -0.21420E-03 56364   0.229E-01    0.891E-02
DAV:   9    -0.308974756331E+03    0.92317E-04   -0.55386E-04 42804   0.126E-01
  17 F= -.30897476E+03 E0= -.30897574E+03  d E =-.794217E-02
       N       E                     dE             d eps       ncg     rms          rms(c)
DAV:   1    -0.308969473701E+03    0.53749E-02   -0.20568E+00 41280   0.474E+00    0.521E-01
DAV:   2    -0.308993543558E+03   -0.24070E-01   -0.22786E-01 68856   0.261E+00    0.118E+00
DAV:   3    -0.308980018345E+03    0.13525E-01   -0.98856E-02 67176   0.165E+00    0.379E-01
DAV:   4    -0.308979423893E+03    0.59445E-03   -0.16580E-02 67680   0.611E-01    0.305E-01
DAV:   5    -0.308978701684E+03    0.72221E-03   -0.11041E-02 62676   0.478E-01    0.235E-01
DAV:   6    -0.308978405979E+03    0.29570E-03   -0.58784E-03 60120   0.376E-01    0.175E-01
DAV:   7    -0.308978409989E+03   -0.40100E-05   -0.51489E-03 63924   0.312E-01    0.189E-01
DAV:   8    -0.308978169216E+03    0.24077E-03   -0.32958E-03 57984   0.277E-01    0.118E-01
DAV:   9    -0.308978018717E+03    0.15050E-03   -0.10068E-03 50748   0.157E-01    0.459E-02
DAV:  10    -0.308977993550E+03    0.25167E-04   -0.17577E-04 26916   0.828E-02
  18 F= -.30897799E+03 E0= -.30897883E+03  d E =-.111794E-01
       N       E                     dE             d eps       ncg     rms          rms(c)
DAV:   1    -0.308977630347E+03    0.38837E-03   -0.18946E+00 41280   0.521E+00    0.917E-01
DAV:   2    -0.308994714636E+03   -0.17084E-01   -0.26576E-01 69912   0.268E+00    0.101E+00
DAV:   3    -0.308994171675E+03    0.54296E-03   -0.17612E-01 67224   0.210E+00    0.104E+00
DAV:   4    -0.308986772732E+03    0.73989E-02   -0.86676E-02 67536   0.140E+00    0.568E-01
DAV:   5    -0.308984029065E+03    0.27437E-02   -0.37049E-02 68688   0.860E-01    0.410E-01
DAV:   6    -0.308983051442E+03    0.97762E-03   -0.18679E-02 68088   0.637E-01    0.265E-01
DAV:   7    -0.308982553226E+03    0.49822E-03   -0.77238E-03 68964   0.401E-01    0.170E-01
DAV:   8    -0.308982409027E+03    0.14420E-03   -0.34891E-03 63612   0.270E-01    0.132E-01
DAV:   9    -0.308982294006E+03    0.11502E-03   -0.12573E-03 53748   0.180E-01    0.882E-02
DAV:  10    -0.308982273676E+03    0.20330E-04   -0.48712E-04 41148   0.118E-01
  19 F= -.30898227E+03 E0= -.30898296E+03  d E =-.428013E-02
       N       E                     dE             d eps       ncg     rms          rms(c)
DAV:   1    -0.308982313182E+03   -0.19176E-04   -0.23993E-02 48756   0.599E-01    0.115E-01
DAV:   2    -0.308983079621E+03   -0.76644E-03   -0.74380E-03 68388   0.442E-01    0.249E-01
DAV:   3    -0.308982366884E+03    0.71274E-03   -0.50919E-03 59364   0.342E-01    0.843E-02
DAV:   4    -0.308982376583E+03   -0.96984E-05   -0.10389E-03 52560   0.155E-01    0.819E-02
DAV:   5    -0.308982309808E+03    0.66775E-04   -0.45169E-04 39552   0.127E-01
  20 F= -.30898231E+03 E0= -.30898297E+03  d E =-.431626E-02
       N       E                     dE             d eps       ncg     rms          rms(c)
DAV:   1    -0.308980076021E+03    0.23006E-02   -0.12010E+00 41280   0.389E+00    0.478E-01
DAV:   2    -0.308990561220E+03   -0.10485E-01   -0.13076E-01 68088   0.177E+00    0.620E-01
DAV:   3    -0.308989209384E+03    0.13518E-02   -0.56238E-02 67368   0.120E+00    0.510E-01
DAV:   4    -0.308987093990E+03    0.21154E-02   -0.17134E-02 63156   0.646E-01    0.232E-01
DAV:   5    -0.308986658754E+03    0.43524E-03   -0.74836E-03 65568   0.341E-01    0.194E-01
DAV:   6    -0.308986679053E+03   -0.20299E-04   -0.58127E-03 61320   0.360E-01    0.203E-01
DAV:   7    -0.308986366409E+03    0.31264E-03   -0.32178E-03 59340   0.278E-01    0.120E-01
DAV:   8    -0.308986240180E+03    0.12623E-03   -0.16802E-03 59160   0.214E-01    0.682E-02
DAV:   9    -0.308986186076E+03    0.54104E-04   -0.33517E-04 36216   0.109E-01
  21 F= -.30898619E+03 E0= -.30898669E+03  d E =-.387627E-02
       N       E                     dE             d eps       ncg     rms          rms(c)
DAV:   1    -0.308984277627E+03    0.19626E-02   -0.51059E-01 41280   0.254E+00    0.304E-01
DAV:   2    -0.308988563414E+03   -0.42858E-02   -0.54234E-02 68016   0.114E+00    0.383E-01
DAV:   3    -0.308988206897E+03    0.35652E-03   -0.22668E-02 67716   0.764E-01    0.338E-01
DAV:   4    -0.308987319175E+03    0.88772E-03   -0.74347E-03 58920   0.431E-01    0.165E-01
DAV:   5    -0.308987110534E+03    0.20864E-03   -0.33869E-03 59784   0.258E-01    0.135E-01
DAV:   6    -0.308987044122E+03    0.66412E-04   -0.22062E-03 57840   0.235E-01    0.110E-01
DAV:   7    -0.308986980161E+03    0.63961E-04   -0.11802E-03 51576   0.178E-01    0.860E-02
DAV:   8    -0.308986901433E+03    0.78728E-04   -0.61813E-04 43164   0.152E-01
  22 F= -.30898690E+03 E0= -.30898730E+03  d E =-.459163E-02
       N       E                     dE             d eps       ncg     rms          rms(c)
DAV:   1    -0.308985264000E+03    0.17162E-02   -0.68377E-01 41280   0.291E+00    0.293E-01
DAV:   2    -0.308991022879E+03   -0.57589E-02   -0.72170E-02 67344   0.138E+00    0.363E-01
DAV:   3    -0.308990989811E+03    0.33068E-04   -0.22104E-02 66552   0.762E-01    0.364E-01
DAV:   4    -0.308989866701E+03    0.11231E-02   -0.85385E-03 59868   0.462E-01    0.160E-01
DAV:   5    -0.308989703590E+03    0.16311E-03   -0.27673E-03 64428   0.246E-01    0.138E-01
DAV:   6    -0.308989638666E+03    0.64925E-04   -0.19502E-03 57444   0.219E-01    0.116E-01
DAV:   7    -0.308989559958E+03    0.78707E-04   -0.13500E-03 55668   0.181E-01    0.772E-02
DAV:   8    -0.308989535808E+03    0.24151E-04   -0.82979E-04 46020   0.163E-01
  23 F= -.30898954E+03 E0= -.30898979E+03  d E =-.263437E-02
       N       E                     dE             d eps       ncg     rms          rms(c)
DAV:   1    -0.308962508445E+03    0.27052E-01   -0.46048E+00 41280   0.754E+00    0.764E-01
DAV:   2    -0.309001215378E+03   -0.38707E-01   -0.48278E-01 67176   0.365E+00    0.901E-01
DAV:   3    -0.309000631207E+03    0.58417E-03   -0.13818E-01 66696   0.189E+00    0.889E-01
DAV:   4    -0.308994230589E+03    0.64006E-02   -0.57250E-02 70560   0.119E+00    0.428E-01
DAV:   5    -0.308992879596E+03    0.13510E-02   -0.18149E-02 68808   0.620E-01    0.336E-01
DAV:   6    -0.308992552816E+03    0.32678E-03   -0.12199E-02 69456   0.527E-01    0.282E-01
DAV:   7    -0.308992098213E+03    0.45460E-03   -0.85664E-03 65736   0.423E-01    0.198E-01
DAV:   8    -0.308991901705E+03    0.19651E-03   -0.54376E-03 68448   0.361E-01    0.175E-01
DAV:   9    -0.308991591618E+03    0.31009E-03   -0.24743E-03 62784   0.227E-01    0.717E-02
DAV:  10    -0.308991542724E+03    0.48894E-04   -0.33889E-04 36036   0.110E-01
  24 F= -.30899154E+03 E0= -.30899146E+03  d E =-.464129E-02
       N       E                     dE             d eps       ncg     rms          rms(c)
DAV:   1    -0.308990329269E+03    0.12623E-02   -0.54306E-01 41280   0.266E+00    0.354E-01
DAV:   2    -0.308994827765E+03   -0.44985E-02   -0.62878E-02 66804   0.121E+00    0.379E-01
DAV:   3    -0.308995162037E+03   -0.33427E-03   -0.25902E-02 67740   0.819E-01    0.422E-01
DAV:   4    -0.308993704873E+03    0.14572E-02   -0.10732E-02 60444   0.525E-01    0.192E-01
DAV:   5    -0.308993377351E+03    0.32752E-03   -0.46710E-03 63468   0.310E-01    0.154E-01
DAV:   6    -0.308993343335E+03    0.34015E-04   -0.33528E-03 58428   0.286E-01    0.137E-01
DAV:   7    -0.308993156186E+03    0.18715E-03   -0.16424E-03 58332   0.193E-01    0.581E-02
DAV:   8    -0.308993119042E+03    0.37144E-04   -0.46445E-04 40212   0.111E-01
  25 F= -.30899312E+03 E0= -.30899294E+03  d E =-.157632E-02
       N       E                     dE             d eps       ncg     rms          rms(c)
DAV:   1    -0.308987849050E+03    0.53071E-02   -0.10531E+00 41280   0.370E+00    0.474E-01
DAV:   2    -0.308996035834E+03   -0.81868E-02   -0.11473E-01 66420   0.160E+00    0.462E-01
DAV:   3    -0.308997471229E+03   -0.14354E-02   -0.45157E-02 67716   0.106E+00    0.595E-01
DAV:   4    -0.308994346450E+03    0.31248E-02   -0.19753E-02 64020   0.720E-01    0.226E-01
DAV:   5    -0.308993880781E+03    0.46567E-03   -0.74748E-03 66420   0.366E-01    0.186E-01
DAV:   6    -0.308993910900E+03   -0.30119E-04   -0.57119E-03 61056   0.366E-01    0.188E-01
DAV:   7    -0.308993534022E+03    0.37688E-03   -0.26428E-03 60960   0.240E-01    0.635E-02
DAV:   8    -0.308993499797E+03    0.34225E-04   -0.54311E-04 44436   0.103E-01
  26 F= -.30899350E+03 E0= -.30899318E+03  d E =-.195707E-02
       N       E                     dE             d eps       ncg     rms          rms(c)
DAV:   1    -0.308990366527E+03    0.31675E-02   -0.81452E-01 41280   0.307E+00    0.332E-01
DAV:   2    -0.308997803507E+03   -0.74370E-02   -0.88849E-02 67224   0.156E+00    0.481E-01
DAV:   3    -0.308996907434E+03    0.89607E-03   -0.28872E-02 66588   0.882E-01    0.361E-01
DAV:   4    -0.308995771886E+03    0.11355E-02   -0.85091E-03 62352   0.460E-01    0.185E-01
DAV:   5    -0.308995597347E+03    0.17454E-03   -0.38330E-03 62436   0.299E-01    0.166E-01
DAV:   6    -0.308995464178E+03    0.13317E-03   -0.25468E-03 60552   0.245E-01    0.121E-01
DAV:   7    -0.308995391804E+03    0.72374E-04   -0.17775E-03 60888   0.189E-01    0.894E-02
DAV:   8    -0.308995354799E+03    0.37005E-04   -0.12273E-03 54372   0.171E-01    0.815E-02
DAV:   9    -0.308995273831E+03    0.80969E-04   -0.42426E-04 39228   0.124E-01
  27 F= -.30899527E+03 E0= -.30899491E+03  d E =-.177403E-02
       N       E                     dE             d eps       ncg     rms          rms(c)
DAV:   1    -0.308988390052E+03    0.69647E-02   -0.12278E+00 41280   0.376E+00    0.406E-01
DAV:   2    -0.308999973897E+03   -0.11584E-01   -0.13527E-01 66948   0.193E+00    0.605E-01
DAV:   3    -0.308998532667E+03    0.14412E-02   -0.45417E-02 66432   0.110E+00    0.453E-01
DAV:   4    -0.308996779289E+03    0.17534E-02   -0.13608E-02 63624   0.575E-01    0.216E-01
DAV:   5    -0.308996502940E+03    0.27635E-03   -0.55041E-03 64800   0.356E-01    0.190E-01
DAV:   6    -0.308996345049E+03    0.15789E-03   -0.34306E-03 62436   0.278E-01    0.142E-01
DAV:   7    -0.308996263025E+03    0.82025E-04   -0.23911E-03 62772   0.224E-01    0.112E-01
DAV:   8    -0.308996206907E+03    0.56118E-04   -0.18173E-03 63504   0.202E-01    0.978E-02
DAV:   9    -0.308996100998E+03    0.10591E-03   -0.63565E-04 45804   0.129E-01    0.380E-02
DAV:  10    -0.308996088141E+03    0.12858E-04   -0.11089E-04 26832   0.664E-02
  28 F= -.30899609E+03 E0= -.30899564E+03  d E =-.258834E-02
       N       E                     dE             d eps       ncg     rms          rms(c)
DAV:   1    -0.308996733938E+03   -0.63294E-03   -0.10763E-01 41340   0.107E+00    0.105E-01
DAV:   2    -0.308997558399E+03   -0.82446E-03   -0.94892E-03 68052   0.480E-01    0.139E-01
DAV:   3    -0.308997470324E+03    0.88074E-04   -0.30267E-03 65772   0.279E-01    0.111E-01
DAV:   4    -0.308997376090E+03    0.94234E-04   -0.92812E-04 49464   0.160E-01
  29 F= -.30899738E+03 E0= -.30899693E+03  d E =-.128795E-02
       N       E                     dE             d eps       ncg     rms          rms(c)
DAV:   1    -0.308993964344E+03    0.35060E-02   -0.96471E-01 41280   0.321E+00    0.320E-01
DAV:   2    -0.309001427228E+03   -0.74629E-02   -0.85168E-02 68412   0.145E+00    0.449E-01
DAV:   3    -0.309000455600E+03    0.97163E-03   -0.28668E-02 67068   0.840E-01    0.360E-01
DAV:   4    -0.308999552022E+03    0.90358E-03   -0.96017E-03 60432   0.483E-01    0.206E-01
DAV:   5    -0.308999231634E+03    0.32039E-03   -0.42014E-03 61980   0.305E-01    0.155E-01
DAV:   6    -0.308999123594E+03    0.10804E-03   -0.23361E-03 57072   0.242E-01    0.124E-01
DAV:   7    -0.308999052775E+03    0.70819E-04   -0.20585E-03 60492   0.202E-01    0.927E-02
DAV:   8    -0.308998964947E+03    0.87828E-04   -0.95880E-04 54504   0.153E-01
  30 F= -.30899896E+03 E0= -.30899857E+03  d E =-.287681E-02
       N       E                     dE             d eps       ncg     rms          rms(c)
DAV:   1    -0.308999122782E+03   -0.70007E-04   -0.21173E-01 41496   0.186E+00    0.381E-01
DAV:   2    -0.309000635656E+03   -0.15129E-02   -0.34703E-02 70596   0.894E-01    0.296E-01
DAV:   3    -0.309001084751E+03   -0.44910E-03   -0.23578E-02 70368   0.682E-01    0.380E-01
DAV:   4    -0.308999981620E+03    0.11031E-02   -0.13675E-02 57624   0.576E-01    0.229E-01
DAV:   5    -0.308999469489E+03    0.51213E-03   -0.50830E-03 64524   0.326E-01    0.132E-01
DAV:   6    -0.308999459372E+03    0.10117E-04   -0.27652E-03 59148   0.255E-01    0.130E-01
DAV:   7    -0.308999319965E+03    0.13941E-03   -0.12059E-03 53100   0.188E-01    0.604E-02
DAV:   8    -0.308999298429E+03    0.21537E-04   -0.40139E-04 37824   0.118E-01
  31 F= -.30899930E+03 E0= -.30899893E+03  d E =-.333482E-03
       N       E                     dE             d eps       ncg     rms          rms(c)
DAV:   1    -0.308999331459E+03   -0.11494E-04   -0.32981E-03 59196   0.241E-01    0.636E-02
DAV:   2    -0.308999629185E+03   -0.29773E-03   -0.22912E-03 69432   0.257E-01    0.158E-01
DAV:   3    -0.308999349599E+03    0.27959E-03   -0.15744E-03 53724   0.205E-01    0.467E-02
DAV:   4    -0.308999331626E+03    0.17974E-04   -0.16462E-04 29328   0.790E-02
  32 F= -.30899933E+03 E0= -.30899897E+03  d E =-.366679E-03
