<?xml version="1.0" encoding="ISO-8859-1"?>
<modeling>
 <generator>
  <i name="program" type="string">vasp </i>
  <i name="version" type="string">5.4.4.18Apr17-6-g9f103f2a35  </i>
  <i name="subversion" type="string">(build Aug 09 2018 16:20:53) complex            parallel </i>
  <i name="platform" type="string">LinuxIFC </i>
  <i name="date" type="string">2020 04 30 </i>
  <i name="time" type="string">10:52:18 </i>
 </generator>
 <incar>
  <i type="string" name="SYSTEM"> Nb - Mo - Ta - Ti - V SQS</i>
  <i type="string" name="PREC">normal</i>
  <i type="int" name="ICHARG">     0</i>
  <i type="int" name="IBRION">     2</i>
  <i type="int" name="NSW">    50</i>
  <i type="int" name="ISIF">     3</i>
  <i name="ENCUT">    600.00000000</i>
  <i type="string" name="LREAL"> Auto</i>
  <i type="int" name="ISMEAR">     1</i>
  <i name="SIGMA">      0.20000000</i>
  <v type="int" name="KPOINT_BSE">    -1     0     0     0</v>
  <i type="string" name="GGA"> PS</i>
 </incar>
 <structure name="primitive_cell" >
  <crystal>
   <varray name="basis" >
    <v>      -3.16000000      -3.16000000      -3.16000000 </v>
    <v>       1.58000000       1.58000000      -7.90000000 </v>
    <v>       7.90000000      -7.90000000      -1.58000000 </v>
   </varray>
   <i name="volume">    473.31744000 </i>
   <varray name="rec_basis" >
    <v>      -0.13713080      -0.12658228      -0.05274262 </v>
    <v>       0.04219409       0.06329114      -0.10548523 </v>
    <v>       0.06329114      -0.06329114       0.00000000 </v>
   </varray>
  </crystal>
  <varray name="positions" >
   <v>      -0.03333333      -0.06666667       0.40000000 </v>
   <v>       0.30000000      -0.40000000       0.40000000 </v>
   <v>      -0.10000000      -0.20000000       0.20000000 </v>
   <v>       0.06666667       0.13333333       0.20000000 </v>
   <v>       0.46666667      -0.06666667       0.40000000 </v>
   <v>      -0.13333333      -0.26666667      -0.40000000 </v>
   <v>       0.03333333       0.06666667      -0.40000000 </v>
   <v>      -0.36666667       0.26666667       0.40000000 </v>
   <v>       0.40000000      -0.20000000       0.20000000 </v>
   <v>      -0.20000000      -0.40000000       0.40000000 </v>
   <v>      -0.43333333       0.13333333       0.20000000 </v>
   <v>       0.36666667      -0.26666667      -0.40000000 </v>
   <v>       0.13333333       0.26666667       0.40000000 </v>
   <v>      -0.46666667       0.06666667      -0.40000000 </v>
   <v>       0.23333333       0.46666667       0.20000000 </v>
   <v>       0.00000000       0.00000000       0.00000000 </v>
   <v>      -0.06666667      -0.13333333      -0.20000000 </v>
   <v>      -0.30000000       0.40000000      -0.40000000 </v>
   <v>      -0.26666667       0.46666667       0.20000000 </v>
   <v>       0.33333333      -0.33333333       0.00000000 </v>
   <v>       0.43333333      -0.13333333      -0.20000000 </v>
   <v>      -0.50000000       0.00000000       0.00000000 </v>
   <v>       0.26666667      -0.46666667      -0.20000000 </v>
   <v>      -0.33333333       0.33333333       0.00000000 </v>
   <v>      -0.40000000       0.20000000      -0.20000000 </v>
   <v>      -0.16666667      -0.33333333       0.00000000 </v>
   <v>      -0.23333333      -0.46666667      -0.20000000 </v>
   <v>       0.16666667       0.33333333       0.00000000 </v>
   <v>       0.10000000       0.20000000      -0.20000000 </v>
  </varray>
 </structure>
 <varray name="primitive_index" >
  <v type="int" >        1 </v>
  <v type="int" >       18 </v>
  <v type="int" >        7 </v>
  <v type="int" >       23 </v>
  <v type="int" >       20 </v>
  <v type="int" >       19 </v>
  <v type="int" >        6 </v>
  <v type="int" >        2 </v>
  <v type="int" >       16 </v>
  <v type="int" >        8 </v>
  <v type="int" >       15 </v>
  <v type="int" >       11 </v>
  <v type="int" >       12 </v>
  <v type="int" >       27 </v>
  <v type="int" >       29 </v>
  <v type="int" >        4 </v>
  <v type="int" >       14 </v>
  <v type="int" >       25 </v>
  <v type="int" >        9 </v>
  <v type="int" >       28 </v>
  <v type="int" >       17 </v>
  <v type="int" >        3 </v>
  <v type="int" >       22 </v>
  <v type="int" >       10 </v>
  <v type="int" >       26 </v>
  <v type="int" >       13 </v>
  <v type="int" >       24 </v>
  <v type="int" >       21 </v>
  <v type="int" >        5 </v>
 </varray>
 <kpoints>
  <generation param="Gamma">
   <v type="int" name="divisions">       7        7        7 </v>
   <v name="usershift">      0.00000000       0.00000000       0.00000000 </v>
   <v name="genvec1">      0.14285714       0.00000000       0.00000000 </v>
   <v name="genvec2">     -0.00000000       0.14285714       0.00000000 </v>
   <v name="genvec3">      0.00000000       0.00000000       0.14285714 </v>
   <v name="shift">      0.00000000       0.00000000       0.00000000 </v>
  </generation>
  <varray name="kpointlist" >
   <v>       0.00000000       0.00000000       0.00000000 </v>
   <v>       0.14285714       0.00000000      -0.00000000 </v>
   <v>       0.28571429       0.00000000       0.00000000 </v>
   <v>       0.42857143       0.00000000      -0.00000000 </v>
   <v>      -0.00000000       0.14285714       0.00000000 </v>
   <v>       0.14285714       0.14285714      -0.00000000 </v>
   <v>       0.28571429       0.14285714       0.00000000 </v>
   <v>       0.42857143       0.14285714      -0.00000000 </v>
   <v>      -0.42857143       0.14285714       0.00000000 </v>
   <v>      -0.28571429       0.14285714       0.00000000 </v>
   <v>      -0.14285714       0.14285714       0.00000000 </v>
   <v>       0.00000000       0.28571429      -0.00000000 </v>
   <v>       0.14285714       0.28571429      -0.00000000 </v>
   <v>       0.28571429       0.28571429      -0.00000000 </v>
   <v>       0.42857143       0.28571429      -0.00000000 </v>
   <v>      -0.42857143       0.28571429      -0.00000000 </v>
   <v>      -0.28571429       0.28571429      -0.00000000 </v>
   <v>      -0.14285714       0.28571429      -0.00000000 </v>
   <v>      -0.00000000       0.42857143      -0.00000000 </v>
   <v>       0.14285714       0.42857143       0.00000000 </v>
   <v>       0.28571429       0.42857143       0.00000000 </v>
   <v>       0.42857143       0.42857143      -0.00000000 </v>
   <v>      -0.42857143       0.42857143       0.00000000 </v>
   <v>      -0.28571429       0.42857143      -0.00000000 </v>
   <v>      -0.14285714       0.42857143      -0.00000000 </v>
   <v>       0.00000000       0.00000000       0.14285714 </v>
   <v>       0.14285714       0.00000000       0.14285714 </v>
   <v>       0.28571429       0.00000000       0.14285714 </v>
   <v>       0.42857143       0.00000000       0.14285714 </v>
   <v>      -0.42857143       0.00000000       0.14285714 </v>
   <v>      -0.28571429       0.00000000       0.14285714 </v>
   <v>      -0.14285714      -0.00000000       0.14285714 </v>
   <v>      -0.00000000       0.14285714       0.14285714 </v>
   <v>       0.14285714       0.14285714       0.14285714 </v>
   <v>       0.28571429       0.14285714       0.14285714 </v>
   <v>       0.42857143       0.14285714       0.14285714 </v>
   <v>      -0.42857143       0.14285714       0.14285714 </v>
   <v>      -0.28571429       0.14285714       0.14285714 </v>
   <v>      -0.14285714       0.14285714       0.14285714 </v>
   <v>      -0.00000000       0.28571429       0.14285714 </v>
   <v>       0.14285714       0.28571429       0.14285714 </v>
   <v>       0.28571429       0.28571429       0.14285714 </v>
   <v>       0.42857143       0.28571429       0.14285714 </v>
   <v>      -0.42857143       0.28571429       0.14285714 </v>
   <v>      -0.28571429       0.28571429       0.14285714 </v>
   <v>      -0.14285714       0.28571429       0.14285714 </v>
   <v>       0.00000000       0.42857143       0.14285714 </v>
   <v>       0.14285714       0.42857143       0.14285714 </v>
   <v>       0.28571429       0.42857143       0.14285714 </v>
   <v>       0.42857143       0.42857143       0.14285714 </v>
   <v>      -0.42857143       0.42857143       0.14285714 </v>
   <v>      -0.28571429       0.42857143       0.14285714 </v>
   <v>      -0.14285714       0.42857143       0.14285714 </v>
   <v>       0.00000000      -0.42857143       0.14285714 </v>
   <v>       0.14285714      -0.42857143       0.14285714 </v>
   <v>       0.28571429      -0.42857143       0.14285714 </v>
   <v>       0.42857143      -0.42857143       0.14285714 </v>
   <v>      -0.42857143      -0.42857143       0.14285714 </v>
   <v>      -0.28571429      -0.42857143       0.14285714 </v>
   <v>      -0.14285714      -0.42857143       0.14285714 </v>
   <v>       0.00000000      -0.28571429       0.14285714 </v>
   <v>       0.14285714      -0.28571429       0.14285714 </v>
   <v>       0.28571429      -0.28571429       0.14285714 </v>
   <v>       0.42857143      -0.28571429       0.14285714 </v>
   <v>      -0.42857143      -0.28571429       0.14285714 </v>
   <v>      -0.28571429      -0.28571429       0.14285714 </v>
   <v>      -0.14285714      -0.28571429       0.14285714 </v>
   <v>       0.00000000      -0.14285714       0.14285714 </v>
   <v>       0.14285714      -0.14285714       0.14285714 </v>
   <v>       0.28571429      -0.14285714       0.14285714 </v>
   <v>       0.42857143      -0.14285714       0.14285714 </v>
   <v>      -0.42857143      -0.14285714       0.14285714 </v>
   <v>      -0.28571429      -0.14285714       0.14285714 </v>
   <v>      -0.14285714      -0.14285714       0.14285714 </v>
   <v>       0.00000000       0.00000000       0.28571429 </v>
   <v>       0.14285714       0.00000000       0.28571429 </v>
   <v>       0.28571429       0.00000000       0.28571429 </v>
   <v>       0.42857143       0.00000000       0.28571429 </v>
   <v>      -0.42857143      -0.00000000       0.28571429 </v>
   <v>      -0.28571429      -0.00000000       0.28571429 </v>
   <v>      -0.14285714      -0.00000000       0.28571429 </v>
   <v>      -0.00000000       0.14285714       0.28571429 </v>
   <v>       0.14285714       0.14285714       0.28571429 </v>
   <v>       0.28571429       0.14285714       0.28571429 </v>
   <v>       0.42857143       0.14285714       0.28571429 </v>
   <v>      -0.42857143       0.14285714       0.28571429 </v>
   <v>      -0.28571429       0.14285714       0.28571429 </v>
   <v>      -0.14285714       0.14285714       0.28571429 </v>
   <v>      -0.00000000       0.28571429       0.28571429 </v>
   <v>       0.14285714       0.28571429       0.28571429 </v>
   <v>       0.28571429       0.28571429       0.28571429 </v>
   <v>       0.42857143       0.28571429       0.28571429 </v>
   <v>      -0.42857143       0.28571429       0.28571429 </v>
   <v>      -0.28571429       0.28571429       0.28571429 </v>
   <v>      -0.14285714       0.28571429       0.28571429 </v>
   <v>       0.00000000       0.42857143       0.28571429 </v>
   <v>       0.14285714       0.42857143       0.28571429 </v>
   <v>       0.28571429       0.42857143       0.28571429 </v>
   <v>       0.42857143       0.42857143       0.28571429 </v>
   <v>      -0.42857143       0.42857143       0.28571429 </v>
   <v>      -0.28571429       0.42857143       0.28571429 </v>
   <v>      -0.14285714       0.42857143       0.28571429 </v>
   <v>      -0.00000000      -0.42857143       0.28571429 </v>
   <v>       0.14285714      -0.42857143       0.28571429 </v>
   <v>       0.28571429      -0.42857143       0.28571429 </v>
   <v>       0.42857143      -0.42857143       0.28571429 </v>
   <v>      -0.42857143      -0.42857143       0.28571429 </v>
   <v>      -0.28571429      -0.42857143       0.28571429 </v>
   <v>      -0.14285714      -0.42857143       0.28571429 </v>
   <v>       0.00000000      -0.28571429       0.28571429 </v>
   <v>       0.14285714      -0.28571429       0.28571429 </v>
   <v>       0.28571429      -0.28571429       0.28571429 </v>
   <v>       0.42857143      -0.28571429       0.28571429 </v>
   <v>      -0.42857143      -0.28571429       0.28571429 </v>
   <v>      -0.28571429      -0.28571429       0.28571429 </v>
   <v>      -0.14285714      -0.28571429       0.28571429 </v>
   <v>       0.00000000      -0.14285714       0.28571429 </v>
   <v>       0.14285714      -0.14285714       0.28571429 </v>
   <v>       0.28571429      -0.14285714       0.28571429 </v>
   <v>       0.42857143      -0.14285714       0.28571429 </v>
   <v>      -0.42857143      -0.14285714       0.28571429 </v>
   <v>      -0.28571429      -0.14285714       0.28571429 </v>
   <v>      -0.14285714      -0.14285714       0.28571429 </v>
   <v>       0.00000000       0.00000000       0.42857143 </v>
   <v>       0.14285714       0.00000000       0.42857143 </v>
   <v>       0.28571429       0.00000000       0.42857143 </v>
   <v>       0.42857143      -0.00000000       0.42857143 </v>
   <v>      -0.42857143      -0.00000000       0.42857143 </v>
   <v>      -0.28571429       0.00000000       0.42857143 </v>
   <v>      -0.14285714      -0.00000000       0.42857143 </v>
   <v>      -0.00000000       0.14285714       0.42857143 </v>
   <v>       0.14285714       0.14285714       0.42857143 </v>
   <v>       0.28571429       0.14285714       0.42857143 </v>
   <v>       0.42857143       0.14285714       0.42857143 </v>
   <v>      -0.42857143       0.14285714       0.42857143 </v>
   <v>      -0.28571429       0.14285714       0.42857143 </v>
   <v>      -0.14285714       0.14285714       0.42857143 </v>
   <v>       0.00000000       0.28571429       0.42857143 </v>
   <v>       0.14285714       0.28571429       0.42857143 </v>
   <v>       0.28571429       0.28571429       0.42857143 </v>
   <v>       0.42857143       0.28571429       0.42857143 </v>
   <v>      -0.42857143       0.28571429       0.42857143 </v>
   <v>      -0.28571429       0.28571429       0.42857143 </v>
   <v>      -0.14285714       0.28571429       0.42857143 </v>
   <v>       0.00000000       0.42857143       0.42857143 </v>
   <v>       0.14285714       0.42857143       0.42857143 </v>
   <v>       0.28571429       0.42857143       0.42857143 </v>
   <v>       0.42857143       0.42857143       0.42857143 </v>
   <v>      -0.42857143       0.42857143       0.42857143 </v>
   <v>      -0.28571429       0.42857143       0.42857143 </v>
   <v>      -0.14285714       0.42857143       0.42857143 </v>
   <v>       0.00000000      -0.42857143       0.42857143 </v>
   <v>       0.14285714      -0.42857143       0.42857143 </v>
   <v>       0.28571429      -0.42857143       0.42857143 </v>
   <v>       0.42857143      -0.42857143       0.42857143 </v>
   <v>      -0.42857143      -0.42857143       0.42857143 </v>
   <v>      -0.28571429      -0.42857143       0.42857143 </v>
   <v>      -0.14285714      -0.42857143       0.42857143 </v>
   <v>      -0.00000000      -0.28571429       0.42857143 </v>
   <v>       0.14285714      -0.28571429       0.42857143 </v>
   <v>       0.28571429      -0.28571429       0.42857143 </v>
   <v>       0.42857143      -0.28571429       0.42857143 </v>
   <v>      -0.42857143      -0.28571429       0.42857143 </v>
   <v>      -0.28571429      -0.28571429       0.42857143 </v>
   <v>      -0.14285714      -0.28571429       0.42857143 </v>
   <v>       0.00000000      -0.14285714       0.42857143 </v>
   <v>       0.14285714      -0.14285714       0.42857143 </v>
   <v>       0.28571429      -0.14285714       0.42857143 </v>
   <v>       0.42857143      -0.14285714       0.42857143 </v>
   <v>      -0.42857143      -0.14285714       0.42857143 </v>
   <v>      -0.28571429      -0.14285714       0.42857143 </v>
   <v>      -0.14285714      -0.14285714       0.42857143 </v>
  </varray>
  <varray name="weights" >
   <v>       0.00291545 </v>
   <v>       0.00583090 </v>
   <v>       0.00583090 </v>
   <v>       0.00583090 </v>
   <v>       0.00583090 </v>
   <v>       0.00583090 </v>
   <v>       0.00583090 </v>
   <v>       0.00583090 </v>
   <v>       0.00583090 </v>
   <v>       0.00583090 </v>
   <v>       0.00583090 </v>
   <v>       0.00583090 </v>
   <v>       0.00583090 </v>
   <v>       0.00583090 </v>
   <v>       0.00583090 </v>
   <v>       0.00583090 </v>
   <v>       0.00583090 </v>
   <v>       0.00583090 </v>
   <v>       0.00583090 </v>
   <v>       0.00583090 </v>
   <v>       0.00583090 </v>
   <v>       0.00583090 </v>
   <v>       0.00583090 </v>
   <v>       0.00583090 </v>
   <v>       0.00583090 </v>
   <v>       0.00583090 </v>
   <v>       0.00583090 </v>
   <v>       0.00583090 </v>
   <v>       0.00583090 </v>
   <v>       0.00583090 </v>
   <v>       0.00583090 </v>
   <v>       0.00583090 </v>
   <v>       0.00583090 </v>
   <v>       0.00583090 </v>
   <v>       0.00583090 </v>
   <v>       0.00583090 </v>
   <v>       0.00583090 </v>
   <v>       0.00583090 </v>
   <v>       0.00583090 </v>
   <v>       0.00583090 </v>
   <v>       0.00583090 </v>
   <v>       0.00583090 </v>
   <v>       0.00583090 </v>
   <v>       0.00583090 </v>
   <v>       0.00583090 </v>
   <v>       0.00583090 </v>
   <v>       0.00583090 </v>
   <v>       0.00583090 </v>
   <v>       0.00583090 </v>
   <v>       0.00583090 </v>
   <v>       0.00583090 </v>
   <v>       0.00583090 </v>
   <v>       0.00583090 </v>
   <v>       0.00583090 </v>
   <v>       0.00583090 </v>
   <v>       0.00583090 </v>
   <v>       0.00583090 </v>
   <v>       0.00583090 </v>
   <v>       0.00583090 </v>
   <v>       0.00583090 </v>
   <v>       0.00583090 </v>
   <v>       0.00583090 </v>
   <v>       0.00583090 </v>
   <v>       0.00583090 </v>
   <v>       0.00583090 </v>
   <v>       0.00583090 </v>
   <v>       0.00583090 </v>
   <v>       0.00583090 </v>
   <v>       0.00583090 </v>
   <v>       0.00583090 </v>
   <v>       0.00583090 </v>
   <v>       0.00583090 </v>
   <v>       0.00583090 </v>
   <v>       0.00583090 </v>
   <v>       0.00583090 </v>
   <v>       0.00583090 </v>
   <v>       0.00583090 </v>
   <v>       0.00583090 </v>
   <v>       0.00583090 </v>
   <v>       0.00583090 </v>
   <v>       0.00583090 </v>
   <v>       0.00583090 </v>
   <v>       0.00583090 </v>
   <v>       0.00583090 </v>
   <v>       0.00583090 </v>
   <v>       0.00583090 </v>
   <v>       0.00583090 </v>
   <v>       0.00583090 </v>
   <v>       0.00583090 </v>
   <v>       0.00583090 </v>
   <v>       0.00583090 </v>
   <v>       0.00583090 </v>
   <v>       0.00583090 </v>
   <v>       0.00583090 </v>
   <v>       0.00583090 </v>
   <v>       0.00583090 </v>
   <v>       0.00583090 </v>
   <v>       0.00583090 </v>
   <v>       0.00583090 </v>
   <v>       0.00583090 </v>
   <v>       0.00583090 </v>
   <v>       0.00583090 </v>
   <v>       0.00583090 </v>
   <v>       0.00583090 </v>
   <v>       0.00583090 </v>
   <v>       0.00583090 </v>
   <v>       0.00583090 </v>
   <v>       0.00583090 </v>
   <v>       0.00583090 </v>
   <v>       0.00583090 </v>
   <v>       0.00583090 </v>
   <v>       0.00583090 </v>
   <v>       0.00583090 </v>
   <v>       0.00583090 </v>
   <v>       0.00583090 </v>
   <v>       0.00583090 </v>
   <v>       0.00583090 </v>
   <v>       0.00583090 </v>
   <v>       0.00583090 </v>
   <v>       0.00583090 </v>
   <v>       0.00583090 </v>
   <v>       0.00583090 </v>
   <v>       0.00583090 </v>
   <v>       0.00583090 </v>
   <v>       0.00583090 </v>
   <v>       0.00583090 </v>
   <v>       0.00583090 </v>
   <v>       0.00583090 </v>
   <v>       0.00583090 </v>
   <v>       0.00583090 </v>
   <v>       0.00583090 </v>
   <v>       0.00583090 </v>
   <v>       0.00583090 </v>
   <v>       0.00583090 </v>
   <v>       0.00583090 </v>
   <v>       0.00583090 </v>
   <v>       0.00583090 </v>
   <v>       0.00583090 </v>
   <v>       0.00583090 </v>
   <v>       0.00583090 </v>
   <v>       0.00583090 </v>
   <v>       0.00583090 </v>
   <v>       0.00583090 </v>
   <v>       0.00583090 </v>
   <v>       0.00583090 </v>
   <v>       0.00583090 </v>
   <v>       0.00583090 </v>
   <v>       0.00583090 </v>
   <v>       0.00583090 </v>
   <v>       0.00583090 </v>
   <v>       0.00583090 </v>
   <v>       0.00583090 </v>
   <v>       0.00583090 </v>
   <v>       0.00583090 </v>
   <v>       0.00583090 </v>
   <v>       0.00583090 </v>
   <v>       0.00583090 </v>
   <v>       0.00583090 </v>
   <v>       0.00583090 </v>
   <v>       0.00583090 </v>
   <v>       0.00583090 </v>
   <v>       0.00583090 </v>
   <v>       0.00583090 </v>
   <v>       0.00583090 </v>
   <v>       0.00583090 </v>
   <v>       0.00583090 </v>
   <v>       0.00583090 </v>
   <v>       0.00583090 </v>
   <v>       0.00583090 </v>
   <v>       0.00583090 </v>
   <v>       0.00583090 </v>
   <v>       0.00583090 </v>
  </varray>
 </kpoints>
 <parameters>
  <separator name="general" >
   <i type="string" name="SYSTEM">Nb - Mo - Ta - Ti - V SQS</i>
   <i type="logical" name="LCOMPAT"> F  </i>
  </separator>
  <separator name="electronic" >
   <i type="string" name="PREC">normal</i>
   <i name="ENMAX">    600.00000000</i>
   <i name="ENAUG">    455.65900000</i>
   <i name="EDIFF">      0.00010000</i>
   <i type="int" name="IALGO">    38</i>
   <i type="int" name="IWAVPR">    11</i>
   <i type="int" name="NBANDS">   120</i>
   <i name="NELECT">    194.00000000</i>
   <i type="int" name="TURBO">     0</i>
   <i type="int" name="IRESTART">     0</i>
   <i type="int" name="NREBOOT">     0</i>
   <i type="int" name="NMIN">     0</i>
   <i name="EREF">      0.00000000</i>
   <separator name="electronic smearing" >
    <i type="int" name="ISMEAR">     1</i>
    <i name="SIGMA">      0.20000000</i>
    <i name="KSPACING">      0.50000000</i>
    <i type="logical" name="KGAMMA"> T  </i>
   </separator>
   <separator name="electronic projectors" >
    <i type="logical" name="LREAL"> T  </i>
    <v name="ROPT">     -0.00050000     -0.00050000     -0.00050000     -0.00050000     -0.00050000</v>
    <i type="int" name="LMAXPAW">  -100</i>
    <i type="int" name="LMAXMIX">     2</i>
    <i type="logical" name="NLSPLINE"> F  </i>
   </separator>
   <separator name="electronic startup" >
    <i type="int" name="ISTART">     0</i>
    <i type="int" name="ICHARG">     0</i>
    <i type="int" name="INIWAV">     1</i>
   </separator>
   <separator name="electronic spin" >
    <i type="int" name="ISPIN">     1</i>
    <i type="logical" name="LNONCOLLINEAR"> F  </i>
    <v name="MAGMOM">      1.00000000      1.00000000      1.00000000      1.00000000      1.00000000      1.00000000      1.00000000      1.00000000      1.00000000      1.00000000      1.00000000      1.00000000      1.00000000      1.00000000      1.00000000      1.00000000      1.00000000      1.00000000      1.00000000      1.00000000
      1.00000000      1.00000000      1.00000000      1.00000000      1.00000000      1.00000000      1.00000000      1.00000000      1.00000000</v>
    <i name="NUPDOWN">     -1.00000000</i>
    <i type="logical" name="LSORBIT"> F  </i>
    <v name="SAXIS">      0.00000000      0.00000000      1.00000000</v>
    <i type="logical" name="LSPIRAL"> F  </i>
    <v name="QSPIRAL">      0.00000000      0.00000000      0.00000000</v>
    <i type="logical" name="LZEROZ"> F  </i>
   </separator>
   <separator name="electronic exchange-correlation" >
    <i type="logical" name="LASPH"> F  </i>
    <i type="logical" name="LMETAGGA"> F  </i>
   </separator>
   <separator name="electronic convergence" >
    <i type="int" name="NELM">    60</i>
    <i type="int" name="NELMDL">    -5</i>
    <i type="int" name="NELMIN">     2</i>
    <i name="ENINI">    600.00000000</i>
    <separator name="electronic convergence detail" >
     <i type="logical" name="LDIAG"> T  </i>
     <i type="logical" name="LSUBROT"> F  </i>
     <i name="WEIMIN">      0.00100000</i>
     <i name="EBREAK">      0.00000021</i>
     <i name="DEPER">      0.30000000</i>
     <i type="int" name="NRMM">     4</i>
     <i name="TIME">      0.40000000</i>
    </separator>
   </separator>
   <separator name="electronic mixer" >
    <i name="AMIX">      0.40000000</i>
    <i name="BMIX">      1.00000000</i>
    <i name="AMIN">      0.10000000</i>
    <i name="AMIX_MAG">      1.60000000</i>
    <i name="BMIX_MAG">      1.00000000</i>
    <separator name="electronic mixer details" >
     <i type="int" name="IMIX">     4</i>
     <i type="logical" name="MIXFIRST"> F  </i>
     <i type="int" name="MAXMIX">   -45</i>
     <i name="WC">    100.00000000</i>
     <i type="int" name="INIMIX">     1</i>
     <i type="int" name="MIXPRE">     1</i>
     <i type="int" name="MREMOVE">     5</i>
    </separator>
   </separator>
   <separator name="electronic dipolcorrection" >
    <i type="logical" name="LDIPOL"> F  </i>
    <i type="logical" name="LMONO"> F  </i>
    <i type="int" name="IDIPOL">     0</i>
    <i name="EPSILON">      1.00000000</i>
    <v name="DIPOL">   -100.00000000   -100.00000000   -100.00000000</v>
    <i name="EFIELD">      0.00000000</i>
   </separator>
  </separator>
  <separator name="grids" >
   <i type="int" name="NGX">    36</i>
   <i type="int" name="NGY">    50</i>
   <i type="int" name="NGZ">    70</i>
   <i type="int" name="NGXF">    72</i>
   <i type="int" name="NGYF">   100</i>
   <i type="int" name="NGZF">   140</i>
   <i type="logical" name="ADDGRID"> F  </i>
  </separator>
  <separator name="ionic" >
   <i type="int" name="NSW">    50</i>
   <i type="int" name="IBRION">     2</i>
   <i type="int" name="MDALGO">     0</i>
   <i type="int" name="ISIF">     3</i>
   <i name="PSTRESS">      0.00000000</i>
   <i name="EDIFFG">      0.00100000</i>
   <i type="int" name="NFREE">     1</i>
   <i name="POTIM">      0.50000000</i>
   <i name="SMASS">     -3.00000000</i>
   <i name="SCALEE">      1.00000000</i>
  </separator>
  <separator name="ionic md" >
   <i name="TEBEG">      0.00010000</i>
   <i name="TEEND">      0.00010000</i>
   <i type="int" name="NBLOCK">     1</i>
   <i type="int" name="KBLOCK">    50</i>
   <i type="int" name="NPACO">   256</i>
   <i name="APACO">     16.00000000</i>
  </separator>
  <separator name="symmetry" >
   <i type="int" name="ISYM">     2</i>
   <i name="SYMPREC">      0.00001000</i>
  </separator>
  <separator name="dos" >
   <i type="int" name="LORBIT">     0</i>
   <v name="RWIGS">     -1.00000000     -1.00000000     -1.00000000     -1.00000000     -1.00000000</v>
   <i type="int" name="NEDOS">   301</i>
   <i name="EMIN">     10.00000000</i>
   <i name="EMAX">    -10.00000000</i>
   <i name="EFERMI">      0.00000000</i>
  </separator>
  <separator name="writing" >
   <i type="int" name="NWRITE">     2</i>
   <i type="logical" name="LWAVE"> T  </i>
   <i type="logical" name="LDOWNSAMPLE"> F  </i>
   <i type="logical" name="LCHARG"> T  </i>
   <i type="logical" name="LPARD"> F  </i>
   <i type="logical" name="LVTOT"> F  </i>
   <i type="logical" name="LVHAR"> F  </i>
   <i type="logical" name="LELF"> F  </i>
   <i type="logical" name="LOPTICS"> F  </i>
   <v name="STM">      0.00000000      0.00000000      0.00000000      0.00000000      0.00000000      0.00000000      0.00000000</v>
  </separator>
  <separator name="performance" >
   <i type="int" name="NPAR">    12</i>
   <i type="int" name="NSIM">     4</i>
   <i type="int" name="NBLK">    -1</i>
   <i type="logical" name="LPLANE"> T  </i>
   <i type="logical" name="LSCALAPACK"> T  </i>
   <i type="logical" name="LSCAAWARE"> F  </i>
   <i type="logical" name="LSCALU"> F  </i>
   <i type="logical" name="LASYNC"> F  </i>
   <i type="logical" name="LORBITALREAL"> F  </i>
  </separator>
  <separator name="miscellaneous" >
   <i type="int" name="IDIOT">     3</i>
   <i type="int" name="ISPECIAL">     0</i>
   <i type="logical" name="LMUSIC"> F  </i>
   <v name="POMASS">     92.91000000     95.94000000    180.94800000     47.88000000     50.94100000</v>
   <v name="DARWINR">      0.00000000      0.00000000      0.00000000      0.00000000      0.00000000</v>
   <v name="DARWINV">      1.00000000      1.00000000      1.00000000      1.00000000      1.00000000</v>
   <i type="logical" name="LCORR"> T  </i>
  </separator>
  <i type="logical" name="GGA_COMPAT"> T  </i>
  <i type="logical" name="LBERRY"> F  </i>
  <i type="int" name="ICORELEVEL">     0</i>
  <i type="logical" name="LDAU"> F  </i>
  <i type="int" name="I_CONSTRAINED_M">     0</i>
  <separator name="electronic exchange-correlation" >
   <i type="string" name="GGA">PS</i>
   <i type="int" name="VOSKOWN">     0</i>
   <i type="logical" name="LHFCALC"> F  </i>
   <i type="string" name="PRECFOCK"></i>
   <i type="logical" name="LSYMGRAD"> F  </i>
   <i type="logical" name="LHFONE"> F  </i>
   <i type="logical" name="LRHFCALC"> F  </i>
   <i type="logical" name="LTHOMAS"> F  </i>
   <i type="logical" name="LMODELHF"> F  </i>
   <i name="ENCUT4O">     -1.00000000</i>
   <i type="int" name="EXXOEP">     0</i>
   <i type="int" name="FOURORBIT">     0</i>
   <i name="AEXX">      0.00000000</i>
   <i name="HFALPHA">      0.00000000</i>
   <i name="MCALPHA">      0.00000000</i>
   <i name="ALDAX">      1.00000000</i>
   <i name="AGGAX">      1.00000000</i>
   <i name="ALDAC">      1.00000000</i>
   <i name="AGGAC">      1.00000000</i>
   <i type="int" name="NKREDX">     1</i>
   <i type="int" name="NKREDY">     1</i>
   <i type="int" name="NKREDZ">     1</i>
   <i type="logical" name="SHIFTRED"> F  </i>
   <i type="logical" name="ODDONLY"> F  </i>
   <i type="logical" name="EVENONLY"> F  </i>
   <i type="int" name="LMAXFOCK">     0</i>
   <i type="int" name="NMAXFOCKAE">     0</i>
   <i type="logical" name="LFOCKAEDFT"> F  </i>
   <i name="HFSCREEN">      0.00000000</i>
   <i name="HFSCREENC">      0.00000000</i>
   <i type="int" name="NBANDSGWLOW">     0</i>
  </separator>
  <separator name="vdW DFT" >
   <i type="logical" name="LUSE_VDW"> F  </i>
   <i name="Zab_VDW">     -0.84910000</i>
   <i name="PARAM1">      0.12340000</i>
   <i name="PARAM2">      1.00000000</i>
   <i name="PARAM3">      0.00000000</i>
  </separator>
  <separator name="model GW" >
   <i type="int" name="MODEL_GW">     0</i>
   <i name="MODEL_EPS0">      9.79277462</i>
   <i name="MODEL_ALPHA">      1.00000000</i>
  </separator>
  <separator name="linear response parameters" >
   <i type="logical" name="LEPSILON"> F  </i>
   <i type="logical" name="LRPA"> F  </i>
   <i type="logical" name="LNABLA"> F  </i>
   <i type="logical" name="LVEL"> F  </i>
   <i type="int" name="KINTER">     0</i>
   <i name="CSHIFT">      0.10000000</i>
   <i name="OMEGAMAX">     -1.00000000</i>
   <i name="DEG_THRESHOLD">      0.00200000</i>
   <i name="RTIME">     -0.10000000</i>
   <i name="WPLASMAI">      0.00000000</i>
   <v name="DFIELD">      0.00000000      0.00000000      0.00000000</v>
   <v name="WPLASMA">      0.00000000      0.00000000      0.00000000      0.00000000      0.00000000      0.00000000      0.00000000      0.00000000      0.00000000</v>
  </separator>
  <separator name="orbital magnetization" >
   <i type="logical" name="NUCIND"> F  </i>
   <v name="MAGPOS">      0.00000000      0.00000000      0.00000000</v>
   <i type="logical" name="LNICSALL"> T  </i>
   <i type="logical" name="ORBITALMAG"> F  </i>
   <i type="logical" name="LMAGBLOCH"> F  </i>
   <i type="logical" name="LCHIMAG"> F  </i>
   <i type="logical" name="LGAUGE"> T  </i>
   <i type="int" name="MAGATOM">     0</i>
   <v name="MAGDIPOL">      0.00000000      0.00000000      0.00000000</v>
   <v name="AVECCONST">      0.00000000      0.00000000      0.00000000</v>
  </separator>
  <separator name="response functions" >
   <i type="logical" name="LADDER"> F  </i>
   <i type="logical" name="LRPAFORCE"> F  </i>
   <i type="logical" name="LFXC"> F  </i>
   <i type="logical" name="LHARTREE"> T  </i>
   <i type="int" name="IBSE">     0</i>
   <v type="int" name="KPOINT">    -1     0     0     0</v>
   <i type="logical" name="LTCTE"> F  </i>
   <i type="logical" name="LTETE"> F  </i>
   <i type="logical" name="LTRIPLET"> F  </i>
   <i type="logical" name="LFXCEPS"> F  </i>
   <i type="logical" name="LFXHEG"> F  </i>
   <i type="int" name="NATURALO">     2</i>
   <i type="logical" name="L2ORDER"> F  </i>
   <i type="logical" name="LMP2LT"> F  </i>
   <i type="logical" name="LUSEW"> F  </i>
   <i name="ENCUTGW">     -2.00000000</i>
   <i name="ENCUTGWSOFT">     -2.00000000</i>
   <i name="ENCUTLF">     -1.00000000</i>
   <i type="int" name="LMAXMP2">    -1</i>
   <i name="SCISSOR">      0.00000000</i>
   <i type="int" name="NOMEGA">     0</i>
   <i type="int" name="NOMEGAR">     0</i>
   <i type="int" name="NBANDSGW">    -1</i>
   <i type="int" name="NBANDSO">    -1</i>
   <i type="int" name="NBANDSV">    -1</i>
   <i type="int" name="NELM">     1</i>
   <i type="int" name="NELMHF">     1</i>
   <i type="int" name="DIM">     3</i>
   <i type="int" name="ANTIRES">     0</i>
   <i name="OMEGAMAX">    -30.00000000</i>
   <i name="OMEGAMIN">    -30.00000000</i>
   <i name="OMEGATL">   -200.00000000</i>
   <i type="int" name="OMEGAGRID">   140</i>
   <i name="CSHIFT">     -0.10000000</i>
   <i type="logical" name="SELFENERGY"> F  </i>
   <i type="logical" name="LSPECTRAL"> F  </i>
   <i type="logical" name="LSPECTRALGW"> F  </i>
   <i type="logical" name="LSINGLES"> F  </i>
   <i type="logical" name="LFERMIGW"> F  </i>
   <i type="logical" name="ODDONLYGW"> F  </i>
   <i type="logical" name="EVENONLYGW"> F  </i>
   <i type="int" name="NKREDLFX">     1</i>
   <i type="int" name="NKREDLFY">     1</i>
   <i type="int" name="NKREDLFZ">     1</i>
   <i type="int" name="MAXMEM">  2800</i>
   <i type="int" name="TELESCOPE">     0</i>
   <i type="int" name="TAUPAR">     1</i>
   <i type="int" name="OMEGAPAR">    -1</i>
   <i name="LAMBDA">      1.00000000</i>
  </separator>
  <separator name="External order field" >
   <i name="OFIELD_KAPPA">      0.00000000</i>
   <v name="OFIELD_K">      0.00000000      0.00000000      0.00000000</v>
   <i name="OFIELD_Q6_NEAR">      0.00000000</i>
   <i name="OFIELD_Q6_FAR">      0.00000000</i>
   <i name="OFIELD_A">      0.00000000</i>
  </separator>
  <separator name="solvation model" >
   <i type="logical" name="LSOL"> F  </i>
  </separator>
 </parameters>
 <atominfo>
  <atoms>      29 </atoms>
  <types>       5 </types>
  <array name="atoms" >
   <dimension dim="1">ion</dimension>
   <field type="string">element</field>
   <field type="int">atomtype</field>
   <set>
    <rc><c>Nb</c><c>   1</c></rc>
    <rc><c>Nb</c><c>   1</c></rc>
    <rc><c>Nb</c><c>   1</c></rc>
    <rc><c>Nb</c><c>   1</c></rc>
    <rc><c>Nb</c><c>   1</c></rc>
    <rc><c>Nb</c><c>   1</c></rc>
    <rc><c>Mo</c><c>   2</c></rc>
    <rc><c>Mo</c><c>   2</c></rc>
    <rc><c>Mo</c><c>   2</c></rc>
    <rc><c>Mo</c><c>   2</c></rc>
    <rc><c>Mo</c><c>   2</c></rc>
    <rc><c>Mo</c><c>   2</c></rc>
    <rc><c>Ta</c><c>   3</c></rc>
    <rc><c>Ta</c><c>   3</c></rc>
    <rc><c>Ta</c><c>   3</c></rc>
    <rc><c>Ta</c><c>   3</c></rc>
    <rc><c>Ta</c><c>   3</c></rc>
    <rc><c>Ta</c><c>   3</c></rc>
    <rc><c>Ti</c><c>   4</c></rc>
    <rc><c>Ti</c><c>   4</c></rc>
    <rc><c>Ti</c><c>   4</c></rc>
    <rc><c>Ti</c><c>   4</c></rc>
    <rc><c>Ti</c><c>   4</c></rc>
    <rc><c>V </c><c>   5</c></rc>
    <rc><c>V </c><c>   5</c></rc>
    <rc><c>V </c><c>   5</c></rc>
    <rc><c>V </c><c>   5</c></rc>
    <rc><c>V </c><c>   5</c></rc>
    <rc><c>V </c><c>   5</c></rc>
   </set>
  </array>
  <array name="atomtypes" >
   <dimension dim="1">type</dimension>
   <field type="int">atomspertype</field>
   <field type="string">element</field>
   <field>mass</field>
   <field>valence</field>
   <field type="string">pseudopotential</field>
   <set>
    <rc><c>   6</c><c>Nb</c><c>     92.91000000</c><c>     13.00000000</c><c>  PAW_PBE Nb_sv 25May2007               </c></rc>
    <rc><c>   6</c><c>Mo</c><c>     95.94000000</c><c>      6.00000000</c><c>  PAW_PBE Mo 08Apr2002                  </c></rc>
    <rc><c>   6</c><c>Ta</c><c>    180.94800000</c><c>      5.00000000</c><c>  PAW_PBE Ta 17Jan2003                  </c></rc>
    <rc><c>   5</c><c>Ti</c><c>     47.88000000</c><c>      4.00000000</c><c>  PAW_PBE Ti 08Apr2002                  </c></rc>
    <rc><c>   6</c><c>V </c><c>     50.94100000</c><c>      5.00000000</c><c>  PAW_PBE V 08Apr2002                   </c></rc>
   </set>
  </array>
 </atominfo>
 <structure name="initialpos" >
  <crystal>
   <varray name="basis" >
    <v>      -3.16000000      -3.16000000      -3.16000000 </v>
    <v>       1.58000000       1.58000000      -7.90000000 </v>
    <v>       7.90000000      -7.90000000      -1.58000000 </v>
   </varray>
   <i name="volume">    473.31744000 </i>
   <varray name="rec_basis" >
    <v>      -0.13713080      -0.12658228      -0.05274262 </v>
    <v>       0.04219409       0.06329114      -0.10548523 </v>
    <v>       0.06329114      -0.06329114       0.00000000 </v>
   </varray>
  </crystal>
  <varray name="positions" >
   <v>       0.96666667       0.93333333       0.40000000 </v>
   <v>       0.63333333       0.26666667       0.40000000 </v>
   <v>       0.50000000       0.00000000       0.00000000 </v>
   <v>       0.00000000       0.00000000       0.00000000 </v>
   <v>       0.10000000       0.20000000       0.80000000 </v>
   <v>       0.03333333       0.06666667       0.60000000 </v>
   <v>       0.90000000       0.80000000       0.20000000 </v>
   <v>       0.80000000       0.60000000       0.40000000 </v>
   <v>       0.73333333       0.46666667       0.20000000 </v>
   <v>       0.66666667       0.33333333       0.00000000 </v>
   <v>       0.36666667       0.73333333       0.60000000 </v>
   <v>       0.13333333       0.26666667       0.40000000 </v>
   <v>       0.83333333       0.66666667       0.00000000 </v>
   <v>       0.93333333       0.86666667       0.80000000 </v>
   <v>       0.56666667       0.13333333       0.20000000 </v>
   <v>       0.40000000       0.80000000       0.20000000 </v>
   <v>       0.43333333       0.86666667       0.80000000 </v>
   <v>       0.30000000       0.60000000       0.40000000 </v>
   <v>       0.86666667       0.73333333       0.60000000 </v>
   <v>       0.46666667       0.93333333       0.40000000 </v>
   <v>       0.16666667       0.33333333       0.00000000 </v>
   <v>       0.26666667       0.53333333       0.80000000 </v>
   <v>       0.06666667       0.13333333       0.20000000 </v>
   <v>       0.76666667       0.53333333       0.80000000 </v>
   <v>       0.70000000       0.40000000       0.60000000 </v>
   <v>       0.60000000       0.20000000       0.80000000 </v>
   <v>       0.53333333       0.06666667       0.60000000 </v>
   <v>       0.33333333       0.66666667       0.00000000 </v>
   <v>       0.23333333       0.46666667       0.20000000 </v>
  </varray>
 </structure>
 <calculation>
  <scstep>
   <time name="dav">   44.38   44.44</time>
   <time name="total">   44.50   44.57</time>
   <energy>
    <i name="alphaZ">   1169.09370839 </i>
    <i name="ewald"> -11176.91046112 </i>
    <i name="hartreedc">   -109.63525176 </i>
    <i name="XCdc">   -942.57357476 </i>
    <i name="pawpsdc"> 587660.11955519 </i>
    <i name="pawaedc">-586389.83341742 </i>
    <i name="eentropy">      0.00121667 </i>
    <i name="bandstr">  -7048.69038562 </i>
    <i name="atom">  12911.34519091 </i>
    <i name="e_fr_energy">  -3927.08341954 </i>
    <i name="e_wo_entrp">  -3927.08463620 </i>
    <i name="e_0_energy">  -3927.08382509 </i>
   </energy>
  </scstep>
  <scstep>
   <time name="dav">   52.50   52.55</time>
   <time name="total">   52.50   52.56</time>
   <energy>
    <i name="e_fr_energy">  -9575.21937310 </i>
    <i name="e_wo_entrp">  -9575.21910346 </i>
    <i name="e_0_energy">  -9575.21928322 </i>
   </energy>
  </scstep>
  <scstep>
   <time name="dav">   57.10   57.17</time>
   <time name="total">   57.11   57.18</time>
   <energy>
    <i name="e_fr_energy"> -10453.24359728 </i>
    <i name="e_wo_entrp"> -10453.24346531 </i>
    <i name="e_0_energy"> -10453.24355329 </i>
   </energy>
  </scstep>
  <scstep>
   <time name="dav">   57.06   57.12</time>
   <time name="total">   57.07   57.13</time>
   <energy>
    <i name="e_fr_energy"> -10688.81793495 </i>
    <i name="e_wo_entrp"> -10688.81941650 </i>
    <i name="e_0_energy"> -10688.81842880 </i>
   </energy>
  </scstep>
  <scstep>
   <time name="dav">   57.08   57.16</time>
   <time name="total">   57.72   57.79</time>
   <energy>
    <i name="e_fr_energy"> -10839.66433690 </i>
    <i name="e_wo_entrp"> -10839.66787842 </i>
    <i name="e_0_energy"> -10839.66551741 </i>
   </energy>
  </scstep>
  <scstep>
   <time name="dav">   47.12   47.17</time>
   <time name="total">   47.86   47.91</time>
   <energy>
    <i name="e_fr_energy">   -918.93894175 </i>
    <i name="e_wo_entrp">   -918.94252624 </i>
    <i name="e_0_energy">   -918.94013658 </i>
   </energy>
  </scstep>
  <scstep>
   <time name="dav">   49.94   49.99</time>
   <time name="total">   50.64   50.71</time>
   <energy>
    <i name="e_fr_energy">   -852.11439520 </i>
    <i name="e_wo_entrp">   -852.11808147 </i>
    <i name="e_0_energy">   -852.11562396 </i>
   </energy>
  </scstep>
  <scstep>
   <time name="dav">   48.92   48.97</time>
   <time name="total">   49.57   49.63</time>
   <energy>
    <i name="e_fr_energy">   -610.16867626 </i>
    <i name="e_wo_entrp">   -610.16758191 </i>
    <i name="e_0_energy">   -610.16831147 </i>
   </energy>
  </scstep>
  <scstep>
   <time name="dav">   53.23   53.29</time>
   <time name="total">   53.90   53.97</time>
   <energy>
    <i name="e_fr_energy">   -552.30003218 </i>
    <i name="e_wo_entrp">   -552.28790335 </i>
    <i name="e_0_energy">   -552.29598924 </i>
   </energy>
  </scstep>
  <scstep>
   <time name="dav">   56.33   56.40</time>
   <time name="total">   57.01   57.07</time>
   <energy>
    <i name="e_fr_energy">   -561.57516256 </i>
    <i name="e_wo_entrp">   -561.56228317 </i>
    <i name="e_0_energy">   -561.57086943 </i>
   </energy>
  </scstep>
  <scstep>
   <time name="dav">   49.20   49.26</time>
   <time name="total">   49.86   49.95</time>
   <energy>
    <i name="e_fr_energy">   -801.13119539 </i>
    <i name="e_wo_entrp">   -801.12905096 </i>
    <i name="e_0_energy">   -801.13048058 </i>
   </energy>
  </scstep>
  <scstep>
   <time name="dav">   52.46   52.52</time>
   <time name="total">   53.13   53.19</time>
   <energy>
    <i name="e_fr_energy">   -544.34206286 </i>
    <i name="e_wo_entrp">   -544.33555202 </i>
    <i name="e_0_energy">   -544.33989258 </i>
   </energy>
  </scstep>
  <scstep>
   <time name="dav">   51.05   51.11</time>
   <time name="total">   51.72   51.79</time>
   <energy>
    <i name="e_fr_energy">   -678.77292942 </i>
    <i name="e_wo_entrp">   -678.77797052 </i>
    <i name="e_0_energy">   -678.77460979 </i>
   </energy>
  </scstep>
  <scstep>
   <time name="dav">   54.36   54.43</time>
   <time name="total">   55.02   55.09</time>
   <energy>
    <i name="e_fr_energy">  -1188.44143576 </i>
    <i name="e_wo_entrp">  -1188.44281654 </i>
    <i name="e_0_energy">  -1188.44189602 </i>
   </energy>
  </scstep>
  <scstep>
   <time name="dav">   48.33   48.39</time>
   <time name="total">   49.00   49.07</time>
   <energy>
    <i name="e_fr_energy">  -1483.77171375 </i>
    <i name="e_wo_entrp">  -1483.77592394 </i>
    <i name="e_0_energy">  -1483.77311714 </i>
   </energy>
  </scstep>
  <scstep>
   <time name="dav">   49.23   49.29</time>
   <time name="total">   49.89   49.95</time>
   <energy>
    <i name="e_fr_energy">  -1519.65794308 </i>
    <i name="e_wo_entrp">  -1519.65791175 </i>
    <i name="e_0_energy">  -1519.65793264 </i>
   </energy>
  </scstep>
  <scstep>
   <time name="dav">   53.52   53.59</time>
   <time name="total">   54.19   54.27</time>
   <energy>
    <i name="e_fr_energy">  -2606.11752413 </i>
    <i name="e_wo_entrp">  -2606.10543260 </i>
    <i name="e_0_energy">  -2606.11349362 </i>
   </energy>
  </scstep>
  <scstep>
   <time name="dav">   49.13   49.19</time>
   <time name="total">   49.79   49.85</time>
   <energy>
    <i name="e_fr_energy">  -2618.91522503 </i>
    <i name="e_wo_entrp">  -2618.90737527 </i>
    <i name="e_0_energy">  -2618.91260845 </i>
   </energy>
  </scstep>
  <scstep>
   <time name="dav">   50.79   50.85</time>
   <time name="total">   51.47   51.54</time>
   <energy>
    <i name="e_fr_energy">  -2101.63523580 </i>
    <i name="e_wo_entrp">  -2101.61833926 </i>
    <i name="e_0_energy">  -2101.62960362 </i>
   </energy>
  </scstep>
  <scstep>
   <time name="dav">   47.08   47.15</time>
   <time name="total">   47.75   47.82</time>
   <energy>
    <i name="e_fr_energy">  -1546.86277679 </i>
    <i name="e_wo_entrp">  -1546.86723411 </i>
    <i name="e_0_energy">  -1546.86426256 </i>
   </energy>
  </scstep>
  <scstep>
   <time name="dav">   46.76   46.82</time>
   <time name="total">   47.44   47.51</time>
   <energy>
    <i name="e_fr_energy">  -1053.31635033 </i>
    <i name="e_wo_entrp">  -1053.30326709 </i>
    <i name="e_0_energy">  -1053.31198925 </i>
   </energy>
  </scstep>
  <scstep>
   <time name="dav">   51.54   51.60</time>
   <time name="total">   52.20   52.26</time>
   <energy>
    <i name="e_fr_energy">  -1100.75032600 </i>
    <i name="e_wo_entrp">  -1100.74037159 </i>
    <i name="e_0_energy">  -1100.74700786 </i>
   </energy>
  </scstep>
  <scstep>
   <time name="dav">   52.05   52.13</time>
   <time name="total">   52.72   52.81</time>
   <energy>
    <i name="e_fr_energy">  -1129.11689482 </i>
    <i name="e_wo_entrp">  -1129.11336938 </i>
    <i name="e_0_energy">  -1129.11571968 </i>
   </energy>
  </scstep>
  <scstep>
   <time name="dav">   49.24   49.30</time>
   <time name="total">   49.91   49.97</time>
   <energy>
    <i name="e_fr_energy">  -1123.60446269 </i>
    <i name="e_wo_entrp">  -1123.60219394 </i>
    <i name="e_0_energy">  -1123.60370644 </i>
   </energy>
  </scstep>
  <scstep>
   <time name="dav">   47.45   47.51</time>
   <time name="total">   48.13   48.21</time>
   <energy>
    <i name="e_fr_energy">  -1111.01649265 </i>
    <i name="e_wo_entrp">  -1111.00989632 </i>
    <i name="e_0_energy">  -1111.01429387 </i>
   </energy>
  </scstep>
  <scstep>
   <time name="dav">   48.14   48.23</time>
   <time name="total">   48.80   48.90</time>
   <energy>
    <i name="e_fr_energy">  -1069.79450192 </i>
    <i name="e_wo_entrp">  -1069.79668740 </i>
    <i name="e_0_energy">  -1069.79523041 </i>
   </energy>
  </scstep>
  <scstep>
   <time name="dav">   46.20   46.26</time>
   <time name="total">   46.88   46.96</time>
   <energy>
    <i name="e_fr_energy">   -993.94338053 </i>
    <i name="e_wo_entrp">   -993.93491509 </i>
    <i name="e_0_energy">   -993.94055872 </i>
   </energy>
  </scstep>
  <scstep>
   <time name="dav">   48.72   48.78</time>
   <time name="total">   49.38   49.44</time>
   <energy>
    <i name="e_fr_energy">   -907.53725497 </i>
    <i name="e_wo_entrp">   -907.52791495 </i>
    <i name="e_0_energy">   -907.53414163 </i>
   </energy>
  </scstep>
  <scstep>
   <time name="dav">   50.28   50.35</time>
   <time name="total">   50.94   51.03</time>
   <energy>
    <i name="e_fr_energy">   -859.33868078 </i>
    <i name="e_wo_entrp">   -859.32641347 </i>
    <i name="e_0_energy">   -859.33459168 </i>
   </energy>
  </scstep>
  <scstep>
   <time name="dav">   50.46   50.54</time>
   <time name="total">   51.12   51.20</time>
   <energy>
    <i name="e_fr_energy">   -801.65725207 </i>
    <i name="e_wo_entrp">   -801.66530157 </i>
    <i name="e_0_energy">   -801.65993524 </i>
   </energy>
  </scstep>
  <scstep>
   <time name="dav">   48.69   48.80</time>
   <time name="total">   49.37   49.50</time>
   <energy>
    <i name="e_fr_energy">   -793.25406759 </i>
    <i name="e_wo_entrp">   -793.26395054 </i>
    <i name="e_0_energy">   -793.25736191 </i>
   </energy>
  </scstep>
  <scstep>
   <time name="dav">   49.57   49.68</time>
   <time name="total">   50.23   50.34</time>
   <energy>
    <i name="e_fr_energy">   -818.07247412 </i>
    <i name="e_wo_entrp">   -818.08258040 </i>
    <i name="e_0_energy">   -818.07584288 </i>
   </energy>
  </scstep>
  <scstep>
   <time name="dav">   50.82   50.89</time>
   <time name="total">   51.49   51.57</time>
   <energy>
    <i name="e_fr_energy">   -769.90248764 </i>
    <i name="e_wo_entrp">   -769.90345292 </i>
    <i name="e_0_energy">   -769.90280940 </i>
   </energy>
  </scstep>
  <scstep>
   <time name="dav">   46.12   46.18</time>
   <time name="total">   46.79   46.85</time>
   <energy>
    <i name="e_fr_energy">   -627.12347517 </i>
    <i name="e_wo_entrp">   -627.14519029 </i>
    <i name="e_0_energy">   -627.13071354 </i>
   </energy>
  </scstep>
  <scstep>
   <time name="dav">   49.41   49.47</time>
   <time name="total">   50.08   50.15</time>
   <energy>
    <i name="e_fr_energy">   -478.41695048 </i>
    <i name="e_wo_entrp">   -478.41353623 </i>
    <i name="e_0_energy">   -478.41581240 </i>
   </energy>
  </scstep>
  <scstep>
   <time name="dav">   53.64   53.71</time>
   <time name="total">   54.30   54.37</time>
   <energy>
    <i name="e_fr_energy">   -489.17628759 </i>
    <i name="e_wo_entrp">   -489.18098131 </i>
    <i name="e_0_energy">   -489.17785216 </i>
   </energy>
  </scstep>
  <scstep>
   <time name="dav">   51.50   51.56</time>
   <time name="total">   52.17   52.24</time>
   <energy>
    <i name="e_fr_energy">   -536.41305159 </i>
    <i name="e_wo_entrp">   -536.42647733 </i>
    <i name="e_0_energy">   -536.41752683 </i>
   </energy>
  </scstep>
  <scstep>
   <time name="dav">   51.24   51.30</time>
   <time name="total">   51.90   51.96</time>
   <energy>
    <i name="e_fr_energy">   -458.73446549 </i>
    <i name="e_wo_entrp">   -458.74490588 </i>
    <i name="e_0_energy">   -458.73794562 </i>
   </energy>
  </scstep>
  <scstep>
   <time name="dav">   51.20   51.26</time>
   <time name="total">   51.88   51.94</time>
   <energy>
    <i name="e_fr_energy">   -369.61498428 </i>
    <i name="e_wo_entrp">   -369.61679041 </i>
    <i name="e_0_energy">   -369.61558632 </i>
   </energy>
  </scstep>
  <scstep>
   <time name="dav">   55.09   55.15</time>
   <time name="total">   55.75   55.81</time>
   <energy>
    <i name="e_fr_energy">   -367.50575141 </i>
    <i name="e_wo_entrp">   -367.50131539 </i>
    <i name="e_0_energy">   -367.50427274 </i>
   </energy>
  </scstep>
  <scstep>
   <time name="dav">   46.19   46.24</time>
   <time name="total">   46.85   46.91</time>
   <energy>
    <i name="e_fr_energy">   -391.34833669 </i>
    <i name="e_wo_entrp">   -391.35890101 </i>
    <i name="e_0_energy">   -391.35185813 </i>
   </energy>
  </scstep>
  <scstep>
   <time name="dav">   50.53   50.58</time>
   <time name="total">   51.19   51.24</time>
   <energy>
    <i name="e_fr_energy">   -371.70017509 </i>
    <i name="e_wo_entrp">   -371.70031462 </i>
    <i name="e_0_energy">   -371.70022160 </i>
   </energy>
  </scstep>
  <scstep>
   <time name="dav">   51.83   51.89</time>
   <time name="total">   52.51   52.57</time>
   <energy>
    <i name="e_fr_energy">   -332.98658499 </i>
    <i name="e_wo_entrp">   -332.98301938 </i>
    <i name="e_0_energy">   -332.98539645 </i>
   </energy>
  </scstep>
  <scstep>
   <time name="dav">   49.19   49.24</time>
   <time name="total">   49.85   49.91</time>
   <energy>
    <i name="e_fr_energy">   -331.32249763 </i>
    <i name="e_wo_entrp">   -331.32486998 </i>
    <i name="e_0_energy">   -331.32328841 </i>
   </energy>
  </scstep>
  <scstep>
   <time name="dav">   45.31   45.36</time>
   <time name="total">   45.98   46.04</time>
   <energy>
    <i name="e_fr_energy">   -334.20421379 </i>
    <i name="e_wo_entrp">   -334.20664147 </i>
    <i name="e_0_energy">   -334.20502302 </i>
   </energy>
  </scstep>
  <scstep>
   <time name="dav">   51.14   51.20</time>
   <time name="total">   51.81   51.86</time>
   <energy>
    <i name="e_fr_energy">   -334.87333419 </i>
    <i name="e_wo_entrp">   -334.87547065 </i>
    <i name="e_0_energy">   -334.87404635 </i>
   </energy>
  </scstep>
  <scstep>
   <time name="dav">   55.37   55.43</time>
   <time name="total">   56.05   56.12</time>
   <energy>
    <i name="e_fr_energy">   -339.00615503 </i>
    <i name="e_wo_entrp">   -339.00570841 </i>
    <i name="e_0_energy">   -339.00600616 </i>
   </energy>
  </scstep>
  <scstep>
   <time name="dav">   50.57   50.63</time>
   <time name="total">   51.23   51.29</time>
   <energy>
    <i name="e_fr_energy">   -338.34305444 </i>
    <i name="e_wo_entrp">   -338.34218208 </i>
    <i name="e_0_energy">   -338.34276365 </i>
   </energy>
  </scstep>
  <scstep>
   <time name="dav">   49.88   49.93</time>
   <time name="total">   50.55   50.62</time>
   <energy>
    <i name="e_fr_energy">   -331.73588190 </i>
    <i name="e_wo_entrp">   -331.73705628 </i>
    <i name="e_0_energy">   -331.73627336 </i>
   </energy>
  </scstep>
  <scstep>
   <time name="dav">   52.37   52.43</time>
   <time name="total">   53.01   53.10</time>
   <energy>
    <i name="e_fr_energy">   -323.26180444 </i>
    <i name="e_wo_entrp">   -323.26466989 </i>
    <i name="e_0_energy">   -323.26275959 </i>
   </energy>
  </scstep>
  <scstep>
   <time name="dav">   52.34   52.40</time>
   <time name="total">   53.03   53.09</time>
   <energy>
    <i name="e_fr_energy">   -342.47842772 </i>
    <i name="e_wo_entrp">   -342.48484170 </i>
    <i name="e_0_energy">   -342.48056571 </i>
   </energy>
  </scstep>
  <scstep>
   <time name="dav">   52.85   52.91</time>
   <time name="total">   53.53   53.59</time>
   <energy>
    <i name="e_fr_energy">   -339.86138623 </i>
    <i name="e_wo_entrp">   -339.86506872 </i>
    <i name="e_0_energy">   -339.86261372 </i>
   </energy>
  </scstep>
  <scstep>
   <time name="dav">   54.93   55.00</time>
   <time name="total">   55.60   55.67</time>
   <energy>
    <i name="e_fr_energy">   -339.88718402 </i>
    <i name="e_wo_entrp">   -339.89099003 </i>
    <i name="e_0_energy">   -339.88845269 </i>
   </energy>
  </scstep>
  <scstep>
   <time name="dav">   52.26   52.31</time>
   <time name="total">   52.93   52.98</time>
   <energy>
    <i name="e_fr_energy">   -337.64494095 </i>
    <i name="e_wo_entrp">   -337.64927133 </i>
    <i name="e_0_energy">   -337.64638441 </i>
   </energy>
  </scstep>
  <scstep>
   <time name="dav">   52.39   52.45</time>
   <time name="total">   53.06   53.12</time>
   <energy>
    <i name="e_fr_energy">   -320.34183831 </i>
    <i name="e_wo_entrp">   -320.34217983 </i>
    <i name="e_0_energy">   -320.34195215 </i>
   </energy>
  </scstep>
  <scstep>
   <time name="dav">   52.48   52.55</time>
   <time name="total">   53.15   53.22</time>
   <energy>
    <i name="e_fr_energy">   -313.69834299 </i>
    <i name="e_wo_entrp">   -313.69898867 </i>
    <i name="e_0_energy">   -313.69855822 </i>
   </energy>
  </scstep>
  <scstep>
   <time name="dav">   53.55   53.60</time>
   <time name="total">   54.22   54.29</time>
   <energy>
    <i name="e_fr_energy">   -311.21500874 </i>
    <i name="e_wo_entrp">   -311.21864627 </i>
    <i name="e_0_energy">   -311.21622125 </i>
   </energy>
  </scstep>
  <scstep>
   <time name="dav">   54.58   54.64</time>
   <time name="total">   55.24   55.31</time>
   <energy>
    <i name="e_fr_energy">   -311.03306255 </i>
    <i name="e_wo_entrp">   -311.03748167 </i>
    <i name="e_0_energy">   -311.03453559 </i>
   </energy>
  </scstep>
  <scstep>
   <time name="dav">   51.47   51.53</time>
   <time name="total">   52.15   52.22</time>
   <energy>
    <i name="e_fr_energy">   -310.21156441 </i>
    <i name="e_wo_entrp">   -310.21679910 </i>
    <i name="e_0_energy">   -310.21330931 </i>
   </energy>
  </scstep>
  <scstep>
   <time name="dav">   49.77   49.83</time>
   <time name="total">   49.85   49.92</time>
   <energy>
    <i name="alphaZ">   1169.09370839 </i>
    <i name="ewald"> -11176.91046112 </i>
    <i name="hartreedc">  -3093.64924033 </i>
    <i name="XCdc">   -851.50895863 </i>
    <i name="pawpsdc">  18895.97830273 </i>
    <i name="pawaedc"> -17411.97940420 </i>
    <i name="eentropy">      0.00240850 </i>
    <i name="bandstr">   -751.59796887 </i>
    <i name="atom">  12911.34519091 </i>
    <i name="e_fr_energy">   -309.22642263 </i>
    <i name="e_wo_entrp">   -309.22883113 </i>
    <i name="e_0_energy">   -309.22722546 </i>
   </energy>
  </scstep>
  <structure>
   <crystal>
    <varray name="basis" >
     <v>      -3.16000000      -3.16000000      -3.16000000 </v>
     <v>       1.58000000       1.58000000      -7.90000000 </v>
     <v>       7.90000000      -7.90000000      -1.58000000 </v>
    </varray>
    <i name="volume">    473.31744000 </i>
    <varray name="rec_basis" >
     <v>      -0.13713080      -0.12658228      -0.05274262 </v>
     <v>       0.04219409       0.06329114      -0.10548523 </v>
     <v>       0.06329114      -0.06329114       0.00000000 </v>
    </varray>
   </crystal>
   <varray name="positions" >
    <v>       0.96666667       0.93333333       0.40000000 </v>
    <v>       0.63333333       0.26666667       0.40000000 </v>
    <v>       0.50000000       0.00000000       0.00000000 </v>
    <v>       0.00000000       0.00000000       0.00000000 </v>
    <v>       0.10000000       0.20000000       0.80000000 </v>
    <v>       0.03333333       0.06666667       0.60000000 </v>
    <v>       0.90000000       0.80000000       0.20000000 </v>
    <v>       0.80000000       0.60000000       0.40000000 </v>
    <v>       0.73333333       0.46666667       0.20000000 </v>
    <v>       0.66666667       0.33333333       0.00000000 </v>
    <v>       0.36666667       0.73333333       0.60000000 </v>
    <v>       0.13333333       0.26666667       0.40000000 </v>
    <v>       0.83333333       0.66666667       0.00000000 </v>
    <v>       0.93333333       0.86666667       0.80000000 </v>
    <v>       0.56666667       0.13333333       0.20000000 </v>
    <v>       0.40000000       0.80000000       0.20000000 </v>
    <v>       0.43333333       0.86666667       0.80000000 </v>
    <v>       0.30000000       0.60000000       0.40000000 </v>
    <v>       0.86666667       0.73333333       0.60000000 </v>
    <v>       0.46666667       0.93333333       0.40000000 </v>
    <v>       0.16666667       0.33333333       0.00000000 </v>
    <v>       0.26666667       0.53333333       0.80000000 </v>
    <v>       0.06666667       0.13333333       0.20000000 </v>
    <v>       0.76666667       0.53333333       0.80000000 </v>
    <v>       0.70000000       0.40000000       0.60000000 </v>
    <v>       0.60000000       0.20000000       0.80000000 </v>
    <v>       0.53333333       0.06666667       0.60000000 </v>
    <v>       0.33333333       0.66666667       0.00000000 </v>
    <v>       0.23333333       0.46666667       0.20000000 </v>
   </varray>
  </structure>
  <varray name="forces" >
   <v>       0.04127867       0.29429071       0.13481698 </v>
   <v>       0.85757436      -0.94681725      -0.68128564 </v>
   <v>      -0.19874576       0.78690852      -0.49356802 </v>
   <v>      -0.16417127      -0.00618907      -0.03463436 </v>
   <v>      -0.24236583       1.60724814      -1.24580965 </v>
   <v>       1.29536575       0.36600259      -1.06292394 </v>
   <v>      -0.27573063      -0.67352307       0.28593871 </v>
   <v>       0.08087423      -0.49505544       1.03585194 </v>
   <v>      -0.02796514       0.14218098       0.19968426 </v>
   <v>      -0.25797911       1.31633218      -0.70514873 </v>
   <v>      -0.29728455      -1.21705056       0.49092117 </v>
   <v>       0.64329387       0.21786756      -0.94673952 </v>
   <v>      -0.46823201      -0.30207042       0.55604173 </v>
   <v>       0.06126652       0.38586547      -0.21586967 </v>
   <v>       0.04033965       0.66583756      -0.26933484 </v>
   <v>      -1.02152516       0.56632362       0.65210708 </v>
   <v>      -0.35551765       0.01277314       0.83126338 </v>
   <v>       0.75923317      -1.32081233       0.37678385 </v>
   <v>      -0.13496153      -0.42808831       1.33588497 </v>
   <v>       0.70258027      -0.76955808       0.52258408 </v>
   <v>      -0.77428015       0.47264629      -0.40935380 </v>
   <v>      -0.89125306      -0.28129458       0.13223720 </v>
   <v>       0.24290226       0.01914346      -0.66842874 </v>
   <v>      -0.12055394      -0.34478698       1.52192743 </v>
   <v>       0.58974477      -0.52025609       0.32594469 </v>
   <v>      -0.45396211       0.46220123      -0.81481335 </v>
   <v>       0.78352005      -0.51746900      -1.43277297 </v>
   <v>      -0.33934285      -0.01112855       0.86615223 </v>
   <v>      -0.07410279       0.51847829      -0.28745648 </v>
  </varray>
  <varray name="stress" >
   <v>      75.70445821      47.52515452      46.82998405 </v>
   <v>      47.52515453      63.06387745      26.04624078 </v>
   <v>      46.82998406      26.04624074     103.86702490 </v>
  </varray>
  <energy>
   <i name="e_fr_energy">   -309.22642263 </i>
   <i name="e_wo_entrp">   -309.22722546 </i>
   <i name="e_0_energy">      0.00240850 </i>
  </energy>
  <time name="totalsc"> 3113.18 3117.40</time>
 </calculation>
 <calculation>
  <scstep>
   <time name="dav">   40.74   41.04</time>
   <time name="total">   41.40   41.70</time>
   <energy>
    <i name="alphaZ">   1041.36097969 </i>
    <i name="ewald"> -10823.24475019 </i>
    <i name="hartreedc">  -2909.91050712 </i>
    <i name="XCdc">   -866.57445818 </i>
    <i name="pawpsdc">  18995.91468806 </i>
    <i name="pawaedc"> -17517.11201470 </i>
    <i name="eentropy">      0.00612983 </i>
    <i name="bandstr">  -1152.13588734 </i>
    <i name="atom">  12911.34519091 </i>
    <i name="e_fr_energy">   -320.35062904 </i>
    <i name="e_wo_entrp">   -320.35675886 </i>
    <i name="e_0_energy">   -320.35267231 </i>
   </energy>
  </scstep>
  <scstep>
   <time name="dav">   53.11   53.28</time>
   <time name="total">   53.81   53.98</time>
   <energy>
    <i name="e_fr_energy">   -366.07349394 </i>
    <i name="e_wo_entrp">   -366.06965977 </i>
    <i name="e_0_energy">   -366.07221588 </i>
   </energy>
  </scstep>
  <scstep>
   <time name="dav">   53.90   53.97</time>
   <time name="total">   54.57   54.64</time>
   <energy>
    <i name="e_fr_energy">   -312.95769276 </i>
    <i name="e_wo_entrp">   -312.95188646 </i>
    <i name="e_0_energy">   -312.95575733 </i>
   </energy>
  </scstep>
  <scstep>
   <time name="dav">   49.42   49.49</time>
   <time name="total">   50.09   50.16</time>
   <energy>
    <i name="e_fr_energy">   -312.16903880 </i>
    <i name="e_wo_entrp">   -312.16363975 </i>
    <i name="e_0_energy">   -312.16723911 </i>
   </energy>
  </scstep>
  <scstep>
   <time name="dav">   47.46   47.54</time>
   <time name="total">   48.12   48.21</time>
   <energy>
    <i name="e_fr_energy">   -307.80965996 </i>
    <i name="e_wo_entrp">   -307.78582864 </i>
    <i name="e_0_energy">   -307.80171619 </i>
   </energy>
  </scstep>
  <scstep>
   <time name="dav">   47.05   47.11</time>
   <time name="total">   47.72   47.79</time>
   <energy>
    <i name="e_fr_energy">   -306.03807667 </i>
    <i name="e_wo_entrp">   -306.02096055 </i>
    <i name="e_0_energy">   -306.03237130 </i>
   </energy>
  </scstep>
  <scstep>
   <time name="dav">   47.46   47.52</time>
   <time name="total">   48.12   48.18</time>
   <energy>
    <i name="e_fr_energy">   -304.84989646 </i>
    <i name="e_wo_entrp">   -304.82246169 </i>
    <i name="e_0_energy">   -304.84075153 </i>
   </energy>
  </scstep>
  <scstep>
   <time name="dav">   48.62   48.69</time>
   <time name="total">   49.30   49.38</time>
   <energy>
    <i name="e_fr_energy">   -304.22584942 </i>
    <i name="e_wo_entrp">   -304.20705700 </i>
    <i name="e_0_energy">   -304.21958528 </i>
   </energy>
  </scstep>
  <scstep>
   <time name="dav">   48.97   49.05</time>
   <time name="total">   49.62   49.72</time>
   <energy>
    <i name="e_fr_energy">   -304.01020956 </i>
    <i name="e_wo_entrp">   -303.98665894 </i>
    <i name="e_0_energy">   -304.00235935 </i>
   </energy>
  </scstep>
  <scstep>
   <time name="dav">   47.78   47.83</time>
   <time name="total">   48.45   48.51</time>
   <energy>
    <i name="e_fr_energy">   -303.97775563 </i>
    <i name="e_wo_entrp">   -303.96086032 </i>
    <i name="e_0_energy">   -303.97212386 </i>
   </energy>
  </scstep>
  <scstep>
   <time name="dav">   51.00   51.06</time>
   <time name="total">   51.66   51.72</time>
   <energy>
    <i name="e_fr_energy">   -303.90488543 </i>
    <i name="e_wo_entrp">   -303.87941683 </i>
    <i name="e_0_energy">   -303.89639590 </i>
   </energy>
  </scstep>
  <scstep>
   <time name="dav">   49.03   49.08</time>
   <time name="total">   49.69   49.76</time>
   <energy>
    <i name="e_fr_energy">   -304.03152735 </i>
    <i name="e_wo_entrp">   -304.01164341 </i>
    <i name="e_0_energy">   -304.02489937 </i>
   </energy>
  </scstep>
  <scstep>
   <time name="dav">   48.99   49.04</time>
   <time name="total">   49.65   49.71</time>
   <energy>
    <i name="e_fr_energy">   -303.93210390 </i>
    <i name="e_wo_entrp">   -303.90970850 </i>
    <i name="e_0_energy">   -303.92463876 </i>
   </energy>
  </scstep>
  <scstep>
   <time name="dav">   48.14   48.19</time>
   <time name="total">   48.80   48.87</time>
   <energy>
    <i name="e_fr_energy">   -303.86930515 </i>
    <i name="e_wo_entrp">   -303.84230506 </i>
    <i name="e_0_energy">   -303.86030512 </i>
   </energy>
  </scstep>
  <scstep>
   <time name="dav">   51.69   51.75</time>
   <time name="total">   52.37   52.43</time>
   <energy>
    <i name="e_fr_energy">   -303.85773124 </i>
    <i name="e_wo_entrp">   -303.83300848 </i>
    <i name="e_0_energy">   -303.84949032 </i>
   </energy>
  </scstep>
  <scstep>
   <time name="dav">   52.34   52.40</time>
   <time name="total">   53.01   53.08</time>
   <energy>
    <i name="e_fr_energy">   -303.84388423 </i>
    <i name="e_wo_entrp">   -303.81822716 </i>
    <i name="e_0_energy">   -303.83533187 </i>
   </energy>
  </scstep>
  <scstep>
   <time name="dav">   49.28   49.34</time>
   <time name="total">   49.95   50.01</time>
   <energy>
    <i name="e_fr_energy">   -303.84155159 </i>
    <i name="e_wo_entrp">   -303.81582262 </i>
    <i name="e_0_energy">   -303.83297527 </i>
   </energy>
  </scstep>
  <scstep>
   <time name="dav">   47.56   47.61</time>
   <time name="total">   48.23   48.29</time>
   <energy>
    <i name="e_fr_energy">   -303.83879976 </i>
    <i name="e_wo_entrp">   -303.81315918 </i>
    <i name="e_0_energy">   -303.83025290 </i>
   </energy>
  </scstep>
  <scstep>
   <time name="dav">   49.40   49.46</time>
   <time name="total">   50.06   50.12</time>
   <energy>
    <i name="e_fr_energy">   -303.83850337 </i>
    <i name="e_wo_entrp">   -303.81303052 </i>
    <i name="e_0_energy">   -303.83001242 </i>
   </energy>
  </scstep>
  <scstep>
   <time name="dav">   48.86   48.91</time>
   <time name="total">   49.53   49.60</time>
   <energy>
    <i name="e_fr_energy">   -303.83782966 </i>
    <i name="e_wo_entrp">   -303.81214338 </i>
    <i name="e_0_energy">   -303.82926757 </i>
   </energy>
  </scstep>
  <scstep>
   <time name="dav">   46.19   46.25</time>
   <time name="total">   46.85   46.91</time>
   <energy>
    <i name="e_fr_energy">   -303.83761542 </i>
    <i name="e_wo_entrp">   -303.81196436 </i>
    <i name="e_0_energy">   -303.82906506 </i>
   </energy>
  </scstep>
  <scstep>
   <time name="dav">   41.05   41.10</time>
   <time name="total">   41.72   41.78</time>
   <energy>
    <i name="e_fr_energy">   -303.83757400 </i>
    <i name="e_wo_entrp">   -303.81190253 </i>
    <i name="e_0_energy">   -303.82901684 </i>
   </energy>
  </scstep>
  <scstep>
   <time name="dav">   35.28   35.32</time>
   <time name="total">   35.35   35.39</time>
   <energy>
    <i name="alphaZ">   1041.36097969 </i>
    <i name="ewald"> -10823.24475019 </i>
    <i name="hartreedc">  -3110.27920088 </i>
    <i name="XCdc">   -860.86224553 </i>
    <i name="pawpsdc">  16268.42055133 </i>
    <i name="pawaedc"> -14797.85585062 </i>
    <i name="eentropy">     -0.02567512 </i>
    <i name="bandstr">   -932.69651140 </i>
    <i name="atom">  12911.34519091 </i>
    <i name="e_fr_energy">   -303.83751180 </i>
    <i name="e_wo_entrp">   -303.81183667 </i>
    <i name="e_0_energy">   -303.82895342 </i>
   </energy>
  </scstep>
  <structure>
   <crystal>
    <varray name="basis" >
     <v>      -3.42409693      -3.37219006      -3.43447642 </v>
     <v>       1.49387222       1.56474818      -8.24666795 </v>
     <v>       7.97304111      -7.98055228      -1.57995986 </v>
    </varray>
    <i name="volume">    531.37428036 </i>
    <varray name="rec_basis" >
     <v>      -0.12850679      -0.11929588      -0.04591439 </v>
     <v>       0.04155469       0.06171386      -0.10202375 </v>
     <v>       0.06244830      -0.06279577      -0.00060264 </v>
    </varray>
   </crystal>
   <varray name="positions" >
    <v>       0.96425342       0.93362985       0.39922747 </v>
    <v>       0.63517539       0.26898835       0.40550941 </v>
    <v>       0.49776528       0.00450985      -0.00300953 </v>
    <v>       0.00121200      -0.00017683      -0.00048237 </v>
    <v>       0.09495835       0.21075390       0.79435251 </v>
    <v>       0.02523326       0.07583009       0.60283765 </v>
    <v>       0.90520954       0.79592714       0.20121459 </v>
    <v>       0.79985244       0.59338172       0.40175850 </v>
    <v>       0.73214200       0.46602770       0.19948049 </v>
    <v>       0.66212916       0.34041582      -0.00480690 </v>
    <v>       0.37481637       0.72651389       0.60280835 </v>
    <v>       0.13015607       0.27345920       0.40129897 </v>
    <v>       0.83686077       0.66196160      -0.00050735 </v>
    <v>       0.93112094       0.86906809       0.79900889 </v>
    <v>       0.56301906       0.13681908       0.19809015 </v>
    <v>       0.40164036       0.79633130       0.19515177 </v>
    <v>       0.43349217       0.86175179       0.79887549 </v>
    <v>       0.30208431       0.59559517       0.40635107 </v>
    <v>       0.86677462       0.72495334       0.60089501 </v>
    <v>       0.46538846       0.92975438       0.40449493 </v>
    <v>       0.16994425       0.33528354      -0.00380728 </v>
    <v>       0.27394410       0.52998731       0.79813759 </v>
    <v>       0.06664361       0.13728778       0.20068321 </v>
    <v>       0.76569724       0.52429027       0.80068466 </v>
    <v>       0.69844619       0.39795325       0.60338920 </v>
    <v>       0.60225395       0.20463368       0.79720265 </v>
    <v>       0.53495553       0.07397278       0.60397235 </v>
    <v>       0.33344235       0.66153419      -0.00100215 </v>
    <v>       0.23138880       0.46956175       0.19819065 </v>
   </varray>
  </structure>
  <varray name="forces" >
   <v>       0.04838614       0.07753883       0.25607716 </v>
   <v>      -0.41258335       0.29162055       0.30171502 </v>
   <v>      -0.20648982      -0.03425068       0.11284728 </v>
   <v>       0.29316878       0.00887132       0.11869022 </v>
   <v>      -0.21901138       0.27636039      -0.10872518 </v>
   <v>      -0.65967033       0.06005916       0.44442161 </v>
   <v>       0.06015550      -0.17590693       0.16242419 </v>
   <v>      -0.69297138       0.22013928       0.22106952 </v>
   <v>       0.18119403       0.14385535      -0.14846633 </v>
   <v>      -0.01826923       0.13363176      -0.21971976 </v>
   <v>       0.02188221      -0.12269575      -0.33350064 </v>
   <v>       0.11970677       0.22599903      -0.49212004 </v>
   <v>       0.41056624      -0.09333437      -0.08877012 </v>
   <v>       0.18205647       0.18981544      -0.13463344 </v>
   <v>      -0.22766301       0.14753785      -0.11228065 </v>
   <v>      -0.38323557      -0.33178434       0.45734005 </v>
   <v>      -0.59027128       0.16796563       0.22348031 </v>
   <v>       0.18146553      -0.09718495      -0.19953782 </v>
   <v>      -0.04079590       0.22867859       0.31806484 </v>
   <v>       0.36549602      -0.30018370       0.18624236 </v>
   <v>      -0.07541116      -0.09764241      -0.15902742 </v>
   <v>      -0.34935533       0.27080523      -0.31267415 </v>
   <v>       0.37092045      -0.07541442      -0.41041807 </v>
   <v>       0.83244507      -0.19134121       0.42914373 </v>
   <v>       0.36306514       0.28684607      -0.48731662 </v>
   <v>      -0.02676930      -0.47547614       0.02396335 </v>
   <v>       0.12133098      -0.42968879      -0.28272297 </v>
   <v>      -0.11083216      -0.25118129       0.36586850 </v>
   <v>       0.46148988      -0.05363949      -0.13143491 </v>
  </varray>
  <varray name="stress" >
   <v>    -189.01023341     -11.23294506      -8.92666204 </v>
   <v>     -11.23294498    -184.12854202      -2.93869925 </v>
   <v>      -8.92666202      -2.93869930    -200.82704045 </v>
  </varray>
  <energy>
   <i name="e_fr_energy">   -303.83751180 </i>
   <i name="e_wo_entrp">   -303.82895342 </i>
   <i name="e_0_energy">     -0.02567512 </i>
  </energy>
  <time name="totalsc"> 1136.55 1138.46</time>
 </calculation>
 <calculation>
  <scstep>
   <time name="dav">   41.37   41.42</time>
   <time name="total">   42.03   42.16</time>
   <energy>
    <i name="alphaZ">   1109.12765455 </i>
    <i name="ewald"> -11021.54328101 </i>
    <i name="hartreedc">  -3208.73642251 </i>
    <i name="XCdc">   -852.20525510 </i>
    <i name="pawpsdc">  16268.61038032 </i>
    <i name="pawaedc"> -14798.03838040 </i>
    <i name="eentropy">     -0.01613765 </i>
    <i name="bandstr">   -719.80326294 </i>
    <i name="atom">  12911.34519091 </i>
    <i name="e_fr_energy">   -311.25951384 </i>
    <i name="e_wo_entrp">   -311.24337618 </i>
    <i name="e_0_energy">   -311.25413462 </i>
   </energy>
  </scstep>
  <scstep>
   <time name="dav">   50.27   50.33</time>
   <time name="total">   50.94   51.01</time>
   <energy>
    <i name="e_fr_energy">   -324.59422122 </i>
    <i name="e_wo_entrp">   -324.59053610 </i>
    <i name="e_0_energy">   -324.59299285 </i>
   </energy>
  </scstep>
  <scstep>
   <time name="dav">   51.64   51.69</time>
   <time name="total">   52.30   52.35</time>
   <energy>
    <i name="e_fr_energy">   -309.30160396 </i>
    <i name="e_wo_entrp">   -309.30809010 </i>
    <i name="e_0_energy">   -309.30376601 </i>
   </energy>
  </scstep>
  <scstep>
   <time name="dav">   51.08   51.14</time>
   <time name="total">   51.75   51.82</time>
   <energy>
    <i name="e_fr_energy">   -308.90856873 </i>
    <i name="e_wo_entrp">   -308.89756534 </i>
    <i name="e_0_energy">   -308.90490093 </i>
   </energy>
  </scstep>
  <scstep>
   <time name="dav">   52.47   52.54</time>
   <time name="total">   53.12   53.20</time>
   <energy>
    <i name="e_fr_energy">   -308.08104012 </i>
    <i name="e_wo_entrp">   -308.08254839 </i>
    <i name="e_0_energy">   -308.08154288 </i>
   </energy>
  </scstep>
  <scstep>
   <time name="dav">   48.12   48.18</time>
   <time name="total">   48.79   48.86</time>
   <energy>
    <i name="e_fr_energy">   -307.39552086 </i>
    <i name="e_wo_entrp">   -307.38679508 </i>
    <i name="e_0_energy">   -307.39261227 </i>
   </energy>
  </scstep>
  <scstep>
   <time name="dav">   47.29   47.34</time>
   <time name="total">   47.95   48.01</time>
   <energy>
    <i name="e_fr_energy">   -307.17512458 </i>
    <i name="e_wo_entrp">   -307.16273340 </i>
    <i name="e_0_energy">   -307.17099419 </i>
   </energy>
  </scstep>
  <scstep>
   <time name="dav">   49.08   49.15</time>
   <time name="total">   49.75   49.83</time>
   <energy>
    <i name="e_fr_energy">   -306.95994958 </i>
    <i name="e_wo_entrp">   -306.94918364 </i>
    <i name="e_0_energy">   -306.95636093 </i>
   </energy>
  </scstep>
  <scstep>
   <time name="dav">   52.17   52.23</time>
   <time name="total">   52.83   52.89</time>
   <energy>
    <i name="e_fr_energy">   -306.90438592 </i>
    <i name="e_wo_entrp">   -306.89330957 </i>
    <i name="e_0_energy">   -306.90069380 </i>
   </energy>
  </scstep>
  <scstep>
   <time name="dav">   51.98   52.06</time>
   <time name="total">   52.65   52.75</time>
   <energy>
    <i name="e_fr_energy">   -306.88001275 </i>
    <i name="e_wo_entrp">   -306.87190965 </i>
    <i name="e_0_energy">   -306.87731172 </i>
   </energy>
  </scstep>
  <scstep>
   <time name="dav">   49.41   49.49</time>
   <time name="total">   50.07   50.16</time>
   <energy>
    <i name="e_fr_energy">   -306.87616515 </i>
    <i name="e_wo_entrp">   -306.86678820 </i>
    <i name="e_0_energy">   -306.87303950 </i>
   </energy>
  </scstep>
  <scstep>
   <time name="dav">   50.40   50.47</time>
   <time name="total">   51.07   51.15</time>
   <energy>
    <i name="e_fr_energy">   -306.88139534 </i>
    <i name="e_wo_entrp">   -306.87231235 </i>
    <i name="e_0_energy">   -306.87836768 </i>
   </energy>
  </scstep>
  <scstep>
   <time name="dav">   47.80   47.86</time>
   <time name="total">   48.46   48.52</time>
   <energy>
    <i name="e_fr_energy">   -306.90567126 </i>
    <i name="e_wo_entrp">   -306.89720317 </i>
    <i name="e_0_energy">   -306.90284857 </i>
   </energy>
  </scstep>
  <scstep>
   <time name="dav">   48.03   48.08</time>
   <time name="total">   48.71   48.78</time>
   <energy>
    <i name="e_fr_energy">   -306.89680601 </i>
    <i name="e_wo_entrp">   -306.88703991 </i>
    <i name="e_0_energy">   -306.89355064 </i>
   </energy>
  </scstep>
  <scstep>
   <time name="dav">   48.95   49.00</time>
   <time name="total">   49.62   49.67</time>
   <energy>
    <i name="e_fr_energy">   -306.89401959 </i>
    <i name="e_wo_entrp">   -306.88547311 </i>
    <i name="e_0_energy">   -306.89117076 </i>
   </energy>
  </scstep>
  <scstep>
   <time name="dav">   51.20   51.26</time>
   <time name="total">   51.88   51.94</time>
   <energy>
    <i name="e_fr_energy">   -306.89288374 </i>
    <i name="e_wo_entrp">   -306.88389103 </i>
    <i name="e_0_energy">   -306.88988617 </i>
   </energy>
  </scstep>
  <scstep>
   <time name="dav">   48.88   48.93</time>
   <time name="total">   49.54   49.59</time>
   <energy>
    <i name="e_fr_energy">   -306.89256836 </i>
    <i name="e_wo_entrp">   -306.88400693 </i>
    <i name="e_0_energy">   -306.88971455 </i>
   </energy>
  </scstep>
  <scstep>
   <time name="dav">   43.65   43.69</time>
   <time name="total">   44.32   44.38</time>
   <energy>
    <i name="e_fr_energy">   -306.89211273 </i>
    <i name="e_wo_entrp">   -306.88327924 </i>
    <i name="e_0_energy">   -306.88916823 </i>
   </energy>
  </scstep>
  <scstep>
   <time name="dav">   37.85   37.89</time>
   <time name="total">   37.92   37.96</time>
   <energy>
    <i name="alphaZ">   1109.12765455 </i>
    <i name="ewald"> -11021.54328101 </i>
    <i name="hartreedc">  -3086.73521730 </i>
    <i name="XCdc">   -856.25490962 </i>
    <i name="pawpsdc">  17540.79218778 </i>
    <i name="pawaedc"> -16070.52778833 </i>
    <i name="eentropy">     -0.00875368 </i>
    <i name="bandstr">   -833.08721428 </i>
    <i name="atom">  12911.34519091 </i>
    <i name="e_fr_energy">   -306.89213098 </i>
    <i name="e_wo_entrp">   -306.88337730 </i>
    <i name="e_0_energy">   -306.88921308 </i>
   </energy>
  </scstep>
  <structure>
   <crystal>
    <varray name="basis" >
     <v>      -3.27823364      -3.25499543      -3.28288043 </v>
     <v>       1.54144143       1.57317191      -8.05519988 </v>
     <v>       7.93269980      -7.93606248      -1.57998203 </v>
    </varray>
    <i name="volume">    498.90780282 </i>
    <varray name="rec_basis" >
     <v>      -0.13311508      -0.12319718      -0.04953315 </v>
     <v>       0.04191217       0.06258001      -0.10390130 </v>
     <v>       0.06290576      -0.06307216      -0.00028029 </v>
    </varray>
   </crystal>
   <varray name="positions" >
[...]
       <r>    4.8160    1.0000 </r>
       <r>    4.9246    1.0000 </r>
       <r>    4.9596    1.0000 </r>
       <r>    4.9935    1.0000 </r>
       <r>    5.0855    1.0000 </r>
       <r>    5.1299    1.0000 </r>
       <r>    5.1946    1.0000 </r>
       <r>    5.2354    1.0000 </r>
       <r>    5.2530    1.0000 </r>
       <r>    5.3147    1.0000 </r>
       <r>    5.3927    1.0000 </r>
       <r>    5.4576    1.0000 </r>
       <r>    5.5049    1.0000 </r>
       <r>    5.5607    1.0000 </r>
       <r>    5.6245    1.0000 </r>
       <r>    5.6494    1.0000 </r>
       <r>    5.6954    1.0000 </r>
       <r>    5.7428    1.0000 </r>
       <r>    5.7559    1.0000 </r>
       <r>    5.8303    1.0000 </r>
       <r>    5.8760    1.0000 </r>
       <r>    5.9435    1.0000 </r>
       <r>    6.0251    1.0000 </r>
       <r>    6.0916    1.0000 </r>
       <r>    6.1702    1.0002 </r>
       <r>    6.2003    1.0004 </r>
       <r>    6.2381    1.0011 </r>
       <r>    6.2918    1.0034 </r>
       <r>    6.3493    1.0092 </r>
       <r>    6.3775    1.0138 </r>
       <r>    6.4348    1.0263 </r>
       <r>    6.4784    1.0344 </r>
       <r>    6.5146    1.0339 </r>
       <r>    6.5530    1.0175 </r>
       <r>    6.5741    0.9980 </r>
       <r>    6.6489    0.8468 </r>
       <r>    6.7136    0.6136 </r>
       <r>    6.7740    0.3610 </r>
       <r>    6.8543    0.0948 </r>
       <r>    6.9769   -0.0351 </r>
       <r>    7.0107   -0.0334 </r>
       <r>    7.0688   -0.0212 </r>
       <r>    7.2160   -0.0020 </r>
       <r>    7.2352   -0.0013 </r>
       <r>    7.3296   -0.0001 </r>
       <r>    7.4642   -0.0000 </r>
       <r>    7.5305   -0.0000 </r>
       <r>    7.6127   -0.0000 </r>
       <r>    7.7468   -0.0000 </r>
       <r>    7.9035   -0.0000 </r>
       <r>    8.0219   -0.0000 </r>
       <r>    8.1404   -0.0000 </r>
       <r>    8.1939   -0.0000 </r>
       <r>    8.2414   -0.0000 </r>
       <r>    8.3030   -0.0000 </r>
       <r>    8.4971   -0.0000 </r>
       <r>    8.5995   -0.0000 </r>
       <r>    8.6407   -0.0000 </r>
       <r>    8.6915   -0.0000 </r>
       <r>    8.8159   -0.0000 </r>
       <r>    8.8656   -0.0000 </r>
      </set>
     </set>
    </set>
   </array>
  </eigenvalues>
  <separator name="orbital magnetization" >
   <v name="MAGDIPOLOUT">      0.00000000      0.00000000      0.00000000</v>
  </separator>
  <dos>
   <i name="efermi">      6.74068469 </i>
   <total>
    <array>
     <dimension dim="1">gridpoints</dimension>
     <dimension dim="2">spin</dimension>
     <field>energy</field>
     <field>total</field>
     <field>integrated</field>
     <set>
      <set comment="spin 1">
       <r>   -50.3169     0.0000     0.0000 </r>
       <r>   -50.1100     0.0000     0.0000 </r>
       <r>   -49.9031     0.0000     0.0000 </r>
       <r>   -49.6962     0.0000     0.0000 </r>
       <r>   -49.4894     0.0000     0.0000 </r>
       <r>   -49.2825    -0.0000    -0.0000 </r>
       <r>   -49.0756    -0.0000    -0.0000 </r>
       <r>   -48.8687    -0.0000    -0.0000 </r>
       <r>   -48.6618    -0.0000    -0.0000 </r>
       <r>   -48.4549    -0.0000    -0.0000 </r>
       <r>   -48.2480    -0.0000    -0.0000 </r>
       <r>   -48.0411    -0.0038    -0.0008 </r>
       <r>   -47.8343    -0.1932    -0.0408 </r>
       <r>   -47.6274     0.3055     0.0224 </r>
       <r>   -47.4205     8.8185     1.8469 </r>
       <r>   -47.2136    19.1626     5.8114 </r>
       <r>   -47.0067    23.2145    10.6142 </r>
       <r>   -46.7998     7.3705    12.1390 </r>
       <r>   -46.5929    -0.5812    12.0188 </r>
       <r>   -46.3860    -0.0900    12.0002 </r>
       <r>   -46.1792    -0.0008    12.0000 </r>
       <r>   -45.9723    -0.0000    12.0000 </r>
       <r>   -45.7654    -0.0000    12.0000 </r>
       <r>   -45.5585    -0.0000    12.0000 </r>
       <r>   -45.3516     0.0000    12.0000 </r>
       <r>   -45.1447     0.0000    12.0000 </r>
       <r>   -44.9378     0.0000    12.0000 </r>
       <r>   -44.7309     0.0000    12.0000 </r>
       <r>   -44.5241     0.0000    12.0000 </r>
       <r>   -44.3172     0.0000    12.0000 </r>
       <r>   -44.1103     0.0000    12.0000 </r>
       <r>   -43.9034     0.0000    12.0000 </r>
       <r>   -43.6965     0.0000    12.0000 </r>
       <r>   -43.4896     0.0000    12.0000 </r>
       <r>   -43.2827     0.0000    12.0000 </r>
       <r>   -43.0758     0.0000    12.0000 </r>
       <r>   -42.8690     0.0000    12.0000 </r>
       <r>   -42.6621     0.0000    12.0000 </r>
       <r>   -42.4552     0.0000    12.0000 </r>
       <r>   -42.2483     0.0000    12.0000 </r>
       <r>   -42.0414     0.0000    12.0000 </r>
       <r>   -41.8345     0.0000    12.0000 </r>
       <r>   -41.6276     0.0000    12.0000 </r>
       <r>   -41.4207     0.0000    12.0000 </r>
       <r>   -41.2139     0.0000    12.0000 </r>
       <r>   -41.0070     0.0000    12.0000 </r>
       <r>   -40.8001     0.0000    12.0000 </r>
       <r>   -40.5932     0.0000    12.0000 </r>
       <r>   -40.3863     0.0000    12.0000 </r>
       <r>   -40.1794     0.0000    12.0000 </r>
       <r>   -39.9725     0.0000    12.0000 </r>
       <r>   -39.7657     0.0000    12.0000 </r>
       <r>   -39.5588     0.0000    12.0000 </r>
       <r>   -39.3519     0.0000    12.0000 </r>
       <r>   -39.1450     0.0000    12.0000 </r>
       <r>   -38.9381     0.0000    12.0000 </r>
       <r>   -38.7312     0.0000    12.0000 </r>
       <r>   -38.5243     0.0000    12.0000 </r>
       <r>   -38.3174     0.0000    12.0000 </r>
       <r>   -38.1106     0.0000    12.0000 </r>
       <r>   -37.9037     0.0000    12.0000 </r>
       <r>   -37.6968     0.0000    12.0000 </r>
       <r>   -37.4899     0.0000    12.0000 </r>
       <r>   -37.2830     0.0000    12.0000 </r>
       <r>   -37.0761     0.0000    12.0000 </r>
       <r>   -36.8692     0.0000    12.0000 </r>
       <r>   -36.6623     0.0000    12.0000 </r>
       <r>   -36.4555     0.0000    12.0000 </r>
       <r>   -36.2486     0.0000    12.0000 </r>
       <r>   -36.0417     0.0000    12.0000 </r>
       <r>   -35.8348     0.0000    12.0000 </r>
       <r>   -35.6279     0.0000    12.0000 </r>
       <r>   -35.4210     0.0000    12.0000 </r>
       <r>   -35.2141     0.0000    12.0000 </r>
       <r>   -35.0072     0.0000    12.0000 </r>
       <r>   -34.8004     0.0000    12.0000 </r>
       <r>   -34.5935     0.0000    12.0000 </r>
       <r>   -34.3866     0.0000    12.0000 </r>
       <r>   -34.1797     0.0000    12.0000 </r>
       <r>   -33.9728     0.0000    12.0000 </r>
       <r>   -33.7659     0.0000    12.0000 </r>
       <r>   -33.5590     0.0000    12.0000 </r>
       <r>   -33.3521     0.0000    12.0000 </r>
       <r>   -33.1453     0.0000    12.0000 </r>
       <r>   -32.9384     0.0000    12.0000 </r>
       <r>   -32.7315     0.0000    12.0000 </r>
       <r>   -32.5246     0.0000    12.0000 </r>
       <r>   -32.3177     0.0000    12.0000 </r>
       <r>   -32.1108     0.0000    12.0000 </r>
       <r>   -31.9039     0.0000    12.0000 </r>
       <r>   -31.6970     0.0000    12.0000 </r>
       <r>   -31.4902     0.0000    12.0000 </r>
       <r>   -31.2833     0.0000    12.0000 </r>
       <r>   -31.0764     0.0000    12.0000 </r>
       <r>   -30.8695     0.0000    12.0000 </r>
       <r>   -30.6626     0.0000    12.0000 </r>
       <r>   -30.4557     0.0000    12.0000 </r>
       <r>   -30.2488     0.0000    12.0000 </r>
       <r>   -30.0419     0.0000    12.0000 </r>
       <r>   -29.8351     0.0000    12.0000 </r>
       <r>   -29.6282     0.0000    12.0000 </r>
       <r>   -29.4213     0.0000    12.0000 </r>
       <r>   -29.2144     0.0000    12.0000 </r>
       <r>   -29.0075     0.0000    12.0000 </r>
       <r>   -28.8006     0.0000    12.0000 </r>
       <r>   -28.5937     0.0000    12.0000 </r>
       <r>   -28.3869     0.0000    12.0000 </r>
       <r>   -28.1800     0.0000    12.0000 </r>
       <r>   -27.9731     0.0000    12.0000 </r>
       <r>   -27.7662     0.0000    12.0000 </r>
       <r>   -27.5593     0.0000    12.0000 </r>
       <r>   -27.3524     0.0000    12.0000 </r>
       <r>   -27.1455     0.0000    12.0000 </r>
       <r>   -26.9386     0.0000    12.0000 </r>
       <r>   -26.7318     0.0000    12.0000 </r>
       <r>   -26.5249     0.0000    12.0000 </r>
       <r>   -26.3180     0.0000    12.0000 </r>
       <r>   -26.1111     0.0000    12.0000 </r>
       <r>   -25.9042     0.0000    12.0000 </r>
       <r>   -25.6973    -0.0000    12.0000 </r>
       <r>   -25.4904    -0.0000    12.0000 </r>
       <r>   -25.2835    -0.0000    12.0000 </r>
       <r>   -25.0767    -0.0000    12.0000 </r>
       <r>   -24.8698    -0.0000    12.0000 </r>
       <r>   -24.6629    -0.0001    12.0000 </r>
       <r>   -24.4560    -0.0292    11.9939 </r>
       <r>   -24.2491    -0.4523    11.9004 </r>
       <r>   -24.0422     3.3440    12.5922 </r>
       <r>   -23.8353    13.2934    15.3424 </r>
       <r>   -23.6284    21.8479    19.8625 </r>
       <r>   -23.4216    41.7569    28.5015 </r>
       <r>   -23.2147    48.5544    38.5468 </r>
       <r>   -23.0078    26.8417    44.1000 </r>
       <r>   -22.8009    15.3754    47.2809 </r>
       <r>   -22.5940     3.6511    48.0363 </r>
       <r>   -22.3871    -0.1012    48.0153 </r>
       <r>   -22.1802    -0.0727    48.0003 </r>
       <r>   -21.9733    -0.0015    48.0000 </r>
       <r>   -21.7665    -0.0000    48.0000 </r>
       <r>   -21.5596    -0.0000    48.0000 </r>
       <r>   -21.3527    -0.0000    48.0000 </r>
       <r>   -21.1458     0.0000    48.0000 </r>
       <r>   -20.9389     0.0000    48.0000 </r>
       <r>   -20.7320     0.0000    48.0000 </r>
       <r>   -20.5251     0.0000    48.0000 </r>
       <r>   -20.3182     0.0000    48.0000 </r>
       <r>   -20.1114     0.0000    48.0000 </r>
       <r>   -19.9045     0.0000    48.0000 </r>
       <r>   -19.6976     0.0000    48.0000 </r>
       <r>   -19.4907     0.0000    48.0000 </r>
       <r>   -19.2838     0.0000    48.0000 </r>
       <r>   -19.0769     0.0000    48.0000 </r>
       <r>   -18.8700     0.0000    48.0000 </r>
       <r>   -18.6631     0.0000    48.0000 </r>
       <r>   -18.4563     0.0000    48.0000 </r>
       <r>   -18.2494     0.0000    48.0000 </r>
       <r>   -18.0425     0.0000    48.0000 </r>
       <r>   -17.8356     0.0000    48.0000 </r>
       <r>   -17.6287     0.0000    48.0000 </r>
       <r>   -17.4218     0.0000    48.0000 </r>
       <r>   -17.2149     0.0000    48.0000 </r>
       <r>   -17.0081     0.0000    48.0000 </r>
       <r>   -16.8012     0.0000    48.0000 </r>
       <r>   -16.5943     0.0000    48.0000 </r>
       <r>   -16.3874     0.0000    48.0000 </r>
       <r>   -16.1805     0.0000    48.0000 </r>
       <r>   -15.9736     0.0000    48.0000 </r>
       <r>   -15.7667     0.0000    48.0000 </r>
       <r>   -15.5598     0.0000    48.0000 </r>
       <r>   -15.3530     0.0000    48.0000 </r>
       <r>   -15.1461     0.0000    48.0000 </r>
       <r>   -14.9392     0.0000    48.0000 </r>
       <r>   -14.7323     0.0000    48.0000 </r>
       <r>   -14.5254     0.0000    48.0000 </r>
       <r>   -14.3185     0.0000    48.0000 </r>
       <r>   -14.1116     0.0000    48.0000 </r>
       <r>   -13.9047     0.0000    48.0000 </r>
       <r>   -13.6979     0.0000    48.0000 </r>
       <r>   -13.4910     0.0000    48.0000 </r>
       <r>   -13.2841     0.0000    48.0000 </r>
       <r>   -13.0772     0.0000    48.0000 </r>
       <r>   -12.8703     0.0000    48.0000 </r>
       <r>   -12.6634     0.0000    48.0000 </r>
       <r>   -12.4565     0.0000    48.0000 </r>
       <r>   -12.2496     0.0000    48.0000 </r>
       <r>   -12.0428     0.0000    48.0000 </r>
       <r>   -11.8359     0.0000    48.0000 </r>
       <r>   -11.6290     0.0000    48.0000 </r>
       <r>   -11.4221     0.0000    48.0000 </r>
       <r>   -11.2152     0.0000    48.0000 </r>
       <r>   -11.0083     0.0000    48.0000 </r>
       <r>   -10.8014     0.0000    48.0000 </r>
       <r>   -10.5945     0.0000    48.0000 </r>
       <r>   -10.3877     0.0000    48.0000 </r>
       <r>   -10.1808     0.0000    48.0000 </r>
       <r>    -9.9739     0.0000    48.0000 </r>
       <r>    -9.7670     0.0000    48.0000 </r>
       <r>    -9.5601     0.0000    48.0000 </r>
       <r>    -9.3532     0.0000    48.0000 </r>
       <r>    -9.1463     0.0000    48.0000 </r>
       <r>    -8.9394     0.0000    48.0000 </r>
       <r>    -8.7326     0.0000    48.0000 </r>
       <r>    -8.5257     0.0000    48.0000 </r>
       <r>    -8.3188     0.0000    48.0000 </r>
       <r>    -8.1119     0.0000    48.0000 </r>
       <r>    -7.9050     0.0000    48.0000 </r>
       <r>    -7.6981     0.0000    48.0000 </r>
       <r>    -7.4912     0.0000    48.0000 </r>
       <r>    -7.2843     0.0000    48.0000 </r>
       <r>    -7.0775     0.0000    48.0000 </r>
       <r>    -6.8706     0.0000    48.0000 </r>
       <r>    -6.6637     0.0000    48.0000 </r>
       <r>    -6.4568     0.0000    48.0000 </r>
       <r>    -6.2499     0.0000    48.0000 </r>
       <r>    -6.0430     0.0000    48.0000 </r>
       <r>    -5.8361     0.0000    48.0000 </r>
       <r>    -5.6293     0.0000    48.0000 </r>
       <r>    -5.4224     0.0000    48.0000 </r>
       <r>    -5.2155     0.0000    48.0000 </r>
       <r>    -5.0086     0.0000    48.0000 </r>
       <r>    -4.8017     0.0000    48.0000 </r>
       <r>    -4.5948     0.0000    48.0000 </r>
       <r>    -4.3879     0.0000    48.0000 </r>
       <r>    -4.1810     0.0000    48.0000 </r>
       <r>    -3.9742     0.0000    48.0000 </r>
       <r>    -3.7673     0.0000    48.0000 </r>
       <r>    -3.5604     0.0000    48.0000 </r>
       <r>    -3.3535     0.0000    48.0000 </r>
       <r>    -3.1466     0.0000    48.0000 </r>
       <r>    -2.9397     0.0000    48.0000 </r>
       <r>    -2.7328     0.0000    48.0000 </r>
       <r>    -2.5259     0.0000    48.0000 </r>
       <r>    -2.3191     0.0000    48.0000 </r>
       <r>    -2.1122     0.0000    48.0000 </r>
       <r>    -1.9053     0.0000    48.0000 </r>
       <r>    -1.6984    -0.0000    48.0000 </r>
       <r>    -1.4915    -0.0000    48.0000 </r>
       <r>    -1.2846    -0.0000    48.0000 </r>
       <r>    -1.0777    -0.0000    48.0000 </r>
       <r>    -0.8708    -0.0000    48.0000 </r>
       <r>    -0.6640    -0.0000    48.0000 </r>
       <r>    -0.4571    -0.0017    47.9996 </r>
       <r>    -0.2502    -0.0176    47.9960 </r>
       <r>    -0.0433     0.1281    48.0225 </r>
       <r>     0.1636     0.8304    48.1943 </r>
       <r>     0.3705     1.2516    48.4532 </r>
       <r>     0.5774     1.6690    48.7985 </r>
       <r>     0.7843     2.1276    49.2387 </r>
       <r>     0.9911     1.7494    49.6006 </r>
       <r>     1.1980     2.7107    50.1614 </r>
       <r>     1.4049     3.1974    50.8229 </r>
       <r>     1.6118     3.1268    51.4698 </r>
       <r>     1.8187     3.5502    52.2043 </r>
       <r>     2.0256     4.4420    53.1233 </r>
       <r>     2.2325     5.3936    54.2392 </r>
       <r>     2.4394     6.3352    55.5499 </r>
       <r>     2.6462    10.3912    57.6997 </r>
       <r>     2.8531    16.6251    61.1392 </r>
       <r>     3.0600    21.0499    65.4942 </r>
       <r>     3.2669    25.5837    70.7871 </r>
       <r>     3.4738    29.5286    76.8962 </r>
       <r>     3.6807    31.1059    83.3316 </r>
       <r>     3.8876    29.5196    89.4388 </r>
       <r>     4.0945    29.9497    95.6350 </r>
       <r>     4.3013    31.0299   102.0547 </r>
       <r>     4.5082    28.7407   108.0008 </r>
       <r>     4.7151    26.3969   113.4620 </r>
       <r>     4.9220    31.5104   119.9811 </r>
       <r>     5.1289    37.3983   127.7183 </r>
       <r>     5.3358    41.4180   136.2872 </r>
       <r>     5.5427    41.5051   144.8741 </r>
       <r>     5.7495    42.3850   153.6430 </r>
       <r>     5.9564    40.0641   161.9317 </r>
       <r>     6.1633    40.8736   170.3879 </r>
       <r>     6.3702    42.9632   179.2765 </r>
       <r>     6.5771    41.3949   187.8406 </r>
       <r>     6.7840    37.0448   195.5047 </r>
       <r>     6.9909    31.4820   202.0179 </r>
       <r>     7.1978    26.7125   207.5444 </r>
       <r>     7.4046    22.5953   212.2190 </r>
       <r>     7.6115    19.5968   216.2734 </r>
       <r>     7.8184    19.2083   220.2473 </r>
       <r>     8.0253    21.0331   224.5988 </r>
       <r>     8.2322    24.5161   229.6708 </r>
       <r>     8.4391    25.0086   234.8448 </r>
       <r>     8.6460    17.9787   238.5644 </r>
       <r>     8.8529     6.6203   239.9340 </r>
       <r>     9.0597     0.4548   240.0281 </r>
       <r>     9.2666    -0.1263   240.0020 </r>
       <r>     9.4735    -0.0095   240.0000 </r>
       <r>     9.6804    -0.0001   240.0000 </r>
       <r>     9.8873    -0.0000   240.0000 </r>
       <r>    10.0942    -0.0000   240.0000 </r>
       <r>    10.3011    -0.0000   240.0000 </r>
       <r>    10.5080     0.0000   240.0000 </r>
       <r>    10.7148     0.0000   240.0000 </r>
       <r>    10.9217     0.0000   240.0000 </r>
       <r>    11.1286     0.0000   240.0000 </r>
       <r>    11.3355     0.0000   240.0000 </r>
       <r>    11.5424     0.0000   240.0000 </r>
       <r>    11.7493     0.0000   240.0000 </r>
      </set>
     </set>
    </array>
   </total>
  </dos>
 </calculation>
 <structure name="finalpos" >
  <crystal>
   <varray name="basis" >
    <v>      -3.15280950      -3.19744550      -3.17249650 </v>
    <v>       1.61916653       1.43231879      -7.80887003 </v>
    <v>       7.90125126      -7.85566338      -1.74050535 </v>
   </varray>
   <i name="volume">    465.79272743 </i>
   <varray name="rec_basis" >
    <v>      -0.13704983      -0.12641175      -0.05160394 </v>
    <v>       0.04155688       0.06559607      -0.10741093 </v>
    <v>       0.06335965      -0.06388395       0.00141988 </v>
   </varray>
  </crystal>
  <varray name="positions" >
   <v>       0.96117373       0.92590536       0.40138978 </v>
   <v>       0.63665253       0.25865146       0.40015573 </v>
   <v>       0.49745066       0.00690454      -0.00851774 </v>
   <v>       0.00129233       0.00694823      -0.00149274 </v>
   <v>       0.10962184       0.23539732       0.77083867 </v>
   <v>       0.03390854       0.06985780       0.59451427 </v>
   <v>       0.90555652       0.79165984       0.20572744 </v>
   <v>       0.79743375       0.58780903       0.40326243 </v>
   <v>       0.72681858       0.46565270       0.20195229 </v>
   <v>       0.66461609       0.34355006      -0.00702772 </v>
   <v>       0.37913444       0.72779253       0.60535833 </v>
   <v>       0.13387641       0.27535378       0.40111783 </v>
   <v>       0.83315924       0.66647304       0.00479169 </v>
   <v>       0.92988890       0.87435456       0.79704298 </v>
   <v>       0.56144751       0.13414007       0.19347715 </v>
   <v>       0.40277181       0.78916959       0.19956401 </v>
   <v>       0.43929491       0.86442969       0.79469557 </v>
   <v>       0.29669846       0.58376042       0.42003440 </v>
   <v>       0.87740461       0.70331165       0.60649588 </v>
   <v>       0.46228850       0.92392005       0.41049569 </v>
   <v>       0.17317623       0.34007860      -0.00555032 </v>
   <v>       0.27041753       0.53434356       0.78908023 </v>
   <v>       0.06157096       0.14442843       0.20205153 </v>
   <v>       0.75201876       0.52743226       0.81202659 </v>
   <v>       0.68092214       0.40496932       0.60741445 </v>
   <v>       0.61693803       0.20649617       0.79464765 </v>
   <v>       0.53545872       0.08591921       0.60515639 </v>
   <v>       0.33756182       0.65150354      -0.00117021 </v>
   <v>       0.22144645       0.46978718       0.20246774 </v>
  </varray>
 </structure>
</modeling>
