Nb - Mo - Ta - Ti - V SQS               
           1
    -3.160000   -3.160000   -3.160000
     1.580000    1.580000   -7.900000
     7.900000   -7.900000   -1.580000
   Nb   Mo   Ta   Ti   V 
   6   6   6   5   6
Direct configuration=     1
   0.96666667  0.93333333  0.40000000
   0.63333333  0.26666667  0.40000000
   0.50000000  0.00000000  0.00000000
   0.00000000  0.00000000  0.00000000
   0.10000000  0.20000000  0.80000000
   0.03333333  0.06666667  0.60000000
   0.90000000  0.80000000  0.20000000
   0.80000000  0.60000000  0.40000000
   0.73333333  0.46666667  0.20000000
   0.66666667  0.33333333  0.00000000
   0.36666667  0.73333333  0.60000000
   0.13333333  0.26666667  0.40000000
   0.83333333  0.66666667  0.00000000
   0.93333333  0.86666667  0.80000000
   0.56666667  0.13333333  0.20000000
   0.40000000  0.80000000  0.20000000
   0.43333333  0.86666667  0.80000000
   0.30000000  0.60000000  0.40000000
   0.86666667  0.73333333  0.60000000
   0.46666667  0.93333333  0.40000000
   0.16666667  0.33333333  0.00000000
   0.26666667  0.53333333  0.80000000
   0.06666667  0.13333333  0.20000000
   0.76666667  0.53333333  0.80000000
   0.70000000  0.40000000  0.60000000
   0.60000000  0.20000000  0.80000000
   0.53333333  0.06666667  0.60000000
   0.33333333  0.66666667  0.00000000
   0.23333333  0.46666667  0.20000000
Nb - Mo - Ta - Ti - V SQS               
           1
    -3.424097   -3.372190   -3.434476
     1.493872    1.564748   -8.246668
     7.973041   -7.980552   -1.579960
   Nb   Mo   Ta   Ti   V 
   6   6   6   5   6
Direct configuration=     2
   0.96425342  0.93362985  0.39922747
   0.63517539  0.26898835  0.40550941
   0.49776528  0.00450985 -0.00300953
   0.00121200 -0.00017683 -0.00048237
   0.09495835  0.21075390  0.79435251
   0.02523326  0.07583009  0.60283765
   0.90520954  0.79592714  0.20121459
   0.79985244  0.59338172  0.40175850
   0.73214200  0.46602770  0.19948049
   0.66212916  0.34041582 -0.00480690
   0.37481637  0.72651389  0.60280835
   0.13015607  0.27345920  0.40129897
   0.83686077  0.66196160 -0.00050735
   0.93112094  0.86906809  0.79900889
   0.56301906  0.13681908  0.19809015
   0.40164036  0.79633130  0.19515177
   0.43349217  0.86175179  0.79887549
   0.30208431  0.59559517  0.40635107
   0.86677462  0.72495334  0.60089501
   0.46538846  0.92975438  0.40449493
   0.16994425  0.33528354 -0.00380728
   0.27394410  0.52998731  0.79813759
   0.06664361  0.13728778  0.20068321
   0.76569724  0.52429027  0.80068466
   0.69844619  0.39795325  0.60338920
   0.60225395  0.20463368  0.79720265
   0.53495553  0.07397278  0.60397235
   0.33344235  0.66153419 -0.00100215
   0.23138880  0.46956175  0.19819065
Nb - Mo - Ta - Ti - V SQS               
           1
    -3.278234   -3.254995   -3.282880
     1.541441    1.573172   -8.055200
     7.932700   -7.936062   -1.579982
   Nb   Mo   Ta   Ti   V 
   6   6   6   5   6
Direct configuration=     3
   0.96549513  0.93346672  0.39965335
   0.63426872  0.26774372  0.40248732
   0.49898223  0.00209422 -0.00137011
   0.00058783 -0.00007903 -0.00022011
   0.09771321  0.20499274  0.79742501
   0.02953168  0.07090453  0.60127758
   0.90247436  0.79811724  0.20055105
   0.79982301  0.59692210  0.40081225
   0.73274247  0.46636769  0.19976812
   0.66456728  0.33662006 -0.00218649
   0.37053049  0.73017884  0.60127454
   0.13189303  0.26981506  0.40057790
   0.83497760  0.66448830 -0.00022473
   0.93229314  0.86777893  0.79954911
   0.56494413  0.13494738  0.19913277
   0.40074051  0.79830381  0.19780955
   0.43333242  0.86438414  0.79950176
   0.30094654  0.59795068  0.40288385
   0.86658608  0.72943819  0.60042476
   0.46598731  0.93166250  0.40204666
   0.16829464  0.33425085 -0.00173468
   0.27016006  0.53179615  0.79915204
   0.06671843  0.13517029  0.20030034
   0.76605041  0.52912793  0.80033280
   0.69921056  0.39904181  0.60154266
   0.60117190  0.20216130  0.79871827
   0.53424067  0.07006129  0.60177980
   0.33330469  0.66428277 -0.00044222
   0.23243145  0.46800981  0.19917685
Nb - Mo - Ta - Ti - V SQS               
           1
    -3.234693   -3.220013   -3.237629
     1.555641    1.575686   -7.998047
     7.920658   -7.922782   -1.579989
   Nb   Mo   Ta   Ti   V 
   6   6   6   5   6
Direct configuration=     4
   0.96588031  0.93341789  0.39978063
   0.63398052  0.26736611  0.40158178
   0.49934842  0.00136093 -0.00087703
   0.00039431 -0.00004984 -0.00014116
   0.09854067  0.20324404  0.79834976
   0.03084300  0.06941217  0.60081072
   0.90163513  0.79878068  0.20035177
   0.79983164  0.59799755  0.40052575
   0.73293085  0.46647126  0.19985388
   0.66530616  0.33546815 -0.00139866
   0.36921663  0.73128939  0.60081385
   0.13241460  0.26870981  0.40036323
   0.83440495  0.66525424 -0.00014076
   0.93265106  0.86738806  0.79971154
   0.56553316  0.13437995  0.19944600
   0.40047081  0.79890135  0.19860619
   0.43329602  0.86518323  0.79968789
   0.30060461  0.59866636  0.40184225
   0.86655001  0.73080020  0.60028051
   0.46618298  0.93224318  0.40131027
   0.16777674  0.33393542 -0.00111111
   0.26899293  0.53234253  0.79945714
   0.06673102  0.13452742  0.20018692
   0.76618452  0.53059741  0.80022354
   0.69945358  0.39937352  0.60098734
   0.60082315  0.20140923  0.79917545
   0.53399871  0.06887365  0.60112501
   0.33327574  0.66511720 -0.00027609
   0.23274778  0.46753890  0.19947338
Nb - Mo - Ta - Ti - V SQS               
           1
    -3.185632   -3.180594   -3.186639
     1.571641    1.578520   -7.933646
     7.907089   -7.907818   -1.579996
   Nb   Mo   Ta   Ti   V 
   6   6   6   5   6
Direct configuration=     5
   0.96631948  0.93336284  0.39992409
   0.63364950  0.26693850  0.40056025
   0.49976199  0.00053045 -0.00032015
   0.00017369 -0.00001696 -0.00005196
   0.09947466  0.20126363  0.79939438
   0.03233045  0.06772301  0.60028425
   0.90068148  0.79953156  0.20012682
   0.79984768  0.59921581  0.40020153
   0.73314637  0.46658869  0.19995048
   0.66614252  0.33416370 -0.00050900
   0.36772403  0.73254643  0.60029378
   0.13300328  0.26745841  0.40012155
   0.83375603  0.66612132 -0.00004627
   0.93305714  0.86694555  0.79989497
   0.56620191  0.13373758  0.19979963
   0.40016658  0.79957766  0.19950495
   0.43325912  0.86608825  0.79989733
   0.30021859  0.59947712  0.40066631
   0.86651672  0.73234295  0.60011662
   0.46640955  0.93290134  0.40047857
   0.16718407  0.33357750 -0.00040677
   0.26766452  0.53296038  0.79980172
   0.06674167  0.13379929  0.20005944
   0.76634600  0.53226202  0.80009896
   0.69973274  0.39974964  0.60036019
   0.60042095  0.20055693  0.79969223
   0.53371578  0.06752849  0.60038713
   0.33324754  0.66606226 -0.00008926
   0.23310597  0.46700565  0.19980823
Nb - Mo - Ta - Ti - V SQS               
           1
    -3.175108   -3.172139   -3.175702
     1.575073    1.579127   -7.919832
     7.904178   -7.904608   -1.579998
   Nb   Mo   Ta   Ti   V 
   6   6   6   5   6
Direct configuration=     6
   0.96641496  0.93335103  0.39995487
   0.63357694  0.26684626  0.40034086
   0.49985092  0.00035128 -0.00020039
   0.00012573 -0.00000992 -0.00003276
   0.09967538  0.20083639  0.79961909
   0.03265194  0.06735883  0.60017123
   0.90047494  0.79969344  0.20007847
   0.79985271  0.59947870  0.40013164
   0.73319341  0.46661406  0.19997118
   0.66632284  0.33388231 -0.00031770
   0.36740087  0.73281744  0.60018199
   0.13312977  0.26718851  0.40006976
   0.83361594  0.66630829 -0.00002604
   0.93314494  0.86685013  0.79993441
   0.56634660  0.13359907  0.19987565
   0.40010125  0.79972346  0.19969800
   0.43325223  0.86628351  0.79994218
   0.30013562  0.59965209  0.40041352
   0.86651143  0.73267584  0.60008114
   0.46645967  0.93304345  0.40029971
   0.16705468  0.33350012 -0.00025527
   0.26737628  0.53309344  0.79987583
   0.06674307  0.13364220  0.20003217
   0.76638323  0.53262124  0.80007187
   0.69979394  0.39983090  0.60022531
   0.60033237  0.20037291  0.79980349
   0.53365252  0.06723825  0.60022884
   0.33324260  0.66626616 -0.00004928
   0.23318323  0.46689062  0.19988024
Nb - Mo - Ta - Ti - V SQS               
           1
    -3.181617   -3.169342   -3.185771
     1.536574    1.546651   -7.872174
     7.843984   -7.842193   -1.564008
   Nb   Mo   Ta   Ti   V 
   6   6   6   5   6
Direct configuration=     7
   0.96356353  0.93380891  0.39940496
   0.63386702  0.26698281  0.40211139
   0.49818876  0.00273599 -0.00184684
  -0.00071297  0.00019057  0.00131603
   0.09660864  0.20822679  0.79498682
   0.03068776  0.06944824  0.59940760
   0.90458778  0.79651833  0.20149861
   0.80120659  0.59490318  0.39935311
   0.73247367  0.46660771  0.19960508
   0.66380438  0.33880852 -0.00264230
   0.37317033  0.73094451  0.60132054
   0.13238034  0.27250944  0.40076950
   0.83555528  0.66255925  0.00087339
   0.93038859  0.86857481  0.79889980
   0.56355036  0.13618959  0.19821622
   0.40275811  0.79534417  0.19694541
   0.43699951  0.86146389  0.79747151
   0.30064832  0.59675447  0.40491081
   0.86484903  0.72779505  0.59960832
   0.46524243  0.93112728  0.40393661
   0.16939846  0.33483654 -0.00104785
   0.27166518  0.53201822  0.79754420
   0.06623138  0.13787530  0.20132269
   0.76241612  0.52877497  0.80261940
   0.69717721  0.40221268  0.60155756
   0.60301814  0.20128381  0.79997417
   0.53562778  0.07091954  0.60221870
   0.33396924  0.66176374 -0.00017679
   0.23067902  0.46882171  0.19984137
Nb - Mo - Ta - Ti - V SQS               
           1
    -3.188653   -3.166318   -3.196657
     1.494953    1.511540   -7.820651
     7.778907   -7.774714   -1.546722
   Nb   Mo   Ta   Ti   V 
   6   6   6   5   6
Direct configuration=     8
   0.96048035  0.93431111  0.39880418
   0.63418021  0.26713196  0.40404074
   0.49637498  0.00533800 -0.00364083
  -0.00161953  0.00041051  0.00278517
   0.09323897  0.21628856  0.78994077
   0.02855048  0.07172877  0.59857519
   0.90905401  0.79305168  0.20304726
   0.80270254  0.58991147  0.39850383
   0.73169622  0.46660143  0.19920572
   0.66104647  0.34418298 -0.00517466
   0.37941579  0.72889618  0.60256397
   0.13153157  0.27831343  0.40153365
   0.83767822  0.65846879  0.00185306
   0.92739837  0.87045832  0.79777147
   0.56051026  0.13901724  0.19640746
   0.40565873  0.79056449  0.19394616
   0.44108119  0.85620293  0.79477996
   0.30122605  0.59359515  0.40981001
   0.86308993  0.72247367  0.59909006
   0.46394410  0.92903988  0.40789767
   0.17191926  0.33629134 -0.00190937
   0.27630388  0.53084038  0.79500603
   0.06564780  0.14249284  0.20273021
   0.75816184  0.52458516  0.80539096
   0.69433412  0.40481339  0.60300844
   0.60591197  0.20227447  0.80016223
   0.53773454  0.07493289  0.60438958
   0.33478759  0.65685261 -0.00031714
   0.22796009  0.47093036  0.19979822
Nb - Mo - Ta - Ti - V SQS               
           1
    -3.218001   -3.204577   -3.232218
     1.507141    1.495354   -7.871962
     7.864528   -7.861094   -1.585411
   Nb   Mo   Ta   Ti   V 
   6   6   6   5   6
Direct configuration=     9
   0.95715139  0.93442588  0.39904106
   0.63396301  0.26549887  0.40459016
   0.49567363  0.00585316 -0.00641891
  -0.00236304  0.00161308  0.00333370
   0.09302432  0.22454791  0.78323862
   0.02929225  0.07263804  0.59715705
   0.91157247  0.78998670  0.20412964
   0.80436159  0.58837487  0.39788501
   0.73118284  0.46520782  0.19960289
   0.65865995  0.34753338 -0.00765353
   0.38328057  0.72689684  0.60310426
   0.13236387  0.28274526  0.40326254
   0.83842478  0.65855904  0.00225512
   0.92589365  0.87189882  0.79670572
   0.55817802  0.14108268  0.19552598
   0.40786471  0.78732130  0.19348140
   0.44267144  0.85396117  0.79319188
   0.30016568  0.59045983  0.41559105
   0.86492382  0.71507769  0.59902396
   0.46293003  0.92711906  0.41121962
   0.17551189  0.33737836 -0.00297073
   0.27850969  0.52915979  0.79080522
   0.06410362  0.14712598  0.20411526
   0.75349509  0.52082494  0.80827806
   0.69049320  0.40808220  0.60540973
   0.60839430  0.20337298  0.80003547
   0.53891640  0.07990901  0.60724064
   0.33615942  0.65021827 -0.00116589
   0.22520142  0.47312706  0.19998503
Nb - Mo - Ta - Ti - V SQS               
           1
    -3.208185   -3.191780   -3.220324
     1.503064    1.500768   -7.854800
     7.835889   -7.832202   -1.572470
   Nb   Mo   Ta   Ti   V 
   6   6   6   5   6
Direct configuration=    10
   0.95825331  0.93438779  0.39896212
   0.63403350  0.26604281  0.40440738
   0.49590517  0.00567961 -0.00549969
  -0.00211558  0.00121323  0.00315282
   0.09310086  0.22179399  0.78546077
   0.02904710  0.07233437  0.59762689
   0.91073640  0.79100767  0.20377020
   0.80381078  0.58888586  0.39808912
   0.73135153  0.46567193  0.19947056
   0.65945209  0.34641638 -0.00683191
   0.38199977  0.72756276  0.60292506
   0.13209345  0.28127155  0.40269342
   0.83817795  0.65852932  0.00212231
   0.92639263  0.87141856  0.79705887
   0.55895155  0.14039454  0.19581839
   0.40713128  0.78840041  0.19363362
   0.44214232  0.85470613  0.79371620
   0.30051578  0.59150763  0.41367646
   0.86430961  0.71753924  0.59904172
   0.46326504  0.92776081  0.41011929
   0.17432357  0.33701586 -0.00261826
   0.27777639  0.52971604  0.79219435
   0.06461976  0.14558496  0.20365955
   0.75503697  0.52207848  0.80731978
   0.69176849  0.40699597  0.60461656
   0.60757381  0.20300733  0.80007855
   0.53853127  0.07825500  0.60630067
   0.33569857  0.65242574 -0.00088884
   0.22611663  0.47239602  0.19992402
Nb - Mo - Ta - Ti - V SQS               
           1
    -3.186416   -3.187010   -3.201811
     1.526080    1.485817   -7.830139
     7.851769   -7.847643   -1.605313
   Nb   Mo   Ta   Ti   V 
   6   6   6   5   6
Direct configuration=    11
   0.95766130  0.93375911  0.39967662
   0.63427604  0.26455922  0.40342667
   0.49670757  0.00403781 -0.00652318
  -0.00208789  0.00223970  0.00240419
   0.09606613  0.22360120  0.78245866
   0.03135081  0.07132751  0.59699334
   0.90962314  0.79107492  0.20363290
   0.80334815  0.59125531  0.39810339
   0.73111657  0.46498751  0.20023739
   0.65978791  0.34494406 -0.00702405
   0.38073133  0.72740551  0.60269668
   0.13296565  0.28107849  0.40362413
   0.83672285  0.66184543  0.00198097
   0.92704155  0.87159609  0.79683739
   0.55948763  0.13975929  0.19592004
   0.40696828  0.78863233  0.19538772
   0.44058769  0.85662024  0.79420999
   0.29950318  0.59092811  0.41544216
   0.86770474  0.71397023  0.59969398
   0.46315966  0.92741800  0.41040979
   0.17578595  0.33710714 -0.00324615
   0.27589331  0.52912057  0.78983856
   0.06341891  0.14671880  0.20406410
   0.75320917  0.52207106  0.80815850
   0.69009798  0.40796237  0.60576488
   0.60851425  0.20313844  0.79964215
   0.53841098  0.08018262  0.60759675
   0.33650173  0.64979786 -0.00172389
   0.22544542  0.47286107  0.20031630
Nb - Mo - Ta - Ti - V SQS               
           1
    -3.165403   -3.182406   -3.183941
     1.548297    1.471386   -7.806335
     7.867097   -7.862549   -1.637016
   Nb   Mo   Ta   Ti   V 
   6   6   6   5   6
Direct configuration=    12
   0.95708476  0.93314803  0.40036703
   0.63450900  0.26312659  0.40248512
   0.49748307  0.00245260 -0.00750617
  -0.00205752  0.00323545  0.00168056
   0.09894991  0.22536161  0.77955920
   0.03358301  0.07035666  0.59638294
   0.90854403  0.79113963  0.20350164
   0.80290526  0.59354812  0.39811208
   0.73088603  0.46432258  0.20097798
   0.66011024  0.34351996 -0.00720605
   0.37950134  0.72725311  0.60247837
   0.13380960  0.28088940  0.40452028
   0.83532015  0.66505420  0.00183857
   0.92767149  0.87176905  0.79662292
   0.56000576  0.13914455  0.19601888
   0.40680835  0.78885125  0.19707718
   0.43908421  0.85847009  0.79468283
   0.29851747  0.59036107  0.41714557
   0.87098724  0.71051652  0.60032714
   0.46305625  0.92708525  0.41069056
   0.17720502  0.33719847 -0.00385277
   0.27406926  0.52855019  0.78757246
   0.06225670  0.14781403  0.20445243
   0.75143567  0.52205999  0.80896842
   0.68847892  0.40889293  0.60687061
   0.60942707  0.20326735  0.79922046
   0.53829720  0.08204411  0.60884095
   0.33727533  0.64725773 -0.00252303
   0.22479518  0.47330945  0.20069382
Nb - Mo - Ta - Ti - V SQS               
           1
    -3.165177   -3.192337   -3.181877
     1.582279    1.468904   -7.828098
     7.923138   -7.904251   -1.675071
   Nb   Mo   Ta   Ti   V 
   6   6   6   5   6
Direct configuration=    13
   0.95812242  0.93239633  0.40093262
   0.63573842  0.26258844  0.40254845
   0.49711879  0.00246865 -0.00714084
  -0.00113632  0.00413922  0.00067194
   0.10317782  0.22650428  0.77721509
   0.03511080  0.06955365  0.59609776
   0.90736096  0.79275213  0.20359278
   0.80046018  0.59463038  0.39892697
   0.73026425  0.46539692  0.20132090
   0.66254931  0.34143523 -0.00685464
   0.37803169  0.72776906  0.60315527
   0.13367450  0.27981011  0.40488375
   0.83429472  0.66552942  0.00180419
   0.92887625  0.87176954  0.79606656
   0.56012035  0.13713403  0.19550589
   0.40525457  0.78946880  0.19862810
   0.43804460  0.86022400  0.79502318
   0.29879754  0.58947207  0.41753285
   0.87483108  0.70722269  0.60179794
   0.46261486  0.92743582  0.41039794
   0.17643632  0.33761995 -0.00453426
   0.27061202  0.52809941  0.78554136
   0.06169816  0.14805813  0.20455180
   0.75005842  0.52360669  0.80950136
   0.68719995  0.40871568  0.60723721
   0.61064024  0.20311593  0.79840767
   0.53747870  0.08403632  0.60919810
   0.33804874  0.64630581 -0.00309848
   0.22452063  0.47274130  0.20108857
Nb - Mo - Ta - Ti - V SQS               
           1
    -3.165224   -3.190250   -3.182311
     1.575137    1.469425   -7.823524
     7.911360   -7.895486   -1.667073
   Nb   Mo   Ta   Ti   V 
   6   6   6   5   6
Direct configuration=    14
   0.95790502  0.93255401  0.40081425
   0.63548067  0.26270097  0.40253513
   0.49719523  0.00246564 -0.00721720
  -0.00133023  0.00394900  0.00088318
   0.10228965  0.22626238  0.77770586
   0.03479062  0.06972132  0.59615715
   0.90760824  0.79241473  0.20357435
   0.80097270  0.59440481  0.39875693
   0.73039403  0.46517231  0.20124970
   0.66203862  0.34187165 -0.00692871
   0.37833982  0.72766180  0.60301392
   0.13370356  0.28003645  0.40480729
   0.83450968  0.66543006  0.00181146
   0.92862337  0.87176879  0.79618294
   0.56009771  0.13755465  0.19561210
   0.40558021  0.78934097  0.19830422
   0.43826164  0.85985715  0.79495279
   0.29873931  0.58965850  0.41745156
   0.87402619  0.70791295  0.60148965
   0.46270732  0.92736226  0.41045917
   0.17659749  0.33753129 -0.00439181
   0.27133834  0.52819284  0.78596494
   0.06181525  0.14800719  0.20453109
   0.75034647  0.52328344  0.80939059
   0.68746855  0.40875332  0.60716038
   0.61038572  0.20314679  0.79857754
   0.53764916  0.08361954  0.60912434
   0.33788706  0.64650458 -0.00297863
   0.22457861  0.47286064  0.20100581
Nb - Mo - Ta - Ti - V SQS               
           1
    -3.151510   -3.181014   -3.165401
     1.593590    1.461262   -7.803176
     7.910122   -7.877238   -1.686458
   Nb   Mo   Ta   Ti   V 
   6   6   6   5   6
Direct configuration=    15
   0.95969571  0.93164257  0.40118917
   0.63708927  0.26261194  0.40276736
   0.49677822  0.00320747 -0.00647961
  -0.00033831  0.00461578 -0.00011717
   0.10626739  0.22724947  0.77594428
   0.03558037  0.06920488  0.59601030
   0.90657122  0.79421294  0.20392410
   0.79832478  0.59413998  0.39981874
   0.72934686  0.46704200  0.20138591
   0.66492815  0.34032306 -0.00656368
   0.37765372  0.72825956  0.60400361
   0.13288779  0.27905832  0.40468224
   0.83363319  0.66443979  0.00211973
   0.92930131  0.87167324  0.79574961
   0.56038881  0.13533001  0.19484696
   0.40393949  0.78984757  0.19937785
   0.43834633  0.86101225  0.79515532
   0.29936100  0.58883649  0.41721473
   0.87713128  0.70519042  0.60314364
   0.46209542  0.92790470  0.41009256
   0.17482505  0.33810708 -0.00503090
   0.26780094  0.52809324  0.78445799
   0.06138732  0.14788293  0.20448499
   0.74914780  0.52517084  0.80996132
   0.68625825  0.40817025  0.60712626
   0.61215141  0.20292183  0.79771655
   0.53665412  0.08545185  0.60891506
   0.33863855  0.64649957 -0.00327668
   0.22415458  0.47189995  0.20137979
Nb - Mo - Ta - Ti - V SQS               
           1
    -3.153878   -3.182609   -3.168321
     1.590404    1.462672   -7.806690
     7.910336   -7.880389   -1.683110
   Nb   Mo   Ta   Ti   V 
   6   6   6   5   6
Direct configuration=    16
   0.95938561  0.93180028  0.40112417
   0.63681040  0.26262730  0.40272726
   0.49685004  0.00307958 -0.00660694
  -0.00051037  0.00449975  0.00005603
   0.10557772  0.22707727  0.77624935
   0.03544371  0.06929407  0.59603558
   0.90675013  0.79390213  0.20386410
   0.79878373  0.59418669  0.39963495
   0.72952755  0.46671870  0.20136286
   0.66442783  0.34059087 -0.00662710
   0.37777220  0.72815676  0.60383263
   0.13302967  0.27922758  0.40470353
   0.83378551  0.66461139  0.00206609
   0.92918391  0.87168946  0.79582454
   0.56033947  0.13571445  0.19497861
   0.40422349  0.78976070  0.19919229
   0.43833110  0.86081250  0.79512065
   0.29925363  0.58897851  0.41725547
   0.87659385  0.70566204  0.60285702
   0.46220133  0.92781071  0.41015607
   0.17513219  0.33800730 -0.00492032
   0.26841452  0.52811003  0.78471833
   0.06146157  0.14790445  0.20449290
   0.74935465  0.52484474  0.80986314
   0.68646833  0.40827125  0.60713193
   0.61184558  0.20296008  0.79786544
   0.53682586  0.08513482  0.60895173
   0.33850833  0.64650019 -0.00322511
   0.22422844  0.47206642  0.20131482
Nb - Mo - Ta - Ti - V SQS               
           1
    -3.156762   -3.185054   -3.171323
     1.590331    1.462759   -7.811525
     7.905865   -7.875551   -1.683996
   Nb   Mo   Ta   Ti   V 
   6   6   6   5   6
Direct configuration=    17
   0.95999968  0.93135804  0.40117070
   0.63709879  0.26250229  0.40245856
   0.49708223  0.00343976 -0.00675676
  -0.00021841  0.00448438 -0.00015498
   0.10603032  0.22760850  0.77602986
   0.03508919  0.06954132  0.59601822
   0.90649281  0.79389007  0.20413764
   0.79867155  0.59330320  0.40013702
   0.72892800  0.46698346  0.20140135
   0.66472833  0.34087978 -0.00677529
   0.37861232  0.72804833  0.60399609
   0.13280860  0.27914863  0.40444585
   0.83374209  0.66419774  0.00238186
   0.92902442  0.87143137  0.79601562
   0.56089633  0.13566001  0.19503532
   0.40402652  0.79010673  0.19897809
   0.43919169  0.86073383  0.79514544
   0.29887517  0.58863030  0.41731914
   0.87681695  0.70520308  0.60337298
   0.46198034  0.92805150  0.41014702
   0.17436385  0.33816455 -0.00509198
   0.26770452  0.52840528  0.78476068
   0.06127708  0.14767998  0.20427355
   0.74917731  0.52527878  0.81008252
   0.68598118  0.40781065  0.60706151
   0.61288590  0.20310204  0.79756174
   0.53638307  0.08564332  0.60853121
   0.33851699  0.64704513 -0.00306375
   0.22383318  0.47166794  0.20138078
Nb - Mo - Ta - Ti - V SQS               
           1
    -3.160352   -3.188097   -3.175060
     1.590241    1.462867   -7.817544
     7.900300   -7.869527   -1.685098
   Nb   Mo   Ta   Ti   V 
   6   6   6   5   6
Direct configuration=    18
   0.96076358  0.93080776  0.40122868
   0.63745755  0.26234682  0.40212388
   0.49737093  0.00388794 -0.00694336
   0.00014473  0.00446530 -0.00041782
   0.10659312  0.22826950  0.77575649
   0.03464816  0.06984898  0.59599659
   0.90617274  0.79387499  0.20447835
   0.79853226  0.59220383  0.40076239
   0.72818221  0.46731290  0.20144927
   0.66510201  0.34123926 -0.00695985
   0.37965727  0.72791333  0.60419972
   0.13253367  0.27905049  0.40412489
   0.83368820  0.66368299  0.00277517
   0.92882612  0.87111020  0.79625362
   0.56158896  0.13559222  0.19510597
   0.40378144  0.79053733  0.19871128
   0.44026210  0.86063589  0.79517636
   0.29840455  0.58819706  0.41739842
   0.87709455  0.70463189  0.60401566
   0.46170540  0.92835111  0.41013575
   0.17340815  0.33836030 -0.00530582
   0.26682133  0.52877266  0.78481341
   0.06104770  0.14740077  0.20400031
   0.74895658  0.52581877  0.81035578
   0.68537542  0.40723762  0.60697378
   0.61417981  0.20327869  0.79718350
   0.53583220  0.08627615  0.60800741
   0.33852759  0.64772310 -0.00286275
   0.22334168  0.47117214  0.20146291
Nb - Mo - Ta - Ti - V SQS               
           1
    -3.159127   -3.186681   -3.174549
     1.588403    1.458643   -7.811482
     7.888914   -7.856539   -1.686072
   Nb   Mo   Ta   Ti   V 
   6   6   6   5   6
Direct configuration=    19
   0.96115604  0.93004997  0.40135248
   0.63726766  0.26210454  0.40167936
   0.49777681  0.00431144 -0.00723420
   0.00060647  0.00446975 -0.00061767
   0.10700486  0.22885515  0.77543004
   0.03434464  0.06995195  0.59603667
   0.90615616  0.79339302  0.20477789
   0.79852582  0.59154039  0.40119590
   0.72753426  0.46720757  0.20154842
   0.66454147  0.34168996 -0.00712455
   0.38016520  0.72781429  0.60427880
   0.13269002  0.27885626  0.40372402
   0.83353349  0.66401182  0.00330272
   0.92974419  0.87089258  0.79650004
   0.56163832  0.13579460  0.19494861
   0.40342229  0.79086454  0.19861523
   0.43990663  0.86084352  0.79508264
   0.29810450  0.58785442  0.41757252
   0.87734883  0.70427525  0.60442980
   0.46175515  0.92830552  0.41022916
   0.17322859  0.33837284 -0.00543172
   0.26677184  0.52923533  0.78516303
   0.06140360  0.14704762  0.20360109
   0.74890606  0.52601639  0.81063701
   0.68477874  0.40665789  0.60689425
   0.61518074  0.20362715  0.79683330
   0.53547023  0.08671308  0.60752380
   0.33821846  0.64835300 -0.00255869
   0.22281893  0.47089017  0.20161004
Nb - Mo - Ta - Ti - V SQS               
           1
    -3.158993   -3.186525   -3.174493
     1.588201    1.458179   -7.810815
     7.887662   -7.855111   -1.686179
   Nb   Mo   Ta   Ti   V 
   6   6   6   5   6
Direct configuration=    20
   0.96119925  0.92996655  0.40136613
   0.63724678  0.26207790  0.40163040
   0.49782144  0.00435807 -0.00726624
   0.00065727  0.00447025 -0.00063969
   0.10705012  0.22891963  0.77539408
   0.03431124  0.06996328  0.59604108
   0.90615437  0.79333995  0.20481089
   0.79852515  0.59146733  0.40124366
   0.72746298  0.46719597  0.20155934
   0.66447978  0.34173958 -0.00714270
   0.38022108  0.72780337  0.60428751
   0.13270723  0.27883490  0.40367988
   0.83351646  0.66404799  0.00336082
   0.92984520  0.87086861  0.79652719
   0.56164374  0.13581688  0.19493127
   0.40338276  0.79090057  0.19860465
   0.43986751  0.86086638  0.79507232
   0.29807151  0.58781670  0.41759170
   0.87737683  0.70423597  0.60447543
   0.46176062  0.92830049  0.41023944
   0.17320883  0.33837423 -0.00544558
   0.26676638  0.52928625  0.78520152
   0.06144277  0.14700876  0.20355712
   0.74890049  0.52603813  0.81066798
   0.68471313  0.40659408  0.60688551
   0.61529083  0.20366551  0.79679472
   0.53543038  0.08676121  0.60747052
   0.33818442  0.64842232 -0.00252521
   0.22276144  0.47085913  0.20162625
Nb - Mo - Ta - Ti - V SQS               
           1
    -3.161387   -3.189632   -3.177184
     1.590122    1.455241   -7.813775
     7.891327   -7.856813   -1.691285
   Nb   Mo   Ta   Ti   V 
   6   6   6   5   6
Direct configuration=    21
   0.96123691  0.92941102  0.40148617
   0.63696504  0.26177253  0.40131053
   0.49801238  0.00472663 -0.00751708
   0.00107954  0.00456782 -0.00075982
   0.10734881  0.22940710  0.77504127
   0.03414887  0.06997631  0.59600591
   0.90621055  0.79288472  0.20499687
   0.79851412  0.59117881  0.40152808
   0.72706581  0.46693066  0.20163538
   0.66382340  0.34209830 -0.00722746
   0.38021255  0.72775775  0.60434610
   0.13300822  0.27851953  0.40334224
   0.83343149  0.66458195  0.00375542
   0.93064023  0.87080961  0.79671828
   0.56146338  0.13597224  0.19469911
   0.40310047  0.79100123  0.19867178
   0.43938177  0.86120921  0.79496951
   0.29795727  0.58747951  0.41782264
   0.87764159  0.70398541  0.60472379
   0.46196956  0.92805900  0.41032876
   0.17331435  0.33836195 -0.00551260
   0.26712760  0.52967853  0.78562780
   0.06193638  0.14667274  0.20318847
   0.74898145  0.52609656  0.81086497
   0.68423531  0.40613414  0.60683656
   0.61583455  0.20405500  0.79651190
   0.53523424  0.08703179  0.60709772
   0.33775404  0.64891099 -0.00226506
   0.22237012  0.47072897  0.20177275
Nb - Mo - Ta - Ti - V SQS               
           1
    -3.162948   -3.191658   -3.178939
     1.591375    1.453325   -7.815705
     7.893717   -7.857923   -1.694615
   Nb   Mo   Ta   Ti   V 
   6   6   6   5   6
Direct configuration=    22
   0.96126154  0.92904878  0.40156454
   0.63678152  0.26157356  0.40110208
   0.49813673  0.00496703 -0.00768068
   0.00135467  0.00463149 -0.00083817
   0.10754334  0.22972507  0.77481116
   0.03404307  0.06998481  0.59598299
   0.90624724  0.79258784  0.20511820
   0.79850698  0.59099058  0.40171355
   0.72680707  0.46675765  0.20168502
   0.66339567  0.34233221 -0.00728277
   0.38020700  0.72772798  0.60438431
   0.13320438  0.27831404  0.40312219
   0.83337604  0.66492993  0.00401256
   0.93115825  0.87077108  0.79684283
   0.56134583  0.13607362  0.19454774
   0.40291652  0.79106682  0.19871553
   0.43906521  0.86143276  0.79490244
   0.29788290  0.58725957  0.41797327
   0.87781414  0.70382196  0.60488573
   0.46210574  0.92790152  0.41038703
   0.17338310  0.33835397 -0.00555629
   0.26736290  0.52993413  0.78590560
   0.06225804  0.14645380  0.20294819
   0.74903420  0.52613458  0.81099337
   0.68392405  0.40583428  0.60680476
   0.61618876  0.20430905  0.79632744
   0.53510639  0.08720836  0.60685465
   0.33747354  0.64922949 -0.00209555
   0.22211518  0.47064404  0.20186829
Nb - Mo - Ta - Ti - V SQS               
           1
    -3.161770   -3.192484   -3.177623
     1.594143    1.450000   -7.812098
     7.894917   -7.858216   -1.699781
   Nb   Mo   Ta   Ti   V 
   6   6   6   5   6
Direct configuration=    23
   0.96112186  0.92871941  0.40160363
   0.63668133  0.26124055  0.40094901
   0.49808984  0.00525905 -0.00782712
   0.00157075  0.00485521 -0.00089067