  30  30   0   0
  0.1577725E+02  0.5473281E-09  0.8209921E-09  0.1128346E-08  0.5000000E-15
  1.000000000000000E-004
  CAR 
 Nb - Mo - Ta - Ti - V SQS               
     11.72618082    -50.13959184  301      6.73607047      1.00000000
    -50.140  0.0000E+00  0.0000E+00
    -49.933  0.0000E+00  0.0000E+00
    -49.727  0.0000E+00  0.0000E+00
    -49.521  0.0000E+00  0.0000E+00
    -49.315  0.0000E+00  0.0000E+00
    -49.108 -0.7889E-35 -0.1627E-35
    -48.902 -0.2592E-27 -0.5346E-28
    -48.696 -0.9732E-21 -0.2007E-21
    -48.490 -0.4256E-15 -0.8777E-16
    -48.284 -0.2213E-10 -0.4563E-11
    -48.077 -0.1354E-06 -0.2794E-07
    -47.871 -0.9374E-04 -0.1936E-04
    -47.665 -0.6437E-02 -0.1347E-02
    -47.459 -0.2755E-02 -0.1915E-02
    -47.253  0.3839E+00  0.7726E-01
    -47.046  0.6223E+00  0.2056E+00
    -46.840  0.1862E+00  0.2440E+00
    -46.634 -0.1721E-01  0.2404E+00
    -46.428 -0.2078E-02  0.2400E+00
    -46.221 -0.1601E-04  0.2400E+00
    -46.015 -0.1338E-07  0.2400E+00
    -45.809 -0.1287E-11  0.2400E+00
    -45.603 -0.6153E-17  0.2400E+00
    -45.397  0.0000E+00  0.2400E+00
    -45.190  0.0000E+00  0.2400E+00
    -44.984  0.0000E+00  0.2400E+00
    -44.778  0.0000E+00  0.2400E+00
    -44.572  0.0000E+00  0.2400E+00
    -44.365  0.0000E+00  0.2400E+00
    -44.159  0.0000E+00  0.2400E+00
    -43.953  0.0000E+00  0.2400E+00
    -43.747  0.0000E+00  0.2400E+00
    -43.541  0.0000E+00  0.2400E+00
    -43.334  0.0000E+00  0.2400E+00
    -43.128  0.0000E+00  0.2400E+00
    -42.922  0.0000E+00  0.2400E+00
    -42.716  0.0000E+00  0.2400E+00
    -42.509  0.0000E+00  0.2400E+00
    -42.303  0.0000E+00  0.2400E+00
    -42.097  0.0000E+00  0.2400E+00
    -41.891  0.0000E+00  0.2400E+00
    -41.685  0.0000E+00  0.2400E+00
    -41.478  0.0000E+00  0.2400E+00
    -41.272  0.0000E+00  0.2400E+00
    -41.066  0.0000E+00  0.2400E+00
    -40.860  0.0000E+00  0.2400E+00
    -40.654  0.0000E+00  0.2400E+00
    -40.447  0.0000E+00  0.2400E+00
    -40.241  0.0000E+00  0.2400E+00
    -40.035  0.0000E+00  0.2400E+00
    -39.829  0.0000E+00  0.2400E+00
    -39.622  0.0000E+00  0.2400E+00
    -39.416  0.0000E+00  0.2400E+00
    -39.210  0.0000E+00  0.2400E+00
    -39.004  0.0000E+00  0.2400E+00
    -38.798  0.0000E+00  0.2400E+00
    -38.591  0.0000E+00  0.2400E+00
    -38.385  0.0000E+00  0.2400E+00
    -38.179  0.0000E+00  0.2400E+00
    -37.973  0.0000E+00  0.2400E+00
    -37.766  0.0000E+00  0.2400E+00
    -37.560  0.0000E+00  0.2400E+00
    -37.354  0.0000E+00  0.2400E+00
    -37.148  0.0000E+00  0.2400E+00
    -36.942  0.0000E+00  0.2400E+00
    -36.735  0.0000E+00  0.2400E+00
    -36.529  0.0000E+00  0.2400E+00
    -36.323  0.0000E+00  0.2400E+00
    -36.117  0.0000E+00  0.2400E+00
    -35.910  0.0000E+00  0.2400E+00
    -35.704  0.0000E+00  0.2400E+00
    -35.498  0.0000E+00  0.2400E+00
    -35.292  0.0000E+00  0.2400E+00
    -35.086  0.0000E+00  0.2400E+00
    -34.879  0.0000E+00  0.2400E+00
    -34.673  0.0000E+00  0.2400E+00
    -34.467  0.0000E+00  0.2400E+00
    -34.261  0.0000E+00  0.2400E+00
    -34.054  0.0000E+00  0.2400E+00
    -33.848  0.0000E+00  0.2400E+00
    -33.642  0.0000E+00  0.2400E+00
    -33.436  0.0000E+00  0.2400E+00
    -33.230  0.0000E+00  0.2400E+00
    -33.023  0.0000E+00  0.2400E+00
    -32.817  0.0000E+00  0.2400E+00
    -32.611  0.0000E+00  0.2400E+00
    -32.405  0.0000E+00  0.2400E+00
    -32.199  0.0000E+00  0.2400E+00
    -31.992  0.0000E+00  0.2400E+00
    -31.786  0.0000E+00  0.2400E+00
    -31.580  0.0000E+00  0.2400E+00
    -31.374  0.0000E+00  0.2400E+00
    -31.167  0.0000E+00  0.2400E+00
    -30.961  0.0000E+00  0.2400E+00
    -30.755  0.0000E+00  0.2400E+00
    -30.549  0.0000E+00  0.2400E+00
    -30.343  0.0000E+00  0.2400E+00
    -30.136  0.0000E+00  0.2400E+00
    -29.930  0.0000E+00  0.2400E+00
    -29.724  0.0000E+00  0.2400E+00
    -29.518  0.0000E+00  0.2400E+00
    -29.311  0.0000E+00  0.2400E+00
    -29.105  0.0000E+00  0.2400E+00
    -28.899  0.0000E+00  0.2400E+00
    -28.693  0.0000E+00  0.2400E+00
    -28.487  0.0000E+00  0.2400E+00
    -28.280  0.0000E+00  0.2400E+00
    -28.074  0.0000E+00  0.2400E+00
    -27.868  0.0000E+00  0.2400E+00
    -27.662  0.0000E+00  0.2400E+00
    -27.455  0.0000E+00  0.2400E+00
    -27.249  0.0000E+00  0.2400E+00
    -27.043  0.0000E+00  0.2400E+00
    -26.837  0.0000E+00  0.2400E+00
    -26.631  0.0000E+00  0.2400E+00
    -26.424  0.0000E+00  0.2400E+00
    -26.218  0.0000E+00  0.2400E+00
    -26.012  0.0000E+00  0.2400E+00
    -25.806 -0.3705E-34  0.2400E+00
    -25.600 -0.7947E-27  0.2400E+00
    -25.393 -0.1989E-20  0.2400E+00
    -25.187 -0.5708E-15  0.2400E+00
    -24.981 -0.1959E-10  0.2400E+00
    -24.775 -0.7853E-07  0.2400E+00
    -24.568 -0.3581E-04  0.2400E+00
    -24.362 -0.1689E-02  0.2396E+00
    -24.156 -0.1696E-02  0.2393E+00
    -23.950  0.8799E-01  0.2574E+00
    -23.744  0.2961E+00  0.3185E+00
    -23.537  0.4674E+00  0.4149E+00
    -23.331  0.1006E+01  0.6224E+00
    -23.125  0.9807E+00  0.8247E+00
    -22.919  0.4508E+00  0.9176E+00
    -22.712  0.1818E+00  0.9551E+00
    -22.506  0.2754E-01  0.9608E+00
    -22.300 -0.3418E-02  0.9601E+00
    -22.094 -0.5015E-03  0.9600E+00
    -21.888 -0.4880E-05  0.9600E+00
    -21.681 -0.5084E-08  0.9600E+00
    -21.475 -0.6071E-12  0.9600E+00
    -21.269 -0.6153E-17  0.9600E+00
    -21.063  0.0000E+00  0.9600E+00
    -20.856  0.0000E+00  0.9600E+00
    -20.650  0.0000E+00  0.9600E+00
    -20.444  0.0000E+00  0.9600E+00
    -20.238  0.0000E+00  0.9600E+00
    -20.032  0.0000E+00  0.9600E+00
    -19.825  0.0000E+00  0.9600E+00
    -19.619  0.0000E+00  0.9600E+00
    -19.413  0.0000E+00  0.9600E+00
    -19.207  0.0000E+00  0.9600E+00
    -19.000  0.0000E+00  0.9600E+00
    -18.794  0.0000E+00  0.9600E+00
    -18.588  0.0000E+00  0.9600E+00
    -18.382  0.0000E+00  0.9600E+00
    -18.176  0.0000E+00  0.9600E+00
    -17.969  0.0000E+00  0.9600E+00
    -17.763  0.0000E+00  0.9600E+00
    -17.557  0.0000E+00  0.9600E+00
    -17.351  0.0000E+00  0.9600E+00
    -17.145  0.0000E+00  0.9600E+00
    -16.938  0.0000E+00  0.9600E+00
    -16.732  0.0000E+00  0.9600E+00
    -16.526  0.0000E+00  0.9600E+00
    -16.320  0.0000E+00  0.9600E+00
    -16.113  0.0000E+00  0.9600E+00
    -15.907  0.0000E+00  0.9600E+00
    -15.701  0.0000E+00  0.9600E+00
    -15.495  0.0000E+00  0.9600E+00
    -15.289  0.0000E+00  0.9600E+00
    -15.082  0.0000E+00  0.9600E+00
    -14.876  0.0000E+00  0.9600E+00
    -14.670  0.0000E+00  0.9600E+00
    -14.464  0.0000E+00  0.9600E+00
    -14.257  0.0000E+00  0.9600E+00
    -14.051  0.0000E+00  0.9600E+00
    -13.845  0.0000E+00  0.9600E+00
    -13.639  0.0000E+00  0.9600E+00
    -13.433  0.0000E+00  0.9600E+00
    -13.226  0.0000E+00  0.9600E+00
    -13.020  0.0000E+00  0.9600E+00
    -12.814  0.0000E+00  0.9600E+00
    -12.608  0.0000E+00  0.9600E+00
    -12.401  0.0000E+00  0.9600E+00
    -12.195  0.0000E+00  0.9600E+00
    -11.989  0.0000E+00  0.9600E+00
    -11.783  0.0000E+00  0.9600E+00
    -11.577  0.0000E+00  0.9600E+00
    -11.370  0.0000E+00  0.9600E+00
    -11.164  0.0000E+00  0.9600E+00
    -10.958  0.0000E+00  0.9600E+00
    -10.752  0.0000E+00  0.9600E+00
    -10.545  0.0000E+00  0.9600E+00
    -10.339  0.0000E+00  0.9600E+00
    -10.133  0.0000E+00  0.9600E+00
     -9.927  0.0000E+00  0.9600E+00
     -9.721  0.0000E+00  0.9600E+00
     -9.514  0.0000E+00  0.9600E+00
     -9.308  0.0000E+00  0.9600E+00
     -9.102  0.0000E+00  0.9600E+00
     -8.896  0.0000E+00  0.9600E+00
     -8.690  0.0000E+00  0.9600E+00
     -8.483  0.0000E+00  0.9600E+00
     -8.277  0.0000E+00  0.9600E+00
     -8.071  0.0000E+00  0.9600E+00
     -7.865  0.0000E+00  0.9600E+00
     -7.658  0.0000E+00  0.9600E+00
     -7.452  0.0000E+00  0.9600E+00
     -7.246  0.0000E+00  0.9600E+00
     -7.040  0.0000E+00  0.9600E+00
     -6.834  0.0000E+00  0.9600E+00
     -6.627  0.0000E+00  0.9600E+00
     -6.421  0.0000E+00  0.9600E+00
     -6.215  0.0000E+00  0.9600E+00
     -6.009  0.0000E+00  0.9600E+00
     -5.802  0.0000E+00  0.9600E+00
     -5.596  0.0000E+00  0.9600E+00
     -5.390  0.0000E+00  0.9600E+00
     -5.184  0.0000E+00  0.9600E+00
     -4.978  0.0000E+00  0.9600E+00
     -4.771  0.0000E+00  0.9600E+00
     -4.565  0.0000E+00  0.9600E+00
     -4.359  0.0000E+00  0.9600E+00
     -4.153  0.0000E+00  0.9600E+00
     -3.946  0.0000E+00  0.9600E+00
     -3.740  0.0000E+00  0.9600E+00
     -3.534  0.0000E+00  0.9600E+00
     -3.328  0.0000E+00  0.9600E+00
     -3.122  0.0000E+00  0.9600E+00
     -2.915  0.0000E+00  0.9600E+00
     -2.709  0.0000E+00  0.9600E+00
     -2.503  0.0000E+00  0.9600E+00
     -2.297  0.0000E+00  0.9600E+00
     -2.091  0.0000E+00  0.9600E+00
     -1.884 -0.3044E-37  0.9600E+00
     -1.678 -0.1084E-29  0.9600E+00
     -1.472 -0.4141E-23  0.9600E+00
     -1.266 -0.1862E-17  0.9600E+00
     -1.059 -0.9971E-13  0.9600E+00
     -0.853 -0.6481E-09  0.9600E+00
     -0.647 -0.5062E-06  0.9600E+00
     -0.441 -0.4665E-04  0.9600E+00
     -0.235 -0.3591E-03  0.9599E+00
     -0.028  0.3219E-02  0.9606E+00
      0.178  0.1762E-01  0.9642E+00
      0.384  0.2539E-01  0.9695E+00
      0.590  0.3547E-01  0.9768E+00
      0.797  0.4279E-01  0.9856E+00
      1.003  0.3704E-01  0.9932E+00
      1.209  0.5600E-01  0.1005E+01
      1.415  0.6229E-01  0.1018E+01
      1.621  0.6684E-01  0.1031E+01
      1.828  0.7392E-01  0.1047E+01
      2.034  0.9026E-01  0.1065E+01
      2.240  0.1039E+00  0.1087E+01
      2.446  0.1259E+00  0.1113E+01
      2.653  0.1908E+00  0.1152E+01
      2.859  0.3204E+00  0.1218E+01
      3.065  0.4268E+00  0.1306E+01
      3.271  0.5123E+00  0.1412E+01
      3.477  0.5702E+00  0.1529E+01
      3.684  0.6177E+00  0.1657E+01
      3.890  0.6272E+00  0.1786E+01
      4.096  0.6498E+00  0.1920E+01
      4.302  0.6449E+00  0.2053E+01
      4.509  0.5737E+00  0.2171E+01
      4.715  0.4824E+00  0.2271E+01
      4.921  0.5822E+00  0.2391E+01
      5.127  0.7524E+00  0.2546E+01
      5.333  0.8924E+00  0.2730E+01
      5.540  0.8921E+00  0.2914E+01
      5.746  0.8650E+00  0.3092E+01
      5.952  0.8133E+00  0.3260E+01
      6.158  0.8754E+00  0.3441E+01
      6.364  0.9327E+00  0.3633E+01
      6.571  0.9143E+00  0.3822E+01
      6.777  0.8265E+00  0.3992E+01
      6.983  0.7048E+00  0.4137E+01
      7.189  0.5798E+00  0.4257E+01
      7.396  0.4264E+00  0.4345E+01
      7.602  0.3131E+00  0.4409E+01
      7.808  0.2996E+00  0.4471E+01
      8.014  0.3103E+00  0.4535E+01
      8.220  0.3859E+00  0.4615E+01
      8.427  0.4461E+00  0.4707E+01
      8.633  0.3130E+00  0.4771E+01
      8.839  0.1315E+00  0.4798E+01
      9.045  0.1067E-01  0.4801E+01
      9.252 -0.2764E-02  0.4800E+01
      9.458 -0.1782E-03  0.4800E+01
      9.664 -0.1494E-05  0.4800E+01
      9.870 -0.1774E-08  0.4800E+01
     10.076 -0.2778E-12  0.4800E+01
     10.283 -0.5023E-17  0.4800E+01
     10.489  0.0000E+00  0.4800E+01
     10.695  0.0000E+00  0.4800E+01
     10.901  0.0000E+00  0.4800E+01
     11.108  0.0000E+00  0.4800E+01
     11.314  0.0000E+00  0.4800E+01
     11.520  0.0000E+00  0.4800E+01
     11.726  0.0000E+00  0.4800E+01
