   30   30   50    1
  0.1577725E+02  0.5473281E-09  0.8209921E-09  0.1128346E-08  0.5000000E-15
  1.000000000000000E-004
  CAR 
 Nb - Mo - Ta - Ti - V SQS               
    198    172    120
 
  0.0000000E+00  0.0000000E+00  0.0000000E+00  0.2915452E-02
    1      -47.327511   1.000000
    2      -47.284239   1.000000
    3      -47.245150   1.000000
    4      -47.139440   1.000000
    5      -47.102042   1.000000
    6      -47.025650   1.000000
    7      -24.055370   1.000000
    8      -23.857133   1.000000
    9      -23.717670   1.000000
   10      -23.650441   1.000000
   11      -23.480215   1.000000
   12      -23.471252   1.000000
   13      -23.446817   1.000000
   14      -23.406260   1.000000
   15      -23.352923   1.000000
   16      -23.326146   1.000000
   17      -23.285552   1.000000
   18      -23.275989   1.000000
   19      -23.215611   1.000000
   20      -23.190047   1.000000
   21      -23.127394   1.000000
   22      -23.013540   1.000000
   23      -22.912786   1.000000
   24      -22.679410   1.000000
   25       -0.097316   1.000000
   26        1.215635   1.000000
   27        1.538839   1.000000
   28        2.363389   1.000000
   29        2.498054   1.000000
   30        2.572290   1.000000
   31        2.647252   1.000000
   32        2.801916   1.000000
   33        2.847201   1.000000
   34        2.922968   1.000000
   35        2.990162   1.000000
   36        3.036646   1.000000
   37        3.107560   1.000000
   38        3.176594   1.000000
   39        3.235761   1.000000
   40        3.311103   1.000000
   41        3.348196   1.000000
   42        3.515142   1.000000
   43        3.612832   1.000000
   44        3.650664   1.000000
   45        3.736343   1.000000
   46        3.806918   1.000000
   47        3.813956   1.000000
   48        3.858582   1.000000
   49        3.970343   1.000000
   50        3.986410   1.000000
   51        4.070774   1.000000
   52        4.087759   1.000000
   53        4.252299   1.000000
   54        4.325257   1.000000
   55        4.366961   1.000000
   56        4.504652   1.000000
   57        4.531758   1.000000
   58        4.603712   1.000000
   59        4.756133   1.000000
   60        4.761777   1.000000
   61        4.848742   1.000000
   62        4.912522   1.000000
   63        4.949671   1.000000
   64        5.009258   1.000000
   65        5.068895   1.000000
   66        5.138018   1.000000
   67        5.157684   1.000000
   68        5.197154   1.000000
   69        5.236534   1.000000
   70        5.273878   1.000000
   71        5.358247   1.000000
   72        5.408275   1.000000
   73        5.424587   1.000000
   74        5.477603   1.000000
   75        5.512800   1.000000
   76        5.574330   1.000000
   77        5.614962   1.000000
   78        5.630230   1.000000
   79        5.745411   1.000000
   80        5.819581   1.000000
   81        5.945159   1.000000
   82        6.008611   1.000002
   83        6.113017   1.000048
   84        6.158018   1.000170
   85        6.162354   1.000191
   86        6.245963   1.001440
   87        6.307182   1.004877
   88        6.333399   1.007655
   89        6.362092   1.011893
   90        6.387085   1.016635
   91        6.433951   1.027176
   92        6.457142   1.031966
   93        6.496982   1.035320
   94        6.563683   1.004241
   95        6.674852   0.746073
   96        6.745069   0.461966
   97        6.807798   0.217052
   98        6.835091   0.132603
   99        6.929433  -0.021332
  100        6.986261  -0.035356
  101        7.122750  -0.009855
  102        7.175247  -0.004037
  103        7.194094  -0.002808
  104        7.248897  -0.000865
  105        7.330915  -0.000108
  106        7.357577  -0.000051
  107        7.593275  -0.000000
  108        7.631547  -0.000000
  109        7.771569  -0.000000
  110        7.811690  -0.000000
  111        8.277601  -0.000000
  112        8.379766  -0.000000
  113        8.531426  -0.000000
  114        8.600349  -0.000000
  115        8.654690  -0.000000
  116        8.715983  -0.000000
  117        8.725167  -0.000000
  118        8.751728  -0.000000
  119        8.823552  -0.000000
  120        8.837960  -0.000000
 
  0.1428571E+00  0.0000000E+00 -0.1561251E-16  0.5830904E-02
    1      -47.323059   1.000000
    2      -47.283735   1.000000
    3      -47.244927   1.000000
    4      -47.139334   1.000000
    5      -47.102039   1.000000
    6      -47.030564   1.000000
    7      -23.997290   1.000000
    8      -23.855471   1.000000
    9      -23.714935   1.000000
   10      -23.647845   1.000000
   11      -23.476931   1.000000
   12      -23.471425   1.000000
   13      -23.450030   1.000000
   14      -23.407422   1.000000
   15      -23.353572   1.000000
   16      -23.329311   1.000000
   17      -23.286255   1.000000
   18      -23.278049   1.000000
   19      -23.220513   1.000000
   20      -23.190657   1.000000
   21      -23.129906   1.000000
   22      -23.017293   1.000000
   23      -22.913484   1.000000
   24      -22.748646   1.000000
   25        0.067321   1.000000
   26        1.363215   1.000000
   27        1.679623   1.000000
   28        2.381134   1.000000
   29        2.617799   1.000000
   30        2.700304   1.000000
   31        2.750183   1.000000
   32        2.913580   1.000000
   33        2.921372   1.000000
   34        2.971652   1.000000
   35        3.119400   1.000000
   36        3.166556   1.000000
   37        3.186089   1.000000
   38        3.289986   1.000000
   39        3.326267   1.000000
   40        3.401987   1.000000
   41        3.426104   1.000000
   42        3.543633   1.000000
   43        3.651915   1.000000
   44        3.679811   1.000000
   45        3.729199   1.000000
   46        3.826579   1.000000
   47        3.908518   1.000000
   48        3.971965   1.000000
   49        3.993151   1.000000
   50        4.051908   1.000000
   51        4.137248   1.000000
   52        4.188189   1.000000
   53        4.290149   1.000000
   54        4.342822   1.000000
   55        4.379411   1.000000
   56        4.453946   1.000000
   57        4.576654   1.000000
   58        4.611595   1.000000
   59        4.777734   1.000000
   60        4.805229   1.000000
   61        4.913511   1.000000
   62        4.951403   1.000000
   63        5.029549   1.000000
   64        5.066539   1.000000
   65        5.155553   1.000000
   66        5.177874   1.000000
   67        5.204769   1.000000
   68        5.275255   1.000000
   69        5.310216   1.000000
   70        5.338801   1.000000
   71        5.367193   1.000000
   72        5.431416   1.000000
   73        5.485316   1.000000
   74        5.525115   1.000000
   75        5.550832   1.000000
   76        5.628393   1.000000
   77        5.643564   1.000000
   78        5.690563   1.000000
   79        5.740806   1.000000
   80        5.805260   1.000000
   81        5.893799   1.000000
   82        5.923473   1.000000
   83        5.984033   1.000001
   84        6.019882   1.000003
   85        6.180947   1.000310
   86        6.222832   1.000857
   87        6.234083   1.001108
   88        6.285027   1.003220
   89        6.345515   1.009284
   90        6.415191   1.022863
   91        6.430418   1.026375
   92        6.488499   1.035432
   93        6.528534   1.028609
   94        6.559294   1.008506
   95        6.612320   0.928252
   96        6.672247   0.755419
   97        6.705801   0.626468
   98        6.721778   0.560308
   99        6.796927   0.255235
  100        6.908706  -0.004492
  101        6.968950  -0.034849
  102        7.072682  -0.019292
  103        7.100856  -0.013529
  104        7.215921  -0.001795
  105        7.259568  -0.000674
  106        7.307209  -0.000205
  107        7.331257  -0.000107
  108        7.420296  -0.000007
  109        7.570956  -0.000000
  110        7.718546  -0.000000
  111        8.118608  -0.000000
  112        8.175970  -0.000000
  113        8.250963  -0.000000
  114        8.321233  -0.000000
  115        8.365840  -0.000000
  116        8.417600  -0.000000
  117        8.489649  -0.000000
  118        8.536732  -0.000000
  119        8.594725  -0.000000
  120        8.625814  -0.000000
 
  0.2857143E+00  0.1387779E-16  0.3469447E-17  0.5830904E-02
    1      -47.312585   1.000000
    2      -47.282496   1.000000
    3      -47.244381   1.000000
    4      -47.139108   1.000000
    5      -47.102040   1.000000
    6      -47.042208   1.000000
    7      -23.872916   1.000000
    8      -23.817593   1.000000
    9      -23.705911   1.000000
   10      -23.638934   1.000000
   11      -23.479086   1.000000
   12      -23.462358   1.000000
   13      -23.456581   1.000000
   14      -23.409859   1.000000
   15      -23.354876   1.000000
   16      -23.336554   1.000000
   17      -23.288670   1.000000
   18      -23.281775   1.000000
   19      -23.232604   1.000000
   20      -23.192847   1.000000
   21      -23.136700   1.000000
   22      -23.026331   1.000000
   23      -22.943970   1.000000
   24      -22.906411   1.000000
   25        0.535116   1.000000
   26        1.758420   1.000000
   27        2.057346   1.000000
   28        2.499441   1.000000
   29        2.759342   1.000000
   30        2.867872   1.000000
   31        2.977903   1.000000
   32        3.088786   1.000000
   33        3.130961   1.000000
   34        3.209743   1.000000
   35        3.320126   1.000000
   36        3.395398   1.000000
   37        3.442980   1.000000
   38        3.450781   1.000000
   39        3.553245   1.000000
   40        3.583138   1.000000
   41        3.605684   1.000000
   42        3.657179   1.000000
   43        3.764691   1.000000
   44        3.815785   1.000000
   45        3.858388   1.000000
   46        3.938029   1.000000
   47        3.996892   1.000000
   48        4.035834   1.000000
   49        4.139127   1.000000
   50        4.258228   1.000000
   51        4.264383   1.000000
   52        4.347393   1.000000
   53        4.424413   1.000000
   54        4.453847   1.000000
   55        4.546385   1.000000
   56        4.592588   1.000000
   57        4.677226   1.000000
   58        4.742621   1.000000
   59        4.833837   1.000000
   60        4.885272   1.000000
   61        4.968841   1.000000
   62        5.007120   1.000000
   63        5.099897   1.000000
   64        5.145714   1.000000
   65        5.165780   1.000000
   66        5.233848   1.000000
   67        5.291880   1.000000
   68        5.305875   1.000000
   69        5.373490   1.000000
   70        5.398880   1.000000
   71        5.468748   1.000000
   72        5.497587   1.000000
   73        5.548423   1.000000
   74        5.572260   1.000000
   75        5.646353   1.000000
   76        5.666587   1.000000
   77        5.709300   1.000000
   78        5.751823   1.000000
   79        5.798417   1.000000
   80        5.807659   1.000000
   81        5.876305   1.000000
   82        5.911196   1.000000
   83        5.987988   1.000001
   84        6.004678   1.000001
   85        6.067687   1.000012
   86        6.075532   1.000016
   87        6.142934   1.000113
   88        6.197892   1.000473
   89        6.304791   1.004670
   90        6.332162   1.007501
   91        6.364730   1.012349
   92        6.449873   1.030586
   93        6.482333   1.035178
   94        6.520591   1.031407
   95        6.562996   1.004934
   96        6.598007   0.956448
   97        6.619351   0.912518
   98        6.655373   0.812592
   99        6.684666   0.709750
  100        6.742870   0.471246
  101        6.777383   0.329259
  102        6.869342   0.052426
  103        6.905065  -0.000675
  104        6.978096  -0.035424
  105        7.017784  -0.031455
  106        7.070672  -0.019738
  107        7.184746  -0.003371
  108        7.232556  -0.001252
  109        7.304035  -0.000222
  110        7.453331  -0.000002
  111        7.546222  -0.000000
  112        7.636619  -0.000000
  113        7.770490  -0.000000
  114        7.828386  -0.000000
  115        7.922005  -0.000000
  116        8.033728  -0.000000
  117        8.071857  -0.000000
  118        8.158001  -0.000000
  119        8.209223  -0.000000
  120        8.307751  -0.000000
 
  0.4285714E+00  0.5551115E-16 -0.4163336E-16  0.5830904E-02
    1      -47.303737   1.000000
    2      -47.281277   1.000000
    3      -47.243867   1.000000
    4      -47.138944   1.000000
    5      -47.102053   1.000000
    6      -47.052264   1.000000
    7      -23.861151   1.000000
    8      -23.717997   1.000000
    9      -23.659896   1.000000
   10      -23.553205   1.000000
   11      -23.483312   1.000000
   12      -23.461905   1.000000
   13      -23.451967   1.000000
   14      -23.411728   1.000000
   15      -23.355941   1.000000
   16      -23.344860   1.000000
   17      -23.291781   1.000000
   18      -23.283776   1.000000
   19      -23.245203   1.000000
   20      -23.213366   1.000000
   21      -23.189120   1.000000
   22      -23.118292   1.000000
   23      -23.031906   1.000000
   24      -22.912491   1.000000
   25        1.218503   1.000000
   26        1.972763   1.000000
   27        2.403760   1.000000
   28        2.602032   1.000000
   29        2.692196   1.000000
   30        2.964331   1.000000
   31        3.049664   1.000000
   32        3.185829   1.000000
   33        3.317202   1.000000
   34        3.406908   1.000000
   35        3.462997   1.000000
   36        3.504440   1.000000
   37        3.559558   1.000000
   38        3.625116   1.000000
   39        3.667121   1.000000
   40        3.772042   1.000000
   41        3.846413   1.000000
   42        3.880413   1.000000
   43        3.905422   1.000000
   44        3.979730   1.000000
   45        4.056608   1.000000
   46        4.098644   1.000000
   47        4.176823   1.000000
   48        4.233865   1.000000
   49        4.280686   1.000000
   50        4.307496   1.000000
   51        4.402104   1.000000
   52        4.452409   1.000000
   53        4.581309   1.000000
   54        4.594503   1.000000
   55        4.651756   1.000000
   56        4.774668   1.000000
   57        4.829664   1.000000
   58        4.863403   1.000000
   59        4.895675   1.000000
   60        4.924929   1.000000
   61        4.991589   1.000000
   62        5.014203   1.000000
   63        5.072446   1.000000
   64        5.105375   1.000000
   65        5.151444   1.000000
   66        5.223413   1.000000
   67        5.239279   1.000000
   68        5.276348   1.000000
   69        5.365822   1.000000
   70        5.393644   1.000000
   71        5.467427   1.000000
   72        5.532405   1.000000
   73        5.546655   1.000000
   74        5.590242   1.000000
   75        5.637548   1.000000
   76        5.684298   1.000000
   77        5.714175   1.000000
   78        5.727112   1.000000
   79        5.768097   1.000000
   80        5.858622   1.000000
   81        5.909496   1.000000
   82        5.985921   1.000001
   83        6.035840   1.000004
   84        6.055729   1.000008
   85        6.093375   1.000027
   86        6.147306   1.000127
   87        6.173903   1.000259
   88        6.209764   1.000631
   89        6.267059   1.002250
   90        6.294802   1.003882
   91        6.329594   1.007190
   92        6.356753   1.011005
   93        6.376503   1.014515
   94        6.432292   1.026802
   95        6.481006   1.035090
   96        6.508313   1.034181
   97        6.535117   1.025615
   98        6.578929   0.986300
   99        6.655975   0.810659
  100        6.684223   0.711424
  101        6.756194   0.415324
  102        6.762969   0.387316
  103        6.832963   0.138554
  104        6.896615   0.009259
  105        6.960809  -0.033660
  106        7.077527  -0.018231
  107        7.085682  -0.016505
  108        7.128784  -0.008977
  109        7.205868  -0.002214
  110        7.246468  -0.000915
  111        7.269127  -0.000536
  112        7.334482  -0.000098
  113        7.602231  -0.000000
  114        7.683402  -0.000000
  115        7.731689  -0.000000
  116        7.785209  -0.000000
  117        7.866334  -0.000000
  118        7.892804  -0.000000
  119        7.968254  -0.000000
  120        8.172322  -0.000000
 
 -0.6938894E-17  0.1428571E+00  0.1040834E-16  0.5830904E-02
    1      -47.327508   1.000000
    2      -47.284105   1.000000
    3      -47.245143   1.000000
    4      -47.139461   1.000000
    5      -47.102164   1.000000
    6      -47.025648   1.000000
    7      -24.055372   1.000000
    8      -23.856074   1.000000
    9      -23.715540   1.000000
   10      -23.650200   1.000000
   11      -23.480270   1.000000
   12      -23.471250   1.000000
   13      -23.446917   1.000000
   14      -23.406262   1.000000
   15      -23.352992   1.000000
   16      -23.326126   1.000000
   17      -23.285490   1.000000
   18      -23.275904   1.000000
   19      -23.215649   1.000000
   20      -23.190094   1.000000
   21      -23.127403   1.000000
   22      -23.017100   1.000000
   23      -22.913240   1.000000
   24      -22.679417   1.000000
   25       -0.027669   1.000000
   26        1.250447   1.000000
   27        1.607115   1.000000
   28        2.090189   1.000000
   29        2.506839   1.000000
   30        2.599290   1.000000
   31        2.655144   1.000000
   32        2.807118   1.000000
   33        2.820180   1.000000
   34        2.939672   1.000000
   35        3.016268   1.000000
   36        3.056676   1.000000
   37        3.071852   1.000000
   38        3.177036   1.000000
   39        3.197377   1.000000
   40        3.301745   1.000000
   41        3.382551   1.000000
   42        3.521821   1.000000
   43        3.590432   1.000000
   44        3.615764   1.000000
   45        3.704936   1.000000
   46        3.798456   1.000000
   47        3.856852   1.000000
   48        3.907976   1.000000
   49        3.962046   1.000000
   50        4.029965   1.000000
   51        4.107817   1.000000
   52        4.165785   1.000000
   53        4.253147   1.000000
   54        4.307810   1.000000
   55        4.372237   1.000000
   56        4.448397   1.000000
   57        4.510576   1.000000
   58        4.569904   1.000000
   59        4.755356   1.000000
   60        4.820858   1.000000
   61        4.877667   1.000000
   62        4.973475   1.000000
   63        4.996459   1.000000
   64        5.050409   1.000000
   65        5.115978   1.000000
   66        5.146636   1.000000
   67        5.209971   1.000000
   68        5.218749   1.000000
   69        5.245318   1.000000
   70        5.292211   1.000000
   71        5.362402   1.000000
   72        5.417268   1.000000
   73        5.446982   1.000000
   74        5.486085   1.000000
   75        5.548063   1.000000
   76        5.575559   1.000000
   77        5.625859   1.000000
   78        5.648872   1.000000
   79        5.751193   1.000000
   80        5.830524   1.000000
   81        5.974219   1.000001
   82        6.031800   1.000004
   83        6.108646   1.000043
   84        6.149785   1.000136
   85        6.167238   1.000217
   86        6.212943   1.000680
   87        6.257330   1.001837
   88        6.294778   1.003880
   89        6.330590   1.007310
   90        6.371112   1.013497
   91        6.401828   1.019818
   92        6.465668   1.033371
   93        6.477561   1.034813
   94        6.550739   1.015747
   95        6.604631   0.944033
   96        6.649182   0.831996
   97        6.728053   0.533894
   98        6.783385   0.305873
   99        6.831001   0.144139
  100        6.994507  -0.034819
  101        7.133147  -0.008379
  102        7.156600  -0.005658
  103        7.205907  -0.002212
  104        7.237879  -0.001112
  105        7.361881  -0.000045
  106        7.493889  -0.000001
  107        7.583238  -0.000000
  108        7.705261  -0.000000
  109        7.798726  -0.000000
  110        7.887582  -0.000000
  111        8.075503  -0.000000
  112        8.308988  -0.000000
  113        8.350971  -0.000000
  114        8.368336  -0.000000
  115        8.539408  -0.000000
  116        8.615049  -0.000000
  117        8.645039  -0.000000
  118        8.677895  -0.000000
  119        8.711017  -0.000000
  120        8.782099  -0.000000
 
  0.1428571E+00  0.1428571E+00 -0.1387779E-16  0.5830904E-02
    1      -47.323061   1.000000
    2      -47.283862   1.000000
    3      -47.244934   1.000000
    4      -47.139314   1.000000
    5      -47.101921   1.000000
    6      -47.030566   1.000000
    7      -23.997286   1.000000
    8      -23.856493   1.000000
    9      -23.717043   1.000000
   10      -23.648049   1.000000
   11      -23.476934   1.000000
   12      -23.471403   1.000000
   13      -23.450030   1.000000
   14      -23.407434   1.000000
   15      -23.353522   1.000000
   16      -23.329300   1.000000
   17      -23.286277   1.000000
   18      -23.278051   1.000000
   19      -23.220468   1.000000
   20      -23.190617   1.000000
   21      -23.129892   1.000000
   22      -23.013856   1.000000
   23      -22.913072   1.000000
   24      -22.748642   1.000000
   25        0.068570   1.000000
   26        1.340067   1.000000
   27        1.697119   1.000000
   28        2.383036   1.000000
   29        2.601363   1.000000
   30        2.702138   1.000000
   31        2.744725   1.000000
   32        2.857931   1.000000
   33        2.899322   1.000000
   34        2.980325   1.000000
   35        3.032455   1.000000
   36        3.092308   1.000000
   37        3.170115   1.000000
   38        3.277107   1.000000
   39        3.319204   1.000000
   40        3.348471   1.000000
   41        3.450040   1.000000
   42        3.583628   1.000000
   43        3.675009   1.000000
   44        3.693102   1.000000
   45        3.744952   1.000000
   46        3.806694   1.000000
   47        3.900736   1.000000
   48        3.959352   1.000000
   49        4.030791   1.000000
   50        4.076959   1.000000
   51        4.134870   1.000000
   52        4.193983   1.000000
   53        4.310334   1.000000
   54        4.345573   1.000000
   55        4.407598   1.000000
   56        4.489508   1.000000
   57        4.595753   1.000000
   58        4.699716   1.000000
   59        4.787492   1.000000
   60        4.880047   1.000000
   61        4.888845   1.000000
   62        4.937063   1.000000
   63        4.986858   1.000000
   64        5.044889   1.000000
   65        5.109417   1.000000
   66        5.164101   1.000000
   67        5.204043   1.000000
   68        5.237516   1.000000
   69        5.270027   1.000000
   70        5.318886   1.000000
   71        5.350803   1.000000
   72        5.388821   1.000000
   73        5.431611   1.000000
   74        5.481136   1.000000
   75        5.509372   1.000000
   76        5.614981   1.000000
   77        5.651914   1.000000
   78        5.671021   1.000000
   79        5.745109   1.000000
   80        5.819527   1.000000
   81        5.878489   1.000000
   82        5.966418   1.000000
   83        6.012882   1.000002
   84        6.076352   1.000016
   85        6.119050   1.000058
   86        6.146578   1.000125
   87        6.196018   1.000452
   88        6.305243   1.004709
   89        6.336180   1.008009
   90        6.367238   1.012792
   91        6.427795   1.025775
   92        6.472929   1.034335
   93        6.539185   1.023435
   94        6.583131   0.980457
   95        6.646670   0.839618
   96        6.701252   0.644882
   97        6.786831   0.292695
   98        6.807933   0.216591
   99        6.853296   0.086309
  100        6.927240  -0.019917
  101        7.014661  -0.032027
  102        7.077959  -0.018138
  103        7.157366  -0.005583
  104        7.224108  -0.001506
  105        7.275137  -0.000463
  106        7.323213  -0.000133
  107        7.375643  -0.000030
  108        7.451184  -0.000003
  109        7.541238  -0.000000
  110        7.597001  -0.000000
  111        7.829548  -0.000000
  112        8.212008  -0.000000
  113        8.324535  -0.000000
  114        8.434788  -0.000000
  115        8.503563  -0.000000
  116        8.604131  -0.000000
  117        8.639032  -0.000000
  118        8.671276  -0.000000
  119        8.720871  -0.000000
  120        8.765630  -0.000000
 
  0.2857143E+00  0.1428571E+00  0.2775558E-16  0.5830904E-02
    1      -47.312593   1.000000
    2      -47.282786   1.000000
    3      -47.244395   1.000000
    4      -47.139062   1.000000
    5      -47.101771   1.000000
    6      -47.042212   1.000000
    7      -23.874201   1.000000
    8      -23.818836   1.000000
    9      -23.710732   1.000000
   10      -23.639234   1.000000
   11      -23.479144   1.000000
   12      -23.462263   1.000000
   13      -23.456519   1.000000
   14      -23.409870   1.000000
   15      -23.354752   1.000000
   16      -23.336532   1.000000
   17      -23.288716   1.000000
   18      -23.281860   1.000000
   19      -23.232494   1.000000
   20      -23.192778   1.000000
   21      -23.136650   1.000000
   22      -23.018427   1.000000
   23      -22.943573   1.000000
   24      -22.905831   1.000000
   25        0.473783   1.000000
   26        1.673863   1.000000
   27        2.022183   1.000000
   28        2.615518   1.000000
   29        2.692123   1.000000
   30        2.855907   1.000000
   31        2.999009   1.000000
   32        3.064195   1.000000
   33        3.111427   1.000000
   34        3.182064   1.000000
   35        3.264535   1.000000
   36        3.307070   1.000000
   37        3.410959   1.000000
   38        3.452486   1.000000
   39        3.552326   1.000000
   40        3.605537   1.000000
   41        3.612490   1.000000
   42        3.687354   1.000000
   43        3.768507   1.000000
   44        3.853085   1.000000
   45        3.909493   1.000000
   46        3.947353   1.000000
   47        4.015536   1.000000
   48        4.085859   1.000000
   49        4.122297   1.000000
   50        4.220863   1.000000
   51        4.280710   1.000000
   52        4.311796   1.000000
   53        4.365470   1.000000
   54        4.448579   1.000000
   55        4.509981   1.000000
   56        4.574100   1.000000
   57        4.658685   1.000000
   58        4.795264   1.000000
   59        4.870554   1.000000
   60        4.932369   1.000000
   61        4.961576   1.000000
   62        5.024289   1.000000
   63        5.079019   1.000000
   64        5.147844   1.000000
   65        5.169227   1.000000
   66        5.212669   1.000000
   67        5.251334   1.000000
   68        5.284451   1.000000
   69        5.349014   1.000000
   70        5.358510   1.000000
   71        5.428107   1.000000
   72        5.453394   1.000000
   73        5.475238   1.000000
   74        5.532623   1.000000
   75        5.556760   1.000000
   76        5.587407   1.000000
   77        5.622877   1.000000
   78        5.736389   1.000000
   79        5.770463   1.000000
   80        5.846414   1.000000
   81        5.897513   1.000000
   82        5.952547   1.000000
   83        6.010143   1.000002
   84        6.103212   1.000036
   85        6.131372   1.000082
   86        6.153670   1.000151
   87        6.201594   1.000518
   88        6.233731   1.001099
   89        6.280595   1.002953
   90        6.306396   1.004808
   91        6.347347   1.009551
   92        6.405553   1.020656
   93        6.449582   1.030528
   94        6.465746   1.033383
   95        6.487555   1.035410
   96        6.516955   1.032414
   97        6.602409   0.948318
   98        6.658344   0.802970
   99        6.689526   0.691157
  100        6.774898   0.339092
  101        6.821482   0.172552
  102        6.859412   0.072629
  103        6.937433  -0.025820
  104        6.967586  -0.034697
  105        7.013543  -0.032224
  106        7.094648  -0.014706
  107        7.144582  -0.006951
  108        7.206215  -0.002198
  109        7.263959  -0.000607
  110        7.520080  -0.000000
  111        7.585504  -0.000000
  112        7.713483  -0.000000
  113        7.924849  -0.000000
  114        8.096535  -0.000000
  115        8.207402  -0.000000
  116        8.323596  -0.000000
  117        8.369833  -0.000000
  118        8.381971  -0.000000
  119        8.454105  -0.000000
  120        8.487767  -0.000000
 
  0.4285714E+00  0.1428571E+00 -0.2081668E-16  0.5830904E-02
    1      -47.303748   1.000000
    2      -47.281507   1.000000
    3      -47.243878   1.000000
    4      -47.138907   1.000000
    5      -47.101838   1.000000
    6      -47.052268   1.000000
    7      -23.862703   1.000000
    8      -23.721678   1.000000
    9      -23.660924   1.000000
   10      -23.553180   1.000000
   11      -23.483378   1.000000
   12      -23.461871   1.000000
   13      -23.451890   1.000000
   14      -23.411732   1.000000
   15      -23.355844   1.000000
   16      -23.344828   1.000000
   17      -23.291788   1.000000
   18      -23.283867   1.000000
   19      -23.245117   1.000000
   20      -23.213337   1.000000
   21      -23.189088   1.000000
   22      -23.118186   1.000000
   23      -23.025312   1.000000
   24      -22.911918   1.000000
   25        1.122848   1.000000
   26        1.998209   1.000000
   27        2.334942   1.000000
   28        2.517507   1.000000
   29        2.701964   1.000000
   30        2.784323   1.000000
   31        3.104795   1.000000
   32        3.297346   1.000000
   33        3.354139   1.000000
   34        3.431915   1.000000
   35        3.476632   1.000000
   36        3.517557   1.000000
   37        3.601089   1.000000
   38        3.651615   1.000000
   39        3.724096   1.000000
   40        3.764995   1.000000
   41        3.794087   1.000000
   42        3.869423   1.000000
   43        3.959840   1.000000
   44        4.001644   1.000000
   45        4.023448   1.000000
   46        4.103120   1.000000
   47        4.164681   1.000000