       N       E                     dE             d eps       ncg     rms          rms(c)
DAV:   1     0.256484544353E+04    0.25648E+04   -0.84339E+04 41280   0.187E+03
DAV:   2     0.252502889488E+03   -0.23123E+04   -0.22587E+04 47928   0.511E+02
DAV:   3    -0.264914346234E+03   -0.51742E+03   -0.49643E+03 72396   0.219E+02
DAV:   4    -0.340384201216E+03   -0.75470E+02   -0.70151E+02 72756   0.955E+01
DAV:   5    -0.349875859075E+03   -0.94917E+01   -0.91426E+01 80052   0.329E+01    0.720E+01
DAV:   6    -0.385448864322E+03   -0.35573E+02   -0.61359E+02 70572   0.907E+01    0.804E+01
DAV:   7    -0.337535751836E+03    0.47913E+02   -0.11576E+03 76164   0.189E+02    0.408E+01
DAV:   8    -0.347048247174E+03   -0.95125E+01   -0.40929E+02 63300   0.617E+01    0.301E+01
DAV:   9    -0.327418759140E+03    0.19629E+02   -0.91979E+01 67464   0.352E+01    0.213E+01
DAV:  10    -0.323353941496E+03    0.40648E+01   -0.24657E+01 67380   0.204E+01    0.173E+01
DAV:  11    -0.321181834341E+03    0.21721E+01   -0.59773E+00 70116   0.915E+00    0.138E+01
DAV:  12    -0.320494695624E+03    0.68714E+00   -0.18639E+00 72432   0.527E+00    0.123E+01
DAV:  13    -0.320257582241E+03    0.23711E+00   -0.24332E-01 72324   0.203E+00    0.116E+01
DAV:  14    -0.320105631518E+03    0.15195E+00   -0.19591E-01 67920   0.170E+00    0.110E+01
DAV:  15    -0.319911334988E+03    0.19430E+00   -0.94621E-01 63984   0.348E+00    0.973E+00
DAV:  16    -0.319502700906E+03    0.40863E+00   -0.34001E+00 66936   0.774E+00    0.750E+00
DAV:  17    -0.319012136577E+03    0.49056E+00   -0.41881E+00 70608   0.808E+00    0.298E+00
DAV:  18    -0.318981363938E+03    0.30773E-01   -0.16421E+00 68928   0.492E+00    0.281E+00
DAV:  19    -0.318935758247E+03    0.45606E-01   -0.69321E-01 69096   0.372E+00    0.186E+00
DAV:  20    -0.318909040161E+03    0.26718E-01   -0.28514E-01 70596   0.199E+00    0.105E+00
DAV:  21    -0.318903037187E+03    0.60030E-02   -0.14626E-01 71088   0.149E+00    0.794E-01
DAV:  22    -0.318898525939E+03    0.45112E-02   -0.67107E-02 66792   0.108E+00    0.500E-01
DAV:  23    -0.318897707012E+03    0.81893E-03   -0.29832E-02 66324   0.749E-01    0.436E-01
DAV:  24    -0.318896706442E+03    0.10006E-02   -0.17385E-02 62556   0.489E-01    0.245E-01
DAV:  25    -0.318895958126E+03    0.74832E-03   -0.79550E-03 62892   0.331E-01    0.967E-02
DAV:  26    -0.318895901137E+03    0.56989E-04   -0.91437E-04 51336   0.102E-01
   1 F= -.31889590E+03 E0= -.31889342E+03  d E =-.318896E+03
       N       E                     dE             d eps       ncg     rms          rms(c)
DAV:   1    -0.319104337825E+03   -0.20838E+00   -0.68201E+01 41280   0.271E+01    0.312E+00
DAV:   2    -0.320039868355E+03   -0.93553E+00   -0.86880E+00 72192   0.143E+01    0.685E+00
DAV:   3    -0.319441372835E+03    0.59850E+00   -0.46416E+00 72816   0.895E+00    0.241E+00
DAV:   4    -0.319451199131E+03   -0.98263E-02   -0.94835E-01 71160   0.439E+00    0.259E+00
DAV:   5    -0.319392614147E+03    0.58585E-01   -0.44950E-01 70356   0.323E+00    0.117E+00
DAV:   6    -0.319386461286E+03    0.61529E-02   -0.14185E-01 70452   0.156E+00    0.102E+00
DAV:   7    -0.319389900927E+03   -0.34396E-02   -0.17871E-01 73212   0.160E+00    0.111E+00
DAV:   8    -0.319387220397E+03    0.26805E-02   -0.15729E-01 70440   0.172E+00    0.103E+00
DAV:   9    -0.319376423731E+03    0.10797E-01   -0.66220E-02 73848   0.108E+00    0.323E-01
DAV:  10    -0.319376182332E+03    0.24140E-03   -0.18825E-02 72336   0.470E-01    0.293E-01
DAV:  11    -0.319375744396E+03    0.43794E-03   -0.90753E-03 59568   0.393E-01    0.207E-01
DAV:  12    -0.319375520347E+03    0.22405E-03   -0.35198E-03 61524   0.257E-01    0.130E-01
DAV:  13    -0.319375460048E+03    0.60299E-04   -0.17291E-03 60948   0.154E-01    0.854E-02
DAV:  14    -0.319375523993E+03   -0.63945E-04   -0.14626E-03 57108   0.165E-01    0.112E-01
DAV:  15    -0.319375441209E+03    0.82784E-04   -0.13328E-03 50280   0.181E-01    0.638E-02
DAV:  16    -0.319375394948E+03    0.46261E-04   -0.29969E-04 32964   0.105E-01
   2 F= -.31937539E+03 E0= -.31937247E+03  d E =-.479494E+00
       N       E                     dE             d eps       ncg     rms          rms(c)
DAV:   1    -0.319264113168E+03    0.11133E+00   -0.71211E+01 41280   0.276E+01    0.314E+00
DAV:   2    -0.320217342135E+03   -0.95323E+00   -0.89753E+00 72072   0.147E+01    0.680E+00
DAV:   3    -0.319615846550E+03    0.60150E+00   -0.46914E+00 72732   0.906E+00    0.235E+00
DAV:   4    -0.319622137283E+03   -0.62907E-02   -0.90682E-01 71304   0.429E+00    0.248E+00
DAV:   5    -0.319567573155E+03    0.54564E-01   -0.42894E-01 70524   0.319E+00    0.115E+00
DAV:   6    -0.319562368854E+03    0.52043E-02   -0.13731E-01 70452   0.158E+00    0.104E+00
DAV:   7    -0.319568566376E+03   -0.61975E-02   -0.20188E-01 71424   0.180E+00    0.131E+00
DAV:   8    -0.319561958464E+03    0.66079E-02   -0.17266E-01 71208   0.182E+00    0.937E-01
DAV:   9    -0.319551398329E+03    0.10560E-01   -0.58687E-02 74160   0.945E-01    0.314E-01
DAV:  10    -0.319551332190E+03    0.66140E-04   -0.18508E-02 71016   0.485E-01    0.297E-01
DAV:  11    -0.319550976634E+03    0.35556E-03   -0.10279E-02 58380   0.425E-01    0.214E-01
DAV:  12    -0.319550706475E+03    0.27016E-03   -0.39866E-03 60468   0.269E-01    0.126E-01
DAV:  13    -0.319550663299E+03    0.43176E-04   -0.19111E-03 60792   0.159E-01    0.989E-02
DAV:  14    -0.319550781796E+03   -0.11850E-03   -0.21253E-03 56544   0.214E-01    0.142E-01
DAV:  15    -0.319550596655E+03    0.18514E-03   -0.13889E-03 50736   0.184E-01    0.360E-02
DAV:  16    -0.319550573208E+03    0.23447E-04   -0.13709E-04 26868   0.716E-02
   3 F= -.31955057E+03 E0= -.31954797E+03  d E =-.654672E+00
       N       E                     dE             d eps       ncg     rms          rms(c)
DAV:   1    -0.320240315450E+03   -0.68972E+00   -0.56018E+01 55200   0.335E+01    0.847E+00
DAV:   2    -0.320541385062E+03   -0.30107E+00   -0.12804E+01 73416   0.160E+01    0.685E+00
DAV:   3    -0.320072018522E+03    0.46937E+00   -0.98582E+00 74220   0.117E+01    0.624E+00
DAV:   4    -0.319920738488E+03    0.15128E+00   -0.64344E+00 70080   0.120E+01    0.564E+00
DAV:   5    -0.319634758285E+03    0.28598E+00   -0.38228E+00 70344   0.825E+00    0.304E+00
DAV:   6    -0.319581018403E+03    0.53740E-01   -0.16543E+00 70800   0.517E+00    0.253E+00
DAV:   7    -0.319544348317E+03    0.36670E-01   -0.83240E-01 71748   0.379E+00    0.179E+00
DAV:   8    -0.319525509249E+03    0.18839E-01   -0.29394E-01 73644   0.241E+00    0.103E+00
DAV:   9    -0.319521934485E+03    0.35748E-02   -0.87919E-02 71460   0.135E+00    0.833E-01
DAV:  10    -0.319520635630E+03    0.12989E-02   -0.47087E-02 66792   0.978E-01    0.637E-01
DAV:  11    -0.319523432463E+03   -0.27968E-02   -0.24217E-02 67848   0.662E-01    0.513E-01
DAV:  12    -0.319526688782E+03   -0.32563E-02   -0.37890E-02 67296   0.859E-01    0.490E-01
DAV:  13    -0.319525163157E+03    0.15256E-02   -0.26172E-02 68940   0.753E-01    0.217E-01
DAV:  14    -0.319524986033E+03    0.17712E-03   -0.95385E-03 68652   0.396E-01    0.166E-01
DAV:  15    -0.319524791936E+03    0.19410E-03   -0.33885E-03 60348   0.274E-01    0.982E-02
DAV:  16    -0.319524711811E+03    0.80124E-04   -0.12087E-03 55092   0.156E-01    0.612E-02
DAV:  17    -0.319524683885E+03    0.27926E-04   -0.21828E-04 28932   0.859E-02
   4 F= -.31952468E+03 E0= -.31952156E+03  d E =0.258893E-01
       N       E                     dE             d eps       ncg     rms          rms(c)
DAV:   1    -0.319827722303E+03   -0.30301E+00   -0.16149E+01 55512   0.181E+01    0.438E+00
DAV:   2    -0.319916584859E+03   -0.88863E-01   -0.34666E+00 76224   0.804E+00    0.411E+00
DAV:   3    -0.319784882208E+03    0.13170E+00   -0.31908E+00 75744   0.678E+00    0.325E+00
DAV:   4    -0.319757876584E+03    0.27006E-01   -0.18210E+00 72816   0.563E+00    0.318E+00
DAV:   5    -0.319669662781E+03    0.88214E-01   -0.12529E+00 67704   0.486E+00    0.188E+00
DAV:   6    -0.319640895146E+03    0.28768E-01   -0.56384E-01 70116   0.306E+00    0.129E+00
DAV:   7    -0.319635084500E+03    0.58106E-02   -0.27344E-01 72984   0.203E+00    0.112E+00
DAV:   8    -0.319625637995E+03    0.94465E-02   -0.10840E-01 74148   0.144E+00    0.536E-01
DAV:   9    -0.319624324634E+03    0.13134E-02   -0.24077E-02 69684   0.679E-01    0.442E-01
DAV:  10    -0.319623737602E+03    0.58703E-03   -0.91142E-03 58932   0.424E-01    0.336E-01
DAV:  11    -0.319624021904E+03   -0.28430E-03   -0.24726E-03 62424   0.208E-01    0.286E-01
DAV:  12    -0.319625042209E+03   -0.10203E-02   -0.53449E-03 68820   0.308E-01    0.242E-01
DAV:  13    -0.319625451276E+03   -0.40907E-03   -0.86400E-03 67896   0.423E-01    0.204E-01
DAV:  14    -0.319625068364E+03    0.38291E-03   -0.51542E-03 70500   0.285E-01    0.857E-02
DAV:  15    -0.319625015055E+03    0.53310E-04   -0.11793E-03 57444   0.129E-01    0.524E-02
DAV:  16    -0.319624980946E+03    0.34108E-04   -0.19366E-04 29136   0.898E-02
   5 F= -.31962498E+03 E0= -.31962207E+03  d E =-.744077E-01
       N       E                     dE             d eps       ncg     rms          rms(c)
DAV:   1    -0.319632813002E+03   -0.77979E-02   -0.18795E+01 41868   0.137E+01    0.151E+00
DAV:   2    -0.319804784708E+03   -0.17197E+00   -0.17732E+00 70548   0.634E+00    0.292E+00
DAV:   3    -0.319718882912E+03    0.85902E-01   -0.94788E-01 72912   0.439E+00    0.132E+00
DAV:   4    -0.319709868700E+03    0.90142E-02   -0.19788E-01 69312   0.198E+00    0.924E-01
DAV:   5    -0.319703937723E+03    0.59310E-02   -0.11379E-01 68484   0.143E+00    0.747E-01
DAV:   6    -0.319702046707E+03    0.18910E-02   -0.79880E-02 71868   0.121E+00    0.639E-01
DAV:   7    -0.319700435322E+03    0.16114E-02   -0.48718E-02 73740   0.986E-01    0.532E-01
DAV:   8    -0.319698185981E+03    0.22493E-02   -0.31878E-02 71352   0.838E-01    0.320E-01
DAV:   9    -0.319697109136E+03    0.10768E-02   -0.10033E-02 64344   0.397E-01    0.150E-01
DAV:  10    -0.319696989821E+03    0.11932E-03   -0.26689E-03 63504   0.215E-01    0.117E-01
DAV:  11    -0.319696985069E+03    0.47516E-05   -0.14519E-03 55668   0.160E-01    0.942E-02
DAV:  12    -0.319696952943E+03    0.32126E-04   -0.98271E-04 51156   0.138E-01
   6 F= -.31969695E+03 E0= -.31969408E+03  d E =-.719720E-01
       N       E                     dE             d eps       ncg     rms          rms(c)
DAV:   1    -0.319694579641E+03    0.24054E-02   -0.16683E+00 41352   0.405E+00    0.460E-01
DAV:   2    -0.319710639602E+03   -0.16060E-01   -0.16346E-01 70824   0.196E+00    0.900E-01
DAV:   3    -0.319702199679E+03    0.84399E-02   -0.88021E-02 71508   0.138E+00    0.392E-01
DAV:   4    -0.319701382035E+03    0.81764E-03   -0.17659E-02 65580   0.601E-01    0.280E-01
DAV:   5    -0.319700822326E+03    0.55971E-03   -0.10076E-02 64032   0.431E-01    0.219E-01
DAV:   6    -0.319700634073E+03    0.18825E-03   -0.67821E-03 64368   0.356E-01    0.186E-01
DAV:   7    -0.319700552108E+03    0.81965E-04   -0.43526E-03 61356   0.300E-01    0.170E-01
DAV:   8    -0.319700295783E+03    0.25632E-03   -0.29426E-03 59820   0.265E-01    0.883E-02
DAV:   9    -0.319700219331E+03    0.76452E-04   -0.85612E-04 49584   0.130E-01
   7 F= -.31970022E+03 E0= -.31969738E+03  d E =-.752384E-01
       N       E                     dE             d eps       ncg     rms          rms(c)
DAV:   1    -0.319705696370E+03   -0.54006E-02   -0.35535E+00 41280   0.633E+00    0.941E-01
DAV:   2    -0.319740334447E+03   -0.34638E-01   -0.41080E-01 69504   0.329E+00    0.145E+00
DAV:   3    -0.319725651611E+03    0.14683E-01   -0.25866E-01 67368   0.243E+00    0.850E-01
DAV:   4    -0.319722298363E+03    0.33532E-02   -0.76472E-02 72396   0.121E+00    0.601E-01
DAV:   5    -0.319719471361E+03    0.28270E-02   -0.50425E-02 71412   0.915E-01    0.484E-01
DAV:   6    -0.319717757374E+03    0.17140E-02   -0.29507E-02 68844   0.711E-01    0.275E-01
DAV:   7    -0.319717493006E+03    0.26437E-03   -0.12400E-02 77124   0.434E-01    0.231E-01
DAV:   8    -0.319717042613E+03    0.45039E-03   -0.62198E-03 63480   0.329E-01    0.145E-01
DAV:   9    -0.319716875355E+03    0.16726E-03   -0.17569E-03 57492   0.197E-01    0.886E-02
DAV:  10    -0.319716836675E+03    0.38680E-04   -0.51611E-04 40776   0.104E-01
   8 F= -.31971684E+03 E0= -.31971403E+03  d E =-.166173E-01
       N       E                     dE             d eps       ncg     rms          rms(c)
DAV:   1    -0.319716178543E+03    0.69681E-03   -0.77589E-01 41340   0.296E+00    0.437E-01
DAV:   2    -0.319723533641E+03   -0.73551E-02   -0.89305E-02 69660   0.151E+00    0.673E-01
DAV:   3    -0.319720394398E+03    0.31392E-02   -0.57191E-02 67692   0.112E+00    0.407E-01
DAV:   4    -0.319719641072E+03    0.75333E-03   -0.17439E-02 63564   0.575E-01    0.291E-01
DAV:   5    -0.319718932345E+03    0.70873E-03   -0.11149E-02 63564   0.444E-01    0.217E-01
DAV:   6    -0.319718624867E+03    0.30748E-03   -0.63363E-03 62616   0.343E-01    0.138E-01
DAV:   7    -0.319718528455E+03    0.96413E-04   -0.28621E-03 68196   0.213E-01    0.106E-01
DAV:   8    -0.319718458594E+03    0.69860E-04   -0.12505E-03 53124   0.168E-01    0.758E-02
DAV:   9    -0.319718402230E+03    0.56365E-04   -0.25650E-04 31188   0.106E-01
   9 F= -.31971840E+03 E0= -.31971562E+03  d E =-.181829E-01
       N       E                     dE             d eps       ncg     rms          rms(c)
DAV:   1    -0.319730853759E+03   -0.12395E-01   -0.18444E+00 41664   0.530E+00    0.122E+00
DAV:   2    -0.319738797183E+03   -0.79434E-02   -0.25880E-01 72276   0.250E+00    0.101E+00
DAV:   3    -0.319745643371E+03   -0.68462E-02   -0.26627E-01 71640   0.233E+00    0.127E+00
DAV:   4    -0.319730802903E+03    0.14840E-01   -0.13652E-01 68916   0.174E+00    0.605E-01
DAV:   5    -0.319727625683E+03    0.31772E-02   -0.62223E-02 71496   0.991E-01    0.512E-01
DAV:   6    -0.319725944381E+03    0.16813E-02   -0.33850E-02 68736   0.802E-01    0.343E-01
DAV:   7    -0.319725208078E+03    0.73630E-03   -0.15100E-02 68388   0.505E-01    0.225E-01
DAV:   8    -0.319725034837E+03    0.17324E-03   -0.71242E-03 58428   0.362E-01    0.179E-01
DAV:   9    -0.319724837935E+03    0.19690E-03   -0.26861E-03 58416   0.247E-01    0.106E-01
DAV:  10    -0.319724792995E+03    0.44940E-04   -0.73038E-04 46728   0.120E-01
  10 F= -.31972479E+03 E0= -.31972199E+03  d E =-.639077E-02
       N       E                     dE             d eps       ncg     rms          rms(c)
DAV:   1    -0.319724833703E+03    0.42321E-05   -0.94040E-04 53556   0.119E-01    0.576E-02
DAV:   2    -0.319725011587E+03   -0.17788E-03   -0.14646E-03 57120   0.186E-01    0.128E-01
DAV:   3    -0.319724842163E+03    0.16942E-03   -0.11343E-03 51300   0.172E-01    0.424E-02
DAV:   4    -0.319724840169E+03    0.19947E-05   -0.11596E-04 26832   0.676E-02
  11 F= -.31972484E+03 E0= -.31972204E+03  d E =-.643794E-02
       N       E                     dE             d eps       ncg     rms          rms(c)
DAV:   1    -0.319726284542E+03   -0.14424E-02   -0.10977E-01 41508   0.968E-01    0.917E-02
DAV:   2    -0.319726796489E+03   -0.51195E-03   -0.61469E-03 69408   0.408E-01    0.124E-01
DAV:   3    -0.319726710883E+03    0.85606E-04   -0.23774E-03 58308   0.220E-01    0.905E-02
DAV:   4    -0.319726664164E+03    0.46719E-04   -0.79403E-04 47484   0.141E-01
  12 F= -.31972666E+03 E0= -.31972387E+03  d E =-.182399E-02
       N       E                     dE             d eps       ncg     rms          rms(c)
DAV:   1    -0.319726677496E+03    0.33386E-04   -0.98713E-01 41280   0.289E+00    0.264E-01
DAV:   2    -0.319730510159E+03   -0.38327E-02   -0.49799E-02 69456   0.116E+00    0.290E-01
DAV:   3    -0.319730160749E+03    0.34941E-03   -0.15797E-02 72072   0.534E-01    0.243E-01
DAV:   4    -0.319729825080E+03    0.33567E-03   -0.64100E-03 59856   0.390E-01    0.193E-01
DAV:   5    -0.319729467158E+03    0.35792E-03   -0.38964E-03 59724   0.275E-01    0.128E-01
DAV:   6    -0.319729525215E+03   -0.58057E-04   -0.27858E-03 58536   0.241E-01    0.148E-01
DAV:   7    -0.319729331288E+03    0.19393E-03   -0.20047E-03 56076   0.205E-01    0.784E-02
DAV:   8    -0.319729262938E+03    0.68350E-04   -0.68347E-04 45156   0.128E-01
  13 F= -.31972926E+03 E0= -.31972653E+03  d E =-.442277E-02
       N       E                     dE             d eps       ncg     rms          rms(c)
DAV:   1    -0.319731138389E+03   -0.18071E-02   -0.13079E-01 52920   0.150E+00    0.335E-01
DAV:   2    -0.319732156461E+03   -0.10181E-02   -0.25930E-02 74964   0.729E-01    0.354E-01
DAV:   3    -0.319731459072E+03    0.69739E-03   -0.25829E-02 72480   0.664E-01    0.329E-01
DAV:   4    -0.319730817827E+03    0.64125E-03   -0.12224E-02 58512   0.500E-01    0.224E-01
DAV:   5    -0.319730405399E+03    0.41243E-03   -0.63143E-03 60264   0.328E-01    0.151E-01
DAV:   6    -0.319730232260E+03    0.17314E-03   -0.32325E-03 59988   0.273E-01    0.108E-01
DAV:   7    -0.319730175042E+03    0.57218E-04   -0.16536E-03 58788   0.193E-01    0.794E-02
DAV:   8    -0.319730117665E+03    0.57377E-04   -0.60573E-04 41400   0.139E-01
  14 F= -.31973012E+03 E0= -.31972743E+03  d E =-.854727E-03
       N       E                     dE             d eps       ncg     rms          rms(c)
DAV:   1    -0.319730262203E+03   -0.87161E-04   -0.13644E-02 57252   0.493E-01    0.981E-02
DAV:   2    -0.319730446834E+03   -0.18463E-03   -0.29086E-03 71640   0.244E-01    0.131E-01
DAV:   3    -0.319730263049E+03    0.18378E-03   -0.25408E-03 62028   0.212E-01    0.841E-02
DAV:   4    -0.319730228861E+03    0.34188E-04   -0.85965E-04 46992   0.140E-01
  15 F= -.31973023E+03 E0= -.31972760E+03  d E =-.965923E-03
