<?xml version="1.0" encoding="ISO-8859-1"?>
<modeling>
 <generator>
  <i name="program" type="string">vasp </i>
  <i name="version" type="string">5.4.4.18Apr17-6-g9f103f2a35  </i>
  <i name="subversion" type="string">(build Aug 09 2018 16:20:53) complex            parallel </i>
  <i name="platform" type="string">LinuxIFC </i>
  <i name="date" type="string">2020 04 28 </i>
  <i name="time" type="string">21:59:01 </i>
 </generator>
 <incar>
  <i type="string" name="SYSTEM"> Nb - Mo - Ta - Ti - V SQS</i>
  <i type="string" name="PREC">normal</i>
  <i type="int" name="ICHARG">     0</i>
  <i type="int" name="IBRION">     2</i>
  <i type="int" name="NSW">    50</i>
  <i type="int" name="ISIF">     3</i>
  <i name="ENCUT">    600.00000000</i>
  <i type="string" name="LREAL"> Auto</i>
  <i type="int" name="ISMEAR">     1</i>
  <i name="SIGMA">      0.20000000</i>
  <v type="int" name="KPOINT_BSE">    -1     0     0     0</v>
  <i type="string" name="GGA"> PS</i>
 </incar>
 <structure name="primitive_cell" >
  <crystal>
   <varray name="basis" >
    <v>      -3.16000000      -3.16000000      -3.16000000 </v>
    <v>       1.58000000       1.58000000      -7.90000000 </v>
    <v>       7.90000000      -7.90000000      -1.58000000 </v>
   </varray>
   <i name="volume">    473.31744000 </i>
   <varray name="rec_basis" >
    <v>      -0.13713080      -0.12658228      -0.05274262 </v>
    <v>       0.04219409       0.06329114      -0.10548523 </v>
    <v>       0.06329114      -0.06329114       0.00000000 </v>
   </varray>
  </crystal>
  <varray name="positions" >
   <v>      -0.03333333      -0.06666667       0.40000000 </v>
   <v>       0.30000000      -0.40000000       0.40000000 </v>
   <v>      -0.10000000      -0.20000000       0.20000000 </v>
   <v>       0.06666667       0.13333333       0.20000000 </v>
   <v>       0.46666667      -0.06666667       0.40000000 </v>
   <v>      -0.13333333      -0.26666667      -0.40000000 </v>
   <v>       0.03333333       0.06666667      -0.40000000 </v>
   <v>      -0.36666667       0.26666667       0.40000000 </v>
   <v>       0.40000000      -0.20000000       0.20000000 </v>
   <v>      -0.20000000      -0.40000000       0.40000000 </v>
   <v>      -0.43333333       0.13333333       0.20000000 </v>
   <v>       0.36666667      -0.26666667      -0.40000000 </v>
   <v>       0.13333333       0.26666667       0.40000000 </v>
   <v>      -0.46666667       0.06666667      -0.40000000 </v>
   <v>       0.23333333       0.46666667       0.20000000 </v>
   <v>       0.20000000       0.40000000      -0.40000000 </v>
   <v>       0.00000000       0.00000000       0.00000000 </v>
   <v>      -0.06666667      -0.13333333      -0.20000000 </v>
   <v>      -0.30000000       0.40000000      -0.40000000 </v>
   <v>      -0.26666667       0.46666667       0.20000000 </v>
   <v>       0.33333333      -0.33333333       0.00000000 </v>
   <v>       0.43333333      -0.13333333      -0.20000000 </v>
   <v>      -0.50000000       0.00000000       0.00000000 </v>
   <v>       0.26666667      -0.46666667      -0.20000000 </v>
   <v>      -0.33333333       0.33333333       0.00000000 </v>
   <v>      -0.40000000       0.20000000      -0.20000000 </v>
   <v>      -0.16666667      -0.33333333       0.00000000 </v>
   <v>      -0.23333333      -0.46666667      -0.20000000 </v>
   <v>       0.16666667       0.33333333       0.00000000 </v>
   <v>       0.10000000       0.20000000      -0.20000000 </v>
  </varray>
 </structure>
 <varray name="primitive_index" >
  <v type="int" >        1 </v>
  <v type="int" >       18 </v>
  <v type="int" >        7 </v>
  <v type="int" >       24 </v>
  <v type="int" >       20 </v>
  <v type="int" >       19 </v>
  <v type="int" >        6 </v>
  <v type="int" >        2 </v>
  <v type="int" >       16 </v>
  <v type="int" >        8 </v>
  <v type="int" >       15 </v>
  <v type="int" >       11 </v>
  <v type="int" >       12 </v>
  <v type="int" >       28 </v>
  <v type="int" >       30 </v>
  <v type="int" >       23 </v>
  <v type="int" >        4 </v>
  <v type="int" >       14 </v>
  <v type="int" >       26 </v>
  <v type="int" >        9 </v>
  <v type="int" >       29 </v>
  <v type="int" >       17 </v>
  <v type="int" >        3 </v>
  <v type="int" >       22 </v>
  <v type="int" >       10 </v>
  <v type="int" >       27 </v>
  <v type="int" >       13 </v>
  <v type="int" >       25 </v>
  <v type="int" >       21 </v>
  <v type="int" >        5 </v>
 </varray>
 <kpoints>
  <generation param="Gamma">
   <v type="int" name="divisions">       7        7        7 </v>
   <v name="usershift">      0.00000000       0.00000000       0.00000000 </v>
   <v name="genvec1">      0.14285714       0.00000000       0.00000000 </v>
   <v name="genvec2">     -0.00000000       0.14285714       0.00000000 </v>
   <v name="genvec3">      0.00000000       0.00000000       0.14285714 </v>
   <v name="shift">      0.00000000       0.00000000       0.00000000 </v>
  </generation>
  <varray name="kpointlist" >
   <v>       0.00000000       0.00000000       0.00000000 </v>
   <v>       0.14285714       0.00000000      -0.00000000 </v>
   <v>       0.28571429       0.00000000       0.00000000 </v>
   <v>       0.42857143       0.00000000      -0.00000000 </v>
   <v>      -0.00000000       0.14285714       0.00000000 </v>
   <v>       0.14285714       0.14285714      -0.00000000 </v>
   <v>       0.28571429       0.14285714       0.00000000 </v>
   <v>       0.42857143       0.14285714      -0.00000000 </v>
   <v>      -0.42857143       0.14285714       0.00000000 </v>
   <v>      -0.28571429       0.14285714       0.00000000 </v>
   <v>      -0.14285714       0.14285714       0.00000000 </v>
   <v>       0.00000000       0.28571429      -0.00000000 </v>
   <v>       0.14285714       0.28571429      -0.00000000 </v>
   <v>       0.28571429       0.28571429      -0.00000000 </v>
   <v>       0.42857143       0.28571429      -0.00000000 </v>
   <v>      -0.42857143       0.28571429      -0.00000000 </v>
   <v>      -0.28571429       0.28571429      -0.00000000 </v>
   <v>      -0.14285714       0.28571429      -0.00000000 </v>
   <v>      -0.00000000       0.42857143      -0.00000000 </v>
   <v>       0.14285714       0.42857143       0.00000000 </v>
   <v>       0.28571429       0.42857143       0.00000000 </v>
   <v>       0.42857143       0.42857143      -0.00000000 </v>
   <v>      -0.42857143       0.42857143       0.00000000 </v>
   <v>      -0.28571429       0.42857143      -0.00000000 </v>
   <v>      -0.14285714       0.42857143      -0.00000000 </v>
   <v>       0.00000000       0.00000000       0.14285714 </v>
   <v>       0.14285714       0.00000000       0.14285714 </v>
   <v>       0.28571429       0.00000000       0.14285714 </v>
   <v>       0.42857143       0.00000000       0.14285714 </v>
   <v>      -0.42857143       0.00000000       0.14285714 </v>
   <v>      -0.28571429       0.00000000       0.14285714 </v>
   <v>      -0.14285714      -0.00000000       0.14285714 </v>
   <v>      -0.00000000       0.14285714       0.14285714 </v>
   <v>       0.14285714       0.14285714       0.14285714 </v>
   <v>       0.28571429       0.14285714       0.14285714 </v>
   <v>       0.42857143       0.14285714       0.14285714 </v>
   <v>      -0.42857143       0.14285714       0.14285714 </v>
   <v>      -0.28571429       0.14285714       0.14285714 </v>
   <v>      -0.14285714       0.14285714       0.14285714 </v>
   <v>      -0.00000000       0.28571429       0.14285714 </v>
   <v>       0.14285714       0.28571429       0.14285714 </v>
   <v>       0.28571429       0.28571429       0.14285714 </v>
   <v>       0.42857143       0.28571429       0.14285714 </v>
   <v>      -0.42857143       0.28571429       0.14285714 </v>
   <v>      -0.28571429       0.28571429       0.14285714 </v>
   <v>      -0.14285714       0.28571429       0.14285714 </v>
   <v>       0.00000000       0.42857143       0.14285714 </v>
   <v>       0.14285714       0.42857143       0.14285714 </v>
   <v>       0.28571429       0.42857143       0.14285714 </v>
   <v>       0.42857143       0.42857143       0.14285714 </v>
   <v>      -0.42857143       0.42857143       0.14285714 </v>
   <v>      -0.28571429       0.42857143       0.14285714 </v>
   <v>      -0.14285714       0.42857143       0.14285714 </v>
   <v>       0.00000000      -0.42857143       0.14285714 </v>
   <v>       0.14285714      -0.42857143       0.14285714 </v>
   <v>       0.28571429      -0.42857143       0.14285714 </v>
   <v>       0.42857143      -0.42857143       0.14285714 </v>
   <v>      -0.42857143      -0.42857143       0.14285714 </v>
   <v>      -0.28571429      -0.42857143       0.14285714 </v>
   <v>      -0.14285714      -0.42857143       0.14285714 </v>
   <v>       0.00000000      -0.28571429       0.14285714 </v>
   <v>       0.14285714      -0.28571429       0.14285714 </v>
   <v>       0.28571429      -0.28571429       0.14285714 </v>
   <v>       0.42857143      -0.28571429       0.14285714 </v>
   <v>      -0.42857143      -0.28571429       0.14285714 </v>
   <v>      -0.28571429      -0.28571429       0.14285714 </v>
   <v>      -0.14285714      -0.28571429       0.14285714 </v>
   <v>       0.00000000      -0.14285714       0.14285714 </v>
   <v>       0.14285714      -0.14285714       0.14285714 </v>
   <v>       0.28571429      -0.14285714       0.14285714 </v>
   <v>       0.42857143      -0.14285714       0.14285714 </v>
   <v>      -0.42857143      -0.14285714       0.14285714 </v>
   <v>      -0.28571429      -0.14285714       0.14285714 </v>
   <v>      -0.14285714      -0.14285714       0.14285714 </v>
   <v>       0.00000000       0.00000000       0.28571429 </v>
   <v>       0.14285714       0.00000000       0.28571429 </v>
   <v>       0.28571429       0.00000000       0.28571429 </v>
   <v>       0.42857143       0.00000000       0.28571429 </v>
   <v>      -0.42857143      -0.00000000       0.28571429 </v>
   <v>      -0.28571429      -0.00000000       0.28571429 </v>
   <v>      -0.14285714      -0.00000000       0.28571429 </v>
   <v>      -0.00000000       0.14285714       0.28571429 </v>
   <v>       0.14285714       0.14285714       0.28571429 </v>
   <v>       0.28571429       0.14285714       0.28571429 </v>
   <v>       0.42857143       0.14285714       0.28571429 </v>
   <v>      -0.42857143       0.14285714       0.28571429 </v>
   <v>      -0.28571429       0.14285714       0.28571429 </v>
   <v>      -0.14285714       0.14285714       0.28571429 </v>
   <v>      -0.00000000       0.28571429       0.28571429 </v>
   <v>       0.14285714       0.28571429       0.28571429 </v>
   <v>       0.28571429       0.28571429       0.28571429 </v>
   <v>       0.42857143       0.28571429       0.28571429 </v>
   <v>      -0.42857143       0.28571429       0.28571429 </v>
   <v>      -0.28571429       0.28571429       0.28571429 </v>
   <v>      -0.14285714       0.28571429       0.28571429 </v>
   <v>       0.00000000       0.42857143       0.28571429 </v>
   <v>       0.14285714       0.42857143       0.28571429 </v>
   <v>       0.28571429       0.42857143       0.28571429 </v>
   <v>       0.42857143       0.42857143       0.28571429 </v>
   <v>      -0.42857143       0.42857143       0.28571429 </v>
   <v>      -0.28571429       0.42857143       0.28571429 </v>
   <v>      -0.14285714       0.42857143       0.28571429 </v>
   <v>      -0.00000000      -0.42857143       0.28571429 </v>
   <v>       0.14285714      -0.42857143       0.28571429 </v>
   <v>       0.28571429      -0.42857143       0.28571429 </v>
   <v>       0.42857143      -0.42857143       0.28571429 </v>
   <v>      -0.42857143      -0.42857143       0.28571429 </v>
   <v>      -0.28571429      -0.42857143       0.28571429 </v>
   <v>      -0.14285714      -0.42857143       0.28571429 </v>
   <v>       0.00000000      -0.28571429       0.28571429 </v>
   <v>       0.14285714      -0.28571429       0.28571429 </v>
   <v>       0.28571429      -0.28571429       0.28571429 </v>
   <v>       0.42857143      -0.28571429       0.28571429 </v>
   <v>      -0.42857143      -0.28571429       0.28571429 </v>
   <v>      -0.28571429      -0.28571429       0.28571429 </v>
   <v>      -0.14285714      -0.28571429       0.28571429 </v>
   <v>       0.00000000      -0.14285714       0.28571429 </v>
   <v>       0.14285714      -0.14285714       0.28571429 </v>
   <v>       0.28571429      -0.14285714       0.28571429 </v>
   <v>       0.42857143      -0.14285714       0.28571429 </v>
   <v>      -0.42857143      -0.14285714       0.28571429 </v>
   <v>      -0.28571429      -0.14285714       0.28571429 </v>
   <v>      -0.14285714      -0.14285714       0.28571429 </v>
   <v>       0.00000000       0.00000000       0.42857143 </v>
   <v>       0.14285714       0.00000000       0.42857143 </v>
   <v>       0.28571429       0.00000000       0.42857143 </v>
   <v>       0.42857143      -0.00000000       0.42857143 </v>
   <v>      -0.42857143      -0.00000000       0.42857143 </v>
   <v>      -0.28571429       0.00000000       0.42857143 </v>
   <v>      -0.14285714      -0.00000000       0.42857143 </v>
   <v>      -0.00000000       0.14285714       0.42857143 </v>
   <v>       0.14285714       0.14285714       0.42857143 </v>
   <v>       0.28571429       0.14285714       0.42857143 </v>
   <v>       0.42857143       0.14285714       0.42857143 </v>
   <v>      -0.42857143       0.14285714       0.42857143 </v>
   <v>      -0.28571429       0.14285714       0.42857143 </v>
   <v>      -0.14285714       0.14285714       0.42857143 </v>
   <v>       0.00000000       0.28571429       0.42857143 </v>
   <v>       0.14285714       0.28571429       0.42857143 </v>
   <v>       0.28571429       0.28571429       0.42857143 </v>
   <v>       0.42857143       0.28571429       0.42857143 </v>
   <v>      -0.42857143       0.28571429       0.42857143 </v>
   <v>      -0.28571429       0.28571429       0.42857143 </v>
   <v>      -0.14285714       0.28571429       0.42857143 </v>
   <v>       0.00000000       0.42857143       0.42857143 </v>
   <v>       0.14285714       0.42857143       0.42857143 </v>
   <v>       0.28571429       0.42857143       0.42857143 </v>
   <v>       0.42857143       0.42857143       0.42857143 </v>
   <v>      -0.42857143       0.42857143       0.42857143 </v>
   <v>      -0.28571429       0.42857143       0.42857143 </v>
   <v>      -0.14285714       0.42857143       0.42857143 </v>
   <v>       0.00000000      -0.42857143       0.42857143 </v>
   <v>       0.14285714      -0.42857143       0.42857143 </v>
   <v>       0.28571429      -0.42857143       0.42857143 </v>
   <v>       0.42857143      -0.42857143       0.42857143 </v>
   <v>      -0.42857143      -0.42857143       0.42857143 </v>
   <v>      -0.28571429      -0.42857143       0.42857143 </v>
   <v>      -0.14285714      -0.42857143       0.42857143 </v>
   <v>      -0.00000000      -0.28571429       0.42857143 </v>
   <v>       0.14285714      -0.28571429       0.42857143 </v>
   <v>       0.28571429      -0.28571429       0.42857143 </v>
   <v>       0.42857143      -0.28571429       0.42857143 </v>
   <v>      -0.42857143      -0.28571429       0.42857143 </v>
   <v>      -0.28571429      -0.28571429       0.42857143 </v>
   <v>      -0.14285714      -0.28571429       0.42857143 </v>
   <v>       0.00000000      -0.14285714       0.42857143 </v>
   <v>       0.14285714      -0.14285714       0.42857143 </v>
   <v>       0.28571429      -0.14285714       0.42857143 </v>
   <v>       0.42857143      -0.14285714       0.42857143 </v>
   <v>      -0.42857143      -0.14285714       0.42857143 </v>
   <v>      -0.28571429      -0.14285714       0.42857143 </v>
   <v>      -0.14285714      -0.14285714       0.42857143 </v>
  </varray>
  <varray name="weights" >
   <v>       0.00291545 </v>
   <v>       0.00583090 </v>
   <v>       0.00583090 </v>
   <v>       0.00583090 </v>
   <v>       0.00583090 </v>
   <v>       0.00583090 </v>
   <v>       0.00583090 </v>
   <v>       0.00583090 </v>
   <v>       0.00583090 </v>
   <v>       0.00583090 </v>
   <v>       0.00583090 </v>
   <v>       0.00583090 </v>
   <v>       0.00583090 </v>
   <v>       0.00583090 </v>
   <v>       0.00583090 </v>
   <v>       0.00583090 </v>
   <v>       0.00583090 </v>
   <v>       0.00583090 </v>
   <v>       0.00583090 </v>
   <v>       0.00583090 </v>
   <v>       0.00583090 </v>
   <v>       0.00583090 </v>
   <v>       0.00583090 </v>
   <v>       0.00583090 </v>
   <v>       0.00583090 </v>
   <v>       0.00583090 </v>
   <v>       0.00583090 </v>
   <v>       0.00583090 </v>
   <v>       0.00583090 </v>
   <v>       0.00583090 </v>
   <v>       0.00583090 </v>
   <v>       0.00583090 </v>
   <v>       0.00583090 </v>
   <v>       0.00583090 </v>
   <v>       0.00583090 </v>
   <v>       0.00583090 </v>
   <v>       0.00583090 </v>
   <v>       0.00583090 </v>
   <v>       0.00583090 </v>
   <v>       0.00583090 </v>
   <v>       0.00583090 </v>
   <v>       0.00583090 </v>
   <v>       0.00583090 </v>
   <v>       0.00583090 </v>
   <v>       0.00583090 </v>
   <v>       0.00583090 </v>
   <v>       0.00583090 </v>
   <v>       0.00583090 </v>
   <v>       0.00583090 </v>
   <v>       0.00583090 </v>
   <v>       0.00583090 </v>
   <v>       0.00583090 </v>
   <v>       0.00583090 </v>
   <v>       0.00583090 </v>
   <v>       0.00583090 </v>
   <v>       0.00583090 </v>
   <v>       0.00583090 </v>
   <v>       0.00583090 </v>
   <v>       0.00583090 </v>
   <v>       0.00583090 </v>
   <v>       0.00583090 </v>
   <v>       0.00583090 </v>
   <v>       0.00583090 </v>
   <v>       0.00583090 </v>
   <v>       0.00583090 </v>
   <v>       0.00583090 </v>
   <v>       0.00583090 </v>
   <v>       0.00583090 </v>
   <v>       0.00583090 </v>
   <v>       0.00583090 </v>
   <v>       0.00583090 </v>
   <v>       0.00583090 </v>
   <v>       0.00583090 </v>
   <v>       0.00583090 </v>
   <v>       0.00583090 </v>
   <v>       0.00583090 </v>
   <v>       0.00583090 </v>
   <v>       0.00583090 </v>
   <v>       0.00583090 </v>
   <v>       0.00583090 </v>
   <v>       0.00583090 </v>
   <v>       0.00583090 </v>
   <v>       0.00583090 </v>
   <v>       0.00583090 </v>
   <v>       0.00583090 </v>
   <v>       0.00583090 </v>
   <v>       0.00583090 </v>
   <v>       0.00583090 </v>
   <v>       0.00583090 </v>
   <v>       0.00583090 </v>
   <v>       0.00583090 </v>
   <v>       0.00583090 </v>
   <v>       0.00583090 </v>
   <v>       0.00583090 </v>
   <v>       0.00583090 </v>
   <v>       0.00583090 </v>
   <v>       0.00583090 </v>
   <v>       0.00583090 </v>
   <v>       0.00583090 </v>
   <v>       0.00583090 </v>
   <v>       0.00583090 </v>
   <v>       0.00583090 </v>
   <v>       0.00583090 </v>
   <v>       0.00583090 </v>
   <v>       0.00583090 </v>
   <v>       0.00583090 </v>
   <v>       0.00583090 </v>
   <v>       0.00583090 </v>
   <v>       0.00583090 </v>
   <v>       0.00583090 </v>
   <v>       0.00583090 </v>
   <v>       0.00583090 </v>
   <v>       0.00583090 </v>
   <v>       0.00583090 </v>
   <v>       0.00583090 </v>
   <v>       0.00583090 </v>
   <v>       0.00583090 </v>
   <v>       0.00583090 </v>
   <v>       0.00583090 </v>
   <v>       0.00583090 </v>
   <v>       0.00583090 </v>
   <v>       0.00583090 </v>
   <v>       0.00583090 </v>
   <v>       0.00583090 </v>
   <v>       0.00583090 </v>
   <v>       0.00583090 </v>
   <v>       0.00583090 </v>
   <v>       0.00583090 </v>
   <v>       0.00583090 </v>
   <v>       0.00583090 </v>
   <v>       0.00583090 </v>
   <v>       0.00583090 </v>
   <v>       0.00583090 </v>
   <v>       0.00583090 </v>
   <v>       0.00583090 </v>
   <v>       0.00583090 </v>
   <v>       0.00583090 </v>
   <v>       0.00583090 </v>
   <v>       0.00583090 </v>
   <v>       0.00583090 </v>
   <v>       0.00583090 </v>
   <v>       0.00583090 </v>
   <v>       0.00583090 </v>
   <v>       0.00583090 </v>
   <v>       0.00583090 </v>
   <v>       0.00583090 </v>
   <v>       0.00583090 </v>
   <v>       0.00583090 </v>
   <v>       0.00583090 </v>
   <v>       0.00583090 </v>
   <v>       0.00583090 </v>
   <v>       0.00583090 </v>
   <v>       0.00583090 </v>
   <v>       0.00583090 </v>
   <v>       0.00583090 </v>
   <v>       0.00583090 </v>
   <v>       0.00583090 </v>
   <v>       0.00583090 </v>
   <v>       0.00583090 </v>
   <v>       0.00583090 </v>
   <v>       0.00583090 </v>
   <v>       0.00583090 </v>
   <v>       0.00583090 </v>
   <v>       0.00583090 </v>
   <v>       0.00583090 </v>
   <v>       0.00583090 </v>
   <v>       0.00583090 </v>
   <v>       0.00583090 </v>
   <v>       0.00583090 </v>
   <v>       0.00583090 </v>
   <v>       0.00583090 </v>
   <v>       0.00583090 </v>
  </varray>
 </kpoints>
 <parameters>
  <separator name="general" >
   <i type="string" name="SYSTEM">Nb - Mo - Ta - Ti - V SQS</i>
   <i type="logical" name="LCOMPAT"> F  </i>
  </separator>
  <separator name="electronic" >
   <i type="string" name="PREC">normal</i>
   <i name="ENMAX">    600.00000000</i>
   <i name="ENAUG">    455.65900000</i>
   <i name="EDIFF">      0.00010000</i>
   <i type="int" name="IALGO">    38</i>
   <i type="int" name="IWAVPR">    11</i>
   <i type="int" name="NBANDS">   120</i>
   <i name="NELECT">    198.00000000</i>
   <i type="int" name="TURBO">     0</i>
   <i type="int" name="IRESTART">     0</i>
   <i type="int" name="NREBOOT">     0</i>
   <i type="int" name="NMIN">     0</i>
   <i name="EREF">      0.00000000</i>
   <separator name="electronic smearing" >
    <i type="int" name="ISMEAR">     1</i>
    <i name="SIGMA">      0.20000000</i>
    <i name="KSPACING">      0.50000000</i>
    <i type="logical" name="KGAMMA"> T  </i>
   </separator>
   <separator name="electronic projectors" >
    <i type="logical" name="LREAL"> T  </i>
    <v name="ROPT">     -0.00050000     -0.00050000     -0.00050000     -0.00050000     -0.00050000</v>
    <i type="int" name="LMAXPAW">  -100</i>
    <i type="int" name="LMAXMIX">     2</i>
    <i type="logical" name="NLSPLINE"> F  </i>
   </separator>
   <separator name="electronic startup" >
    <i type="int" name="ISTART">     0</i>
    <i type="int" name="ICHARG">     2</i>
    <i type="int" name="INIWAV">     1</i>
   </separator>
   <separator name="electronic spin" >
    <i type="int" name="ISPIN">     1</i>
    <i type="logical" name="LNONCOLLINEAR"> F  </i>
    <v name="MAGMOM">      1.00000000      1.00000000      1.00000000      1.00000000      1.00000000      1.00000000      1.00000000      1.00000000      1.00000000      1.00000000      1.00000000      1.00000000      1.00000000      1.00000000      1.00000000      1.00000000      1.00000000      1.00000000      1.00000000      1.00000000
      1.00000000      1.00000000      1.00000000      1.00000000      1.00000000      1.00000000      1.00000000      1.00000000      1.00000000      1.00000000</v>
    <i name="NUPDOWN">     -1.00000000</i>
    <i type="logical" name="LSORBIT"> F  </i>
    <v name="SAXIS">      0.00000000      0.00000000      1.00000000</v>
    <i type="logical" name="LSPIRAL"> F  </i>
    <v name="QSPIRAL">      0.00000000      0.00000000      0.00000000</v>
    <i type="logical" name="LZEROZ"> F  </i>
   </separator>
   <separator name="electronic exchange-correlation" >
    <i type="logical" name="LASPH"> F  </i>
    <i type="logical" name="LMETAGGA"> F  </i>
   </separator>
   <separator name="electronic convergence" >
    <i type="int" name="NELM">    60</i>
    <i type="int" name="NELMDL">     0</i>
    <i type="int" name="NELMIN">     2</i>
    <i name="ENINI">    600.00000000</i>
    <separator name="electronic convergence detail" >
     <i type="logical" name="LDIAG"> T  </i>
     <i type="logical" name="LSUBROT"> F  </i>
     <i name="WEIMIN">      0.00100000</i>
     <i name="EBREAK">      0.00000021</i>
     <i name="DEPER">      0.30000000</i>
     <i type="int" name="NRMM">     4</i>
     <i name="TIME">      0.40000000</i>
    </separator>
   </separator>
   <separator name="electronic mixer" >
    <i name="AMIX">      0.40000000</i>
    <i name="BMIX">      1.00000000</i>
    <i name="AMIN">      0.10000000</i>
    <i name="AMIX_MAG">      1.60000000</i>
    <i name="BMIX_MAG">      1.00000000</i>
    <separator name="electronic mixer details" >
     <i type="int" name="IMIX">     4</i>
     <i type="logical" name="MIXFIRST"> F  </i>
     <i type="int" name="MAXMIX">   -45</i>
     <i name="WC">    100.00000000</i>
     <i type="int" name="INIMIX">     1</i>
     <i type="int" name="MIXPRE">     1</i>
     <i type="int" name="MREMOVE">     5</i>
    </separator>
   </separator>
   <separator name="electronic dipolcorrection" >
    <i type="logical" name="LDIPOL"> F  </i>
    <i type="logical" name="LMONO"> F  </i>
    <i type="int" name="IDIPOL">     0</i>
    <i name="EPSILON">      1.00000000</i>
    <v name="DIPOL">   -100.00000000   -100.00000000   -100.00000000</v>
    <i name="EFIELD">      0.00000000</i>
   </separator>
  </separator>
  <separator name="grids" >
   <i type="int" name="NGX">    36</i>
   <i type="int" name="NGY">    50</i>
   <i type="int" name="NGZ">    70</i>
   <i type="int" name="NGXF">    72</i>
   <i type="int" name="NGYF">   100</i>
   <i type="int" name="NGZF">   140</i>
   <i type="logical" name="ADDGRID"> F  </i>
  </separator>
  <separator name="ionic" >
   <i type="int" name="NSW">    50</i>
   <i type="int" name="IBRION">     2</i>
   <i type="int" name="MDALGO">     0</i>
   <i type="int" name="ISIF">     3</i>
   <i name="PSTRESS">      0.00000000</i>
   <i name="EDIFFG">      0.00100000</i>
   <i type="int" name="NFREE">     1</i>
   <i name="POTIM">      0.50000000</i>
   <i name="SMASS">     -3.00000000</i>
   <i name="SCALEE">      1.00000000</i>
  </separator>
  <separator name="ionic md" >
   <i name="TEBEG">      0.00010000</i>
   <i name="TEEND">      0.00010000</i>
   <i type="int" name="NBLOCK">     1</i>
   <i type="int" name="KBLOCK">    50</i>
   <i type="int" name="NPACO">   256</i>
   <i name="APACO">     16.00000000</i>
  </separator>
  <separator name="symmetry" >
   <i type="int" name="ISYM">     2</i>
   <i name="SYMPREC">      0.00001000</i>
  </separator>
  <separator name="dos" >
   <i type="int" name="LORBIT">     0</i>
   <v name="RWIGS">     -1.00000000     -1.00000000     -1.00000000     -1.00000000     -1.00000000</v>
   <i type="int" name="NEDOS">   301</i>
   <i name="EMIN">     10.00000000</i>
   <i name="EMAX">    -10.00000000</i>
   <i name="EFERMI">      0.00000000</i>
  </separator>
  <separator name="writing" >
   <i type="int" name="NWRITE">     2</i>
   <i type="logical" name="LWAVE"> T  </i>
   <i type="logical" name="LDOWNSAMPLE"> F  </i>
   <i type="logical" name="LCHARG"> T  </i>
   <i type="logical" name="LPARD"> F  </i>
   <i type="logical" name="LVTOT"> F  </i>
   <i type="logical" name="LVHAR"> F  </i>
   <i type="logical" name="LELF"> F  </i>
   <i type="logical" name="LOPTICS"> F  </i>
   <v name="STM">      0.00000000      0.00000000      0.00000000      0.00000000      0.00000000      0.00000000      0.00000000</v>
  </separator>
  <separator name="performance" >
   <i type="int" name="NPAR">    12</i>
   <i type="int" name="NSIM">     4</i>
   <i type="int" name="NBLK">    -1</i>
   <i type="logical" name="LPLANE"> T  </i>
   <i type="logical" name="LSCALAPACK"> T  </i>
   <i type="logical" name="LSCAAWARE"> F  </i>
   <i type="logical" name="LSCALU"> F  </i>
   <i type="logical" name="LASYNC"> F  </i>
   <i type="logical" name="LORBITALREAL"> F  </i>
  </separator>
  <separator name="miscellaneous" >
   <i type="int" name="IDIOT">     3</i>
   <i type="int" name="ISPECIAL">     0</i>
   <i type="logical" name="LMUSIC"> F  </i>
   <v name="POMASS">     92.91000000     95.94000000    180.94800000     47.88000000     50.94100000</v>
   <v name="DARWINR">      0.00000000      0.00000000      0.00000000      0.00000000      0.00000000</v>
   <v name="DARWINV">      1.00000000      1.00000000      1.00000000      1.00000000      1.00000000</v>
   <i type="logical" name="LCORR"> T  </i>
  </separator>
  <i type="logical" name="GGA_COMPAT"> T  </i>
  <i type="logical" name="LBERRY"> F  </i>
  <i type="int" name="ICORELEVEL">     0</i>
  <i type="logical" name="LDAU"> F  </i>
  <i type="int" name="I_CONSTRAINED_M">     0</i>
  <separator name="electronic exchange-correlation" >
   <i type="string" name="GGA">PS</i>
   <i type="int" name="VOSKOWN">     0</i>
   <i type="logical" name="LHFCALC"> F  </i>
   <i type="string" name="PRECFOCK"></i>
   <i type="logical" name="LSYMGRAD"> F  </i>
   <i type="logical" name="LHFONE"> F  </i>
   <i type="logical" name="LRHFCALC"> F  </i>
   <i type="logical" name="LTHOMAS"> F  </i>
   <i type="logical" name="LMODELHF"> F  </i>
   <i name="ENCUT4O">     -1.00000000</i>
   <i type="int" name="EXXOEP">     0</i>
   <i type="int" name="FOURORBIT">     0</i>
   <i name="AEXX">      0.00000000</i>
   <i name="HFALPHA">      0.00000000</i>
   <i name="MCALPHA">      0.00000000</i>
   <i name="ALDAX">      1.00000000</i>
   <i name="AGGAX">      1.00000000</i>
   <i name="ALDAC">      1.00000000</i>
   <i name="AGGAC">      1.00000000</i>
   <i type="int" name="NKREDX">     1</i>
   <i type="int" name="NKREDY">     1</i>
   <i type="int" name="NKREDZ">     1</i>
   <i type="logical" name="SHIFTRED"> F  </i>
   <i type="logical" name="ODDONLY"> F  </i>
   <i type="logical" name="EVENONLY"> F  </i>
   <i type="int" name="LMAXFOCK">     0</i>
   <i type="int" name="NMAXFOCKAE">     0</i>
   <i type="logical" name="LFOCKAEDFT"> F  </i>
   <i name="HFSCREEN">      0.00000000</i>
   <i name="HFSCREENC">      0.00000000</i>
   <i type="int" name="NBANDSGWLOW">     0</i>
  </separator>
  <separator name="vdW DFT" >
   <i type="logical" name="LUSE_VDW"> F  </i>
   <i name="Zab_VDW">     -0.84910000</i>
   <i name="PARAM1">      0.12340000</i>
   <i name="PARAM2">      1.00000000</i>
   <i name="PARAM3">      0.00000000</i>
  </separator>
  <separator name="model GW" >
   <i type="int" name="MODEL_GW">     0</i>
   <i name="MODEL_EPS0">      9.46634880</i>
   <i name="MODEL_ALPHA">      1.00000000</i>
  </separator>
  <separator name="linear response parameters" >
   <i type="logical" name="LEPSILON"> F  </i>
   <i type="logical" name="LRPA"> F  </i>
   <i type="logical" name="LNABLA"> F  </i>
   <i type="logical" name="LVEL"> F  </i>
   <i type="int" name="KINTER">     0</i>
   <i name="CSHIFT">      0.10000000</i>
   <i name="OMEGAMAX">     -1.00000000</i>
   <i name="DEG_THRESHOLD">      0.00200000</i>
   <i name="RTIME">     -0.10000000</i>
   <i name="WPLASMAI">      0.00000000</i>
   <v name="DFIELD">      0.00000000      0.00000000      0.00000000</v>
   <v name="WPLASMA">      0.00000000      0.00000000      0.00000000      0.00000000      0.00000000      0.00000000      0.00000000      0.00000000      0.00000000</v>
  </separator>
  <separator name="orbital magnetization" >
   <i type="logical" name="NUCIND"> F  </i>
   <v name="MAGPOS">      0.00000000      0.00000000      0.00000000</v>
   <i type="logical" name="LNICSALL"> T  </i>
   <i type="logical" name="ORBITALMAG"> F  </i>
   <i type="logical" name="LMAGBLOCH"> F  </i>
   <i type="logical" name="LCHIMAG"> F  </i>
   <i type="logical" name="LGAUGE"> T  </i>
   <i type="int" name="MAGATOM">     0</i>
   <v name="MAGDIPOL">      0.00000000      0.00000000      0.00000000</v>
   <v name="AVECCONST">      0.00000000      0.00000000      0.00000000</v>
  </separator>
  <separator name="response functions" >
   <i type="logical" name="LADDER"> F  </i>
   <i type="logical" name="LRPAFORCE"> F  </i>
   <i type="logical" name="LFXC"> F  </i>
   <i type="logical" name="LHARTREE"> T  </i>
   <i type="int" name="IBSE">     0</i>
   <v type="int" name="KPOINT">    -1     0     0     0</v>
   <i type="logical" name="LTCTE"> F  </i>
   <i type="logical" name="LTETE"> F  </i>
   <i type="logical" name="LTRIPLET"> F  </i>
   <i type="logical" name="LFXCEPS"> F  </i>
   <i type="logical" name="LFXHEG"> F  </i>
   <i type="int" name="NATURALO">     2</i>
   <i type="logical" name="L2ORDER"> F  </i>
   <i type="logical" name="LMP2LT"> F  </i>
   <i type="logical" name="LUSEW"> F  </i>
   <i name="ENCUTGW">     -2.00000000</i>
   <i name="ENCUTGWSOFT">     -2.00000000</i>
   <i name="ENCUTLF">     -1.00000000</i>
   <i type="int" name="LMAXMP2">    -1</i>
   <i name="SCISSOR">      0.00000000</i>
   <i type="int" name="NOMEGA">     0</i>
   <i type="int" name="NOMEGAR">     0</i>
   <i type="int" name="NBANDSGW">    -1</i>
   <i type="int" name="NBANDSO">    -1</i>
   <i type="int" name="NBANDSV">    -1</i>
   <i type="int" name="NELM">     1</i>
   <i type="int" name="NELMHF">     1</i>
   <i type="int" name="DIM">     3</i>
   <i type="int" name="ANTIRES">     0</i>
   <i name="OMEGAMAX">    -30.00000000</i>
   <i name="OMEGAMIN">    -30.00000000</i>
   <i name="OMEGATL">   -200.00000000</i>
   <i type="int" name="OMEGAGRID">   140</i>
   <i name="CSHIFT">     -0.10000000</i>
   <i type="logical" name="SELFENERGY"> F  </i>
   <i type="logical" name="LSPECTRAL"> F  </i>
   <i type="logical" name="LSPECTRALGW"> F  </i>
   <i type="logical" name="LSINGLES"> F  </i>
   <i type="logical" name="LFERMIGW"> F  </i>
   <i type="logical" name="ODDONLYGW"> F  </i>
   <i type="logical" name="EVENONLYGW"> F  </i>
   <i type="int" name="NKREDLFX">     1</i>
   <i type="int" name="NKREDLFY">     1</i>
   <i type="int" name="NKREDLFZ">     1</i>
   <i type="int" name="MAXMEM">  2800</i>
   <i type="int" name="TELESCOPE">     0</i>
   <i type="int" name="TAUPAR">     1</i>
   <i type="int" name="OMEGAPAR">    -1</i>
   <i name="LAMBDA">      1.00000000</i>
  </separator>
  <separator name="External order field" >
   <i name="OFIELD_KAPPA">      0.00000000</i>
   <v name="OFIELD_K">      0.00000000      0.00000000      0.00000000</v>
   <i name="OFIELD_Q6_NEAR">      0.00000000</i>
   <i name="OFIELD_Q6_FAR">      0.00000000</i>
   <i name="OFIELD_A">      0.00000000</i>
  </separator>
  <separator name="solvation model" >
   <i type="logical" name="LSOL"> F  </i>
  </separator>
 </parameters>
 <atominfo>
  <atoms>      30 </atoms>
  <types>       5 </types>
  <array name="atoms" >
   <dimension dim="1">ion</dimension>
   <field type="string">element</field>
   <field type="int">atomtype</field>
   <set>
    <rc><c>Nb</c><c>   1</c></rc>
    <rc><c>Nb</c><c>   1</c></rc>
    <rc><c>Nb</c><c>   1</c></rc>
    <rc><c>Nb</c><c>   1</c></rc>
    <rc><c>Nb</c><c>   1</c></rc>
    <rc><c>Nb</c><c>   1</c></rc>
    <rc><c>Mo</c><c>   2</c></rc>
    <rc><c>Mo</c><c>   2</c></rc>
    <rc><c>Mo</c><c>   2</c></rc>
    <rc><c>Mo</c><c>   2</c></rc>
    <rc><c>Mo</c><c>   2</c></rc>
    <rc><c>Mo</c><c>   2</c></rc>
    <rc><c>Ta</c><c>   3</c></rc>
    <rc><c>Ta</c><c>   3</c></rc>
    <rc><c>Ta</c><c>   3</c></rc>
    <rc><c>Ta</c><c>   3</c></rc>
    <rc><c>Ta</c><c>   3</c></rc>
    <rc><c>Ta</c><c>   3</c></rc>
    <rc><c>Ti</c><c>   4</c></rc>
    <rc><c>Ti</c><c>   4</c></rc>
    <rc><c>Ti</c><c>   4</c></rc>
    <rc><c>Ti</c><c>   4</c></rc>
    <rc><c>Ti</c><c>   4</c></rc>
    <rc><c>Ti</c><c>   4</c></rc>
    <rc><c>V </c><c>   5</c></rc>
    <rc><c>V </c><c>   5</c></rc>
    <rc><c>V </c><c>   5</c></rc>
    <rc><c>V </c><c>   5</c></rc>
    <rc><c>V </c><c>   5</c></rc>
    <rc><c>V </c><c>   5</c></rc>
   </set>
  </array>
  <array name="atomtypes" >
   <dimension dim="1">type</dimension>
   <field type="int">atomspertype</field>
   <field type="string">element</field>
   <field>mass</field>
   <field>valence</field>
   <field type="string">pseudopotential</field>
   <set>
    <rc><c>   6</c><c>Nb</c><c>     92.91000000</c><c>     13.00000000</c><c>  PAW_PBE Nb_sv 25May2007               </c></rc>
    <rc><c>   6</c><c>Mo</c><c>     95.94000000</c><c>      6.00000000</c><c>  PAW_PBE Mo 08Apr2002                  </c></rc>
    <rc><c>   6</c><c>Ta</c><c>    180.94800000</c><c>      5.00000000</c><c>  PAW_PBE Ta 17Jan2003                  </c></rc>
    <rc><c>   6</c><c>Ti</c><c>     47.88000000</c><c>      4.00000000</c><c>  PAW_PBE Ti 08Apr2002                  </c></rc>
    <rc><c>   6</c><c>V </c><c>     50.94100000</c><c>      5.00000000</c><c>  PAW_PBE V 08Apr2002                   </c></rc>
   </set>
  </array>
 </atominfo>
 <structure name="initialpos" >
  <crystal>
   <varray name="basis" >
    <v>      -3.16000000      -3.16000000      -3.16000000 </v>
    <v>       1.58000000       1.58000000      -7.90000000 </v>
    <v>       7.90000000      -7.90000000      -1.58000000 </v>
   </varray>
   <i name="volume">    473.31744000 </i>
   <varray name="rec_basis" >
    <v>      -0.13713080      -0.12658228      -0.05274262 </v>
    <v>       0.04219409       0.06329114      -0.10548523 </v>
    <v>       0.06329114      -0.06329114       0.00000000 </v>
   </varray>
  </crystal>
  <varray name="positions" >
   <v>       0.96666667       0.93333333       0.40000000 </v>
   <v>       0.63333333       0.26666667       0.40000000 </v>
   <v>       0.50000000       0.00000000       0.00000000 </v>
   <v>       0.00000000       0.00000000       0.00000000 </v>
   <v>       0.10000000       0.20000000       0.80000000 </v>
   <v>       0.03333333       0.06666667       0.60000000 </v>
   <v>       0.90000000       0.80000000       0.20000000 </v>
   <v>       0.80000000       0.60000000       0.40000000 </v>
   <v>       0.73333333       0.46666667       0.20000000 </v>
   <v>       0.66666667       0.33333333       0.00000000 </v>
   <v>       0.36666667       0.73333333       0.60000000 </v>
   <v>       0.13333333       0.26666667       0.40000000 </v>
   <v>       0.83333333       0.66666667       0.00000000 </v>
   <v>       0.93333333       0.86666667       0.80000000 </v>
   <v>       0.56666667       0.13333333       0.20000000 </v>
   <v>       0.40000000       0.80000000       0.20000000 </v>
   <v>       0.43333333       0.86666667       0.80000000 </v>
   <v>       0.30000000       0.60000000       0.40000000 </v>
   <v>       0.86666667       0.73333333       0.60000000 </v>
   <v>       0.46666667       0.93333333       0.40000000 </v>
   <v>       0.16666667       0.33333333       0.00000000 </v>
   <v>       0.26666667       0.53333333       0.80000000 </v>
   <v>       0.20000000       0.40000000       0.60000000 </v>
   <v>       0.06666667       0.13333333       0.20000000 </v>
   <v>       0.76666667       0.53333333       0.80000000 </v>
   <v>       0.70000000       0.40000000       0.60000000 </v>
   <v>       0.60000000       0.20000000       0.80000000 </v>
   <v>       0.53333333       0.06666667       0.60000000 </v>
   <v>       0.33333333       0.66666667       0.00000000 </v>
   <v>       0.23333333       0.46666667       0.20000000 </v>
  </varray>
 </structure>
 <calculation>
  <scstep>
   <time name="dav">   33.64   33.68</time>
   <time name="total">   33.79   33.84</time>
   <energy>
    <i name="alphaZ">   1230.05567093 </i>
    <i name="ewald"> -11534.45390572 </i>
    <i name="hartreedc">  -3130.06548845 </i>
    <i name="XCdc">   -890.54818296 </i>
    <i name="pawpsdc">  12089.84984428 </i>
    <i name="pawaedc"> -10585.48217920 </i>
    <i name="eentropy">     -0.00217730 </i>
    <i name="bandstr">   2379.58392544 </i>
    <i name="atom">  13005.90793652 </i>
    <i name="e_fr_energy">   2564.84544353 </i>
    <i name="e_wo_entrp">   2564.84762083 </i>
    <i name="e_0_energy">   2564.84616930 </i>
   </energy>
  </scstep>
  <scstep>
   <time name="dav">   37.40   37.45</time>
   <time name="total">   37.41   37.46</time>
   <energy>
    <i name="e_fr_energy">    252.50288949 </i>
    <i name="e_wo_entrp">    252.50564763 </i>
    <i name="e_0_energy">    252.50380887 </i>
   </energy>
  </scstep>
  <scstep>
   <time name="dav">   51.42   51.48</time>
   <time name="total">   51.43   51.49</time>
   <energy>
    <i name="e_fr_energy">   -264.91434623 </i>
    <i name="e_wo_entrp">   -264.91710107 </i>
    <i name="e_0_energy">   -264.91526451 </i>
   </energy>
  </scstep>
  <scstep>
   <time name="dav">   51.52   51.58</time>
   <time name="total">   51.53   51.59</time>
   <energy>
    <i name="e_fr_energy">   -340.38420122 </i>
    <i name="e_wo_entrp">   -340.38646683 </i>
    <i name="e_0_energy">   -340.38495642 </i>
   </energy>
  </scstep>
  <scstep>
   <time name="dav">   55.90   55.99</time>
   <time name="total">   56.49   56.59</time>
   <energy>
    <i name="e_fr_energy">   -349.87585908 </i>
    <i name="e_wo_entrp">   -349.87520048 </i>
    <i name="e_0_energy">   -349.87563954 </i>
   </energy>
  </scstep>
  <scstep>
   <time name="dav">   50.43   50.49</time>
   <time name="total">   51.10   51.17</time>
   <energy>
    <i name="e_fr_energy">   -385.44886432 </i>
    <i name="e_wo_entrp">   -385.45056447 </i>
    <i name="e_0_energy">   -385.44943104 </i>
   </energy>
  </scstep>
  <scstep>
   <time name="dav">   53.49   53.55</time>
   <time name="total">   54.15   54.21</time>
   <energy>
    <i name="e_fr_energy">   -337.53575184 </i>
    <i name="e_wo_entrp">   -337.53385440 </i>
    <i name="e_0_energy">   -337.53511936 </i>
   </energy>
  </scstep>
  <scstep>
   <time name="dav">   45.90   45.96</time>
   <time name="total">   46.56   46.62</time>
   <energy>
    <i name="e_fr_energy">   -347.04824717 </i>
    <i name="e_wo_entrp">   -347.04554677 </i>
    <i name="e_0_energy">   -347.04734704 </i>
   </energy>
  </scstep>
  <scstep>
   <time name="dav">   48.34   48.40</time>
   <time name="total">   49.01   49.07</time>
   <energy>
    <i name="e_fr_energy">   -327.41875914 </i>
    <i name="e_wo_entrp">   -327.40320184 </i>
    <i name="e_0_energy">   -327.41357337 </i>
   </energy>
  </scstep>
  <scstep>
   <time name="dav">   48.21   48.26</time>
   <time name="total">   48.87   48.94</time>
   <energy>
    <i name="e_fr_energy">   -323.35394150 </i>
    <i name="e_wo_entrp">   -323.35022408 </i>
    <i name="e_0_energy">   -323.35270236 </i>
   </energy>
  </scstep>
  <scstep>
   <time name="dav">   49.99   50.05</time>
   <time name="total">   50.65   50.71</time>
   <energy>
    <i name="e_fr_energy">   -321.18183434 </i>
    <i name="e_wo_entrp">   -321.17534107 </i>
    <i name="e_0_energy">   -321.17966992 </i>
   </energy>
  </scstep>
  <scstep>
   <time name="dav">   51.19   51.25</time>
   <time name="total">   51.86   51.93</time>
   <energy>
    <i name="e_fr_energy">   -320.49469562 </i>
    <i name="e_wo_entrp">   -320.48952692 </i>
    <i name="e_0_energy">   -320.49297272 </i>
   </energy>
  </scstep>
  <scstep>
   <time name="dav">   51.24   51.30</time>
   <time name="total">   51.89   51.95</time>
   <energy>
    <i name="e_fr_energy">   -320.25758224 </i>
    <i name="e_wo_entrp">   -320.25155852 </i>
    <i name="e_0_energy">   -320.25557434 </i>
   </energy>
  </scstep>
  <scstep>
   <time name="dav">   48.54   48.59</time>
   <time name="total">   49.20   49.28</time>
   <energy>
    <i name="e_fr_energy">   -320.10563152 </i>
    <i name="e_wo_entrp">   -320.10149902 </i>
    <i name="e_0_energy">   -320.10425402 </i>
   </energy>
  </scstep>
  <scstep>
   <time name="dav">   46.30   46.36</time>
   <time name="total">   46.96   47.02</time>
   <energy>
    <i name="e_fr_energy">   -319.91133499 </i>
    <i name="e_wo_entrp">   -319.90057659 </i>
    <i name="e_0_energy">   -319.90774886 </i>
   </energy>
  </scstep>
  <scstep>
   <time name="dav">   47.89   47.95</time>
   <time name="total">   48.56   48.63</time>
   <energy>
    <i name="e_fr_energy">   -319.50270091 </i>
    <i name="e_wo_entrp">   -319.50339740 </i>
    <i name="e_0_energy">   -319.50293307 </i>
   </energy>
  </scstep>
  <scstep>
   <time name="dav">   50.20   50.26</time>
   <time name="total">   50.87   50.93</time>
   <energy>
    <i name="e_fr_energy">   -319.01213658 </i>
    <i name="e_wo_entrp">   -319.00449969 </i>
    <i name="e_0_energy">   -319.00959095 </i>
   </energy>
  </scstep>
  <scstep>
   <time name="dav">   49.11   49.17</time>
   <time name="total">   49.77   49.84</time>
   <energy>
    <i name="e_fr_energy">   -318.98136394 </i>
    <i name="e_wo_entrp">   -318.97554638 </i>
    <i name="e_0_energy">   -318.97942475 </i>
   </energy>
  </scstep>
  <scstep>
   <time name="dav">   49.30   49.36</time>
   <time name="total">   49.96   50.03</time>
   <energy>
    <i name="e_fr_energy">   -318.93575825 </i>
    <i name="e_wo_entrp">   -318.92866565 </i>
    <i name="e_0_energy">   -318.93339405 </i>
   </energy>
  </scstep>
  <scstep>
   <time name="dav">   50.20   50.27</time>
   <time name="total">   50.87   50.95</time>
   <energy>
    <i name="e_fr_energy">   -318.90904016 </i>
    <i name="e_wo_entrp">   -318.90187731 </i>
    <i name="e_0_energy">   -318.90665255 </i>
   </energy>
  </scstep>
  <scstep>
   <time name="dav">   50.47   50.54</time>
   <time name="total">   51.13   51.20</time>
   <energy>
    <i name="e_fr_energy">   -318.90303719 </i>
    <i name="e_wo_entrp">   -318.89556321 </i>
    <i name="e_0_energy">   -318.90054586 </i>
   </energy>
  </scstep>
  <scstep>
   <time name="dav">   47.98   48.04</time>
   <time name="total">   48.65   48.72</time>
   <energy>
    <i name="e_fr_energy">   -318.89852594 </i>
    <i name="e_wo_entrp">   -318.89039965 </i>
    <i name="e_0_energy">   -318.89581718 </i>
   </energy>
  </scstep>
  <scstep>
   <time name="dav">   47.75   47.81</time>
   <time name="total">   48.42   48.48</time>
   <energy>
    <i name="e_fr_energy">   -318.89770701 </i>
    <i name="e_wo_entrp">   -318.89030005 </i>
    <i name="e_0_energy">   -318.89523802 </i>
   </energy>
  </scstep>
  <scstep>
   <time name="dav">   45.77   45.83</time>
   <time name="total">   46.43   46.50</time>
   <energy>
    <i name="e_fr_energy">   -318.89670644 </i>
    <i name="e_wo_entrp">   -318.88932833 </i>
    <i name="e_0_energy">   -318.89424707 </i>
   </energy>
  </scstep>
  <scstep>
   <time name="dav">   45.87   45.93</time>
   <time name="total">   46.53   46.59</time>
   <energy>
    <i name="e_fr_energy">   -318.89595813 </i>
    <i name="e_wo_entrp">   -318.88853972 </i>
    <i name="e_0_energy">   -318.89348532 </i>
   </energy>
  </scstep>
  <scstep>
   <time name="dav">   39.43   39.48</time>
   <time name="total">   39.50   39.57</time>
   <energy>
    <i name="alphaZ">   1230.05567093 </i>
    <i name="ewald"> -11534.45390572 </i>
    <i name="hartreedc">  -2955.92971769 </i>
    <i name="XCdc">   -886.59532758 </i>
    <i name="pawpsdc">  19384.85075239 </i>
    <i name="pawaedc"> -17875.35373613 </i>
    <i name="eentropy">     -0.00743479 </i>
    <i name="bandstr">   -687.37013906 </i>
    <i name="atom">  13005.90793652 </i>
    <i name="e_fr_energy">   -318.89590114 </i>
    <i name="e_wo_entrp">   -318.88846634 </i>
    <i name="e_0_energy">   -318.89342287 </i>
   </energy>
  </scstep>
  <structure>
   <crystal>
    <varray name="basis" >
     <v>      -3.16000000      -3.16000000      -3.16000000 </v>
     <v>       1.58000000       1.58000000      -7.90000000 </v>
     <v>       7.90000000      -7.90000000      -1.58000000 </v>
    </varray>
    <i name="volume">    473.31744000 </i>
    <varray name="rec_basis" >
     <v>      -0.13713080      -0.12658228      -0.05274262 </v>
     <v>       0.04219409       0.06329114      -0.10548523 </v>
     <v>       0.06329114      -0.06329114       0.00000000 </v>
    </varray>
   </crystal>
   <varray name="positions" >
    <v>       0.96666667       0.93333333       0.40000000 </v>
    <v>       0.63333333       0.26666667       0.40000000 </v>
    <v>       0.50000000       0.00000000       0.00000000 </v>
    <v>       0.00000000       0.00000000       0.00000000 </v>
    <v>       0.10000000       0.20000000       0.80000000 </v>
    <v>       0.03333333       0.06666667       0.60000000 </v>
    <v>       0.90000000       0.80000000       0.20000000 </v>
    <v>       0.80000000       0.60000000       0.40000000 </v>
    <v>       0.73333333       0.46666667       0.20000000 </v>
    <v>       0.66666667       0.33333333       0.00000000 </v>
    <v>       0.36666667       0.73333333       0.60000000 </v>
    <v>       0.13333333       0.26666667       0.40000000 </v>
    <v>       0.83333333       0.66666667       0.00000000 </v>
    <v>       0.93333333       0.86666667       0.80000000 </v>
    <v>       0.56666667       0.13333333       0.20000000 </v>
    <v>       0.40000000       0.80000000       0.20000000 </v>
    <v>       0.43333333       0.86666667       0.80000000 </v>
    <v>       0.30000000       0.60000000       0.40000000 </v>
    <v>       0.86666667       0.73333333       0.60000000 </v>
    <v>       0.46666667       0.93333333       0.40000000 </v>
    <v>       0.16666667       0.33333333       0.00000000 </v>
    <v>       0.26666667       0.53333333       0.80000000 </v>
    <v>       0.20000000       0.40000000       0.60000000 </v>
    <v>       0.06666667       0.13333333       0.20000000 </v>
    <v>       0.76666667       0.53333333       0.80000000 </v>
    <v>       0.70000000       0.40000000       0.60000000 </v>
    <v>       0.60000000       0.20000000       0.80000000 </v>
    <v>       0.53333333       0.06666667       0.60000000 </v>
    <v>       0.33333333       0.66666667       0.00000000 </v>
    <v>       0.23333333       0.46666667       0.20000000 </v>
   </varray>
  </structure>
  <varray name="forces" >
   <v>       0.08941872       0.43806013       0.22204349 </v>
   <v>       0.36019151      -0.17318025       0.02111873 </v>
   <v>      -0.10384165       0.42013851      -0.24742853 </v>
   <v>       0.23502580      -0.04400773      -0.04818568 </v>
   <v>      -0.04673683       0.71913321      -0.60557785 </v>
   <v>      -0.20200453       0.29463431      -0.35721624 </v>
   <v>      -0.03118158      -0.58317093       0.19881892 </v>
   <v>      -0.50205699      -0.32017869       0.57296166 </v>
   <v>      -0.19910318       0.26881092       0.05654010 </v>
   <v>       0.16962311       0.56738227      -0.60016020 </v>
   <v>      -0.17211733      -0.41153451       0.26348640 </v>
   <v>       0.11170129       0.17758963      -0.60832936 </v>
   <v>       0.02707736      -0.50889914       0.49147387 </v>
   <v>       0.20914766       0.37257813      -0.04480176 </v>
   <v>      -0.18165971       0.52118675      -0.14072557 </v>
   <v>      -0.69026531      -0.09786446       0.77627366 </v>
   <v>      -0.88606462      -0.14660797       0.62104401 </v>
   <v>       0.34669338      -0.31574632      -0.17094600 </v>
   <v>       0.08797848       0.20114116       0.52935559 </v>
   <v>       0.56179538      -0.54889001       0.11505163 </v>
   <v>      -0.03576167      -0.18105382      -0.42176614 </v>
   <v>      -0.36689090      -0.04574762      -0.22523107 </v>
   <v>      -0.20698820      -0.10639068       0.49729882 </v>
   <v>       0.60989988      -0.12777370      -0.86077653 </v>
   <v>       0.03417581      -0.35166175       0.59478095 </v>
   <v>       0.58133858       0.10253383      -0.38858770 </v>
   <v>       0.02381708       0.30502732      -0.21742642 </v>
   <v>       0.19402079      -0.43506896      -0.49314909 </v>
   <v>      -0.23219274      -0.24893913       0.62384650 </v>
   <v>       0.21496042       0.25849949      -0.15378620 </v>
  </varray>
  <varray name="stress" >
   <v>       5.25073117      -3.69320759       0.20172128 </v>
   <v>      -3.69320753       2.06294378      -1.63390392 </v>
   <v>       0.20172127      -1.63390402       3.77813332 </v>
  </varray>
  <energy>
   <i name="e_fr_energy">   -318.89590114 </i>
   <i name="e_wo_entrp">   -318.89342287 </i>
   <i name="e_0_energy">     -0.00743479 </i>
  </energy>
  <time name="totalsc"> 1282.03 1283.81</time>
 </calculation>
 <calculation>
  <scstep>
   <time name="dav">   33.73   33.77</time>
   <time name="total">   34.40   34.45</time>
   <energy>
    <i name="alphaZ">   1223.60202181 </i>
    <i name="ewald"> -11555.26131996 </i>
    <i name="hartreedc">  -2912.18230529 </i>
    <i name="XCdc">   -887.43729304 </i>
    <i name="pawpsdc">  19385.74295791 </i>
    <i name="pawaedc"> -17876.26489728 </i>
    <i name="eentropy">     -0.00897345 </i>
    <i name="bandstr">   -703.20246505 </i>
    <i name="atom">  13005.90793652 </i>
    <i name="e_fr_energy">   -319.10433783 </i>
    <i name="e_wo_entrp">   -319.09536437 </i>
    <i name="e_0_energy">   -319.10134667 </i>
   </energy>
  </scstep>
  <scstep>
   <time name="dav">   50.95   51.02</time>
   <time name="total">   51.61   51.68</time>
   <energy>
    <i name="e_fr_energy">   -320.03986836 </i>
    <i name="e_wo_entrp">   -320.02519578 </i>
    <i name="e_0_energy">   -320.03497750 </i>
   </energy>
  </scstep>
  <scstep>
   <time name="dav">   51.41   51.48</time>
   <time name="total">   52.07   52.16</time>
   <energy>
    <i name="e_fr_energy">   -319.44137284 </i>
    <i name="e_wo_entrp">   -319.43510951 </i>
    <i name="e_0_energy">   -319.43928506 </i>
   </energy>
  </scstep>
  <scstep>
   <time name="dav">   50.37   50.43</time>
   <time name="total">   51.03   51.09</time>
   <energy>
    <i name="e_fr_energy">   -319.45119913 </i>
    <i name="e_wo_entrp">   -319.44105206 </i>
    <i name="e_0_energy">   -319.44781677 </i>
   </energy>
  </scstep>
  <scstep>
   <time name="dav">   50.14   50.21</time>
   <time name="total">   50.81   50.88</time>
   <energy>
    <i name="e_fr_energy">   -319.39261415 </i>
    <i name="e_wo_entrp">   -319.38379402 </i>
    <i name="e_0_energy">   -319.38967411 </i>
   </energy>
  </scstep>
  <scstep>
   <time name="dav">   50.41   50.47</time>
   <time name="total">   51.07   51.13</time>
   <energy>
    <i name="e_fr_energy">   -319.38646129 </i>
    <i name="e_wo_entrp">   -319.37882906 </i>
    <i name="e_0_energy">   -319.38391721 </i>
   </energy>
  </scstep>
  <scstep>
   <time name="dav">   52.06   52.12</time>
   <time name="total">   52.73   52.81</time>
   <energy>
    <i name="e_fr_energy">   -319.38990093 </i>
    <i name="e_wo_entrp">   -319.37951959 </i>
    <i name="e_0_energy">   -319.38644048 </i>
   </energy>
  </scstep>
  <scstep>
   <time name="dav">   50.33   50.39</time>
   <time name="total">   50.99   51.05</time>
   <energy>
    <i name="e_fr_energy">   -319.38722040 </i>
    <i name="e_wo_entrp">   -319.37960600 </i>
    <i name="e_0_energy">   -319.38468227 </i>
   </energy>
  </scstep>
  <scstep>
   <time name="dav">   52.19   52.26</time>
   <time name="total">   52.87   52.95</time>
   <energy>
    <i name="e_fr_energy">   -319.37642373 </i>
    <i name="e_wo_entrp">   -319.36755390 </i>
    <i name="e_0_energy">   -319.37346712 </i>
   </energy>
  </scstep>
  <scstep>
   <time name="dav">   51.35   51.41</time>
   <time name="total">   52.01   52.08</time>
   <energy>
    <i name="e_fr_energy">   -319.37618233 </i>
    <i name="e_wo_entrp">   -319.36752119 </i>
    <i name="e_0_energy">   -319.37329529 </i>
   </energy>
  </scstep>
  <scstep>
   <time name="dav">   44.15   44.21</time>
   <time name="total">   44.83   44.90</time>
   <energy>
    <i name="e_fr_energy">   -319.37574440 </i>
    <i name="e_wo_entrp">   -319.36680016 </i>
    <i name="e_0_energy">   -319.37276298 </i>
   </energy>
  </scstep>
  <scstep>
   <time name="dav">   45.15   45.20</time>
   <time name="total">   45.80   45.86</time>
   <energy>
    <i name="e_fr_energy">   -319.37552035 </i>
    <i name="e_wo_entrp">   -319.36674785 </i>
    <i name="e_0_energy">   -319.37259618 </i>
   </energy>
  </scstep>
  <scstep>
   <time name="dav">   44.96   45.02</time>
   <time name="total">   45.63   45.70</time>
   <energy>
    <i name="e_fr_energy">   -319.37546005 </i>
    <i name="e_wo_entrp">   -319.36667412 </i>
    <i name="e_0_energy">   -319.37253141 </i>
   </energy>
  </scstep>
  <scstep>
   <time name="dav">   43.01   43.06</time>
   <time name="total">   43.67   43.72</time>
   <energy>
    <i name="e_fr_energy">   -319.37552399 </i>
    <i name="e_wo_entrp">   -319.36671835 </i>
    <i name="e_0_energy">   -319.37258878 </i>
   </energy>
  </scstep>
  <scstep>
   <time name="dav">   38.83   38.88</time>
   <time name="total">   39.50   39.56</time>
   <energy>
    <i name="e_fr_energy">   -319.37544121 </i>
    <i name="e_wo_entrp">   -319.36663465 </i>
    <i name="e_0_energy">   -319.37250569 </i>
   </energy>
  </scstep>
  <scstep>
   <time name="dav">   29.43   29.47</time>
   <time name="total">   29.50   29.53</time>
   <energy>
    <i name="alphaZ">   1223.60202181 </i>
    <i name="ewald"> -11555.26131996 </i>
    <i name="hartreedc">  -2919.03767812 </i>
    <i name="XCdc">   -887.13242891 </i>
    <i name="pawpsdc">  19153.63539938 </i>
    <i name="pawaedc"> -17644.67276038 </i>
    <i name="eentropy">     -0.00878118 </i>
    <i name="bandstr">   -696.40778410 </i>
    <i name="atom">  13005.90793652 </i>
    <i name="e_fr_energy">   -319.37539495 </i>
    <i name="e_wo_entrp">   -319.36661376 </i>
    <i name="e_0_energy">   -319.37246789 </i>
   </energy>
  </scstep>
  <structure>
   <crystal>
    <varray name="basis" >
     <v>      -3.16264098      -3.15509983      -3.16352174 </v>
     <v>       1.58041202       1.58490837      -7.91525434 </v>
     <v>       7.93341522      -7.92037645      -1.57594676 </v>
    </varray>
    <i name="volume">    475.81386010 </i>
    <varray name="rec_basis" >
     <v>      -0.13700636      -0.12673938      -0.05273321 </v>
     <v>       0.04220981       0.06322154      -0.10525129 </v>
     <v>       0.06302320      -0.06311875      -0.00005493 </v>
    </varray>
   </crystal>
   <varray name="positions" >
    <v>       0.96283505       0.93372294       0.39893548 </v>
    <v>       0.63195428       0.26676361       0.40162856 </v>
    <v>       0.49875089       0.00233058      -0.00159989 </v>
    <v>      -0.00116348       0.00058925       0.00085198 </v>
    <v>       0.09745854       0.20518234       0.79766154 </v>
    <v>       0.03377939       0.06897293       0.59848360 </v>
    <v>       0.90326163       0.79714415       0.20168541 </v>
    <v>       0.80381874       0.59508469       0.39944467 </v>
    <v>       0.73286511       0.46679443       0.19857130 </v>
    <v>       0.66360678       0.33846516      -0.00121449 </v>
    <v>       0.36964800       0.73038557       0.60073102 </v>
    <v>       0.13305774       0.27053200       0.39979882 </v>
    <v>       0.83501135       0.66266689       0.00163651 </v>
    <v>       0.92978849       0.86845800       0.79950099 </v>
    <v>       0.56504380       0.13527104       0.19785398 </v>
    <v>       0.40318893       0.79434574       0.19819120 </v>
    <v>       0.43851021       0.86125497       0.79774219 </v>
    <v>       0.30006955       0.60061156       0.40202265 </v>
    <v>       0.86350943       0.73143273       0.59965448 </v>
    <v>       0.46600923       0.93221547       0.40339129 </v>
    <v>       0.16908205       0.33485404       0.00044363 </v>
    <v>       0.26994631       0.53359300       0.79901944 </v>
    <v>       0.20075368       0.39672312       0.59969284 </v>
    <v>       0.06560231       0.13856507       0.20225236 </v>
    <v>       0.76707467       0.52930238       0.80117809 </v>
    <v>       0.69651672       0.40347390       0.60146195 </v>
    <v>       0.59853297       0.20208629       0.79914137 </v>
    <v>       0.53596139       0.06824278       0.60192082 </v>
    <v>       0.33480226       0.66225925       0.00005113 </v>
    <v>       0.23072398       0.46867612       0.19986706 </v>
   </varray>
  </structure>
  <varray name="forces" >
   <v>       0.03746468       0.25487414       0.13301637 </v>
   <v>       0.09842551      -0.00306121       0.01894382 </v>
   <v>      -0.20322579       0.19287804       0.04629626 </v>
   <v>       0.10501634       0.02396786      -0.09438646 </v>
   <v>      -0.06186405       0.28657740      -0.20228754 </v>
   <v>      -0.14492699       0.11286281      -0.18059043 </v>
   <v>      -0.04046673      -0.20984703       0.12426147 </v>
   <v>      -0.24900526      -0.17644180       0.24822821 </v>
   <v>      -0.03401269       0.07504864       0.11967208 </v>
   <v>       0.03917230       0.39470603      -0.33261107 </v>
   <v>      -0.10621267      -0.25341681       0.22840128 </v>
   <v>       0.13063447       0.10280483      -0.26937932 </v>
   <v>       0.04472315      -0.15233710       0.01137108 </v>
   <v>       0.10400363       0.17142997      -0.12772768 </v>
   <v>      -0.10273151       0.23930416      -0.08652076 </v>
   <v>      -0.29437823      -0.07303687       0.25787097 </v>
   <v>      -0.25137720       0.06472809       0.36596113 </v>
   <v>       0.20481211      -0.27174304      -0.13951689 </v>
   <v>       0.05503023       0.14312568       0.32842710 </v>
   <v>       0.29688510      -0.28624256       0.14003357 </v>
   <v>      -0.08633566      -0.12785481      -0.31198460 </v>
   <v>      -0.25751537      -0.02598436      -0.14974456 </v>
   <v>      -0.18933554      -0.01837452       0.35479524 </v>
   <v>       0.38411013      -0.08264002      -0.50770610 </v>
   <v>       0.03920180      -0.28566721       0.44796116 </v>
   <v>       0.48819502       0.05458482      -0.28035186 </v>
   <v>      -0.02822212       0.25986167      -0.19612432 </v>
   <v>       0.14219292      -0.42200392      -0.35075920 </v>
   <v>      -0.24652526      -0.16068875       0.53069150 </v>
   <v>       0.12626768       0.17258586      -0.12624047 </v>
  </varray>
  <varray name="stress" >
   <v>      -9.10388222      -1.63979522       0.69318870 </v>
   <v>      -1.63979521     -10.89741119       0.27612974 </v>
   <v>       0.69318869       0.27612983      -9.54330861 </v>
  </varray>
  <energy>
   <i name="e_fr_energy">   -319.37539495 </i>
   <i name="e_wo_entrp">   -319.37246789 </i>
   <i name="e_0_energy">     -0.00878118 </i>
  </energy>
  <time name="totalsc">  768.15  769.26</time>
 </calculation>
 <calculation>
  <scstep>
   <time name="dav">   33.38   33.43</time>
   <time name="total">   34.03   34.11</time>
   <energy>
    <i name="alphaZ">   1217.05724496 </i>
    <i name="ewald"> -11568.55365375 </i>
    <i name="hartreedc">  -2880.84248785 </i>
    <i name="XCdc">   -887.97475583 </i>
    <i name="pawpsdc">  19153.51427655 </i>
    <i name="pawaedc"> -17644.55857439 </i>
    <i name="eentropy">     -0.00814978 </i>
    <i name="bandstr">   -713.80594961 </i>
    <i name="atom">  13005.90793652 </i>
    <i name="e_fr_energy">   -319.26411317 </i>
    <i name="e_wo_entrp">   -319.25596339 </i>
    <i name="e_0_energy">   -319.26139658 </i>
   </energy>
  </scstep>
  <scstep>
   <time name="dav">   51.12   51.19</time>
   <time name="total">   51.78   51.84</time>
   <energy>
    <i name="e_fr_energy">   -320.21734214 </i>
    <i name="e_wo_entrp">   -320.20795528 </i>
    <i name="e_0_energy">   -320.21421319 </i>
   </energy>
  </scstep>
  <scstep>
   <time name="dav">   51.33   51.40</time>
   <time name="total">   52.00   52.07</time>
   <energy>
    <i name="e_fr_energy">   -319.61584655 </i>
    <i name="e_wo_entrp">   -319.60961127 </i>
    <i name="e_0_energy">   -319.61376812 </i>
   </energy>
  </scstep>
  <scstep>
   <time name="dav">   50.50   50.57</time>
   <time name="total">   51.16   51.23</time>
   <energy>
    <i name="e_fr_energy">   -319.62213728 </i>
    <i name="e_wo_entrp">   -319.61265748 </i>
    <i name="e_0_energy">   -319.61897735 </i>
   </energy>
  </scstep>
  <scstep>
   <time name="dav">   50.22   50.29</time>
   <time name="total">   50.90   50.97</time>
   <energy>
    <i name="e_fr_energy">   -319.56757315 </i>
    <i name="e_wo_entrp">   -319.55986585 </i>
    <i name="e_0_energy">   -319.56500405 </i>
   </energy>
  </scstep>
  <scstep>
   <time name="dav">   50.05   50.11</time>
   <time name="total">   50.70   50.77</time>
   <energy>
    <i name="e_fr_energy">   -319.56236885 </i>
    <i name="e_wo_entrp">   -319.55553947 </i>
    <i name="e_0_energy">   -319.56009239 </i>
   </energy>
  </scstep>
  <scstep>
   <time name="dav">   50.52   50.58</time>
   <time name="total">   51.19   51.26</time>
   <energy>
    <i name="e_fr_energy">   -319.56856638 </i>
    <i name="e_wo_entrp">   -319.55935359 </i>
    <i name="e_0_energy">   -319.56549545 </i>
   </energy>
  </scstep>
  <scstep>
   <time name="dav">   50.36   50.42</time>
   <time name="total">   51.02   51.08</time>
   <energy>
    <i name="e_fr_energy">   -319.56195846 </i>
    <i name="e_wo_entrp">   -319.55505954 </i>
    <i name="e_0_energy">   -319.55965882 </i>
   </energy>
  </scstep>
  <scstep>
   <time name="dav">   52.13   52.20</time>
   <time name="total">   52.80   52.87</time>
   <energy>
    <i name="e_fr_energy">   -319.55139833 </i>
    <i name="e_wo_entrp">   -319.54335440 </i>
    <i name="e_0_energy">   -319.54871702 </i>
   </energy>
  </scstep>
  <scstep>
   <time name="dav">   50.29   50.35</time>
   <time name="total">   50.94   51.00</time>
   <energy>
    <i name="e_fr_energy">   -319.55133219 </i>
    <i name="e_wo_entrp">   -319.54377756 </i>
    <i name="e_0_energy">   -319.54881398 </i>
   </energy>
  </scstep>
  <scstep>
   <time name="dav">   43.28   43.33</time>
   <time name="total">   43.94   44.00</time>
   <energy>
    <i name="e_fr_energy">   -319.55097663 </i>
    <i name="e_wo_entrp">   -319.54299733 </i>
    <i name="e_0_energy">   -319.54831686 </i>
   </energy>
  </scstep>
  <scstep>
   <time name="dav">   44.62   44.67</time>
   <time name="total">   45.27   45.33</time>
   <energy>
    <i name="e_fr_energy">   -319.55070647 </i>
    <i name="e_wo_entrp">   -319.54294754 </i>
    <i name="e_0_energy">   -319.54812016 </i>
   </energy>
  </scstep>
  <scstep>
   <time name="dav">   44.70   44.75</time>
   <time name="total">   45.36   45.43</time>
   <energy>
    <i name="e_fr_energy">   -319.55066330 </i>
    <i name="e_wo_entrp">   -319.54280901 </i>
    <i name="e_0_energy">   -319.54804520 </i>
   </energy>
  </scstep>
  <scstep>
   <time name="dav">   42.56   42.61</time>
   <time name="total">   43.23   43.29</time>
   <energy>
    <i name="e_fr_energy">   -319.55078180 </i>
    <i name="e_wo_entrp">   -319.54299230 </i>
    <i name="e_0_energy">   -319.54818530 </i>
   </energy>
  </scstep>
  <scstep>
   <time name="dav">   39.04   39.09</time>
   <time name="total">   39.72   39.78</time>
   <energy>
    <i name="e_fr_energy">   -319.55059665 </i>
    <i name="e_wo_entrp">   -319.54279525 </i>
    <i name="e_0_energy">   -319.54799619 </i>
   </energy>
  </scstep>
  <scstep>
   <time name="dav">   25.93   25.96</time>
   <time name="total">   26.01   26.04</time>
   <energy>
    <i name="alphaZ">   1217.05724496 </i>
    <i name="ewald"> -11568.55365375 </i>
    <i name="hartreedc">  -2888.52577053 </i>
    <i name="XCdc">   -887.64981482 </i>
    <i name="pawpsdc">  18961.63185876 </i>
    <i name="pawaedc"> -17453.20322732 </i>
    <i name="eentropy">     -0.00782364 </i>
    <i name="bandstr">   -706.20732340 </i>
    <i name="atom">  13005.90793652 </i>
    <i name="e_fr_energy">   -319.55057321 </i>
    <i name="e_wo_entrp">   -319.54274957 </i>
    <i name="e_0_energy">   -319.54796533 </i>
   </energy>
  </scstep>
  <structure>
   <crystal>
    <varray name="basis" >
     <v>      -3.16534269      -3.15008697      -3.16712447 </v>
     <v>       1.58083351       1.58992961      -7.93085948 </v>
     <v>       7.96759885      -7.94122147      -1.57180032 </v>
    </varray>
    <i name="volume">    478.37256927 </i>
    <varray name="rec_basis" >
     <v>      -0.13688026      -0.12689932      -0.05272391 </v>
     <v>       0.04222552       0.06315091      -0.10501295 </v>
     <v>       0.06275109      -0.06294379      -0.00011060 </v>
    </varray>
   </crystal>
   <varray name="positions" >
    <v>       0.95891258       0.93412263       0.39784843 </v>
    <v>       0.63054709       0.26686390       0.40328828 </v>
    <v>       0.49746905       0.00471038      -0.00323094 </v>
    <v>      -0.00235195       0.00119183       0.00172020 </v>
    <v>       0.09485250       0.21047434       0.79527769 </v>
    <v>       0.03423201       0.07132693       0.59693847 </v>
    <v>       0.90660269       0.79422689       0.20340448 </v>
    <v>       0.80772496       0.59006366       0.39887892 </v>
    <v>       0.73238283       0.46692470       0.19711452 </v>
    <v>       0.66047289       0.34370626      -0.00245270 </v>
    <v>       0.37270014       0.72737435       0.60147691 </v>
    <v>       0.13277485       0.27447868       0.39959470 </v>
    <v>       0.83673229       0.65858258       0.00330464 </v>
    <v>       0.92616050       0.87028888       0.79899104 </v>
    <v>       0.56337840       0.13724976       0.19566582 </v>
    <v>       0.40644807       0.78857023       0.19634700 </v>
    <v>       0.44380213       0.85572581       0.79544125 </v>
    <v>       0.30014520       0.60123656       0.40408500 </v>
    <v>       0.86027881       0.72949392       0.59930012 </v>
    <v>       0.46534443       0.93107555       0.40684816 </v>
    <v>       0.17155396       0.33640544       0.00089753 </v>
    <v>       0.27329936       0.53385591       0.79802141 </v>
    <v>       0.20152449       0.39337683       0.59937910 </v>
    <v>       0.06451782       0.14390810       0.20454970 </v>
    <v>       0.76749527       0.52518684       0.80237822 </v>
    <v>       0.69295594       0.40702329       0.60295176 </v>
    <v>       0.59702988       0.20421702       0.79826587 </v>
    <v>       0.53865421       0.06985109       0.60388088 </v>
    <v>       0.33630576       0.65775836       0.00010270 </v>
    <v>       0.22805387       0.47072928       0.19973084 </v>
   </varray>
  </structure>
  <varray name="forces" >
   <v>       0.01526118       0.06663081       0.04872613 </v>
   <v>      -0.13872658       0.13565753      -0.00989766 </v>
   <v>      -0.31565464      -0.01052169       0.30662984 </v>
   <v>       0.02588944       0.06878514      -0.12357204 </v>
   <v>      -0.05341920      -0.10196901       0.14682949 </v>
   <v>      -0.06446549      -0.03737212      -0.02334787 </v>
   <v>      -0.06501885       0.15003078       0.05555760 </v>
   <v>       0.03383764      -0.00785106      -0.11615024 </v>
   <v>       0.16034266      -0.16832284       0.17612150 </v>
   <v>      -0.09328190       0.20807547      -0.01888681 </v>
   <v>      -0.04566039      -0.08158670       0.18881116 </v>
   <v>       0.11864291       0.00532595       0.09532817 </v>
   <v>       0.03235282       0.20030558      -0.47877693 </v>
   <v>      -0.00448129      -0.02134843      -0.16075218 </v>
   <v>      -0.00545876      -0.00977335      -0.02457400 </v>
   <v>       0.05394226      -0.04179483      -0.17886058 </v>
   <v>       0.29519459       0.20700857       0.10556982 </v>
   <v>       0.05038107      -0.19490184      -0.09989008 </v>
   <v>       0.01926942       0.05534961       0.10499888 </v>
   <v>       0.04451194      -0.04223873       0.14465025 </v>
   <v>      -0.12860628      -0.06958310      -0.18333373 </v>
   <v>      -0.13808019      -0.01092575      -0.04717981 </v>
   <v>      -0.17469751       0.06531807       0.18179664 </v>
   <v>       0.17551277      -0.00795826      -0.16593150 </v>
   <v>       0.05687716      -0.17615113       0.25525159 </v>
   <v>       0.37122532      -0.00139678      -0.14600587 </v>
   <v>      -0.09458648       0.21995873      -0.16769222 </v>
   <v>       0.07512699      -0.40207205      -0.18357515 </v>
   <v>      -0.22990992      -0.05980401       0.41260032 </v>
   <v>       0.02367929       0.06312547      -0.09444473 </v>
  </varray>
  <varray name="stress" >
   <v>     -18.82353883       0.23031016       0.52305740 </v>
   <v>       0.23031021     -19.44201057       2.02315567 </v>
   <v>       0.52305741       2.02315559     -18.13715031 </v>
  </varray>
  <energy>
   <i name="e_fr_energy">   -319.55057321 </i>
   <i name="e_wo_entrp">   -319.54796533 </i>
   <i name="e_0_energy">     -0.00782364 </i>
  </energy>
  <time name="totalsc">  759.45  760.48</time>
 </calculation>
 <calculation>
  <scstep>
   <time name="dav">   41.57   41.62</time>
   <time name="total">   42.22   42.31</time>
   <energy>
    <i name="alphaZ">   1254.62548792 </i>
    <i name="ewald"> -11698.05551714 </i>
    <i name="hartreedc">  -2906.21506745 </i>
    <i name="XCdc">   -883.63913590 </i>
    <i name="pawpsdc">  18961.46971762 </i>
    <i name="pawaedc"> -17453.04906482 </i>
    <i name="eentropy">     -0.00933506 </i>
    <i name="bandstr">   -601.27533714 </i>
    <i name="atom">  13005.90793652 </i>
    <i name="e_fr_energy">   -320.24031545 </i>
    <i name="e_wo_entrp">   -320.23098039 </i>
    <i name="e_0_energy">   -320.23720376 </i>
   </energy>
  </scstep>
  <scstep>
   <time name="dav">   52.27   52.33</time>
   <time name="total">   52.95   53.03</time>
   <energy>
    <i name="e_fr_energy">   -320.54138506 </i>
    <i name="e_wo_entrp">   -320.53919098 </i>
    <i name="e_0_energy">   -320.54065370 </i>
   </energy>
  </scstep>
  <scstep>
   <time name="dav">   52.44   52.50</time>
   <time name="total">   53.11   53.17</time>
   <energy>
    <i name="e_fr_energy">   -320.07201852 </i>
    <i name="e_wo_entrp">   -320.06394740 </i>
    <i name="e_0_energy">   -320.06932815 </i>
   </energy>
  </scstep>
  <scstep>
   <time name="dav">   50.21   50.27</time>
   <time name="total">   50.89   50.96</time>
   <energy>
    <i name="e_fr_energy">   -319.92073849 </i>
    <i name="e_wo_entrp">   -319.90543677 </i>
    <i name="e_0_energy">   -319.91563792 </i>
   </energy>
  </scstep>
  <scstep>
   <time name="dav">   50.47   50.54</time>
   <time name="total">   51.13   51.20</time>
   <energy>
    <i name="e_fr_energy">   -319.63475828 </i>
    <i name="e_wo_entrp">   -319.63079328 </i>
    <i name="e_0_energy">   -319.63343662 </i>
   </energy>
  </scstep>
  <scstep>
   <time name="dav">   50.61   50.70</time>
   <time name="total">   51.28   51.39</time>
   <energy>
    <i name="e_fr_energy">   -319.58101840 </i>
    <i name="e_wo_entrp">   -319.57115356 </i>
    <i name="e_0_energy">   -319.57773012 </i>
   </energy>
  </scstep>
  <scstep>
   <time name="dav">   50.90   51.00</time>
   <time name="total">   51.56   51.66</time>
   <energy>
    <i name="e_fr_energy">   -319.54434832 </i>
    <i name="e_wo_entrp">   -319.53613695 </i>
    <i name="e_0_energy">   -319.54161120 </i>
   </energy>
  </scstep>
  <scstep>
   <time name="dav">   52.23   52.29</time>
   <time name="total">   52.90   52.97</time>
   <energy>
    <i name="e_fr_energy">   -319.52550925 </i>
    <i name="e_wo_entrp">   -319.51627848 </i>
    <i name="e_0_energy">   -319.52243233 </i>
   </energy>
  </scstep>
  <scstep>
   <time name="dav">   50.87   50.93</time>
   <time name="total">   51.52   51.59</time>
   <energy>
    <i name="e_fr_energy">   -319.52193449 </i>
    <i name="e_wo_entrp">   -319.51274905 </i>
    <i name="e_0_energy">   -319.51887267 </i>
   </energy>
  </scstep>
  <scstep>
   <time name="dav">   48.13   48.18</time>
   <time name="total">   48.79   48.86</time>
   <energy>
    <i name="e_fr_energy">   -319.52063563 </i>
    <i name="e_wo_entrp">   -319.51131623 </i>
    <i name="e_0_energy">   -319.51752916 </i>
   </energy>
  </scstep>
  <scstep>
   <time name="dav">   48.90   48.96</time>
   <time name="total">   49.55   49.61</time>
   <energy>
    <i name="e_fr_energy">   -319.52343246 </i>
    <i name="e_wo_entrp">   -319.51404990 </i>
    <i name="e_0_energy">   -319.52030494 </i>
   </energy>
  </scstep>
  <scstep>
   <time name="dav">   48.40   48.46</time>
   <time name="total">   49.06   49.13</time>
   <energy>
    <i name="e_fr_energy">   -319.52668878 </i>
    <i name="e_wo_entrp">   -319.51769766 </i>
    <i name="e_0_energy">   -319.52369174 </i>
   </energy>
  </scstep>
  <scstep>
   <time name="dav">   49.56   49.62</time>
   <time name="total">   50.21   50.27</time>
   <energy>
    <i name="e_fr_energy">   -319.52516316 </i>
    <i name="e_wo_entrp">   -319.51562639 </i>
    <i name="e_0_energy">   -319.52198423 </i>
   </energy>
  </scstep>
  <scstep>
   <time name="dav">   49.71   49.77</time>
   <time name="total">   50.37   50.44</time>
   <energy>
    <i name="e_fr_energy">   -319.52498603 </i>
    <i name="e_wo_entrp">   -319.51564875 </i>
    <i name="e_0_energy">   -319.52187361 </i>
   </energy>
  </scstep>
  <scstep>
   <time name="dav">   44.56   44.62</time>
   <time name="total">   45.22   45.27</time>
   <energy>
    <i name="e_fr_energy">   -319.52479194 </i>
    <i name="e_wo_entrp">   -319.51540621 </i>
    <i name="e_0_energy">   -319.52166336 </i>
   </energy>
  </scstep>
  <scstep>
   <time name="dav">   41.79   41.84</time>
   <time name="total">   42.45   42.50</time>
   <energy>
    <i name="e_fr_energy">   -319.52471181 </i>
    <i name="e_wo_entrp">   -319.51530910 </i>
    <i name="e_0_energy">   -319.52157757 </i>
   </energy>
  </scstep>
  <scstep>
   <time name="dav">   27.28   27.31</time>
   <time name="total">   27.35   27.38</time>
   <energy>
    <i name="alphaZ">   1254.62548792 </i>
    <i name="ewald"> -11698.05551714 </i>
    <i name="hartreedc">  -2850.77612852 </i>
    <i name="XCdc">   -885.42032857 </i>
    <i name="pawpsdc">  19762.10957012 </i>
    <i name="pawaedc"> -18254.47488635 </i>
    <i name="eentropy">     -0.00938366 </i>
    <i name="bandstr">   -653.43143420 </i>
    <i name="atom">  13005.90793652 </i>
    <i name="e_fr_energy">   -319.52468389 </i>
    <i name="e_wo_entrp">   -319.51530023 </i>
    <i name="e_0_energy">   -319.52155600 </i>
   </energy>
  </scstep>
  <structure>
   <crystal>
    <varray name="basis" >
     <v>      -3.13346410      -3.11657231      -3.14014210 </v>
     <v>       1.56161296       1.56520913      -7.85223168 </v>
     <v>       7.89449649      -7.86196381      -1.56034261 </v>
    </varray>
    <i name="volume">    464.04828120 </i>
    <varray name="rec_basis" >
     <v>      -0.13829644      -0.12833312      -0.05308474 </v>
     <v>       0.04272134       0.06395696      -0.10610739 </v>
     <v>       0.06332752      -0.06358901      -0.00008113 </v>
    </varray>
   </crystal>
   <varray name="positions" >
    <v>       0.95642057       0.93428391       0.39718182 </v>
    <v>       0.63006192       0.26712643       0.40301490 </v>
    <v>       0.49855130       0.00307281      -0.00506184 </v>
    <v>      -0.00320953       0.00252737       0.00194495 </v>
    <v>       0.09442823       0.21140104       0.79440807 </v>
    <v>       0.03528977       0.07220916       0.59616201 </v>
    <v>       0.90731771       0.79299512       0.20337359 </v>
    <v>       0.80959098       0.58861712       0.39878350 </v>
    <v>       0.73159504       0.46568285       0.19767390 </v>
    <v>       0.65835551       0.34666217      -0.00409768 </v>
    <v>       0.37443266       0.72448547       0.60193549 </v>
    <v>       0.13137463       0.27594360       0.39991804 </v>
    <v>       0.83722513       0.66052216       0.00342550 </v>
    <v>       0.92524646       0.87198673       0.79882930 </v>
    <v>       0.56283287       0.13822094       0.19472068 </v>
    <v>       0.40831020       0.78709927       0.19588773 </v>
    <v>       0.44193441       0.85413194       0.79474970 </v>
    <v>       0.30152316       0.60152968       0.40588817 </v>
    <v>       0.85797148       0.72825155       0.59901069 </v>
    <v>       0.46456912       0.92964626       0.40868202 </v>
    <v>       0.17474170       0.33763513       0.00088433 </v>
    <v>       0.27609973       0.53387955       0.79712056 </v>
[...]
       <r>    4.8744    1.0000 </r>
       <r>    4.9267    1.0000 </r>
       <r>    4.9907    1.0000 </r>
       <r>    5.0475    1.0000 </r>
       <r>    5.1047    1.0000 </r>
       <r>    5.1622    1.0000 </r>
       <r>    5.1870    1.0000 </r>
       <r>    5.2611    1.0000 </r>
       <r>    5.2859    1.0000 </r>
       <r>    5.2964    1.0000 </r>
       <r>    5.4423    1.0000 </r>
       <r>    5.4902    1.0000 </r>
       <r>    5.5140    1.0000 </r>
       <r>    5.5670    1.0000 </r>
       <r>    5.5950    1.0000 </r>
       <r>    5.6388    1.0000 </r>
       <r>    5.6733    1.0000 </r>
       <r>    5.7241    1.0000 </r>
       <r>    5.7751    1.0000 </r>
       <r>    5.8480    1.0000 </r>
       <r>    5.8907    1.0000 </r>
       <r>    5.9469    1.0000 </r>
       <r>    6.0430    1.0000 </r>
       <r>    6.1158    1.0001 </r>
       <r>    6.1464    1.0001 </r>
       <r>    6.1883    1.0004 </r>
       <r>    6.2734    1.0026 </r>
       <r>    6.2958    1.0040 </r>
       <r>    6.3606    1.0116 </r>
       <r>    6.3810    1.0154 </r>
       <r>    6.4141    1.0226 </r>
       <r>    6.4608    1.0326 </r>
       <r>    6.5025    1.0349 </r>
       <r>    6.5073    1.0343 </r>
       <r>    6.5695    0.9980 </r>
       <r>    6.5863    0.9757 </r>
       <r>    6.6371    0.8674 </r>
       <r>    6.7095    0.6115 </r>
       <r>    6.7575    0.4099 </r>
       <r>    6.8464    0.1028 </r>
       <r>    6.9251   -0.0184 </r>
       <r>    6.9667   -0.0346 </r>
       <r>    7.0305   -0.0289 </r>
       <r>    7.0962   -0.0144 </r>
       <r>    7.1612   -0.0052 </r>
       <r>    7.2911   -0.0003 </r>
       <r>    7.4269   -0.0000 </r>
       <r>    7.4981   -0.0000 </r>
       <r>    7.5718   -0.0000 </r>
       <r>    7.6573   -0.0000 </r>
       <r>    7.7683   -0.0000 </r>
       <r>    8.0831   -0.0000 </r>
       <r>    8.2410   -0.0000 </r>
       <r>    8.2936   -0.0000 </r>
       <r>    8.5222   -0.0000 </r>
       <r>    8.6296   -0.0000 </r>
       <r>    8.6876   -0.0000 </r>
       <r>    8.7246   -0.0000 </r>
       <r>    8.7309   -0.0000 </r>
       <r>    8.8232   -0.0000 </r>
      </set>
     </set>
    </set>
   </array>
  </eigenvalues>
  <separator name="orbital magnetization" >
   <v name="MAGDIPOLOUT">      0.00000000      0.00000000      0.00000000</v>
  </separator>
  <dos>
   <i name="efermi">      6.73607047 </i>
   <total>
    <array>
     <dimension dim="1">gridpoints</dimension>
     <dimension dim="2">spin</dimension>
     <field>energy</field>
     <field>total</field>
     <field>integrated</field>
     <set>
      <set comment="spin 1">
       <r>   -50.1396     0.0000     0.0000 </r>
       <r>   -49.9334     0.0000     0.0000 </r>
       <r>   -49.7272     0.0000     0.0000 </r>
       <r>   -49.5209     0.0000     0.0000 </r>
       <r>   -49.3147     0.0000     0.0000 </r>
       <r>   -49.1085    -0.0000    -0.0000 </r>
       <r>   -48.9023    -0.0000    -0.0000 </r>
       <r>   -48.6961    -0.0000    -0.0000 </r>
       <r>   -48.4898    -0.0000    -0.0000 </r>
       <r>   -48.2836    -0.0000    -0.0000 </r>
       <r>   -48.0774    -0.0000    -0.0000 </r>
       <r>   -47.8712    -0.0047    -0.0010 </r>
       <r>   -47.6650    -0.3218    -0.0673 </r>
       <r>   -47.4587    -0.1378    -0.0957 </r>
       <r>   -47.2525    19.1965     3.8629 </r>
       <r>   -47.0463    31.1133    10.2791 </r>
       <r>   -46.8401     9.3104    12.1991 </r>
       <r>   -46.6339    -0.8607    12.0216 </r>
       <r>   -46.4276    -0.1039    12.0002 </r>
       <r>   -46.2214    -0.0008    12.0000 </r>
       <r>   -46.0152    -0.0000    12.0000 </r>
       <r>   -45.8090    -0.0000    12.0000 </r>
       <r>   -45.6028    -0.0000    12.0000 </r>
       <r>   -45.3965     0.0000    12.0000 </r>
       <r>   -45.1903     0.0000    12.0000 </r>
       <r>   -44.9841     0.0000    12.0000 </r>
       <r>   -44.7779     0.0000    12.0000 </r>
       <r>   -44.5717     0.0000    12.0000 </r>
       <r>   -44.3655     0.0000    12.0000 </r>
       <r>   -44.1592     0.0000    12.0000 </r>
       <r>   -43.9530     0.0000    12.0000 </r>
       <r>   -43.7468     0.0000    12.0000 </r>
       <r>   -43.5406     0.0000    12.0000 </r>
       <r>   -43.3344     0.0000    12.0000 </r>
       <r>   -43.1281     0.0000    12.0000 </r>
       <r>   -42.9219     0.0000    12.0000 </r>
       <r>   -42.7157     0.0000    12.0000 </r>
       <r>   -42.5095     0.0000    12.0000 </r>
       <r>   -42.3033     0.0000    12.0000 </r>
       <r>   -42.0970     0.0000    12.0000 </r>
       <r>   -41.8908     0.0000    12.0000 </r>
       <r>   -41.6846     0.0000    12.0000 </r>
       <r>   -41.4784     0.0000    12.0000 </r>
       <r>   -41.2722     0.0000    12.0000 </r>
       <r>   -41.0659     0.0000    12.0000 </r>
       <r>   -40.8597     0.0000    12.0000 </r>
       <r>   -40.6535     0.0000    12.0000 </r>
       <r>   -40.4473     0.0000    12.0000 </r>
       <r>   -40.2411     0.0000    12.0000 </r>
       <r>   -40.0348     0.0000    12.0000 </r>
       <r>   -39.8286     0.0000    12.0000 </r>
       <r>   -39.6224     0.0000    12.0000 </r>
       <r>   -39.4162     0.0000    12.0000 </r>
       <r>   -39.2100     0.0000    12.0000 </r>
       <r>   -39.0038     0.0000    12.0000 </r>
       <r>   -38.7975     0.0000    12.0000 </r>
       <r>   -38.5913     0.0000    12.0000 </r>
       <r>   -38.3851     0.0000    12.0000 </r>
       <r>   -38.1789     0.0000    12.0000 </r>
       <r>   -37.9727     0.0000    12.0000 </r>
       <r>   -37.7664     0.0000    12.0000 </r>
       <r>   -37.5602     0.0000    12.0000 </r>
       <r>   -37.3540     0.0000    12.0000 </r>
       <r>   -37.1478     0.0000    12.0000 </r>
       <r>   -36.9416     0.0000    12.0000 </r>
       <r>   -36.7353     0.0000    12.0000 </r>
       <r>   -36.5291     0.0000    12.0000 </r>
       <r>   -36.3229     0.0000    12.0000 </r>
       <r>   -36.1167     0.0000    12.0000 </r>
       <r>   -35.9105     0.0000    12.0000 </r>
       <r>   -35.7042     0.0000    12.0000 </r>
       <r>   -35.4980     0.0000    12.0000 </r>
       <r>   -35.2918     0.0000    12.0000 </r>
       <r>   -35.0856     0.0000    12.0000 </r>
       <r>   -34.8794     0.0000    12.0000 </r>
       <r>   -34.6731     0.0000    12.0000 </r>
       <r>   -34.4669     0.0000    12.0000 </r>
       <r>   -34.2607     0.0000    12.0000 </r>
       <r>   -34.0545     0.0000    12.0000 </r>
       <r>   -33.8483     0.0000    12.0000 </r>
       <r>   -33.6421     0.0000    12.0000 </r>
       <r>   -33.4358     0.0000    12.0000 </r>
       <r>   -33.2296     0.0000    12.0000 </r>
       <r>   -33.0234     0.0000    12.0000 </r>
       <r>   -32.8172     0.0000    12.0000 </r>
       <r>   -32.6110     0.0000    12.0000 </r>
       <r>   -32.4047     0.0000    12.0000 </r>
       <r>   -32.1985     0.0000    12.0000 </r>
       <r>   -31.9923     0.0000    12.0000 </r>
       <r>   -31.7861     0.0000    12.0000 </r>
       <r>   -31.5799     0.0000    12.0000 </r>
       <r>   -31.3736     0.0000    12.0000 </r>
       <r>   -31.1674     0.0000    12.0000 </r>
       <r>   -30.9612     0.0000    12.0000 </r>
       <r>   -30.7550     0.0000    12.0000 </r>
       <r>   -30.5488     0.0000    12.0000 </r>
       <r>   -30.3425     0.0000    12.0000 </r>
       <r>   -30.1363     0.0000    12.0000 </r>
       <r>   -29.9301     0.0000    12.0000 </r>
       <r>   -29.7239     0.0000    12.0000 </r>
       <r>   -29.5177     0.0000    12.0000 </r>
       <r>   -29.3114     0.0000    12.0000 </r>
       <r>   -29.1052     0.0000    12.0000 </r>
       <r>   -28.8990     0.0000    12.0000 </r>
       <r>   -28.6928     0.0000    12.0000 </r>
       <r>   -28.4866     0.0000    12.0000 </r>
       <r>   -28.2804     0.0000    12.0000 </r>
       <r>   -28.0741     0.0000    12.0000 </r>
       <r>   -27.8679     0.0000    12.0000 </r>
       <r>   -27.6617     0.0000    12.0000 </r>
       <r>   -27.4555     0.0000    12.0000 </r>
       <r>   -27.2493     0.0000    12.0000 </r>
       <r>   -27.0430     0.0000    12.0000 </r>
       <r>   -26.8368     0.0000    12.0000 </r>
       <r>   -26.6306     0.0000    12.0000 </r>
       <r>   -26.4244     0.0000    12.0000 </r>
       <r>   -26.2182     0.0000    12.0000 </r>
       <r>   -26.0119     0.0000    12.0000 </r>
       <r>   -25.8057    -0.0000    12.0000 </r>
       <r>   -25.5995    -0.0000    12.0000 </r>
       <r>   -25.3933    -0.0000    12.0000 </r>
       <r>   -25.1871    -0.0000    12.0000 </r>
       <r>   -24.9808    -0.0000    12.0000 </r>
       <r>   -24.7746    -0.0000    12.0000 </r>
       <r>   -24.5684    -0.0018    11.9996 </r>
       <r>   -24.3622    -0.0844    11.9822 </r>
       <r>   -24.1560    -0.0848    11.9647 </r>
       <r>   -23.9497     4.3994    12.8720 </r>
       <r>   -23.7435    14.8040    15.9248 </r>
       <r>   -23.5373    23.3681    20.7438 </r>
       <r>   -23.3311    50.3242    31.1216 </r>
       <r>   -23.1249    49.0328    41.2331 </r>
       <r>   -22.9187    22.5414    45.8816 </r>
       <r>   -22.7124     9.0919    47.7565 </r>
       <r>   -22.5062     1.3770    48.0405 </r>
       <r>   -22.3000    -0.1709    48.0052 </r>
       <r>   -22.0938    -0.0251    48.0001 </r>
       <r>   -21.8876    -0.0002    48.0000 </r>
       <r>   -21.6813    -0.0000    48.0000 </r>
       <r>   -21.4751    -0.0000    48.0000 </r>
       <r>   -21.2689    -0.0000    48.0000 </r>
       <r>   -21.0627     0.0000    48.0000 </r>
       <r>   -20.8565     0.0000    48.0000 </r>
       <r>   -20.6502     0.0000    48.0000 </r>
       <r>   -20.4440     0.0000    48.0000 </r>
       <r>   -20.2378     0.0000    48.0000 </r>
       <r>   -20.0316     0.0000    48.0000 </r>
       <r>   -19.8254     0.0000    48.0000 </r>
       <r>   -19.6191     0.0000    48.0000 </r>
       <r>   -19.4129     0.0000    48.0000 </r>
       <r>   -19.2067     0.0000    48.0000 </r>
       <r>   -19.0005     0.0000    48.0000 </r>
       <r>   -18.7943     0.0000    48.0000 </r>
       <r>   -18.5880     0.0000    48.0000 </r>
       <r>   -18.3818     0.0000    48.0000 </r>
       <r>   -18.1756     0.0000    48.0000 </r>
       <r>   -17.9694     0.0000    48.0000 </r>
       <r>   -17.7632     0.0000    48.0000 </r>
       <r>   -17.5570     0.0000    48.0000 </r>
       <r>   -17.3507     0.0000    48.0000 </r>
       <r>   -17.1445     0.0000    48.0000 </r>
       <r>   -16.9383     0.0000    48.0000 </r>
       <r>   -16.7321     0.0000    48.0000 </r>
       <r>   -16.5259     0.0000    48.0000 </r>
       <r>   -16.3196     0.0000    48.0000 </r>
       <r>   -16.1134     0.0000    48.0000 </r>
       <r>   -15.9072     0.0000    48.0000 </r>
       <r>   -15.7010     0.0000    48.0000 </r>
       <r>   -15.4948     0.0000    48.0000 </r>
       <r>   -15.2885     0.0000    48.0000 </r>
       <r>   -15.0823     0.0000    48.0000 </r>
       <r>   -14.8761     0.0000    48.0000 </r>
       <r>   -14.6699     0.0000    48.0000 </r>
       <r>   -14.4637     0.0000    48.0000 </r>
       <r>   -14.2574     0.0000    48.0000 </r>
       <r>   -14.0512     0.0000    48.0000 </r>
       <r>   -13.8450     0.0000    48.0000 </r>
       <r>   -13.6388     0.0000    48.0000 </r>
       <r>   -13.4326     0.0000    48.0000 </r>
       <r>   -13.2263     0.0000    48.0000 </r>
       <r>   -13.0201     0.0000    48.0000 </r>
       <r>   -12.8139     0.0000    48.0000 </r>
       <r>   -12.6077     0.0000    48.0000 </r>
       <r>   -12.4015     0.0000    48.0000 </r>
       <r>   -12.1953     0.0000    48.0000 </r>
       <r>   -11.9890     0.0000    48.0000 </r>
       <r>   -11.7828     0.0000    48.0000 </r>
       <r>   -11.5766     0.0000    48.0000 </r>
       <r>   -11.3704     0.0000    48.0000 </r>
       <r>   -11.1642     0.0000    48.0000 </r>
       <r>   -10.9579     0.0000    48.0000 </r>
       <r>   -10.7517     0.0000    48.0000 </r>
       <r>   -10.5455     0.0000    48.0000 </r>
       <r>   -10.3393     0.0000    48.0000 </r>
       <r>   -10.1331     0.0000    48.0000 </r>
       <r>    -9.9268     0.0000    48.0000 </r>
       <r>    -9.7206     0.0000    48.0000 </r>
       <r>    -9.5144     0.0000    48.0000 </r>
       <r>    -9.3082     0.0000    48.0000 </r>
       <r>    -9.1020     0.0000    48.0000 </r>
       <r>    -8.8957     0.0000    48.0000 </r>
       <r>    -8.6895     0.0000    48.0000 </r>
       <r>    -8.4833     0.0000    48.0000 </r>
       <r>    -8.2771     0.0000    48.0000 </r>
       <r>    -8.0709     0.0000    48.0000 </r>
       <r>    -7.8646     0.0000    48.0000 </r>
       <r>    -7.6584     0.0000    48.0000 </r>
       <r>    -7.4522     0.0000    48.0000 </r>
       <r>    -7.2460     0.0000    48.0000 </r>
       <r>    -7.0398     0.0000    48.0000 </r>
       <r>    -6.8336     0.0000    48.0000 </r>
       <r>    -6.6273     0.0000    48.0000 </r>
       <r>    -6.4211     0.0000    48.0000 </r>
       <r>    -6.2149     0.0000    48.0000 </r>
       <r>    -6.0087     0.0000    48.0000 </r>
       <r>    -5.8025     0.0000    48.0000 </r>
       <r>    -5.5962     0.0000    48.0000 </r>
       <r>    -5.3900     0.0000    48.0000 </r>
       <r>    -5.1838     0.0000    48.0000 </r>
       <r>    -4.9776     0.0000    48.0000 </r>
       <r>    -4.7714     0.0000    48.0000 </r>
       <r>    -4.5651     0.0000    48.0000 </r>
       <r>    -4.3589     0.0000    48.0000 </r>
       <r>    -4.1527     0.0000    48.0000 </r>
       <r>    -3.9465     0.0000    48.0000 </r>
       <r>    -3.7403     0.0000    48.0000 </r>
       <r>    -3.5340     0.0000    48.0000 </r>
       <r>    -3.3278     0.0000    48.0000 </r>
       <r>    -3.1216     0.0000    48.0000 </r>
       <r>    -2.9154     0.0000    48.0000 </r>
       <r>    -2.7092     0.0000    48.0000 </r>
       <r>    -2.5029     0.0000    48.0000 </r>
       <r>    -2.2967     0.0000    48.0000 </r>
       <r>    -2.0905     0.0000    48.0000 </r>
       <r>    -1.8843    -0.0000    48.0000 </r>
       <r>    -1.6781    -0.0000    48.0000 </r>
       <r>    -1.4719    -0.0000    48.0000 </r>
       <r>    -1.2656    -0.0000    48.0000 </r>
       <r>    -1.0594    -0.0000    48.0000 </r>
       <r>    -0.8532    -0.0000    48.0000 </r>
       <r>    -0.6470    -0.0000    48.0000 </r>
       <r>    -0.4408    -0.0023    47.9995 </r>
       <r>    -0.2345    -0.0180    47.9958 </r>
       <r>    -0.0283     0.1609    48.0290 </r>
       <r>     0.1779     0.8812    48.2107 </r>
       <r>     0.3841     1.2697    48.4725 </r>
       <r>     0.5903     1.7734    48.8383 </r>
       <r>     0.7966     2.1395    49.2795 </r>
       <r>     1.0028     1.8521    49.6614 </r>
       <r>     1.2090     2.7998    50.2388 </r>
       <r>     1.4152     3.1147    50.8811 </r>
       <r>     1.6214     3.3419    51.5703 </r>
       <r>     1.8277     3.6961    52.3325 </r>
       <r>     2.0339     4.5128    53.2631 </r>
       <r>     2.2401     5.1941    54.3342 </r>
       <r>     2.4463     6.2938    55.6321 </r>
       <r>     2.6525     9.5404    57.5995 </r>
       <r>     2.8588    16.0224    60.9037 </r>
       <r>     3.0650    21.3411    65.3046 </r>
       <r>     3.2712    25.6134    70.5866 </r>
       <r>     3.4774    28.5106    76.4660 </r>
       <r>     3.6836    30.8868    82.8355 </r>
       <r>     3.8898    31.3611    89.3027 </r>
       <r>     4.0961    32.4893    96.0026 </r>
       <r>     4.3023    32.2451   102.6522 </r>
       <r>     4.5085    28.6840   108.5674 </r>
       <r>     4.7147    24.1222   113.5419 </r>
       <r>     4.9209    29.1101   119.5449 </r>
       <r>     5.1272    37.6203   127.3030 </r>
       <r>     5.3334    44.6210   136.5047 </r>
       <r>     5.5396    44.6042   145.7029 </r>
       <r>     5.7458    43.2485   154.6216 </r>
       <r>     5.9520    40.6631   163.0071 </r>
       <r>     6.1583    43.7690   172.0331 </r>
       <r>     6.3645    46.6353   181.6502 </r>
       <r>     6.5707    45.7154   191.0776 </r>
       <r>     6.7769    41.3258   199.5998 </r>
       <r>     6.9831    35.2422   206.8674 </r>
       <r>     7.1894    28.9913   212.8460 </r>
       <r>     7.3956    21.3205   217.2427 </r>
       <r>     7.6018    15.6534   220.4707 </r>
       <r>     7.8080    14.9797   223.5598 </r>
       <r>     8.0142    15.5126   226.7588 </r>
       <r>     8.2205    19.2944   230.7377 </r>
       <r>     8.4267    22.3061   235.3376 </r>
       <r>     8.6329    15.6475   238.5644 </r>
       <r>     8.8391     6.5751   239.9204 </r>
       <r>     9.0453     0.5334   240.0304 </r>
       <r>     9.2515    -0.1382   240.0019 </r>
       <r>     9.4578    -0.0089   240.0000 </r>
       <r>     9.6640    -0.0001   240.0000 </r>
       <r>     9.8702    -0.0000   240.0000 </r>
       <r>    10.0764    -0.0000   240.0000 </r>
       <r>    10.2826    -0.0000   240.0000 </r>
       <r>    10.4889     0.0000   240.0000 </r>
       <r>    10.6951     0.0000   240.0000 </r>
       <r>    10.9013     0.0000   240.0000 </r>
       <r>    11.1075     0.0000   240.0000 </r>
       <r>    11.3137     0.0000   240.0000 </r>
       <r>    11.5200     0.0000   240.0000 </r>
       <r>    11.7262     0.0000   240.0000 </r>
      </set>
     </set>
    </array>
   </total>
  </dos>
 </calculation>
 <structure name="finalpos" >
  <crystal>
   <varray name="basis" >
    <v>      -3.15776692      -3.14573558      -3.17041707 </v>
    <v>       1.57272651       1.55920526      -7.90643714 </v>
    <v>       7.95822406      -7.92512163      -1.58820047 </v>
   </varray>
   <i name="volume">    474.61608235 </i>
   <varray name="rec_basis" >
    <v>      -0.13723894      -0.12731004      -0.05240563 </v>
    <v>       0.04241298       0.06372742      -0.10547505 </v>
    <v>       0.06281897      -0.06310971       0.00005009 </v>
   </varray>
  </crystal>
  <varray name="positions" >
   <v>       0.95556895       0.93430137       0.39736035 </v>
   <v>       0.63071482       0.26716628       0.40270106 </v>
   <v>       0.49973235       0.00212235      -0.00581293 </v>
   <v>      -0.00248957       0.00410695       0.00156332 </v>
   <v>       0.09839539       0.20723301       0.79576585 </v>
   <v>       0.03814340       0.07022256       0.59666521 </v>
   <v>       0.90571568       0.79640723       0.20149701 </v>
   <v>       0.80699386       0.59222407       0.39964383 </v>
   <v>       0.73081824       0.46838866       0.19915555 </v>
   <v>       0.66130868       0.34558298      -0.00547251 </v>
   <v>       0.37199289       0.72312209       0.60286550 </v>
   <v>       0.13065644       0.27382029       0.40064110 </v>
   <v>       0.83716097       0.66379067       0.00208367 </v>
   <v>       0.92262434       0.87367756       0.79704580 </v>
   <v>       0.56423627       0.13720257       0.19441718 </v>
   <v>       0.40661837       0.79167113       0.19734097 </v>
   <v>       0.43749354       0.85470166       0.79708648 </v>
   <v>       0.30115346       0.60150626       0.40492167 </v>
   <v>       0.85820061       0.72682840       0.59947274 </v>
   <v>       0.46423515       0.92820173       0.40912047 </v>
   <v>       0.17540085       0.33942291      -0.00008702 </v>
   <v>       0.27422292       0.53193657       0.79439270 </v>
   <v>       0.20181274       0.38778472       0.59656799 </v>
   <v>       0.06208280       0.14962834       0.20705813 </v>
   <v>       0.76539850       0.51964699       0.80660971 </v>
   <v>       0.68523629       0.41032996       0.60753433 </v>
   <v>       0.59754317       0.20797532       0.79279661 </v>
   <v>       0.54957535       0.06888824       0.60937261 </v>
   <v>       0.34172929       0.64860650      -0.00175523 </v>
   <v>       0.22772423       0.47350263       0.19944787 </v>
  </varray>
 </structure>
</modeling>
