Nb - Mo - Ta - Ti - V SQS               
           1
    -3.160000   -3.160000   -3.160000
     1.580000    1.580000   -7.900000
     7.900000   -7.900000   -1.580000
   Nb   Mo   Ta   Ti   V 
   6   6   6   6   6
Direct configuration=     1
   0.96666667  0.93333333  0.40000000
   0.63333333  0.26666667  0.40000000
   0.50000000  0.00000000  0.00000000
   0.00000000  0.00000000  0.00000000
   0.10000000  0.20000000  0.80000000
   0.03333333  0.06666667  0.60000000
   0.90000000  0.80000000  0.20000000
   0.80000000  0.60000000  0.40000000
   0.73333333  0.46666667  0.20000000
   0.66666667  0.33333333  0.00000000
   0.36666667  0.73333333  0.60000000
   0.13333333  0.26666667  0.40000000
   0.83333333  0.66666667  0.00000000
   0.93333333  0.86666667  0.80000000
   0.56666667  0.13333333  0.20000000
   0.40000000  0.80000000  0.20000000
   0.43333333  0.86666667  0.80000000
   0.30000000  0.60000000  0.40000000
   0.86666667  0.73333333  0.60000000
   0.46666667  0.93333333  0.40000000
   0.16666667  0.33333333  0.00000000
   0.26666667  0.53333333  0.80000000
   0.20000000  0.40000000  0.60000000
   0.06666667  0.13333333  0.20000000
   0.76666667  0.53333333  0.80000000
   0.70000000  0.40000000  0.60000000
   0.60000000  0.20000000  0.80000000
   0.53333333  0.06666667  0.60000000
   0.33333333  0.66666667  0.00000000
   0.23333333  0.46666667  0.20000000
Nb - Mo - Ta - Ti - V SQS               
           1
    -3.162641   -3.155100   -3.163522
     1.580412    1.584908   -7.915254
     7.933415   -7.920376   -1.575947
   Nb   Mo   Ta   Ti   V 
   6   6   6   6   6
Direct configuration=     2
   0.96283505  0.93372294  0.39893548
   0.63195428  0.26676361  0.40162856
   0.49875089  0.00233058 -0.00159989
  -0.00116348  0.00058925  0.00085198
   0.09745854  0.20518234  0.79766154
   0.03377939  0.06897293  0.59848360
   0.90326163  0.79714415  0.20168541
   0.80381874  0.59508469  0.39944467
   0.73286511  0.46679443  0.19857130
   0.66360678  0.33846516 -0.00121449
   0.36964800  0.73038557  0.60073102
   0.13305774  0.27053200  0.39979882
   0.83501135  0.66266689  0.00163651
   0.92978849  0.86845800  0.79950099
   0.56504380  0.13527104  0.19785398
   0.40318893  0.79434574  0.19819120
   0.43851021  0.86125497  0.79774219
   0.30006955  0.60061156  0.40202265
   0.86350943  0.73143273  0.59965448
   0.46600923  0.93221547  0.40339129
   0.16908205  0.33485404  0.00044363
   0.26994631  0.53359300  0.79901944
   0.20075368  0.39672312  0.59969284
   0.06560231  0.13856507  0.20225236
   0.76707467  0.52930238  0.80117809
   0.69651672  0.40347390  0.60146195
   0.59853297  0.20208629  0.79914137
   0.53596139  0.06824278  0.60192082
   0.33480226  0.66225925  0.00005113
   0.23072398  0.46867612  0.19986706
Nb - Mo - Ta - Ti - V SQS               
           1
    -3.165343   -3.150087   -3.167124
     1.580834    1.589930   -7.930859
     7.967599   -7.941221   -1.571800
   Nb   Mo   Ta   Ti   V 
   6   6   6   6   6
Direct configuration=     3
   0.95891258  0.93412263  0.39784843
   0.63054709  0.26686390  0.40328828
   0.49746905  0.00471038 -0.00323094
  -0.00235195  0.00119183  0.00172020
   0.09485250  0.21047434  0.79527769
   0.03423201  0.07132693  0.59693847
   0.90660269  0.79422689  0.20340448
   0.80772496  0.59006366  0.39887892
   0.73238283  0.46692470  0.19711452
   0.66047289  0.34370626 -0.00245270
   0.37270014  0.72737435  0.60147691
   0.13277485  0.27447868  0.39959470
   0.83673229  0.65858258  0.00330464
   0.92616050  0.87028888  0.79899104
   0.56337840  0.13724976  0.19566582
   0.40644807  0.78857023  0.19634700
   0.44380213  0.85572581  0.79544125
   0.30014520  0.60123656  0.40408500
   0.86027881  0.72949392  0.59930012
   0.46534443  0.93107555  0.40684816
   0.17155396  0.33640544  0.00089753
   0.27329936  0.53385591  0.79802141
   0.20152449  0.39337683  0.59937910
   0.06451782  0.14390810  0.20454970
   0.76749527  0.52518684  0.80237822
   0.69295594  0.40702329  0.60295176
   0.59702988  0.20421702  0.79826587
   0.53865421  0.06985109  0.60388088
   0.33630576  0.65775836  0.00010270
   0.22805387  0.47072928  0.19973084
Nb - Mo - Ta - Ti - V SQS               
           1
    -3.133464   -3.116572   -3.140142
     1.561613    1.565209   -7.852232
     7.894496   -7.861964   -1.560343
   Nb   Mo   Ta   Ti   V 
   6   6   6   6   6
Direct configuration=     4
   0.95642057  0.93428391  0.39718182
   0.63006192  0.26712643  0.40301490
   0.49855130  0.00307281 -0.00506184
  -0.00320953  0.00252737  0.00194495
   0.09442823  0.21140104  0.79440807
   0.03528977  0.07220916  0.59616201
   0.90731771  0.79299512  0.20337359
   0.80959098  0.58861712  0.39878350
   0.73159504  0.46568285  0.19767390
   0.65835551  0.34666217 -0.00409768
   0.37443266  0.72448547  0.60193549
   0.13137463  0.27594360  0.39991804
   0.83722513  0.66052216  0.00342550
   0.92524646  0.87198673  0.79882930
   0.56283287  0.13822094  0.19472068
   0.40831020  0.78709927  0.19588773
   0.44193441  0.85413194  0.79474970
   0.30152316  0.60152968  0.40588817
   0.85797148  0.72825155  0.59901069
   0.46456912  0.92964626  0.40868202
   0.17474170  0.33763513  0.00088433
   0.27609973  0.53387955  0.79712056
   0.20221503  0.39060631  0.59836390
   0.06321277  0.14767293  0.20622935
   0.76774659  0.52131208  0.80375498
   0.68889252  0.41038244  0.60496555
   0.59601050  0.20675297  0.79673287
   0.54277289  0.07038716  0.60648838
   0.33797441  0.65247667 -0.00049720
   0.22651225  0.47249916  0.19952675
Nb - Mo - Ta - Ti - V SQS               
           1
    -3.150410   -3.134388   -3.154486
     1.571830    1.578350   -7.894029
     7.933357   -7.904096   -1.566433
   Nb   Mo   Ta   Ti   V 
   6   6   6   6   6
Direct configuration=     5
   0.95775911  0.93419614  0.39753979
   0.63032277  0.26698510  0.40316171
   0.49796936  0.00395234 -0.00407951
  -0.00274793  0.00180958  0.00182462
   0.09465718  0.21090265  0.79487502
   0.03472282  0.07173519  0.59657886
   0.90693268  0.79365718  0.20338990
   0.80858773  0.58939495  0.39883434
   0.73201678  0.46635004  0.19737348
   0.65949569  0.34507260 -0.00321409
   0.37349963  0.72603844  0.60168872
   0.13212769  0.27515614  0.39974485
   0.83696215  0.65948024  0.00336096
   0.92573884  0.87107410  0.79891648
   0.56312700  0.13769857  0.19522818
   0.40730914  0.78789008  0.19613385
   0.44293618  0.85498742  0.79512069
   0.30078284  0.60137336  0.40492033
   0.85920948  0.72891818  0.59916594
   0.46498353  0.93041466  0.40769751
   0.17303103  0.33697550  0.00089145
   0.27459633  0.53386745  0.79760391
   0.20184214  0.39209476  0.59890823
   0.06391627  0.14565029  0.20532861
   0.76760773  0.52339461  0.80301530
   0.69107673  0.40857696  0.60388556
   0.59656066  0.20538946  0.79755621
   0.54056079  0.07010154  0.60508871
   0.33707394  0.65531486 -0.00017629
   0.22734170  0.47154760  0.19963671
Nb - Mo - Ta - Ti - V SQS               
           1
    -3.155283   -3.140161   -3.164717
     1.571211    1.569084   -7.904491
     7.943267   -7.911158   -1.576603
   Nb   Mo   Ta   Ti   V 
   6   6   6   6   6
Direct configuration=     6
   0.95627896  0.93431213  0.39731750
   0.63037752  0.26709395  0.40245874
   0.49935171  0.00158081 -0.00557465
  -0.00306841  0.00323447  0.00179563
   0.09539638  0.20986415  0.79487505
   0.03569914  0.07177789  0.59637913
   0.90640654  0.79367126  0.20253504
   0.80871905  0.59028296  0.39915491
   0.73143896  0.46509452  0.19862846
   0.65864982  0.34611220 -0.00474767
   0.37407372  0.72400636  0.60198010
   0.13096227  0.27475091  0.40020414
   0.83714765  0.66301532  0.00264501
   0.92585299  0.87231960  0.79871243
   0.56305709  0.13774990  0.19504536
   0.40772332  0.78873964  0.19647821
   0.43897727  0.85538209  0.79542992
   0.30232680  0.60129142  0.40597394
   0.85815275  0.72815268  0.59902937
   0.46444172  0.92930240  0.40841028
   0.17546646  0.33784265  0.00058563
   0.27628544  0.53348253  0.79687362
   0.20225313  0.39030271  0.59800499
   0.06288528  0.14772073  0.20626489
   0.76765167  0.52071357  0.80409480
   0.68784203  0.41075849  0.60575485
   0.59599786  0.20757492  0.79592410
   0.54433430  0.07008915  0.60728558
   0.33841003  0.65113285 -0.00098112
   0.22690854  0.47264774  0.19946176
Nb - Mo - Ta - Ti - V SQS               
           1
    -3.156735   -3.141881   -3.167766
     1.571026    1.566323   -7.907609
     7.946220   -7.913263   -1.579633
   Nb   Mo   Ta   Ti   V 
   6   6   6   6   6
Direct configuration=     7
   0.95583869  0.93434697  0.39725134
   0.63039376  0.26712658  0.40224946
   0.49976415  0.00087471 -0.00601935
  -0.00316450  0.00365893  0.00178678
   0.09561679  0.20955473  0.79487522
   0.03598949  0.07179052  0.59631966
   0.90625006  0.79367580  0.20228058
   0.80875763  0.59054733  0.39925019
   0.73126777  0.46472026  0.19900225
   0.65839771  0.34642245 -0.00520433
   0.37424556  0.72340094  0.60206716
   0.13061587  0.27463025  0.40034095
   0.83720092  0.66406843  0.00243131
   0.92588627  0.87269062  0.79865149
   0.56303628  0.13776525  0.19499093
   0.40784603  0.78899251  0.19658057
   0.43779961  0.85550013  0.79552198
   0.30278601  0.60126645  0.40628756
   0.85783888  0.72792488  0.59898886
   0.46428116  0.92897098  0.40862264
   0.17619033  0.33810066  0.00049441
   0.27678803  0.53336785  0.79665626
   0.20237636  0.38976917  0.59773640
   0.06257751  0.14833727  0.20654327
   0.76766617  0.51991468  0.80441658
   0.68687876  0.41140816  0.60631099
   0.59582933  0.20822644  0.79543791
   0.54545656  0.07008421  0.60793947
   0.33880968  0.64988730 -0.00122004
   0.22677912  0.47297553  0.19940950
Nb - Mo - Ta - Ti - V SQS               
           1
    -3.160214   -3.146155   -3.170628
     1.573071    1.565580   -7.912215
     7.956721   -7.923522   -1.583299
   Nb   Mo   Ta   Ti   V 
   6   6   6   6   6
Direct configuration=     8
   0.95563662  0.93430495  0.39727358
   0.63045372  0.26695865  0.40260214
   0.49956225  0.00134227 -0.00591361
  -0.00315624  0.00410889  0.00180432
   0.09657672  0.20847059  0.79525696
   0.03652459  0.07124923  0.59657358
   0.90599169  0.79458492  0.20191660
   0.80827782  0.59154767  0.39946962
   0.73092396  0.46631987  0.19893147
   0.65963693  0.34592635 -0.00542357
   0.37332256  0.72354666  0.60250425
   0.13068049  0.27404597  0.40048663
   0.83734778  0.66350967  0.00221849
   0.92433718  0.87340319  0.79799625
   0.56320568  0.13701095  0.19451577
   0.40744370  0.78958265  0.19710609
   0.43817052  0.85547810  0.79591850
   0.30251116  0.60126686  0.40546792
   0.85804808  0.72771089  0.59914695
   0.46420583  0.92866826  0.40863499
   0.17607572  0.33852653  0.00024003
   0.27648670  0.53286267  0.79610729
   0.20221243  0.38922990  0.59744236
   0.06232084  0.14856008  0.20671651
   0.76712669  0.51975809  0.80505608
   0.68628175  0.41140294  0.60685094
   0.59616845  0.20846550  0.79456907
   0.54692006  0.06990257  0.60847655
   0.33967301  0.64928514 -0.00152471
   0.22703332  0.47296999  0.19957894
Nb - Mo - Ta - Ti - V SQS               
           1
    -3.161837   -3.148149   -3.171963
     1.574026    1.565233   -7.914364
     7.961621   -7.928311   -1.585010
   Nb   Mo   Ta   Ti   V 
   6   6   6   6   6
Direct configuration=     9
   0.95554243  0.93428534  0.39728395
   0.63048166  0.26688030  0.40276654
   0.49946812  0.00156035 -0.00586435
  -0.00315241  0.00431877  0.00181245
   0.09702423  0.20796489  0.79543496
   0.03677404  0.07099675  0.59669197
   0.90587123  0.79500902  0.20174687
   0.80805411  0.59201425  0.39957182
   0.73076365  0.46706603  0.19889836
   0.66021463  0.34569502 -0.00552575
   0.37289228  0.72361455  0.60270799
   0.13071062  0.27377341  0.40055458
   0.83741626  0.66324905  0.00211934
   0.92361505  0.87373555  0.79769082
   0.56328468  0.13665914  0.19429436
   0.40725612  0.78985787  0.19735100
   0.43834341  0.85546781  0.79610332
   0.30238306  0.60126711  0.40508589
   0.85814561  0.72761106  0.59922065
   0.46417071  0.92852705  0.40864077
   0.17602228  0.33872520  0.00012144
   0.27634625  0.53262704  0.79585145
   0.20213603  0.38897836  0.59730536
   0.06220118  0.14866398  0.20679724
   0.76687518  0.51968496  0.80535418
   0.68600342  0.41140043  0.60710262
   0.59632655  0.20857710  0.79416407
   0.54760228  0.06981789  0.60872687
   0.34007549  0.64900433 -0.00166668
   0.22715182  0.47296740  0.19965791
Nb - Mo - Ta - Ti - V SQS               
           1
    -3.157598   -3.144784   -3.167559
     1.572192    1.561485   -7.901593
     7.952703   -7.919919   -1.584476
   Nb   Mo   Ta   Ti   V 
   6   6   6   6   6
Direct configuration=    10
   0.95549349  0.93423669  0.39729243
   0.63054214  0.26683686  0.40293597
   0.49943034  0.00187333 -0.00577075
  -0.00311778  0.00448084  0.00178906
   0.09771372  0.20727776  0.79570185
   0.03726346  0.07059312  0.59682662
   0.90569057  0.79567958  0.20152217
   0.80769539  0.59252408  0.39967203
   0.73058298  0.46812907  0.19888139
   0.66106992  0.34540037 -0.00561015
   0.37226277  0.72366720  0.60295150
   0.13073138  0.27350919  0.40065998
   0.83737098  0.66297967  0.00201941
   0.92267416  0.87413828  0.79725878
   0.56352234  0.13630360  0.19405480
   0.40698278  0.79035874  0.19759034
   0.43844701  0.85535833  0.79644048
   0.30199346  0.60128540  0.40466016
   0.85829376  0.72742045  0.59934308
   0.46410887  0.92833223  0.40869546
   0.17585798  0.33903391 -0.00003662
   0.27592212  0.53230594  0.79536108
   0.20201849  0.38858355  0.59704775
   0.06199255  0.14887946  0.20692757
   0.76640936  0.51964149  0.80585090
   0.68561809  0.41129328  0.60743370
   0.59667691  0.20860255  0.79353696
   0.54860197  0.06962040  0.60907604
   0.34078150  0.64867486 -0.00183507
   0.22736930  0.47297978  0.19972310
Nb - Mo - Ta - Ti - V SQS               
           1
    -3.157529   -3.144729   -3.167487
     1.572162    1.561424   -7.901383
     7.952556   -7.919782   -1.584467
   Nb   Mo   Ta   Ti   V 
   6   6   6   6   6
Direct configuration=    11
   0.95549269  0.93423589  0.39729257
   0.63054313  0.26683614  0.40293876
   0.49942972  0.00187847 -0.00576921
  -0.00311721  0.00448351  0.00178868
   0.09772505  0.20726646  0.79570624
   0.03727150  0.07058648  0.59682884
   0.90568760  0.79569060  0.20151847
   0.80768949  0.59253246  0.39967368
   0.73058001  0.46814655  0.19888110
   0.66108398  0.34539553 -0.00561154
   0.37225242  0.72366807  0.60295550
   0.13073173  0.27350485  0.40066172
   0.83737023  0.66297524  0.00201777
   0.92265869  0.87414490  0.79725168
   0.56352625  0.13629775  0.19405086
   0.40697829  0.79036698  0.19759427
   0.43844871  0.85535653  0.79644602
   0.30198706  0.60128570  0.40465316
   0.85829620  0.72741731  0.59934509
   0.46410785  0.92832902  0.40869635
   0.17585528  0.33903898 -0.00003922
   0.27591515  0.53230066  0.79535302
   0.20201656  0.38857706  0.59704351
   0.06198912  0.14888300  0.20692971
   0.76640170  0.51964077  0.80585906
   0.68561175  0.41129152  0.60743914
   0.59668268  0.20860297  0.79352665
   0.54861840  0.06961715  0.60908178
   0.34079310  0.64866944 -0.00183784
   0.22737287  0.47297998  0.19972417
Nb - Mo - Ta - Ti - V SQS               
           1
    -3.157200   -3.144693   -3.167718
     1.572055    1.560631   -7.901248
     7.953004   -7.920393   -1.585159
   Nb   Mo   Ta   Ti   V 
   6   6   6   6   6
Direct configuration=    12
   0.95552213  0.93424181  0.39730658
   0.63058284  0.26689467  0.40287481
   0.49950652  0.00188785 -0.00577909
  -0.00302110  0.00439585  0.00174609
   0.09787714  0.20723677  0.79573407
   0.03745518  0.07052391  0.59678724
   0.90567276  0.79585245  0.20149440
   0.80754274  0.59246357  0.39966480
   0.73064203  0.46817901  0.19896220
   0.66118190  0.34540382 -0.00558943
   0.37216936  0.72357518  0.60292808
   0.13071325  0.27356536  0.40067649
   0.83727608  0.66315291  0.00201023
   0.92268710  0.87407253  0.79719168
   0.56372017  0.13644423  0.19414975
   0.40689496  0.79066432  0.19750325
   0.43819252  0.85524571  0.79660327
   0.30177080  0.60132610  0.40473394
   0.85829920  0.72731589  0.59938152
   0.46409990  0.92830373  0.40878419
   0.17575927  0.33912156 -0.00005135
   0.27558456  0.53222817  0.79513423
   0.20198075  0.38844094  0.59693780
   0.06194264  0.14902110  0.20695839
   0.76622861  0.51965143  0.80601214
   0.68552824  0.41112734  0.60749683
   0.59685646  0.20849830  0.79335292
   0.54884160  0.06948562  0.60915534
   0.34102735  0.64863714 -0.00182128
   0.22746503  0.47304272  0.19966091
Nb - Mo - Ta - Ti - V SQS               
           1
    -3.156214   -3.144586   -3.168414
     1.571734    1.558251   -7.900841
     7.954346   -7.922225   -1.587234
   Nb   Mo   Ta   Ti   V 
   6   6   6   6   6
Direct configuration=    13
   0.95561046  0.93425959  0.39734863
   0.63070195  0.26707027  0.40268298
   0.49973693  0.00191598 -0.00580872
  -0.00273272  0.00413287  0.00161834
   0.09833342  0.20714766  0.79581756
   0.03800628  0.07033616  0.59666243
   0.90562821  0.79633805  0.20142217
   0.80710251  0.59225689  0.39963819
   0.73082805  0.46827637  0.19920544
   0.66147566  0.34542867 -0.00552313
   0.37192020  0.72329651  0.60284583
   0.13065781  0.27374691  0.40072079
   0.83699358  0.66368596  0.00198759
   0.92277236  0.87385540  0.79701171
   0.56430189  0.13688367  0.19444638
   0.40664486  0.79155645  0.19723017
   0.43742394  0.85491323  0.79707500
   0.30112197  0.60144731  0.40497626
   0.85830824  0.72701159  0.59949082
   0.46407605  0.92822782  0.40904768
   0.17547121  0.33936933 -0.00008776
   0.27459280  0.53201077  0.79447792
   0.20187338  0.38803259  0.59662072
   0.06180315  0.14943542  0.20704439
   0.76570926  0.51968341  0.80647136
   0.68527775  0.41063475  0.60766993
   0.59737790  0.20818425  0.79283175
   0.54951125  0.06909097  0.60937603
   0.34173013  0.64854019 -0.00177161
   0.22774150  0.47323097  0.19947115
Nb - Mo - Ta - Ti - V SQS               
           1
    -3.157389   -3.145456   -3.169929
     1.572485    1.558973   -7.905074
     7.957279   -7.924416   -1.587965
   Nb   Mo   Ta   Ti   V 
   6   6   6   6   6
Direct configuration=    14
   0.95557906  0.93429119  0.39735750
   0.63071168  0.26714290  0.40269666
   0.49973347  0.00207210 -0.00581191
  -0.00254878  0.00411327  0.00157672
   0.09838030  0.20721223  0.79577844
   0.03811001  0.07025022  0.59666453
   0.90569438  0.79639038  0.20147879
   0.80702032  0.59223206  0.39964246
   0.73082063  0.46836132  0.19916770
   0.66134934  0.34554541 -0.00548483
   0.37197519  0.72316456  0.60286071
   0.13065677  0.27380243  0.40066050
   0.83712021  0.66376518  0.00206027
   0.92266038  0.87372086  0.79703750
   0.56425225  0.13712493  0.19442429
   0.40662482  0.79164321  0.19731399
   0.43747659  0.85475317  0.79708368
   0.30114579  0.60149190  0.40493496
   0.85822681  0.72687300  0.59947715
   0.46419641  0.92820808  0.40910274
   0.17541799  0.33940986 -0.00008720
   0.27431299  0.53195463  0.79441345
   0.20182751  0.38784507  0.59658083
   0.06201470  0.14958137  0.20705478
   0.76547417  0.51965585  0.80657602
   0.68524638  0.41040417  0.60756735
   0.59750292  0.20802620  0.79280517
   0.54955974  0.06893760  0.60937344
   0.34172950  0.64859035 -0.00175922
   0.22772844  0.47343648  0.19945354
Nb - Mo - Ta - Ti - V SQS               
           1
    -3.157767   -3.145736   -3.170417
     1.572727    1.559205   -7.906437
     7.958224   -7.925122   -1.588200
   Nb   Mo   Ta   Ti   V 
   6   6   6   6   6
Direct configuration=    15
   0.95556895  0.93430137  0.39736035
   0.63071482  0.26716628  0.40270106
   0.49973235  0.00212235 -0.00581293
  -0.00248957  0.00410695  0.00156332
   0.09839539  0.20723301  0.79576585
   0.03814340  0.07022256  0.59666521
   0.90571568  0.79640723  0.20149701
   0.80699386  0.59222407  0.39964383
   0.73081824  0.46838866  0.19915555
   0.66130868  0.34558298 -0.00547251
   0.37199289  0.72312209  0.60286550
   0.13065644  0.27382029  0.40064110
   0.83716097  0.66379067  0.00208367
   0.92262434  0.87367756  0.79704580
   0.56423627  0.13720257  0.19441718
   0.40661837  0.79167113  0.19734097
   0.43749354  0.85470166  0.79708648
   0.30115346  0.60150626  0.40492167
   0.85820061  0.72682840  0.59947274
   0.46423515  0.92820173  0.40912047
   0.17540085  0.33942291 -0.00008702
   0.27422292  0.53193657  0.79439270
   0.20181274  0.38778472  0.59656799
   0.06208280  0.14962834  0.20705813
   0.76539850  0.51964699  0.80660971
   0.68523629  0.41032996  0.60753433
   0.59754317  0.20797532  0.79279661
   0.54957535  0.06888824  0.60937261
   0.34172929  0.64860650 -0.00175523
   0.22772423  0.47350263  0.19944787
