  29  29   0   0
  0.1632129E+02  0.5473281E-09  0.8209921E-09  0.1128346E-08  0.5000000E-15
  1.000000000000000E-004
  CAR 
 Nb - Mo - Ta - Ti - V SQS               
     11.70739609    -50.39453349  301      6.74796391      1.00000000
    -50.395  0.0000E+00  0.0000E+00
    -50.188  0.0000E+00  0.0000E+00
    -49.981  0.0000E+00  0.0000E+00
    -49.774  0.0000E+00  0.0000E+00
    -49.567  0.0000E+00  0.0000E+00
    -49.360 -0.7507E-35 -0.1554E-35
    -49.152 -0.2542E-27 -0.5262E-28
    -48.945 -0.9934E-21 -0.2056E-21
    -48.738 -0.4349E-15 -0.9002E-16
    -48.531 -0.2179E-10 -0.4511E-11
    -48.324 -0.1216E-06 -0.2519E-07
    -48.117 -0.7200E-04 -0.1493E-04
    -47.910 -0.3884E-02 -0.8190E-03
    -47.703  0.3006E-02 -0.1967E-03
    -47.496  0.1889E+00  0.3891E-01
    -47.289  0.4887E+00  0.1401E+00
    -47.082  0.3709E+00  0.2168E+00
    -46.875  0.1149E+00  0.2406E+00
    -46.668 -0.6264E-03  0.2405E+00
    -46.461 -0.2366E-02  0.2400E+00
    -46.254 -0.3207E-04  0.2400E+00
    -46.047 -0.3937E-07  0.2400E+00
    -45.840 -0.5115E-11  0.2400E+00
    -45.633 -0.8581E-16  0.2400E+00
    -45.426  0.0000E+00  0.2400E+00
    -45.219  0.0000E+00  0.2400E+00
    -45.012  0.0000E+00  0.2400E+00
    -44.805  0.0000E+00  0.2400E+00
    -44.598  0.0000E+00  0.2400E+00
    -44.391  0.0000E+00  0.2400E+00
    -44.184  0.0000E+00  0.2400E+00
    -43.977  0.0000E+00  0.2400E+00
    -43.770  0.0000E+00  0.2400E+00
    -43.563  0.0000E+00  0.2400E+00
    -43.356  0.0000E+00  0.2400E+00
    -43.149  0.0000E+00  0.2400E+00
    -42.942  0.0000E+00  0.2400E+00
    -42.735  0.0000E+00  0.2400E+00
    -42.528  0.0000E+00  0.2400E+00
    -42.321  0.0000E+00  0.2400E+00
    -42.114  0.0000E+00  0.2400E+00
    -41.907  0.0000E+00  0.2400E+00
    -41.700  0.0000E+00  0.2400E+00
    -41.493  0.0000E+00  0.2400E+00
    -41.286  0.0000E+00  0.2400E+00
    -41.079  0.0000E+00  0.2400E+00
    -40.872  0.0000E+00  0.2400E+00
    -40.665  0.0000E+00  0.2400E+00
    -40.458  0.0000E+00  0.2400E+00
    -40.251  0.0000E+00  0.2400E+00
    -40.044  0.0000E+00  0.2400E+00
    -39.837  0.0000E+00  0.2400E+00
    -39.630  0.0000E+00  0.2400E+00
    -39.423  0.0000E+00  0.2400E+00
    -39.216  0.0000E+00  0.2400E+00
    -39.009  0.0000E+00  0.2400E+00
    -38.802  0.0000E+00  0.2400E+00
    -38.595  0.0000E+00  0.2400E+00
    -38.388  0.0000E+00  0.2400E+00
    -38.181  0.0000E+00  0.2400E+00
    -37.974  0.0000E+00  0.2400E+00
    -37.767  0.0000E+00  0.2400E+00
    -37.560  0.0000E+00  0.2400E+00
    -37.353  0.0000E+00  0.2400E+00
    -37.146  0.0000E+00  0.2400E+00
    -36.939  0.0000E+00  0.2400E+00
    -36.732  0.0000E+00  0.2400E+00
    -36.525  0.0000E+00  0.2400E+00
    -36.318  0.0000E+00  0.2400E+00
    -36.111  0.0000E+00  0.2400E+00
    -35.904  0.0000E+00  0.2400E+00
    -35.697  0.0000E+00  0.2400E+00
    -35.490  0.0000E+00  0.2400E+00
    -35.283  0.0000E+00  0.2400E+00
    -35.076  0.0000E+00  0.2400E+00
    -34.869  0.0000E+00  0.2400E+00
    -34.662  0.0000E+00  0.2400E+00
    -34.455  0.0000E+00  0.2400E+00
    -34.248  0.0000E+00  0.2400E+00
    -34.041  0.0000E+00  0.2400E+00
    -33.834  0.0000E+00  0.2400E+00
    -33.627  0.0000E+00  0.2400E+00
    -33.420  0.0000E+00  0.2400E+00
    -33.213  0.0000E+00  0.2400E+00
    -33.006  0.0000E+00  0.2400E+00
    -32.799  0.0000E+00  0.2400E+00
    -32.592  0.0000E+00  0.2400E+00
    -32.385  0.0000E+00  0.2400E+00
    -32.178  0.0000E+00  0.2400E+00
    -31.971  0.0000E+00  0.2400E+00
    -31.764  0.0000E+00  0.2400E+00
    -31.557  0.0000E+00  0.2400E+00
    -31.350  0.0000E+00  0.2400E+00
    -31.143  0.0000E+00  0.2400E+00
    -30.936  0.0000E+00  0.2400E+00
    -30.729  0.0000E+00  0.2400E+00
    -30.522  0.0000E+00  0.2400E+00
    -30.315  0.0000E+00  0.2400E+00
    -30.108  0.0000E+00  0.2400E+00
    -29.901  0.0000E+00  0.2400E+00
    -29.694  0.0000E+00  0.2400E+00
    -29.487  0.0000E+00  0.2400E+00
    -29.280  0.0000E+00  0.2400E+00
    -29.073  0.0000E+00  0.2400E+00
    -28.866  0.0000E+00  0.2400E+00
    -28.659  0.0000E+00  0.2400E+00
    -28.452  0.0000E+00  0.2400E+00
    -28.245  0.0000E+00  0.2400E+00
    -28.038  0.0000E+00  0.2400E+00
    -27.831  0.0000E+00  0.2400E+00
    -27.624  0.0000E+00  0.2400E+00
    -27.417  0.0000E+00  0.2400E+00
    -27.210  0.0000E+00  0.2400E+00
    -27.003  0.0000E+00  0.2400E+00
    -26.796  0.0000E+00  0.2400E+00
    -26.589  0.0000E+00  0.2400E+00
    -26.382  0.0000E+00  0.2400E+00
    -26.175  0.0000E+00  0.2400E+00
    -25.968 -0.2744E-33  0.2400E+00
    -25.761 -0.5030E-26  0.2400E+00
    -25.554 -0.1079E-19  0.2400E+00
    -25.347 -0.2637E-14  0.2400E+00
    -25.140 -0.7737E-10  0.2400E+00
    -24.933 -0.2669E-06  0.2400E+00
    -24.726 -0.1062E-03  0.2400E+00
    -24.519 -0.4194E-02  0.2391E+00
    -24.312  0.1025E-01  0.2412E+00
    -24.105  0.1937E+00  0.2813E+00
    -23.898  0.2744E+00  0.3381E+00
    -23.691  0.3725E+00  0.4152E+00
    -23.484  0.8890E+00  0.5992E+00
    -23.277  0.8769E+00  0.7808E+00
    -23.070  0.4428E+00  0.8724E+00
    -22.863  0.3550E+00  0.9459E+00
    -22.656  0.8048E-01  0.9626E+00
    -22.449 -0.1191E-01  0.9601E+00
    -22.242 -0.6163E-03  0.9600E+00
    -22.035 -0.2468E-05  0.9600E+00
    -21.828 -0.1063E-08  0.9600E+00
    -21.621 -0.5226E-13  0.9600E+00
    -21.414  0.0000E+00  0.9600E+00
    -21.207  0.0000E+00  0.9600E+00
    -21.000  0.0000E+00  0.9600E+00
    -20.793  0.0000E+00  0.9600E+00
    -20.586  0.0000E+00  0.9600E+00
    -20.379  0.0000E+00  0.9600E+00
    -20.172  0.0000E+00  0.9600E+00
    -19.965  0.0000E+00  0.9600E+00
    -19.758  0.0000E+00  0.9600E+00
    -19.551  0.0000E+00  0.9600E+00
    -19.344  0.0000E+00  0.9600E+00
    -19.137  0.0000E+00  0.9600E+00
    -18.930  0.0000E+00  0.9600E+00
    -18.723  0.0000E+00  0.9600E+00
    -18.516  0.0000E+00  0.9600E+00
    -18.309  0.0000E+00  0.9600E+00
    -18.102  0.0000E+00  0.9600E+00
    -17.895  0.0000E+00  0.9600E+00
    -17.688  0.0000E+00  0.9600E+00
    -17.481  0.0000E+00  0.9600E+00
    -17.274  0.0000E+00  0.9600E+00
    -17.066  0.0000E+00  0.9600E+00
    -16.859  0.0000E+00  0.9600E+00
    -16.652  0.0000E+00  0.9600E+00
    -16.445  0.0000E+00  0.9600E+00
    -16.238  0.0000E+00  0.9600E+00
    -16.031  0.0000E+00  0.9600E+00
    -15.824  0.0000E+00  0.9600E+00
    -15.617  0.0000E+00  0.9600E+00
    -15.410  0.0000E+00  0.9600E+00
    -15.203  0.0000E+00  0.9600E+00
    -14.996  0.0000E+00  0.9600E+00
    -14.789  0.0000E+00  0.9600E+00
    -14.582  0.0000E+00  0.9600E+00
    -14.375  0.0000E+00  0.9600E+00
    -14.168  0.0000E+00  0.9600E+00
    -13.961  0.0000E+00  0.9600E+00
    -13.754  0.0000E+00  0.9600E+00
    -13.547  0.0000E+00  0.9600E+00
    -13.340  0.0000E+00  0.9600E+00
    -13.133  0.0000E+00  0.9600E+00
    -12.926  0.0000E+00  0.9600E+00
    -12.719  0.0000E+00  0.9600E+00
    -12.512  0.0000E+00  0.9600E+00
    -12.305  0.0000E+00  0.9600E+00
    -12.098  0.0000E+00  0.9600E+00
    -11.891  0.0000E+00  0.9600E+00
    -11.684  0.0000E+00  0.9600E+00
    -11.477  0.0000E+00  0.9600E+00
    -11.270  0.0000E+00  0.9600E+00
    -11.063  0.0000E+00  0.9600E+00
    -10.856  0.0000E+00  0.9600E+00
    -10.649  0.0000E+00  0.9600E+00
    -10.442  0.0000E+00  0.9600E+00
    -10.235  0.0000E+00  0.9600E+00
    -10.028  0.0000E+00  0.9600E+00
     -9.821  0.0000E+00  0.9600E+00
     -9.614  0.0000E+00  0.9600E+00
     -9.407  0.0000E+00  0.9600E+00
     -9.200  0.0000E+00  0.9600E+00
     -8.993  0.0000E+00  0.9600E+00
     -8.786  0.0000E+00  0.9600E+00
     -8.579  0.0000E+00  0.9600E+00
     -8.372  0.0000E+00  0.9600E+00
     -8.165  0.0000E+00  0.9600E+00
     -7.958  0.0000E+00  0.9600E+00
     -7.751  0.0000E+00  0.9600E+00
     -7.544  0.0000E+00  0.9600E+00
     -7.337  0.0000E+00  0.9600E+00
     -7.130  0.0000E+00  0.9600E+00
     -6.923  0.0000E+00  0.9600E+00
     -6.716  0.0000E+00  0.9600E+00
     -6.509  0.0000E+00  0.9600E+00
     -6.302  0.0000E+00  0.9600E+00
     -6.095  0.0000E+00  0.9600E+00
     -5.888  0.0000E+00  0.9600E+00
     -5.681  0.0000E+00  0.9600E+00
     -5.474  0.0000E+00  0.9600E+00
     -5.267  0.0000E+00  0.9600E+00
     -5.060  0.0000E+00  0.9600E+00
     -4.853  0.0000E+00  0.9600E+00
     -4.646  0.0000E+00  0.9600E+00
     -4.439  0.0000E+00  0.9600E+00
     -4.232  0.0000E+00  0.9600E+00
     -4.025  0.0000E+00  0.9600E+00
     -3.818  0.0000E+00  0.9600E+00
     -3.611  0.0000E+00  0.9600E+00
     -3.404  0.0000E+00  0.9600E+00
     -3.197  0.0000E+00  0.9600E+00
     -2.990  0.0000E+00  0.9600E+00
     -2.783  0.0000E+00  0.9600E+00
     -2.576  0.0000E+00  0.9600E+00
     -2.369  0.0000E+00  0.9600E+00
     -2.162  0.0000E+00  0.9600E+00
     -1.955  0.0000E+00  0.9600E+00
     -1.748 -0.1920E-30  0.9600E+00
     -1.541 -0.9713E-24  0.9600E+00
     -1.334 -0.5780E-18  0.9600E+00
     -1.127 -0.3902E-13  0.9600E+00
     -0.920 -0.3193E-09  0.9600E+00
     -0.713 -0.3084E-06  0.9600E+00
     -0.506 -0.3464E-04  0.9600E+00
     -0.299 -0.3463E-03  0.9599E+00
     -0.092  0.2508E-02  0.9604E+00
      0.115  0.1650E-01  0.9639E+00
      0.322  0.2541E-01  0.9691E+00
      0.529  0.3364E-01  0.9761E+00
      0.736  0.4278E-01  0.9849E+00
      0.943  0.3592E-01  0.9924E+00
      1.150  0.5128E-01  0.1003E+01
      1.357  0.6384E-01  0.1016E+01
      1.564  0.6305E-01  0.1029E+01
      1.771  0.7173E-01  0.1044E+01
      1.978  0.8952E-01  0.1063E+01
      2.185  0.1035E+00  0.1084E+01
      2.392  0.1180E+00  0.1109E+01
      2.599  0.2065E+00  0.1151E+01
      2.806  0.3479E+00  0.1223E+01
      3.013  0.4523E+00  0.1317E+01
      3.220  0.5071E+00  0.1422E+01
      3.427  0.5567E+00  0.1537E+01
      3.634  0.5926E+00  0.1660E+01
      3.841  0.6150E+00  0.1787E+01
      4.048  0.6195E+00  0.1915E+01
      4.255  0.5947E+00  0.2038E+01
      4.462  0.5722E+00  0.2157E+01
      4.669  0.5501E+00  0.2271E+01
      4.876  0.6475E+00  0.2405E+01
      5.083  0.7479E+00  0.2560E+01
      5.290  0.7708E+00  0.2719E+01
      5.497  0.7917E+00  0.2883E+01
      5.704  0.7968E+00  0.3048E+01
      5.911  0.7830E+00  0.3210E+01
      6.118  0.8019E+00  0.3376E+01
      6.325  0.7944E+00  0.3541E+01
      6.532  0.7738E+00  0.3701E+01
      6.739  0.7393E+00  0.3854E+01
      6.946  0.6755E+00  0.3994E+01
      7.153  0.6134E+00  0.4121E+01
      7.360  0.4871E+00  0.4221E+01
      7.567  0.3952E+00  0.4303E+01
      7.774  0.3851E+00  0.4383E+01
      7.981  0.4105E+00  0.4468E+01
      8.188  0.4729E+00  0.4566E+01
      8.395  0.5109E+00  0.4672E+01
      8.602  0.4068E+00  0.4756E+01
      8.809  0.1955E+00  0.4796E+01
      9.016  0.2276E-01  0.4801E+01
      9.223 -0.4213E-02  0.4800E+01
      9.430 -0.3248E-03  0.4800E+01
      9.637 -0.2562E-05  0.4800E+01
      9.844 -0.2530E-08  0.4800E+01
     10.051 -0.3166E-12  0.4800E+01
     10.258 -0.4753E-17  0.4800E+01
     10.465  0.0000E+00  0.4800E+01
     10.672  0.0000E+00  0.4800E+01
     10.879  0.0000E+00  0.4800E+01
     11.086  0.0000E+00  0.4800E+01
     11.293  0.0000E+00  0.4800E+01
     11.500  0.0000E+00  0.4800E+01
     11.707  0.0000E+00  0.4800E+01
