   29   29   50    1
  0.1632129E+02  0.5473281E-09  0.8209921E-09  0.1128346E-08  0.5000000E-15
  1.000000000000000E-004
  CAR 
 Nb - Mo - Ta - Ti - V SQS               
    193    172    120
 
  0.0000000E+00  0.0000000E+00  0.0000000E+00  0.2915452E-02
    1      -47.571719   1.000000
    2      -47.455425   1.000000
    3      -47.315547   1.000000
    4      -47.275284   1.000000
    5      -47.264988   1.000000
    6      -47.040425   1.000000
    7      -24.239903   1.000000
    8      -24.117311   1.000000
    9      -23.965990   1.000000
   10      -23.779164   1.000000
   11      -23.693532   1.000000
   12      -23.601543   1.000000
   13      -23.552816   1.000000
   14      -23.539868   1.000000
   15      -23.501769   1.000000
   16      -23.453002   1.000000
   17      -23.426658   1.000000
   18      -23.397053   1.000000
   19      -23.335415   1.000000
   20      -23.224099   1.000000
   21      -23.204653   1.000000
   22      -22.994709   1.000000
   23      -22.917706   1.000000
   24      -22.890136   1.000000
   25       -0.145418   1.000000
   26        1.176726   1.000000
   27        1.473357   1.000000
   28        2.304342   1.000000
   29        2.405482   1.000000
   30        2.511544   1.000000
   31        2.596202   1.000000
   32        2.748758   1.000000
   33        2.791771   1.000000
   34        2.822395   1.000000
   35        2.954014   1.000000
   36        3.005303   1.000000
   37        3.091008   1.000000
   38        3.113739   1.000000
   39        3.133756   1.000000
   40        3.254383   1.000000
   41        3.312013   1.000000
   42        3.444836   1.000000
   43        3.577832   1.000000
   44        3.594718   1.000000
   45        3.686401   1.000000
   46        3.725903   1.000000
   47        3.776225   1.000000
   48        3.839056   1.000000
   49        3.885464   1.000000
   50        3.954651   1.000000
   51        4.045150   1.000000
   52        4.145247   1.000000
   53        4.156578   1.000000
   54        4.266773   1.000000
   55        4.342975   1.000000
   56        4.381946   1.000000
   57        4.593924   1.000000
   58        4.613304   1.000000
   59        4.667104   1.000000
   60        4.761371   1.000000
   61        4.784520   1.000000
   62        4.847904   1.000000
   63        4.905653   1.000000
   64        4.940737   1.000000
   65        4.951033   1.000000
   66        5.097384   1.000000
   67        5.124490   1.000000
   68        5.173299   1.000000
   69        5.219704   1.000000
   70        5.307661   1.000000
   71        5.319533   1.000000
   72        5.421523   1.000000
   73        5.444826   1.000000
   74        5.485451   1.000000
   75        5.525085   1.000000
   76        5.605106   1.000000
   77        5.730160   1.000000
   78        5.743507   1.000000
   79        5.878436   1.000000
   80        5.909689   1.000000
   81        5.949573   1.000000
   82        6.087182   1.000015
   83        6.110672   1.000032
   84        6.172506   1.000182
   85        6.259906   1.001506
   86        6.308535   1.004019
   87        6.354802   1.008915
   88        6.398768   1.016591
   89        6.404423   1.017783
   90        6.470227   1.032178
   91        6.580474   0.999017
   92        6.645368   0.877142
   93        6.719706   0.618255
   94        6.748143   0.499244
   95        6.827943   0.189717
   96        6.859720   0.099340
   97        6.980149  -0.034774
   98        6.991701  -0.035452
   99        7.095325  -0.016973
  100        7.166113  -0.005898
  101        7.242386  -0.001310
  102        7.364661  -0.000058
  103        7.436446  -0.000006
  104        7.499012  -0.000001
  105        7.522124  -0.000000
  106        7.701546  -0.000000
  107        7.737494  -0.000000
  108        7.925682  -0.000000
  109        8.022440  -0.000000
  110        8.205109  -0.000000
  111        8.308292  -0.000000
  112        8.358237  -0.000000
  113        8.442882  -0.000000
  114        8.470280  -0.000000
  115        8.614793  -0.000000
  116        8.667683  -0.000000
  117        8.735025  -0.000000
  118        8.750844  -0.000000
  119        8.794469  -0.000000
  120        8.819252  -0.000000
 
  0.1428571E+00  0.0000000E+00 -0.1561251E-16  0.5830904E-02
    1      -47.570490   1.000000
    2      -47.449626   1.000000
    3      -47.315692   1.000000
    4      -47.281414   1.000000
    5      -47.265431   1.000000
    6      -47.040413   1.000000
    7      -24.201901   1.000000
    8      -24.099144   1.000000
    9      -23.963209   1.000000
   10      -23.776697   1.000000
   11      -23.695121   1.000000
   12      -23.595070   1.000000
   13      -23.552789   1.000000
   14      -23.540402   1.000000
   15      -23.504250   1.000000
   16      -23.456919   1.000000
   17      -23.429664   1.000000
   18      -23.402257   1.000000
   19      -23.335980   1.000000
   20      -23.226006   1.000000
   21      -23.206320   1.000000
   22      -22.998448   1.000000
   23      -22.954574   1.000000
   24      -22.918352   1.000000
   25        0.023778   1.000000
   26        1.328348   1.000000
   27        1.618808   1.000000
   28        2.330173   1.000000
   29        2.542508   1.000000
   30        2.628566   1.000000
   31        2.704699   1.000000
   32        2.846265   1.000000
   33        2.863620   1.000000
   34        2.909879   1.000000
   35        3.033156   1.000000
   36        3.082607   1.000000
   37        3.161931   1.000000
   38        3.179628   1.000000
   39        3.248526   1.000000
   40        3.368338   1.000000
   41        3.415709   1.000000
   42        3.508873   1.000000
   43        3.578617   1.000000
   44        3.650872   1.000000
   45        3.699553   1.000000
   46        3.792475   1.000000
   47        3.845307   1.000000
   48        3.902176   1.000000
   49        3.934814   1.000000
   50        4.038577   1.000000
   51        4.083486   1.000000
   52        4.180790   1.000000
   53        4.238187   1.000000
   54        4.292246   1.000000
   55        4.379440   1.000000
   56        4.430609   1.000000
   57        4.591315   1.000000
   58        4.613692   1.000000
   59        4.689335   1.000000
   60        4.735173   1.000000
   61        4.824697   1.000000
   62        4.890690   1.000000
   63        4.947046   1.000000
   64        4.988026   1.000000
   65        5.042147   1.000000
   66        5.079353   1.000000
   67        5.176164   1.000000
   68        5.268255   1.000000
   69        5.290319   1.000000
   70        5.329394   1.000000
   71        5.373711   1.000000
   72        5.440491   1.000000
   73        5.491463   1.000000
   74        5.524310   1.000000
   75        5.621380   1.000000
   76        5.629901   1.000000
   77        5.728768   1.000000
   78        5.772830   1.000000
   79        5.828303   1.000000
   80        5.885346   1.000000
   81        5.951215   1.000000
   82        6.039066   1.000003
   83        6.106658   1.000028
   84        6.139201   1.000073
   85        6.200978   1.000380
   86        6.225735   1.000695
   87        6.287133   1.002655
   88        6.385681   1.013997
   89        6.428805   1.023260
   90        6.464839   1.031187
   91        6.550146   1.023957
   92        6.582056   0.997223
   93        6.631913   0.910957
   94        6.675197   0.786471
   95        6.717081   0.628966
   96        6.768064   0.415423
   97        6.857324   0.105287
   98        6.932935  -0.015469
   99        6.961755  -0.030882
  100        7.079581  -0.020408
  101        7.133887  -0.009969
  102        7.225922  -0.001868
  103        7.262564  -0.000831
  104        7.390848  -0.000027
  105        7.416624  -0.000012
  106        7.568652  -0.000000
  107        7.664651  -0.000000
  108        7.733036  -0.000000
  109        7.852017  -0.000000
  110        8.014289  -0.000000
  111        8.122099  -0.000000
  112        8.194968  -0.000000
  113        8.295544  -0.000000
  114        8.345863  -0.000000
  115        8.414191  -0.000000
  116        8.472822  -0.000000
  117        8.523869  -0.000000
  118        8.591613  -0.000000
  119        8.620908  -0.000000
  120        8.728881  -0.000000
 
  0.2857143E+00  0.1387779E-16  0.3469447E-17  0.5830904E-02
    1      -47.567933   1.000000
    2      -47.433764   1.000000
    3      -47.317911   1.000000
    4      -47.297068   1.000000
    5      -47.265282   1.000000
    6      -47.040386   1.000000
    7      -24.158341   1.000000
    8      -24.006282   1.000000
    9      -23.936431   1.000000
   10      -23.771209   1.000000
   11      -23.698538   1.000000
   12      -23.578562   1.000000
   13      -23.554873   1.000000
   14      -23.540951   1.000000
   15      -23.510642   1.000000
   16      -23.466138   1.000000
   17      -23.439007   1.000000
   18      -23.413122   1.000000
   19      -23.337133   1.000000
   20      -23.230354   1.000000
   21      -23.216326   1.000000
   22      -23.119278   1.000000
   23      -23.005853   1.000000
   24      -22.922943   1.000000
   25        0.502989   1.000000
   26        1.726834   1.000000
   27        2.006985   1.000000
   28        2.459199   1.000000
   29        2.735955   1.000000
   30        2.818713   1.000000
   31        2.898254   1.000000
   32        3.013893   1.000000
   33        3.059144   1.000000
   34        3.134071   1.000000
   35        3.245227   1.000000
   36        3.290709   1.000000
   37        3.345055   1.000000
   38        3.397685   1.000000
   39        3.462102   1.000000
   40        3.514404   1.000000
   41        3.562335   1.000000
   42        3.630382   1.000000
   43        3.699120   1.000000
   44        3.770316   1.000000
   45        3.819587   1.000000
   46        3.942276   1.000000
   47        4.012613   1.000000
   48        4.038372   1.000000
   49        4.090600   1.000000
   50        4.179455   1.000000
   51        4.238003   1.000000
   52        4.307795   1.000000
   53        4.376713   1.000000
   54        4.442949   1.000000
   55        4.467369   1.000000
   56        4.586666   1.000000
   57        4.650040   1.000000
   58        4.668816   1.000000
   59        4.744727   1.000000
   60        4.804014   1.000000
   61        4.914287   1.000000
   62        4.939298   1.000000
   63        4.992471   1.000000
   64        5.034447   1.000000
   65        5.089797   1.000000
   66        5.173540   1.000000
   67        5.213482   1.000000
   68        5.261953   1.000000
   69        5.325748   1.000000
   70        5.398145   1.000000
   71        5.465888   1.000000
   72        5.540157   1.000000
   73        5.558257   1.000000
   74        5.637961   1.000000
   75        5.652065   1.000000
   76        5.705825   1.000000
   77        5.747757   1.000000
   78        5.801741   1.000000
   79        5.850786   1.000000
   80        5.877237   1.000000
   81        5.909863   1.000000
   82        5.972924   1.000000
   83        5.996337   1.000001
   84        6.061050   1.000007
   85        6.136619   1.000068
   86        6.188826   1.000280
   87        6.249085   1.001187
   88        6.275747   1.002106
   89        6.303993   1.003689
   90        6.367942   1.010891
   91        6.407385   1.018421
   92        6.453823   1.028936
   93        6.531348   1.031739
   94        6.591200   0.985792
   95        6.637867   0.896557
   96        6.707291   0.668217
   97        6.745698   0.509589
   98        6.777752   0.375491
   99        6.837669   0.159470
  100        6.893542   0.030765
  101        6.952740  -0.027431
  102        7.018219  -0.033393
  103        7.030583  -0.031283
  104        7.162524  -0.006274
  105        7.266552  -0.000757
  106        7.319065  -0.000205
  107        7.349671  -0.000089
  108        7.530742  -0.000000
  109        7.549240  -0.000000
  110        7.658701  -0.000000
  111        7.732272  -0.000000
  112        7.836731  -0.000000
  113        7.888552  -0.000000
  114        7.940450  -0.000000
  115        8.063030  -0.000000
  116        8.124238  -0.000000
  117        8.186760  -0.000000
  118        8.251353  -0.000000
  119        8.323777  -0.000000
  120        8.429868  -0.000000
 
  0.4285714E+00  0.5551115E-16 -0.4163336E-16  0.5830904E-02
    1      -47.566077   1.000000
    2      -47.415942   1.000000
    3      -47.328231   1.000000
    4      -47.306261   1.000000
    5      -47.264887   1.000000
    6      -47.040367   1.000000
    7      -24.147613   1.000000
    8      -23.973916   1.000000
    9      -23.771617   1.000000
   10      -23.757556   1.000000
   11      -23.698845   1.000000
   12      -23.581739   1.000000
   13      -23.557751   1.000000
   14      -23.540546   1.000000
   15      -23.516734   1.000000
   16      -23.476984   1.000000
   17      -23.449487   1.000000
   18      -23.421226   1.000000
   19      -23.345035   1.000000
   20      -23.336256   1.000000
   21      -23.233763   1.000000
   22      -23.196997   1.000000
   23      -23.013136   1.000000
   24      -22.925861   1.000000
   25        1.198841   1.000000
   26        1.929244   1.000000
   27        2.380560   1.000000
   28        2.573343   1.000000
   29        2.652846   1.000000
   30        2.928766   1.000000
   31        2.989709   1.000000
   32        3.141095   1.000000
   33        3.260239   1.000000
   34        3.353337   1.000000
   35        3.401664   1.000000
   36        3.462799   1.000000
   37        3.480645   1.000000
   38        3.523428   1.000000
   39        3.623325   1.000000
   40        3.665211   1.000000
   41        3.729075   1.000000
   42        3.815153   1.000000
   43        3.868620   1.000000
   44        3.907702   1.000000
   45        3.967455   1.000000
   46        4.036680   1.000000
   47        4.118798   1.000000
   48        4.171808   1.000000
   49        4.268750   1.000000
   50        4.310778   1.000000
   51        4.390306   1.000000
   52        4.449882   1.000000
   53        4.503622   1.000000
   54        4.532273   1.000000
   55        4.615825   1.000000
   56        4.662459   1.000000
   57        4.756847   1.000000
   58        4.794073   1.000000
   59        4.826767   1.000000
   60        4.855429   1.000000
   61        4.895884   1.000000
   62        4.943591   1.000000
   63        4.989527   1.000000
   64        5.053023   1.000000
   65        5.119328   1.000000
   66        5.197379   1.000000
   67        5.250741   1.000000
   68        5.312748   1.000000
   69        5.380857   1.000000
   70        5.391633   1.000000
   71        5.446817   1.000000
   72        5.513345   1.000000
   73        5.538455   1.000000
   74        5.576021   1.000000
   75        5.623264   1.000000
   76        5.653903   1.000000
   77        5.733254   1.000000
   78        5.789061   1.000000
   79        5.819591   1.000000
   80        5.871508   1.000000
   81        5.912900   1.000000
   82        5.946559   1.000000
   83        6.040614   1.000003
   84        6.080055   1.000012
   85        6.120778   1.000043
   86        6.167009   1.000157
   87        6.195778   1.000334
   88        6.230478   1.000777
   89        6.289977   1.002810
   90        6.323532   1.005282
   91        6.360751   1.009775
   92        6.452585   1.028669
   93        6.481291   1.033896
   94        6.527948   1.032638
   95        6.576928   1.002849
   96        6.627585   0.920862
   97        6.666093   0.816337
   98        6.705267   0.676179
   99        6.738326   0.540730
  100        6.784750   0.347229
  101        6.917309  -0.001055
  102        6.935488  -0.017384
  103        6.994340  -0.035450
  104        7.056775  -0.025652
  105        7.117096  -0.012739
  106        7.202372  -0.003016
  107        7.267133  -0.000747
  108        7.321253  -0.000193
  109        7.416519  -0.000012
  110        7.476581  -0.000002
  111        7.605339  -0.000000
  112        7.623620  -0.000000
  113        7.710007  -0.000000
  114        7.739313  -0.000000
  115        7.837055  -0.000000
  116        7.918883  -0.000000
  117        7.978904  -0.000000
  118        8.100883  -0.000000
  119        8.195153  -0.000000
  120        8.296072  -0.000000
 
 -0.6938894E-17  0.1428571E+00  0.1040834E-16  0.5830904E-02
    1      -47.571714   1.000000
    2      -47.455422   1.000000
    3      -47.315473   1.000000
    4      -47.275256   1.000000
    5      -47.264950   1.000000
    6      -47.040571   1.000000
    7      -24.239905   1.000000
    8      -24.117252   1.000000
    9      -23.965757   1.000000
   10      -23.775735   1.000000
   11      -23.693440   1.000000
   12      -23.601566   1.000000
   13      -23.552838   1.000000
   14      -23.539681   1.000000
   15      -23.501786   1.000000
   16      -23.453113   1.000000
   17      -23.426645   1.000000
   18      -23.397094   1.000000
   19      -23.335314   1.000000
   20      -23.224009   1.000000
   21      -23.204656   1.000000
   22      -22.997587   1.000000
   23      -22.919699   1.000000
   24      -22.890166   1.000000
   25       -0.075417   1.000000
   26        1.205605   1.000000
   27        1.541966   1.000000
   28        2.065804   1.000000
   29        2.468223   1.000000
   30        2.511508   1.000000
   31        2.600231   1.000000
   32        2.748399   1.000000
   33        2.768214   1.000000
   34        2.848772   1.000000
   35        2.939806   1.000000
   36        2.961669   1.000000
   37        3.024695   1.000000
   38        3.073125   1.000000
   39        3.122082   1.000000
   40        3.270495   1.000000
   41        3.376126   1.000000
   42        3.436254   1.000000
   43        3.558426   1.000000
   44        3.633621   1.000000
   45        3.661533   1.000000
   46        3.740186   1.000000
   47        3.816975   1.000000
   48        3.864331   1.000000
   49        3.934513   1.000000
   50        3.977341   1.000000
   51        4.052538   1.000000
   52        4.117474   1.000000
   53        4.192022   1.000000
   54        4.249408   1.000000
   55        4.415992   1.000000
   56        4.449971   1.000000
   57        4.549068   1.000000
   58        4.595376   1.000000
   59        4.699933   1.000000
   60        4.748062   1.000000
   61        4.789130   1.000000
   62        4.897370   1.000000
   63        4.912545   1.000000
   64        4.995710   1.000000
   65        5.007680   1.000000
   66        5.071068   1.000000
   67        5.139344   1.000000
   68        5.206039   1.000000
   69        5.238976   1.000000
   70        5.294233   1.000000
   71        5.327458   1.000000
   72        5.407571   1.000000
   73        5.467596   1.000000
   74        5.523074   1.000000
   75        5.555175   1.000000
   76        5.638947   1.000000
   77        5.721647   1.000000
   78        5.769812   1.000000
   79        5.843950   1.000000
   80        5.943068   1.000000
   81        5.977063   1.000000
   82        6.030366   1.000002
   83        6.091202   1.000018
   84        6.150348   1.000100
   85        6.194899   1.000326
   86        6.290445   1.002836
   87        6.323947   1.005321
   88        6.386063   1.014069
   89        6.401363   1.017133
   90        6.452501   1.028650
   91        6.557992   1.019111
   92        6.615502   0.946021
   93        6.644147   0.880400
   94        6.688658   0.739132
   95        6.787814   0.335034
   96        6.826134   0.195582
   97        6.916807  -0.000511
   98        7.016390  -0.033657
   99        7.060732  -0.024739
  100        7.142212  -0.008763
  101        7.256092  -0.000964
  102        7.355677  -0.000075
  103        7.442062  -0.000005
  104        7.482680  -0.000001
  105        7.558651  -0.000000
  106        7.695543  -0.000000
  107        7.810360  -0.000000
  108        7.899265  -0.000000
  109        7.972789  -0.000000
  110        8.140394  -0.000000
  111        8.191835  -0.000000
  112        8.298169  -0.000000
  113        8.377919  -0.000000
  114        8.509647  -0.000000
  115        8.540542  -0.000000
  116        8.573481  -0.000000
  117        8.621006  -0.000000
  118        8.653712  -0.000000
  119        8.776259  -0.000000
  120        8.793282  -0.000000
 
  0.1428571E+00  0.1428571E+00 -0.1387779E-16  0.5830904E-02
    1      -47.570493   1.000000
    2      -47.449628   1.000000
    3      -47.315761   1.000000
    4      -47.281435   1.000000
    5      -47.265478   1.000000
    6      -47.040271   1.000000
    7      -24.201906   1.000000
    8      -24.099198   1.000000
    9      -23.963455   1.000000
   10      -23.780022   1.000000
   11      -23.695216   1.000000
   12      -23.595087   1.000000
   13      -23.552792   1.000000
   14      -23.540580   1.000000
   15      -23.504239   1.000000
   16      -23.456922   1.000000
   17      -23.429649   1.000000
   18      -23.402213   1.000000
   19      -23.336072   1.000000
   20      -23.225999   1.000000
   21      -23.206309   1.000000
   22      -22.995653   1.000000
   23      -22.954432   1.000000
   24      -22.916543   1.000000
   25        0.023856   1.000000
   26        1.303919   1.000000
   27        1.635773   1.000000
   28        2.340479   1.000000
   29        2.512965   1.000000
   30        2.636438   1.000000
   31        2.692091   1.000000
   32        2.803769   1.000000
   33        2.845116   1.000000
   34        2.900603   1.000000
   35        2.966789   1.000000
   36        3.027914   1.000000
   37        3.138905   1.000000
   38        3.170558   1.000000
   39        3.232004   1.000000
   40        3.366846   1.000000
   41        3.395628   1.000000
   42        3.527005   1.000000
   43        3.622008   1.000000
   44        3.665348   1.000000
   45        3.714261   1.000000
   46        3.799471   1.000000
   47        3.854002   1.000000
   48        3.907916   1.000000
   49        3.931074   1.000000
   50        4.014034   1.000000
   51        4.085986   1.000000
   52        4.163738   1.000000
   53        4.262931   1.000000
   54        4.331908   1.000000
   55        4.394110   1.000000
   56        4.486262   1.000000
   57        4.600531   1.000000
   58        4.647292   1.000000
   59        4.713953   1.000000
   60        4.736595   1.000000
   61        4.812532   1.000000
   62        4.883718   1.000000
   63        4.939631   1.000000
   64        4.983348   1.000000
   65        5.011218   1.000000
   66        5.108582   1.000000
   67        5.160722   1.000000
   68        5.197352   1.000000
   69        5.218443   1.000000
   70        5.280746   1.000000
   71        5.369854   1.000000
   72        5.413575   1.000000
   73        5.458766   1.000000
   74        5.531422   1.000000
   75        5.568080   1.000000
   76        5.641791   1.000000
   77        5.709478   1.000000
   78        5.794970   1.000000
   79        5.850568   1.000000
   80        5.885654   1.000000
   81        5.924827   1.000000
   82        5.965266   1.000000
   83        6.051212   1.000005
   84        6.110362   1.000031
   85        6.185328   1.000255
   86        6.280053   1.002301
   87        6.307573   1.003947
   88        6.364156   1.010293
   89        6.410176   1.019032
   90        6.507313   1.035385
   91        6.552523   1.022597
   92        6.611264   0.953981
   93        6.666913   0.813723
   94        6.715047   0.637213
   95        6.779564   0.368121
   96        6.814495   0.235010
   97        6.859598   0.099640
   98        6.919486  -0.003354
   99        7.026612  -0.032016
  100        7.108060  -0.014413
  101        7.198688  -0.003240
  102        7.258555  -0.000911
  103        7.313166  -0.000239
  104        7.353025  -0.000081
  105        7.459122  -0.000003
  106        7.493959  -0.000001
  107        7.594329  -0.000000
  108        7.728242  -0.000000
  109        7.893594  -0.000000
  110        8.068160  -0.000000
  111        8.094555  -0.000000
  112        8.255611  -0.000000
  113        8.358864  -0.000000
  114        8.453528  -0.000000
  115        8.558434  -0.000000
  116        8.574493  -0.000000
  117        8.621122  -0.000000
  118        8.681503  -0.000000
  119        8.743067  -0.000000
  120        8.786824  -0.000000
 
  0.2857143E+00  0.1428571E+00  0.2775558E-16  0.5830904E-02
    1      -47.567941   1.000000
    2      -47.433770   1.000000
    3      -47.318031   1.000000
    4      -47.297135   1.000000
    5      -47.265403   1.000000
    6      -47.040064   1.000000
    7      -24.158419   1.000000
    8      -24.006591   1.000000
    9      -23.936701   1.000000
   10      -23.778750   1.000000
   11      -23.698840   1.000000
   12      -23.578642   1.000000
   13      -23.554979   1.000000
   14      -23.541264   1.000000
   15      -23.510616   1.000000
   16      -23.466071   1.000000
   17      -23.438966   1.000000
   18      -23.413053   1.000000
   19      -23.337350   1.000000
   20      -23.230399   1.000000
   21      -23.216302   1.000000
   22      -23.119252   1.000000
   23      -22.998759   1.000000
   24      -22.919120   1.000000
   25        0.439235   1.000000
   26        1.646248   1.000000
   27        1.969627   1.000000
   28        2.541775   1.000000
   29        2.652686   1.000000
   30        2.782949   1.000000
   31        2.937832   1.000000
   32        3.012790   1.000000
   33        3.049911   1.000000
   34        3.134899   1.000000
   35        3.195809   1.000000
   36        3.256984   1.000000
   37        3.323319   1.000000
   38        3.418238   1.000000
   39        3.454183   1.000000
   40        3.505516   1.000000
   41        3.584549   1.000000
   42        3.651561   1.000000
   43        3.747065   1.000000
   44        3.801491   1.000000
   45        3.829588   1.000000
   46        3.925498   1.000000
   47        3.983602   1.000000
   48        4.015371   1.000000
   49        4.076703   1.000000
   50        4.149198   1.000000
   51        4.220189   1.000000
   52        4.289784   1.000000
   53        4.334174   1.000000
   54        4.435759   1.000000
   55        4.482628   1.000000
   56        4.563058   1.000000
   57        4.653677   1.000000
   58        4.692240   1.000000
   59        4.733601   1.000000
   60        4.814346   1.000000
   61        4.905910   1.000000
   62        4.957605   1.000000
   63        5.007094   1.000000
   64        5.030543   1.000000
   65        5.082871   1.000000
   66        5.115624   1.000000
   67        5.206144   1.000000
   68        5.248918   1.000000
   69        5.302358   1.000000
   70        5.355676   1.000000
   71        5.403902   1.000000
   72        5.466702   1.000000
   73        5.556628   1.000000
   74        5.607608   1.000000
   75        5.641206   1.000000
   76        5.671573   1.000000
   77        5.708537   1.000000
   78        5.765800   1.000000
   79        5.850955   1.000000
   80        5.908730   1.000000
   81        5.960483   1.000000
   82        5.984109   1.000000
   83        6.033401   1.000003
   84        6.082780   1.000013
   85        6.131834   1.000059
   86        6.172925   1.000184
   87        6.214280   1.000528
   88        6.269376   1.001843
   89        6.350700   1.008354
   90        6.378503   1.012680
   91        6.410251   1.019048
   92        6.456935   1.029597
   93        6.520627   1.034115
   94        6.576480   1.003314
   95        6.674936   0.787353
   96        6.682168   0.762407
   97        6.733649   0.560400
   98        6.764453   0.430491
   99        6.830944   0.180151
  100        6.893386   0.031017
  101        6.928894  -0.012194
  102        7.022399  -0.032740
  103        7.063774  -0.024035
  104        7.163700  -0.006149
  105        7.239428  -0.001398
  106        7.322331  -0.000188
  107        7.457035  -0.000003
  108        7.476195  -0.000002
  109        7.670012  -0.000000
  110        7.770756  -0.000000
  111        7.835148  -0.000000
  112        7.990970  -0.000000
  113        8.036776  -0.000000
  114        8.188641  -0.000000
  115        8.255500  -0.000000
  116        8.327180  -0.000000
  117        8.386654  -0.000000
  118        8.427802  -0.000000
  119        8.504691  -0.000000
  120        8.570111  -0.000000
 
  0.4285714E+00  0.1428571E+00 -0.2081668E-16  0.5830904E-02
    1      -47.566083   1.000000
    2      -47.415947   1.000000
    3      -47.328263   1.000000
    4      -47.306375   1.000000
    5      -47.264989   1.000000
    6      -47.040108   1.000000
    7      -24.147693   1.000000
    8      -23.974338   1.000000
    9      -23.776063   1.000000
   10      -23.759215   1.000000
   11      -23.699130   1.000000
   12      -23.581746   1.000000
   13      -23.558198   1.000000
   14      -23.540569   1.000000
   15      -23.516732   1.000000
   16      -23.476939   1.000000
   17      -23.449456   1.000000
   18      -23.421176   1.000000
   19      -23.345063   1.000000
   20      -23.336393   1.000000
   21      -23.233789   1.000000
   22      -23.196974   1.000000
   23      -23.006853   1.000000
   24      -22.923205   1.000000
   25        1.100978   1.000000
   26        1.949561   1.000000
   27        2.308737   1.000000
   28        2.498713   1.000000
   29        2.631174   1.000000
   30        2.780847   1.000000
   31        3.054862   1.000000
   32        3.244374   1.000000
   33        3.306824   1.000000
   34        3.369670   1.000000
   35        3.404381   1.000000
   36        3.464494   1.000000
   37        3.517770   1.000000
   38        3.598020   1.000000
   39        3.630345   1.000000
   40        3.664346   1.000000
   41        3.723872   1.000000
   42        3.760946   1.000000
   43        3.852543   1.000000
   44        3.928765   1.000000
   45        3.972346   1.000000
   46        4.029701   1.000000
   47        4.096085   1.000000