       N       E                     dE             d eps       ncg     rms          rms(c)
DAV:   1    -0.419873362776E+04   -0.41987E+04   -0.16280E+05 60720   0.194E+03
DAV:   2    -0.943715528793E+04   -0.52384E+04   -0.49735E+04 75780   0.115E+03
DAV:   3    -0.102040954851E+05   -0.76694E+03   -0.73658E+03 82560   0.477E+02
DAV:   4    -0.104424619123E+05   -0.23837E+03   -0.21396E+03 82560   0.227E+02
DAV:   5    -0.106194371047E+05   -0.17698E+03   -0.15786E+03 82560   0.166E+02    0.543E+03
DAV:   6    -0.938251660043E+03    0.96812E+04   -0.25314E+04 66516   0.613E+02    0.256E+03
DAV:   7    -0.848470038692E+03    0.89782E+02   -0.15976E+04 72072   0.503E+02    0.195E+03
DAV:   8    -0.612618040869E+03    0.23585E+03   -0.47559E+03 69768   0.343E+02    0.174E+03
DAV:   9    -0.519824882062E+03    0.92793E+02   -0.78576E+02 72720   0.858E+01    0.165E+03
DAV:  10    -0.573611039327E+03   -0.53786E+02   -0.21523E+02 79452   0.410E+01    0.168E+03
DAV:  11    -0.679857972197E+03   -0.10625E+03   -0.11332E+03 74304   0.155E+02    0.142E+03
DAV:  12    -0.645612011065E+03    0.34246E+02   -0.17703E+03 74268   0.207E+02    0.105E+03
DAV:  13    -0.609914272344E+03    0.35698E+02   -0.56464E+02 75468   0.866E+01    0.865E+02
DAV:  14    -0.717885123888E+03   -0.10797E+03   -0.25969E+03 71868   0.242E+02    0.604E+02
DAV:  15    -0.584057868527E+03    0.13383E+03   -0.11399E+03 70128   0.155E+02    0.331E+02
DAV:  16    -0.499571530447E+03    0.84486E+02   -0.99804E+02 69912   0.129E+02    0.223E+02
DAV:  17    -0.467849501485E+03    0.31722E+02   -0.37878E+02 72252   0.583E+01    0.206E+02
DAV:  18    -0.503146414465E+03   -0.35297E+02   -0.95239E+01 72396   0.280E+01    0.210E+02
DAV:  19    -0.501697407513E+03    0.14490E+01   -0.10786E+01 71100   0.113E+01    0.206E+02
DAV:  20    -0.496320525097E+03    0.53769E+01   -0.25342E+00 69228   0.747E+00    0.206E+02
DAV:  21    -0.523536389667E+03   -0.27216E+02   -0.39073E+01 64740   0.307E+01    0.205E+02
DAV:  22    -0.521908055928E+03    0.16283E+01   -0.79167E+00 66012   0.153E+01    0.212E+02
DAV:  23    -0.482099377546E+03    0.39809E+02   -0.88287E+01 64128   0.454E+01    0.211E+02
DAV:  24    -0.414293890098E+03    0.67805E+02   -0.35552E+02 67920   0.790E+01    0.232E+02
DAV:  25    -0.366374150291E+03    0.47920E+02   -0.18789E+02 74088   0.542E+01    0.199E+02
DAV:  26    -0.346621723166E+03    0.19752E+02   -0.19180E+02 72960   0.837E+01    0.169E+02
DAV:  27    -0.333881897030E+03    0.12740E+02   -0.79292E+01 79596   0.399E+01    0.149E+02
DAV:  28    -0.334306632131E+03   -0.42474E+00   -0.17239E+01 74448   0.161E+01    0.146E+02
DAV:  29    -0.331792676480E+03    0.25140E+01   -0.13027E+01 73872   0.171E+01    0.139E+02
DAV:  30    -0.325013054943E+03    0.67796E+01   -0.12132E+01 69096   0.188E+01    0.123E+02
DAV:  31    -0.313369072808E+03    0.11644E+02   -0.69453E+01 64776   0.390E+01    0.740E+01
DAV:  32    -0.310914526678E+03    0.24545E+01   -0.28379E+01 76032   0.219E+01    0.663E+01
DAV:  33    -0.311584677333E+03   -0.67015E+00   -0.10312E+01 70236   0.135E+01    0.585E+01
DAV:  34    -0.312320472229E+03   -0.73579E+00   -0.17768E+00 79740   0.391E+00    0.591E+01
DAV:  35    -0.312445814546E+03   -0.12534E+00   -0.79863E-01 69900   0.369E+00    0.640E+01
DAV:  36    -0.312462139152E+03   -0.16325E-01   -0.13854E+00 63708   0.562E+00    0.551E+01
DAV:  37    -0.313620975314E+03   -0.11588E+01   -0.51572E+00 60804   0.109E+01    0.404E+01
DAV:  38    -0.315569197193E+03   -0.19482E+01   -0.88024E+00 70296   0.132E+01    0.467E+01
DAV:  39    -0.314542630423E+03    0.10266E+01   -0.52060E+00 73068   0.752E+00    0.505E+01
DAV:  40    -0.313494146271E+03    0.10485E+01   -0.11192E+00 74928   0.377E+00    0.490E+01
DAV:  41    -0.312684805236E+03    0.80934E+00   -0.33026E-01 67368   0.237E+00    0.469E+01
DAV:  42    -0.312272803932E+03    0.41200E+00   -0.16600E+00 73344   0.436E+00    0.521E+01
DAV:  43    -0.310003686707E+03    0.22691E+01   -0.61077E+00 62628   0.106E+01    0.470E+01
DAV:  44    -0.309950702033E+03    0.52985E-01   -0.11694E+00 77232   0.333E+00    0.460E+01
DAV:  45    -0.308862247661E+03    0.10885E+01   -0.13846E+00 68664   0.533E+00    0.394E+01
DAV:  46    -0.308305951490E+03    0.55630E+00   -0.33986E-01 67740   0.231E+00    0.356E+01
DAV:  47    -0.307659444021E+03    0.64651E+00   -0.18527E+00 61788   0.613E+00    0.281E+01
DAV:  48    -0.307171601084E+03    0.48784E+00   -0.35760E-01 65184   0.277E+00    0.229E+01
DAV:  49    -0.306717872902E+03    0.45373E+00   -0.54797E-01 68928   0.293E+00    0.163E+01
DAV:  50    -0.306596566822E+03    0.12131E+00   -0.27076E-01 63336   0.245E+00    0.116E+01
DAV:  51    -0.306908851436E+03   -0.31228E+00   -0.46250E+00 61380   0.101E+01    0.152E+01
DAV:  52    -0.306731716481E+03    0.17713E+00   -0.59729E-01 68868   0.312E+00    0.138E+01
DAV:  53    -0.306673800301E+03    0.57916E-01   -0.88105E-02 74808   0.114E+00    0.148E+01
DAV:  54    -0.306536631215E+03    0.13717E+00   -0.10487E-01 69864   0.140E+00    0.136E+01
DAV:  55    -0.306404379045E+03    0.13225E+00   -0.12054E-01 62004   0.183E+00    0.103E+01
DAV:  56    -0.306299535129E+03    0.10484E+00   -0.29764E-01 63240   0.266E+00    0.515E+00
DAV:  57    -0.306285079472E+03    0.14456E-01   -0.42890E-02 69432   0.929E-01    0.436E+00
DAV:  58    -0.306275310055E+03    0.97694E-02   -0.18767E-02 71160   0.390E-01    0.323E+00
DAV:  59    -0.306271628665E+03    0.36814E-02   -0.82682E-03 74292   0.255E-01    0.252E+00
DAV:  60    -0.306270137835E+03    0.14908E-02   -0.77964E-03 63372   0.372E-01
   1 F= -.30627014E+03 E0= -.30626247E+03  d E =-.306270E+03
       N       E                     dE             d eps       ncg     rms          rms(c)
DAV:   1    -0.306510161619E+03   -0.23853E+00   -0.81377E+01 41280   0.298E+01    0.357E+00
DAV:   2    -0.307800513504E+03   -0.12904E+01   -0.11553E+01 70788   0.181E+01    0.840E+00
DAV:   3    -0.306937099617E+03    0.86341E+00   -0.60957E+00 69444   0.107E+01    0.332E+00
DAV:   4    -0.306878490070E+03    0.58610E-01   -0.10660E+00 72444   0.463E+00    0.253E+00
DAV:   5    -0.306847426221E+03    0.31064E-01   -0.52350E-01 68460   0.357E+00    0.169E+00
DAV:   6    -0.306827970368E+03    0.19456E-01   -0.16944E-01 69108   0.186E+00    0.124E+00
DAV:   7    -0.306840697146E+03   -0.12727E-01   -0.22570E-01 70776   0.199E+00    0.175E+00
DAV:   8    -0.306831912989E+03    0.87842E-02   -0.22442E-01 70764   0.203E+00    0.110E+00
DAV:   9    -0.306819494160E+03    0.12419E-01   -0.10925E-01 75504   0.125E+00    0.701E-01
DAV:  10    -0.306816299966E+03    0.31942E-02   -0.45598E-02 68736   0.953E-01    0.497E-01
DAV:  11    -0.306814402915E+03    0.18971E-02   -0.17004E-02 69336   0.517E-01    0.176E-01
DAV:  12    -0.306814305962E+03    0.96953E-04   -0.47936E-03 65148   0.258E-01    0.167E-01
DAV:  13    -0.306814121700E+03    0.18426E-03   -0.28921E-03 64908   0.211E-01    0.109E-01
DAV:  14    -0.306814135517E+03   -0.13817E-04   -0.16357E-03 57180   0.198E-01    0.110E-01
DAV:  15    -0.306814060252E+03    0.75265E-04   -0.13153E-03 55452   0.167E-01    0.627E-02
DAV:  16    -0.306814018636E+03    0.41616E-04   -0.40779E-04 39804   0.902E-02
   2 F= -.30681402E+03 E0= -.30680720E+03  d E =-.543881E+00
       N       E                     dE             d eps       ncg     rms          rms(c)
DAV:   1    -0.306629683571E+03    0.18438E+00   -0.10557E+02 41280   0.340E+01    0.382E+00
DAV:   2    -0.308143427627E+03   -0.15137E+01   -0.13692E+01 71580   0.192E+01    0.875E+00
DAV:   3    -0.307195612029E+03    0.94782E+00   -0.66533E+00 71220   0.112E+01    0.347E+00
DAV:   4    -0.307151059957E+03    0.44552E-01   -0.13746E+00 71424   0.529E+00    0.293E+00
DAV:   5    -0.307094913969E+03    0.56146E-01   -0.65401E-01 71268   0.397E+00    0.178E+00
DAV:   6    -0.307077764868E+03    0.17149E-01   -0.23221E-01 68328   0.211E+00    0.149E+00
DAV:   7    -0.307081594860E+03   -0.38300E-02   -0.26413E-01 68472   0.225E+00    0.168E+00
DAV:   8    -0.307076221805E+03    0.53731E-02   -0.24549E-01 72228   0.204E+00    0.119E+00
DAV:   9    -0.307061879502E+03    0.14342E-01   -0.12715E-01 74556   0.144E+00    0.747E-01
DAV:  10    -0.307057402424E+03    0.44771E-02   -0.45793E-02 71160   0.976E-01    0.399E-01
DAV:  11    -0.307056434513E+03    0.96791E-03   -0.15151E-02 67020   0.458E-01    0.200E-01
DAV:  12    -0.307056192973E+03    0.24154E-03   -0.58756E-03 64236   0.274E-01    0.154E-01
DAV:  13    -0.307056023638E+03    0.16933E-03   -0.28025E-03 64896   0.184E-01    0.100E-01
DAV:  14    -0.307056062355E+03   -0.38717E-04   -0.16474E-03 59076   0.187E-01    0.110E-01
DAV:  15    -0.307055990887E+03    0.71468E-04   -0.13479E-03 54948   0.187E-01    0.719E-02
DAV:  16    -0.307055938978E+03    0.51910E-04   -0.47741E-04 42756   0.109E-01
   3 F= -.30705594E+03 E0= -.30705121E+03  d E =-.785801E+00
       N       E                     dE             d eps       ncg     rms          rms(c)
DAV:   1    -0.307924650407E+03   -0.86866E+00   -0.10145E+02 49572   0.432E+01    0.108E+01
DAV:   2    -0.308795357336E+03   -0.87071E+00   -0.21280E+01 74232   0.225E+01    0.922E+00
DAV:   3    -0.307997854298E+03    0.79750E+00   -0.15103E+01 73572   0.160E+01    0.844E+00
DAV:   4    -0.307670197111E+03    0.32766E+00   -0.10253E+01 70812   0.163E+01    0.665E+00
DAV:   5    -0.307216984809E+03    0.45321E+00   -0.47342E+00 72744   0.998E+00    0.379E+00
DAV:   6    -0.307127470751E+03    0.89514E-01   -0.19212E+00 72000   0.655E+00    0.267E+00
DAV:   7    -0.307072574676E+03    0.54896E-01   -0.90162E-01 77628   0.404E+00    0.184E+00
DAV:   8    -0.307074914427E+03   -0.23398E-02   -0.45467E-01 70752   0.305E+00    0.174E+00
DAV:   9    -0.307054733597E+03    0.20181E-01   -0.17806E-01 70332   0.190E+00    0.944E-01
DAV:  10    -0.307056596936E+03   -0.18633E-02   -0.64977E-02 67080   0.109E+00    0.927E-01
DAV:  11    -0.307057214288E+03   -0.61735E-03   -0.43135E-02 67944   0.904E-01    0.693E-01
DAV:  12    -0.307061806069E+03   -0.45918E-02   -0.47197E-02 73608   0.930E-01    0.548E-01
DAV:  13    -0.307060233535E+03    0.15725E-02   -0.33874E-02 75972   0.704E-01    0.213E-01
DAV:  14    -0.307060206359E+03    0.27176E-04   -0.12906E-02 69948   0.402E-01    0.178E-01
DAV:  15    -0.307060070098E+03    0.13626E-03   -0.56477E-03 64116   0.332E-01    0.145E-01
DAV:  16    -0.307059896680E+03    0.17342E-03   -0.19608E-03 58200   0.215E-01    0.767E-02
DAV:  17    -0.307059846142E+03    0.50538E-04   -0.31253E-04 35988   0.895E-02
   4 F= -.30705985E+03 E0= -.30705783E+03  d E =-.390716E-02
       N       E                     dE             d eps       ncg     rms          rms(c)
DAV:   1    -0.307393655628E+03   -0.33376E+00   -0.24916E+01 52620   0.216E+01    0.505E+00
DAV:   2    -0.307617919906E+03   -0.22426E+00   -0.50240E+00 74652   0.104E+01    0.516E+00
DAV:   3    -0.307418939636E+03    0.19898E+00   -0.42892E+00 75612   0.893E+00    0.403E+00
DAV:   4    -0.307348544935E+03    0.70395E-01   -0.22132E+00 73548   0.629E+00    0.348E+00
DAV:   5    -0.307243251744E+03    0.10529E+00   -0.13970E+00 69828   0.537E+00    0.231E+00
DAV:   6    -0.307200595207E+03    0.42657E-01   -0.61652E-01 70320   0.361E+00    0.150E+00
DAV:   7    -0.307192324283E+03    0.82709E-02   -0.33032E-01 72024   0.241E+00    0.133E+00
DAV:   8    -0.307182602090E+03    0.97222E-02   -0.15605E-01 72828   0.177E+00    0.775E-01
DAV:   9    -0.307180126035E+03    0.24761E-02   -0.50967E-02 69384   0.103E+00    0.627E-01
DAV:  10    -0.307177965496E+03    0.21605E-02   -0.21603E-02 65064   0.650E-01    0.407E-01
DAV:  11    -0.307178098562E+03   -0.13307E-03   -0.51980E-03 61932   0.320E-01    0.357E-01
DAV:  12    -0.307178561418E+03   -0.46286E-03   -0.41888E-03 65508   0.281E-01    0.281E-01
DAV:  13    -0.307179681029E+03   -0.11196E-02   -0.80894E-03 76824   0.369E-01    0.201E-01
DAV:  14    -0.307179495765E+03    0.18526E-03   -0.72549E-03 69984   0.344E-01    0.165E-01
DAV:  15    -0.307179323032E+03    0.17273E-03   -0.33254E-03 58716   0.274E-01    0.102E-01
DAV:  16    -0.307179220827E+03    0.10220E-03   -0.92420E-04 52896   0.145E-01    0.417E-02
DAV:  17    -0.307179199093E+03    0.21734E-04   -0.10619E-04 26832   0.607E-02
   5 F= -.30717920E+03 E0= -.30717583E+03  d E =-.123260E+00
       N       E                     dE             d eps       ncg     rms          rms(c)
DAV:   1    -0.307125403604E+03    0.53817E-01   -0.60615E+01 43944   0.252E+01    0.234E+00
DAV:   2    -0.307515498673E+03   -0.39010E+00   -0.41632E+00 68760   0.906E+00    0.384E+00
DAV:   3    -0.307401418232E+03    0.11408E+00   -0.16402E+00 72252   0.608E+00    0.225E+00
DAV:   4    -0.307367460452E+03    0.33958E-01   -0.41215E-01 68256   0.315E+00    0.146E+00
DAV:   5    -0.307359139627E+03    0.83208E-02   -0.26079E-01 68712   0.221E+00    0.126E+00
DAV:   6    -0.307352887920E+03    0.62517E-02   -0.16302E-01 69708   0.175E+00    0.111E+00
DAV:   7    -0.307350551338E+03    0.23366E-02   -0.14031E-01 70932   0.172E+00    0.944E-01
DAV:   8    -0.307344636201E+03    0.59151E-02   -0.80192E-02 72744   0.137E+00    0.556E-01
DAV:   9    -0.307340532053E+03    0.41041E-02   -0.28199E-02 77388   0.725E-01    0.286E-01
DAV:  10    -0.307339965194E+03    0.56686E-03   -0.95392E-03 65628   0.424E-01    0.182E-01
DAV:  11    -0.307339884653E+03    0.80540E-04   -0.35154E-03 65100   0.248E-01    0.125E-01
DAV:  12    -0.307339781591E+03    0.10306E-03   -0.16589E-03 60768   0.159E-01    0.830E-02
DAV:  13    -0.307339746240E+03    0.35351E-04   -0.78637E-04 50760   0.116E-01
   6 F= -.30733975E+03 E0= -.30733820E+03  d E =-.160547E+00
       N       E                     dE             d eps       ncg     rms          rms(c)
DAV:   1    -0.307335840410E+03    0.39412E-02   -0.25682E+00 42672   0.516E+00    0.491E-01
DAV:   2    -0.307354517415E+03   -0.18677E-01   -0.19514E-01 69024   0.209E+00    0.903E-01
DAV:   3    -0.307347647725E+03    0.68697E-02   -0.81025E-02 70332   0.143E+00    0.446E-01
DAV:   4    -0.307346464692E+03    0.11830E-02   -0.17535E-02 68064   0.631E-01    0.320E-01
DAV:   5    -0.307345902545E+03    0.56215E-03   -0.11499E-02 64548   0.480E-01    0.253E-01
DAV:   6    -0.307345663448E+03    0.23910E-03   -0.67752E-03 61224   0.369E-01    0.222E-01
DAV:   7    -0.307345545141E+03    0.11831E-03   -0.54368E-03 61032   0.339E-01    0.190E-01
DAV:   8    -0.307345307358E+03    0.23778E-03   -0.35107E-03 61932   0.288E-01    0.114E-01
DAV:   9    -0.307345141636E+03    0.16572E-03   -0.11260E-03 52824   0.164E-01    0.606E-02
DAV:  10    -0.307345101799E+03    0.39837E-04   -0.27346E-04 32820   0.111E-01
   7 F= -.30734510E+03 E0= -.30734388E+03  d E =-.165903E+00
       N       E                     dE             d eps       ncg     rms          rms(c)
DAV:   1    -0.307382399932E+03   -0.37258E-01   -0.11928E+01 41280   0.131E+01    0.254E+00
DAV:   2    -0.307452003021E+03   -0.69603E-01   -0.14605E+00 70896   0.586E+00    0.211E+00
DAV:   3    -0.307470038565E+03   -0.18036E-01   -0.10734E+00 71616   0.471E+00    0.258E+00
DAV:   4    -0.307437909632E+03    0.32129E-01   -0.71028E-01 67536   0.389E+00    0.205E+00
DAV:   5    -0.307403444224E+03    0.34465E-01   -0.35198E-01 69444   0.237E+00    0.116E+00
DAV:   6    -0.307396037578E+03    0.74066E-02   -0.16355E-01 71868   0.177E+00    0.845E-01
DAV:   7    -0.307391929011E+03    0.41086E-02   -0.78221E-02 74964   0.126E+00    0.595E-01
DAV:   8    -0.307389642266E+03    0.22867E-02   -0.30444E-02 69840   0.858E-01    0.366E-01
DAV:   9    -0.307388708647E+03    0.93362E-03   -0.93807E-03 64116   0.475E-01    0.237E-01
DAV:  10    -0.307388531973E+03    0.17667E-03   -0.33757E-03 62940   0.236E-01    0.185E-01
DAV:  11    -0.307388757390E+03   -0.22542E-03   -0.20764E-03 62832   0.185E-01    0.159E-01
DAV:  12    -0.307388943322E+03   -0.18593E-03   -0.31219E-03 59064   0.255E-01    0.142E-01
DAV:  13    -0.307388856776E+03    0.86546E-04   -0.26772E-03 64044   0.251E-01    0.922E-02
DAV:  14    -0.307388805764E+03    0.51012E-04   -0.12855E-03 58488   0.168E-01    0.621E-02
DAV:  15    -0.307388772062E+03    0.33702E-04   -0.36147E-04 39192   0.114E-01
   8 F= -.30738877E+03 E0= -.30738734E+03  d E =-.436703E-01
       N       E                     dE             d eps       ncg     rms          rms(c)
DAV:   1    -0.307388783152E+03    0.22612E-04   -0.92611E-03 45576   0.373E-01    0.644E-02
DAV:   2    -0.307388841243E+03   -0.58091E-04   -0.10260E-03 52512   0.158E-01    0.530E-02
DAV:   3    -0.307388857462E+03   -0.16219E-04   -0.59227E-04 43956   0.122E-01
   9 F= -.30738886E+03 E0= -.30738747E+03  d E =-.437557E-01
       N       E                     dE             d eps       ncg     rms          rms(c)
DAV:   1    -0.307414978731E+03   -0.26137E-01   -0.42535E+00 41304   0.758E+00    0.130E+00
DAV:   2    -0.307438543826E+03   -0.23565E-01   -0.47831E-01 69900   0.311E+00    0.112E+00
DAV:   3    -0.307444329048E+03   -0.57852E-02   -0.31028E-01 71508   0.246E+00    0.141E+00
DAV:   4    -0.307429788679E+03    0.14540E-01   -0.16322E-01 67752   0.193E+00    0.858E-01
DAV:   5    -0.307424644048E+03    0.51446E-02   -0.86398E-02 70728   0.120E+00    0.670E-01
DAV:   6    -0.307421758056E+03    0.28860E-02   -0.44287E-02 70908   0.942E-01    0.428E-01
DAV:   7    -0.307420706641E+03    0.10514E-02   -0.20352E-02 69036   0.628E-01    0.291E-01
DAV:   8    -0.307420201767E+03    0.50487E-03   -0.97120E-03 59268   0.453E-01    0.199E-01
DAV:   9    -0.307420015713E+03    0.18605E-03   -0.33952E-03 59160   0.286E-01    0.138E-01
DAV:  10    -0.307419924932E+03    0.90781E-04   -0.11209E-03 53808   0.164E-01    0.925E-02
DAV:  11    -0.307419957693E+03   -0.32761E-04   -0.32081E-04 33912   0.120E-01
  10 F= -.30741996E+03 E0= -.30741851E+03  d E =-.311002E-01
       N       E                     dE             d eps       ncg     rms          rms(c)
DAV:   1    -0.307424931626E+03   -0.50067E-02   -0.61554E+00 41352   0.912E+00    0.159E+00
DAV:   2    -0.307461143799E+03   -0.36212E-01   -0.71660E-01 70296   0.386E+00    0.148E+00
DAV:   3    -0.307469381574E+03   -0.82378E-02   -0.50653E-01 70776   0.319E+00    0.185E+00
DAV:   4    -0.307447115246E+03    0.22266E-01   -0.26810E-01 67596   0.246E+00    0.111E+00
DAV:   5    -0.307437323961E+03    0.97913E-02   -0.13412E-01 71796   0.148E+00    0.791E-01
DAV:   6    -0.307432964003E+03    0.43600E-02   -0.64555E-02 70140   0.118E+00    0.490E-01
DAV:   7    -0.307431698790E+03    0.12652E-02   -0.26321E-02 72456   0.717E-01    0.358E-01
DAV:   8    -0.307430950007E+03    0.74878E-03   -0.13232E-02 64212   0.540E-01    0.242E-01
DAV:   9    -0.307430727022E+03    0.22299E-03   -0.44823E-03 59760   0.324E-01    0.174E-01
DAV:  10    -0.307430637982E+03    0.89040E-04   -0.17587E-03 58884   0.192E-01    0.124E-01
DAV:  11    -0.307430763912E+03   -0.12593E-03   -0.92749E-04 50280   0.153E-01    0.103E-01
DAV:  12    -0.307430854785E+03   -0.90873E-04   -0.13266E-03 56532   0.181E-01    0.879E-02
DAV:  13    -0.307430814362E+03    0.40423E-04   -0.97120E-04 57144   0.148E-01
  11 F= -.30743081E+03 E0= -.30742930E+03  d E =-.419569E-01
       N       E                     dE             d eps       ncg     rms          rms(c)
DAV:   1    -0.307438168659E+03   -0.73139E-02   -0.14217E+00 43716   0.392E+00    0.300E-01
DAV:   2    -0.307445976602E+03   -0.78079E-02   -0.88744E-02 67608   0.146E+00    0.463E-01
DAV:   3    -0.307444856382E+03    0.11202E-02   -0.26454E-02 70836   0.838E-01    0.312E-01
DAV:   4    -0.307444119359E+03    0.73702E-03   -0.65627E-03 63336   0.429E-01    0.180E-01
DAV:   5    -0.307443794716E+03    0.32464E-03   -0.37338E-03 62472   0.243E-01    0.137E-01
DAV:   6    -0.307443921525E+03   -0.12681E-03   -0.34114E-03 60000   0.255E-01    0.195E-01
DAV:   7    -0.307443664523E+03    0.25700E-03   -0.28375E-03 57264   0.243E-01    0.102E-01
DAV:   8    -0.307443596942E+03    0.67581E-04   -0.13325E-03 55752   0.170E-01    0.787E-02
DAV:   9    -0.307443523648E+03    0.73294E-04   -0.50467E-04 44232   0.124E-01
  12 F= -.30744352E+03 E0= -.30744209E+03  d E =-.127093E-01
       N       E                     dE             d eps       ncg     rms          rms(c)
DAV:   1    -0.307415878093E+03    0.27719E-01   -0.12777E+01 43560   0.118E+01    0.921E-01
DAV:   2    -0.307483405853E+03   -0.67528E-01   -0.78906E-01 67464   0.430E+00    0.127E+00
DAV:   3    -0.307478583570E+03    0.48223E-02   -0.24115E-01 70620   0.252E+00    0.102E+00
DAV:   4    -0.307470861808E+03    0.77218E-02   -0.72558E-02 68220   0.144E+00    0.578E-01
DAV:   5    -0.307467329570E+03    0.35322E-02   -0.34093E-02 69360   0.770E-01    0.370E-01
DAV:   6    -0.307467209092E+03    0.12048E-03   -0.20578E-02 69072   0.661E-01    0.372E-01
DAV:   7    -0.307466167484E+03    0.10416E-02   -0.19189E-02 71196   0.608E-01    0.259E-01
DAV:   8    -0.307465625575E+03    0.54191E-03   -0.73930E-03 67884   0.376E-01    0.192E-01
DAV:   9    -0.307465285591E+03    0.33998E-03   -0.32191E-03 62136   0.240E-01    0.983E-02
DAV:  10    -0.307465253898E+03    0.31694E-04   -0.11835E-03 52752   0.155E-01    0.787E-02
DAV:  11    -0.307465202570E+03    0.51327E-04   -0.52080E-04 41988   0.120E-01
  13 F= -.30746520E+03 E0= -.30746398E+03  d E =-.343882E-01
       N       E                     dE             d eps       ncg     rms          rms(c)
DAV:   1    -0.307461959895E+03    0.32940E-02   -0.12661E+00 43644   0.369E+00    0.283E-01
DAV:   2    -0.307468993860E+03   -0.70340E-02   -0.80256E-02 67692   0.138E+00    0.449E-01
DAV:   3    -0.307467944353E+03    0.10495E-02   -0.24763E-02 70596   0.813E-01    0.300E-01
DAV:   4    -0.307467258331E+03    0.68602E-03   -0.60740E-03 62520   0.418E-01    0.172E-01
DAV:   5    -0.307466967730E+03    0.29060E-03   -0.32760E-03 61308   0.236E-01    0.120E-01
DAV:   6    -0.307467002527E+03   -0.34797E-04   -0.24750E-03 61440   0.220E-01    0.150E-01
DAV:   7    -0.307466895296E+03    0.10723E-03   -0.23654E-03 56772   0.216E-01    0.118E-01
DAV:   8    -0.307466818956E+03    0.76340E-04   -0.14298E-03 52176   0.191E-01    0.857E-02
DAV:   9    -0.307466728839E+03    0.90118E-04   -0.43867E-04 39276   0.120E-01
  14 F= -.30746673E+03 E0= -.30746560E+03  d E =-.359145E-01
       N       E                     dE             d eps       ncg     rms          rms(c)
DAV:   1    -0.307472260106E+03   -0.54411E-02   -0.26211E+00 41280   0.576E+00    0.874E-01
DAV:   2    -0.307497405171E+03   -0.25145E-01   -0.31507E-01 69780   0.272E+00    0.115E+00
DAV:   3    -0.307491278189E+03    0.61270E-02   -0.18587E-01 69420   0.208E+00    0.958E-01
DAV:   4    -0.307484786562E+03    0.64916E-02   -0.66335E-02 67752   0.126E+00    0.476E-01
DAV:   5    -0.307482674246E+03    0.21123E-02   -0.28527E-02 69336   0.748E-01    0.361E-01
DAV:   6    -0.307482094203E+03    0.58004E-03   -0.18469E-02 67896   0.660E-01    0.307E-01
DAV:   7    -0.307481645884E+03    0.44832E-03   -0.97498E-03 68604   0.437E-01    0.217E-01
DAV:   8    -0.307481344987E+03    0.30090E-03   -0.53329E-03 62940   0.342E-01    0.152E-01
DAV:   9    -0.307481175091E+03    0.16990E-03   -0.17919E-03 57468   0.197E-01    0.904E-02
DAV:  10    -0.307481120568E+03    0.54523E-04   -0.45897E-04 40488   0.119E-01
  15 F= -.30748112E+03 E0= -.30748008E+03  d E =-.143917E-01
       N       E                     dE             d eps       ncg     rms          rms(c)
DAV:   1    -0.307476912038E+03    0.42631E-02   -0.24261E+00 41280   0.553E+00    0.821E-01
DAV:   2    -0.307500504431E+03   -0.23592E-01   -0.28960E-01 69864   0.263E+00    0.112E+00
DAV:   3    -0.307493755932E+03    0.67485E-02   -0.16861E-01 69216   0.198E+00    0.881E-01
DAV:   4    -0.307488222552E+03    0.55334E-02   -0.56911E-02 66900   0.117E+00    0.435E-01
DAV:   5    -0.307486277932E+03    0.19446E-02   -0.23447E-02 70776   0.678E-01    0.308E-01
DAV:   6    -0.307485879088E+03    0.39884E-03   -0.14474E-02 69132   0.604E-01    0.273E-01
DAV:   7    -0.307485413178E+03    0.46591E-03   -0.82188E-03 70488   0.406E-01    0.168E-01
DAV:   8    -0.307485287869E+03    0.12531E-03   -0.35652E-03 63276   0.274E-01    0.144E-01
DAV:   9    -0.307485159352E+03    0.12852E-03   -0.15449E-03 55668   0.184E-01    0.951E-02
DAV:  10    -0.307485110462E+03    0.48891E-04   -0.36762E-04 36216   0.110E-01
  16 F= -.30748511E+03 E0= -.30748414E+03  d E =-.183816E-01
       N       E                     dE             d eps       ncg     rms          rms(c)
DAV:   1    -0.307490261863E+03   -0.51025E-02   -0.87694E-01 41280   0.339E+00    0.559E-01
DAV:   2    -0.307499275661E+03   -0.90138E-02   -0.11953E-01 70776   0.177E+00    0.686E-01
DAV:   3    -0.307496565550E+03    0.27101E-02   -0.65364E-02 70080   0.121E+00    0.546E-01
DAV:   4    -0.307495059345E+03    0.15062E-02   -0.29344E-02 64224   0.810E-01    0.381E-01
DAV:   5    -0.307493537363E+03    0.15220E-02   -0.13612E-02 67872   0.519E-01    0.208E-01
DAV:   6    -0.307493335405E+03    0.20196E-03   -0.67053E-03 68280   0.375E-01    0.161E-01
DAV:   7    -0.307493150812E+03    0.18459E-03   -0.34835E-03 65040   0.281E-01    0.113E-01
DAV:   8    -0.307493047748E+03    0.10306E-03   -0.14874E-03 59412   0.186E-01    0.789E-02
DAV:   9    -0.307492998217E+03    0.49531E-04   -0.57970E-04 41808   0.117E-01
  17 F= -.30749300E+03 E0= -.30749209E+03  d E =-.788776E-02
       N       E                     dE             d eps       ncg     rms          rms(c)
DAV:   1    -0.307488970818E+03    0.40769E-02   -0.27511E+00 41280   0.600E+00    0.953E-01
DAV:   2    -0.307516662359E+03   -0.27692E-01   -0.35968E-01 70140   0.316E+00    0.118E+00
DAV:   3    -0.307508912515E+03    0.77498E-02   -0.18637E-01 69744   0.210E+00    0.925E-01
DAV:   4    -0.307504764854E+03    0.41477E-02   -0.89221E-02 67488   0.141E+00    0.668E-01
DAV:   5    -0.307500583177E+03    0.41817E-02   -0.43411E-02 70116   0.937E-01    0.404E-01
DAV:   6    -0.307499981314E+03    0.60186E-03   -0.22562E-02 70260   0.663E-01    0.337E-01
DAV:   7    -0.307499711439E+03    0.26987E-03   -0.14240E-02 70212   0.522E-01    0.293E-01
DAV:   8    -0.307499007189E+03    0.70425E-03   -0.57501E-03 62928   0.359E-01    0.142E-01
DAV:   9    -0.307498868283E+03    0.13891E-03   -0.14834E-03 59376   0.188E-01    0.102E-01
DAV:  10    -0.307498828002E+03    0.40281E-04   -0.54166E-04 42684   0.115E-01
  18 F= -.30749883E+03 E0= -.30749801E+03  d E =-.137175E-01
       N       E                     dE             d eps       ncg     rms          rms(c)
DAV:   1    -0.307500729299E+03   -0.18610E-02   -0.20889E-01 41448   0.155E+00    0.155E-01
DAV:   2    -0.307502802208E+03   -0.20729E-02   -0.21330E-02 66852   0.708E-01    0.244E-01
DAV:   3    -0.307502386444E+03    0.41576E-03   -0.74952E-03 68184   0.437E-01    0.152E-01
DAV:   4    -0.307502326477E+03    0.59967E-04   -0.17254E-03 55536   0.200E-01    0.128E-01
DAV:   5    -0.307502178402E+03    0.14808E-03   -0.79242E-04 46068   0.154E-01    0.572E-02
DAV:   6    -0.307502203350E+03   -0.24948E-04   -0.36206E-04 37884   0.104E-01
  19 F= -.30750220E+03 E0= -.30750137E+03  d E =-.337535E-02
       N       E                     dE             d eps       ncg     rms          rms(c)
DAV:   1    -0.307496308570E+03    0.58698E-02   -0.18679E+00 41280   0.462E+00    0.421E-01
DAV:   2    -0.307510880878E+03   -0.14572E-01   -0.16337E-01 65436   0.196E+00    0.456E-01
DAV:   3    -0.307512937996E+03   -0.20571E-02   -0.47481E-02 67704   0.109E+00    0.606E-01
DAV:   4    -0.307509860717E+03    0.30773E-02   -0.17020E-02 66636   0.611E-01    0.218E-01
DAV:   5    -0.307509509086E+03    0.35163E-03   -0.43509E-03 62988   0.313E-01    0.169E-01
DAV:   6    -0.307509493643E+03    0.15443E-04   -0.31461E-03 64608   0.281E-01    0.162E-01
DAV:   7    -0.307509411585E+03    0.82058E-04   -0.32369E-03 67884   0.264E-01    0.146E-01
DAV:   8    -0.307509225112E+03    0.18647E-03   -0.16770E-03 61212   0.206E-01    0.777E-02
DAV:   9    -0.307509155941E+03    0.69171E-04   -0.41927E-04 40668   0.113E-01
  20 F= -.30750916E+03 E0= -.30750826E+03  d E =-.103279E-01
       N       E                     dE             d eps       ncg     rms          rms(c)
DAV:   1    -0.307459102896E+03    0.50122E-01   -0.75054E+00 41280   0.926E+00    0.866E-01
DAV:   2    -0.307516550103E+03   -0.57447E-01   -0.66115E-01 66708   0.395E+00    0.733E-01
DAV:   3    -0.307524773784E+03   -0.82237E-02   -0.14813E-01 67812   0.189E+00    0.114E+00
DAV:   4    -0.307513736350E+03    0.11037E-01   -0.70837E-02 69072   0.121E+00    0.442E-01
DAV:   5    -0.307512326251E+03    0.14101E-02   -0.15666E-02 69204   0.570E-01    0.333E-01
DAV:   6    -0.307512164902E+03    0.16135E-03   -0.12022E-02 69156   0.530E-01    0.318E-01
DAV:   7    -0.307511940593E+03    0.22431E-03   -0.12764E-02 66336   0.535E-01    0.295E-01
DAV:   8    -0.307511260667E+03    0.67993E-03   -0.72888E-03 68148   0.418E-01    0.172E-01
DAV:   9    -0.307510961417E+03    0.29925E-03   -0.22751E-03 60348   0.235E-01    0.795E-02
DAV:  10    -0.307510931331E+03    0.30086E-04   -0.65791E-04 47304   0.117E-01
  21 F= -.30751093E+03 E0= -.30750988E+03  d E =-.121033E-01
       N       E                     dE             d eps       ncg     rms          rms(c)
DAV:   1    -0.307526689471E+03   -0.15728E-01   -0.13418E+00 47352   0.479E+00    0.118E+00
DAV:   2    -0.307535948724E+03   -0.92593E-02   -0.24673E-01 73668   0.240E+00    0.108E+00
DAV:   3    -0.307534326979E+03    0.16217E-02   -0.24126E-01 72960   0.208E+00    0.115E+00
DAV:   4    -0.307526008408E+03    0.83186E-02   -0.12962E-01 68040   0.172E+00    0.782E-01
DAV:   5    -0.307521131951E+03    0.48765E-02   -0.64275E-02 71172   0.111E+00    0.554E-01
DAV:   6    -0.307519113029E+03    0.20189E-02   -0.31373E-02 69372   0.799E-01    0.368E-01
DAV:   7    -0.307518228645E+03    0.88438E-03   -0.13770E-02 68376   0.526E-01    0.230E-01
DAV:   8    -0.307517997390E+03    0.23126E-03   -0.68754E-03 61740   0.370E-01    0.172E-01
DAV:   9    -0.307517842745E+03    0.15464E-03   -0.25237E-03 59064   0.252E-01    0.123E-01
DAV:  10    -0.307517743793E+03    0.98952E-04   -0.69065E-04 48240   0.137E-01
  22 F= -.30751774E+03 E0= -.30751652E+03  d E =-.681246E-02
       N       E                     dE             d eps       ncg     rms          rms(c)
DAV:   1    -0.307517756450E+03    0.86294E-04   -0.77572E-04 49824   0.118E-01    0.657E-02
DAV:   2    -0.307517943341E+03   -0.18689E-03   -0.10160E-03 50664   0.178E-01    0.126E-01
DAV:   3    -0.307517774029E+03    0.16931E-03   -0.83878E-04 47448   0.168E-01    0.429E-02
DAV:   4    -0.307517828272E+03   -0.54243E-04   -0.30479E-04 35712   0.980E-02
  23 F= -.30751783E+03 E0= -.30751659E+03  d E =-.689694E-02
       N       E                     dE             d eps       ncg     rms          rms(c)
DAV:   1    -0.307517935296E+03   -0.16127E-03   -0.10736E+00 41280   0.377E+00    0.631E-01
DAV:   2    -0.307527016978E+03   -0.90817E-02   -0.13358E-01 69420   0.177E+00    0.681E-01
DAV:   3    -0.307527554506E+03   -0.53753E-03   -0.82417E-02 68352   0.140E+00    0.736E-01
DAV:   4    -0.307524012909E+03    0.35416E-02   -0.40607E-02 64836   0.944E-01    0.414E-01
DAV:   5    -0.307522770267E+03    0.12426E-02   -0.18552E-02 66408   0.606E-01    0.314E-01
DAV:   6    -0.307522082537E+03    0.68773E-03   -0.97518E-03 64272   0.467E-01    0.183E-01
DAV:   7    -0.307522014205E+03    0.68332E-04   -0.48445E-03 66408   0.320E-01    0.169E-01
DAV:   8    -0.307521786885E+03    0.22732E-03   -0.23546E-03 59340   0.250E-01    0.823E-02
DAV:   9    -0.307521713738E+03    0.73148E-04   -0.32659E-04 35520   0.106E-01
  24 F= -.30752171E+03 E0= -.30752037E+03  d E =-.388547E-02
       N       E                     dE             d eps       ncg     rms          rms(c)
DAV:   1    -0.307521703367E+03    0.83518E-04   -0.11960E-02 43404   0.405E-01    0.641E-02
DAV:   2    -0.307521870307E+03   -0.16694E-03   -0.16421E-03 62592   0.218E-01    0.100E-01
DAV:   3    -0.307521792608E+03    0.77699E-04   -0.91255E-04 48912   0.161E-01
  25 F= -.30752179E+03 E0= -.30752045E+03  d E =-.396434E-02
       N       E                     dE             d eps       ncg     rms          rms(c)
DAV:   1    -0.307521545228E+03    0.32508E-03   -0.29593E-01 41280   0.194E+00    0.230E-01
DAV:   2    -0.307525063362E+03   -0.35181E-02   -0.39125E-02 68352   0.960E-01    0.311E-01
DAV:   3    -0.307524482472E+03    0.58089E-03   -0.11833E-02 71880   0.546E-01    0.221E-01
DAV:   4    -0.307524177173E+03    0.30530E-03   -0.44241E-03 63348   0.310E-01    0.156E-01
DAV:   5    -0.307524006802E+03    0.17037E-03   -0.24676E-03 58104   0.232E-01    0.119E-01
DAV:   6    -0.307523915273E+03    0.91529E-04   -0.11027E-03 51204   0.171E-01    0.696E-02
DAV:   7    -0.307523919620E+03   -0.43468E-05   -0.65932E-04 47616   0.133E-01
  26 F= -.30752392E+03 E0= -.30752258E+03  d E =-.212701E-02
       N       E                     dE             d eps       ncg     rms          rms(c)
DAV:   1    -0.307504557956E+03    0.19357E-01   -0.26543E+00 41280   0.584E+00    0.686E-01
DAV:   2    -0.307533916533E+03   -0.29359E-01   -0.33378E-01 67056   0.286E+00    0.838E-01
DAV:   3    -0.307532912029E+03    0.10045E-02   -0.10494E-01 68544   0.167E+00    0.764E-01
DAV:   4    -0.307528502544E+03    0.44095E-02   -0.43438E-02 68892   0.993E-01    0.418E-01
DAV:   5    -0.307527390226E+03    0.11123E-02   -0.17567E-02 66768   0.587E-01    0.332E-01
DAV:   6    -0.307526878654E+03    0.51157E-03   -0.95393E-03 67704   0.455E-01    0.225E-01
DAV:   7    -0.307526903768E+03   -0.25114E-04   -0.79110E-03 69324   0.430E-01    0.225E-01
DAV:   8    -0.307526418598E+03    0.48517E-03   -0.45204E-03 62208   0.323E-01    0.103E-01
DAV:   9    -0.307526330412E+03    0.88186E-04   -0.99004E-04 54876   0.137E-01
  27 F= -.30752633E+03 E0= -.30752498E+03  d E =-.453780E-02
       N       E                     dE             d eps       ncg     rms          rms(c)
DAV:   1    -0.307526774587E+03   -0.35599E-03   -0.35189E-02 43680   0.680E-01    0.802E-02
DAV:   2    -0.307527226421E+03   -0.45183E-03   -0.46134E-03 68100   0.311E-01    0.131E-01
DAV:   3    -0.307527094417E+03    0.13200E-03   -0.15964E-03 59832   0.196E-01    0.815E-02
DAV:   4    -0.307527048213E+03    0.46205E-04   -0.29372E-04 36036   0.104E-01
  28 F= -.30752705E+03 E0= -.30752570E+03  d E =-.717801E-03
       N       E                     dE             d eps       ncg     rms          rms(c)
DAV:   1    -0.307526164976E+03    0.92944E-03   -0.30795E-01 41472   0.199E+00    0.216E-01
DAV:   2    -0.307529913075E+03   -0.37481E-02   -0.39879E-02 65724   0.985E-01    0.324E-01
DAV:   3    -0.307529590114E+03    0.32296E-03   -0.13012E-02 67560   0.591E-01    0.252E-01
DAV:   4    -0.307529139278E+03    0.45084E-03   -0.40840E-03 62292   0.299E-01    0.132E-01
DAV:   5    -0.307529016117E+03    0.12316E-03   -0.14081E-03 54540   0.193E-01    0.105E-01
DAV:   6    -0.307528959725E+03    0.56392E-04   -0.75899E-04 45528   0.147E-01
  29 F= -.30752896E+03 E0= -.30752757E+03  d E =-.262931E-02
       N       E                     dE             d eps       ncg     rms          rms(c)
DAV:   1    -0.307520531902E+03    0.84842E-02   -0.12280E+00 41736   0.397E+00    0.403E-01
DAV:   2    -0.307534084762E+03   -0.13553E-01   -0.14711E-01 65532   0.185E+00    0.506E-01
DAV:   3    -0.307533705725E+03    0.37904E-03   -0.39250E-02 69192   0.993E-01    0.433E-01
DAV:   4    -0.307532616863E+03    0.10889E-02   -0.14529E-02 67644   0.557E-01    0.287E-01
DAV:   5    -0.307531856526E+03    0.76034E-03   -0.52612E-03 67452   0.345E-01    0.162E-01
DAV:   6    -0.307531922936E+03   -0.66410E-04   -0.31730E-03 67464   0.251E-01    0.159E-01
DAV:   7    -0.307531814833E+03    0.10810E-03   -0.24606E-03 68112   0.241E-01    0.120E-01
DAV:   8    -0.307531616398E+03    0.19843E-03   -0.13490E-03 60552   0.163E-01    0.540E-02
DAV:   9    -0.307531586083E+03    0.30315E-04   -0.14933E-04 28572   0.837E-02
  30 F= -.30753159E+03 E0= -.30753013E+03  d E =-.525567E-02
       N       E                     dE             d eps       ncg     rms          rms(c)
DAV:   1    -0.307532669061E+03   -0.10527E-02   -0.24246E-02 42384   0.593E-01    0.100E-01
DAV:   2    -0.307532928182E+03   -0.25912E-03   -0.34262E-03 68220   0.310E-01    0.122E-01
DAV:   3    -0.307532870584E+03    0.57599E-04   -0.21611E-03 57012   0.234E-01    0.998E-02
DAV:   4    -0.307532793017E+03    0.77567E-04   -0.78781E-04 48972   0.146E-01
  31 F= -.30753279E+03 E0= -.30753133E+03  d E =-.120693E-02
       N       E                     dE             d eps       ncg     rms          rms(c)
DAV:   1    -0.307534763534E+03   -0.18930E-02   -0.21291E-01 41304   0.173E+00    0.309E-01
DAV:   2    -0.307536299277E+03   -0.15357E-02   -0.27572E-02 70572   0.816E-01    0.274E-01
DAV:   3    -0.307536602826E+03   -0.30355E-03   -0.16497E-02 69768   0.607E-01    0.332E-01
DAV:   4    -0.307535837071E+03    0.76575E-03   -0.95242E-03 60432   0.457E-01    0.197E-01
DAV:   5    -0.307535524884E+03    0.31219E-03   -0.42927E-03 63636   0.297E-01    0.151E-01
DAV:   6    -0.307535360425E+03    0.16446E-03   -0.20489E-03 58368   0.218E-01    0.809E-02
DAV:   7    -0.307535301169E+03    0.59256E-04   -0.55524E-04 41796   0.130E-01
  32 F= -.30753530E+03 E0= -.30753374E+03  d E =-.371509E-02
       N       E                     dE             d eps       ncg     rms          rms(c)
DAV:   1    -0.307535955466E+03   -0.59504E-03   -0.31079E-02 41568   0.676E-01    0.123E-01
DAV:   2    -0.307536448259E+03   -0.49279E-03   -0.60039E-03 72516   0.400E-01    0.164E-01
DAV:   3    -0.307536286123E+03    0.16214E-03   -0.31869E-03 65316   0.281E-01    0.118E-01
DAV:   4    -0.307536186489E+03    0.99633E-04   -0.10140E-03 48612   0.163E-01    0.784E-02
DAV:   5    -0.307536155861E+03    0.30628E-04   -0.68439E-04 45696   0.137E-01
  33 F= -.30753616E+03 E0= -.30753456E+03  d E =-.854692E-03
       N       E                     dE             d eps       ncg     rms          rms(c)
DAV:   1    -0.307536435050E+03   -0.24856E-03   -0.27719E-01 41280   0.200E+00    0.324E-01
DAV:   2    -0.307539037527E+03   -0.26025E-02   -0.40000E-02 68448   0.932E-01    0.301E-01
DAV:   3    -0.307539323731E+03   -0.28620E-03   -0.21454E-02 68436   0.692E-01    0.369E-01
DAV:   4    -0.307538316862E+03    0.10069E-02   -0.10194E-02 59280   0.474E-01    0.194E-01
DAV:   5    -0.307538060840E+03    0.25602E-03   -0.41527E-03 62940   0.292E-01    0.149E-01
DAV:   6    -0.307537925321E+03    0.13552E-03   -0.24963E-03 57480   0.246E-01    0.109E-01
DAV:   7    -0.307537872217E+03    0.53104E-04   -0.13822E-03 56772   0.175E-01    0.820E-02
DAV:   8    -0.307537828966E+03    0.43251E-04   -0.60163E-04 44928   0.141E-01
  34 F= -.30753783E+03 E0= -.30753617E+03  d E =-.252780E-02
       N       E                     dE             d eps       ncg     rms          rms(c)
DAV:   1    -0.307539163117E+03   -0.12909E-02   -0.83954E-02 52656   0.129E+00    0.302E-01
DAV:   2    -0.307540022364E+03   -0.85925E-03   -0.20217E-02 74064   0.642E-01    0.258E-01
DAV:   3    -0.307539772599E+03    0.24976E-03   -0.15231E-02 73080   0.469E-01    0.266E-01
DAV:   4    -0.307539418440E+03    0.35416E-03   -0.81289E-03 60816   0.408E-01    0.221E-01
DAV:   5    -0.307539044202E+03    0.37424E-03   -0.43465E-03 61020   0.294E-01    0.136E-01
DAV:   6    -0.307538913850E+03    0.13035E-03   -0.19866E-03 57372   0.216E-01    0.967E-02
DAV:   7    -0.307538857632E+03    0.56217E-04   -0.11557E-03 54192   0.171E-01    0.652E-02
DAV:   8    -0.307538832774E+03    0.24859E-04   -0.52778E-04 43560   0.129E-01
  35 F= -.30753883E+03 E0= -.30753713E+03  d E =-.100381E-02
       N       E                     dE             d eps       ncg     rms          rms(c)
DAV:   1    -0.307539299125E+03   -0.44149E-03   -0.46395E-02 54336   0.980E-01    0.206E-01
DAV:   2    -0.307539968106E+03   -0.66898E-03   -0.11031E-02 72144   0.511E-01    0.232E-01
DAV:   3    -0.307539642612E+03    0.32549E-03   -0.86505E-03 68052   0.421E-01    0.205E-01
DAV:   4    -0.307539378622E+03    0.26399E-03   -0.35940E-03 60684   0.297E-01    0.116E-01
DAV:   5    -0.307539223591E+03    0.15503E-03   -0.14159E-03 56280   0.176E-01    0.759E-02
DAV:   6    -0.307539175232E+03    0.48360E-04   -0.76102E-04 48696   0.154E-01
  36 F= -.30753918E+03 E0= -.30753745E+03  d E =-.134627E-02
       N       E                     dE             d eps       ncg     rms          rms(c)
DAV:   1    -0.307539287693E+03   -0.64102E-04   -0.11034E-01 41496   0.121E+00    0.123E-01
DAV:   2    -0.307540971034E+03   -0.16833E-02   -0.16452E-02 67476   0.636E-01    0.228E-01
DAV:   3    -0.307540617211E+03    0.35382E-03   -0.48721E-03 68844   0.336E-01    0.133E-01
DAV:   4    -0.307540516733E+03    0.10048E-03   -0.12814E-03 51708   0.174E-01    0.862E-02
DAV:   5    -0.307540451938E+03    0.64795E-04   -0.49433E-04 42372   0.127E-01
  37 F= -.30754045E+03 E0= -.30753868E+03  d E =-.127671E-02
       N       E                     dE             d eps       ncg     rms          rms(c)
DAV:   1    -0.307533786800E+03    0.67299E-02   -0.98623E-01 41676   0.358E+00    0.351E-01
DAV:   2    -0.307545308055E+03   -0.11521E-01   -0.12472E-01 65568   0.166E+00    0.371E-01
DAV:   3    -0.307545859871E+03   -0.55182E-03   -0.25707E-02 67404   0.857E-01    0.406E-01
DAV:   4    -0.307544432719E+03    0.14272E-02   -0.10130E-02 66828   0.510E-01    0.189E-01
DAV:   5    -0.307544326112E+03    0.10661E-03   -0.31353E-03 63312   0.250E-01    0.171E-01
DAV:   6    -0.307544274415E+03    0.51697E-04   -0.23168E-03 60108   0.221E-01    0.139E-01
DAV:   7    -0.307544277495E+03   -0.30802E-05   -0.24670E-03 67788   0.241E-01    0.135E-01
DAV:   8    -0.307544106524E+03    0.17097E-03   -0.12910E-03 57840   0.189E-01    0.577E-02
DAV:   9    -0.307544053758E+03    0.52766E-04   -0.18497E-04 30588   0.870E-02
  38 F= -.30754405E+03 E0= -.30754218E+03  d E =-.487853E-02
       N       E                     dE             d eps       ncg     rms          rms(c)
DAV:   1    -0.307511051751E+03    0.33055E-01   -0.39876E+00 42288   0.718E+00    0.673E-01
DAV:   2    -0.307555458227E+03   -0.44406E-01   -0.47985E-01 65604   0.317E+00    0.703E-01
DAV:   3    -0.307556851685E+03   -0.13935E-02   -0.94622E-02 68016   0.161E+00    0.765E-01
DAV:   4    -0.307552232563E+03    0.46191E-02   -0.40665E-02 70092   0.101E+00    0.391E-01
DAV:   5    -0.307551366439E+03    0.86612E-03   -0.11748E-02 67560   0.480E-01    0.298E-01
DAV:   6    -0.307551202156E+03    0.16428E-03   -0.73087E-03 68832   0.388E-01    0.252E-01
DAV:   7    -0.307551293096E+03   -0.90940E-04   -0.80069E-03 66096   0.434E-01    0.255E-01
DAV:   8    -0.307550749703E+03    0.54339E-03   -0.50292E-03 67428   0.366E-01    0.123E-01
DAV:   9    -0.307550559250E+03    0.19045E-03   -0.13362E-03 59664   0.165E-01    0.627E-02
DAV:  10    -0.307550539970E+03    0.19280E-04   -0.22619E-04 31620   0.874E-02
  39 F= -.30755054E+03 E0= -.30754846E+03  d E =-.113647E-01
       N       E                     dE             d eps       ncg     rms          rms(c)
DAV:   1    -0.307395877328E+03    0.15468E+00   -0.15932E+01 41784   0.144E+01    0.151E+00
DAV:   2    -0.307586429525E+03   -0.19055E+00   -0.20549E+00 66480   0.679E+00    0.150E+00
DAV:   3    -0.307590776165E+03   -0.43466E-02   -0.44587E-01 67596   0.351E+00    0.167E+00
DAV:   4    -0.307568559281E+03    0.22217E-01   -0.19931E-01 69312   0.223E+00    0.814E-01
DAV:   5    -0.307564569319E+03    0.39900E-02   -0.51098E-02 68820   0.993E-01    0.617E-01
DAV:   6    -0.307563887962E+03    0.68136E-03   -0.30185E-02 70488   0.794E-01    0.536E-01
DAV:   7    -0.307563944667E+03   -0.56705E-04   -0.30991E-02 67524   0.832E-01    0.496E-01
DAV:   8    -0.307562292701E+03    0.16520E-02   -0.20995E-02 68568   0.743E-01    0.299E-01
DAV:   9    -0.307561211390E+03    0.10813E-02   -0.71385E-03 74928   0.392E-01    0.141E-01
DAV:  10    -0.307561199988E+03    0.11402E-04   -0.20389E-03 66420   0.180E-01    0.112E-01
DAV:  11    -0.307561186037E+03    0.13951E-04   -0.70627E-04 48360   0.127E-01
  40 F= -.30756119E+03 E0= -.30755871E+03  d E =-.220108E-01
       N       E                     dE             d eps       ncg     rms          rms(c)
DAV:   1    -0.306923107529E+03    0.63809E+00   -0.64777E+01 41916   0.291E+01    0.341E+00
DAV:   2    -0.307712696623E+03   -0.78959E+00   -0.84386E+00 66996   0.141E+01    0.327E+00
DAV:   3    -0.307704229910E+03    0.84667E-02   -0.20944E+00 67380   0.755E+00    0.356E+00
DAV:   4    -0.307606676839E+03    0.97553E-01   -0.99568E-01 69132   0.502E+00    0.175E+00
DAV:   5    -0.307586927659E+03    0.19749E-01   -0.23159E-01 66360   0.215E+00    0.127E+00
DAV:   6    -0.307584728223E+03    0.21994E-02   -0.11847E-01 69300   0.159E+00    0.116E+00
DAV:   7    -0.307584419085E+03    0.30914E-03   -0.11843E-01 69492   0.158E+00    0.102E+00
DAV:   8    -0.307579845118E+03    0.45740E-02   -0.83904E-02 68232   0.150E+00    0.721E-01
DAV:   9    -0.307573613110E+03    0.62320E-02   -0.37049E-02 74652   0.904E-01    0.306E-01
DAV:  10    -0.307573655316E+03   -0.42206E-04   -0.11239E-02 76680   0.418E-01    0.254E-01
DAV:  11    -0.307573508136E+03    0.14718E-03   -0.47754E-03 63528   0.304E-01    0.184E-01
DAV:  12    -0.307573433993E+03    0.74143E-04   -0.20183E-03 60456   0.212E-01    0.131E-01
DAV:  13    -0.307573500830E+03   -0.66837E-04   -0.15039E-03 57432   0.198E-01    0.121E-01
DAV:  14    -0.307573505891E+03   -0.50611E-05   -0.13672E-03 58248   0.188E-01    0.844E-02
DAV:  15    -0.307573450070E+03    0.55821E-04   -0.74734E-04 49356   0.136E-01
  41 F= -.30757345E+03 E0= -.30757078E+03  d E =-.342748E-01
       N       E                     dE             d eps       ncg     rms          rms(c)
DAV:   1    -0.307573571621E+03   -0.65730E-04   -0.23096E-03 48972   0.180E-01    0.252E-02
DAV:   2    -0.307573617135E+03   -0.45514E-04   -0.54689E-04 46224   0.109E-01
  42 F= -.30757362E+03 E0= -.30757094E+03  d E =-.167065E-03
       N       E                     dE             d eps       ncg     rms          rms(c)
DAV:   1    -0.307573899309E+03   -0.32769E-03   -0.18619E-02 45372   0.482E-01    0.440E-02
DAV:   2    -0.307574190355E+03   -0.29105E-03   -0.26292E-03 64308   0.251E-01    0.102E-01
DAV:   3    -0.307574093864E+03    0.96491E-04   -0.81568E-04 51456   0.156E-01
  43 F= -.30757409E+03 E0= -.30757143E+03  d E =-.643794E-03
