<?xml version="1.0" encoding="ISO-8859-1"?>
<modeling>
 <generator>
  <i name="program" type="string">vasp </i>
  <i name="version" type="string">5.4.4.18Apr17-6-g9f103f2a35  </i>
  <i name="subversion" type="string">(build Aug 09 2018 16:20:53) complex            parallel </i>
  <i name="platform" type="string">LinuxIFC </i>
  <i name="date" type="string">2020 04 30 </i>
  <i name="time" type="string">16:26:07 </i>
 </generator>
 <incar>
  <i type="string" name="SYSTEM"> Nb - Mo - Ta - Ti - V SQS</i>
  <i type="string" name="PREC">normal</i>
  <i type="int" name="ICHARG">     0</i>
  <i type="int" name="IBRION">     2</i>
  <i type="int" name="NSW">    50</i>
  <i type="int" name="ISIF">     3</i>
  <i name="ENCUT">    600.00000000</i>
  <i type="string" name="LREAL"> Auto</i>
  <i type="int" name="ISMEAR">     1</i>
  <i name="SIGMA">      0.20000000</i>
  <v type="int" name="KPOINT_BSE">    -1     0     0     0</v>
  <i type="string" name="GGA"> PS</i>
 </incar>
 <structure name="primitive_cell" >
  <crystal>
   <varray name="basis" >
    <v>      -3.16000000      -3.16000000      -3.16000000 </v>
    <v>       1.58000000       1.58000000      -7.90000000 </v>
    <v>       7.90000000      -7.90000000      -1.58000000 </v>
   </varray>
   <i name="volume">    473.31744000 </i>
   <varray name="rec_basis" >
    <v>      -0.13713080      -0.12658228      -0.05274262 </v>
    <v>       0.04219409       0.06329114      -0.10548523 </v>
    <v>       0.06329114      -0.06329114       0.00000000 </v>
   </varray>
  </crystal>
  <varray name="positions" >
   <v>      -0.03333333      -0.06666667       0.40000000 </v>
   <v>       0.30000000      -0.40000000       0.40000000 </v>
   <v>      -0.10000000      -0.20000000       0.20000000 </v>
   <v>       0.06666667       0.13333333       0.20000000 </v>
   <v>       0.46666667      -0.06666667       0.40000000 </v>
   <v>      -0.13333333      -0.26666667      -0.40000000 </v>
   <v>       0.03333333       0.06666667      -0.40000000 </v>
   <v>      -0.36666667       0.26666667       0.40000000 </v>
   <v>       0.40000000      -0.20000000       0.20000000 </v>
   <v>      -0.20000000      -0.40000000       0.40000000 </v>
   <v>      -0.43333333       0.13333333       0.20000000 </v>
   <v>       0.36666667      -0.26666667      -0.40000000 </v>
   <v>       0.13333333       0.26666667       0.40000000 </v>
   <v>      -0.46666667       0.06666667      -0.40000000 </v>
   <v>       0.23333333       0.46666667       0.20000000 </v>
   <v>       0.20000000       0.40000000      -0.40000000 </v>
   <v>       0.00000000       0.00000000       0.00000000 </v>
   <v>      -0.06666667      -0.13333333      -0.20000000 </v>
   <v>      -0.30000000       0.40000000      -0.40000000 </v>
   <v>      -0.26666667       0.46666667       0.20000000 </v>
   <v>       0.33333333      -0.33333333       0.00000000 </v>
   <v>       0.43333333      -0.13333333      -0.20000000 </v>
   <v>      -0.50000000       0.00000000       0.00000000 </v>
   <v>       0.26666667      -0.46666667      -0.20000000 </v>
   <v>      -0.33333333       0.33333333       0.00000000 </v>
   <v>      -0.16666667      -0.33333333       0.00000000 </v>
   <v>      -0.23333333      -0.46666667      -0.20000000 </v>
   <v>       0.16666667       0.33333333       0.00000000 </v>
   <v>       0.10000000       0.20000000      -0.20000000 </v>
  </varray>
 </structure>
 <varray name="primitive_index" >
  <v type="int" >        1 </v>
  <v type="int" >       18 </v>
  <v type="int" >        7 </v>
  <v type="int" >       24 </v>
  <v type="int" >       20 </v>
  <v type="int" >       19 </v>
  <v type="int" >        6 </v>
  <v type="int" >        2 </v>
  <v type="int" >       16 </v>
  <v type="int" >        8 </v>
  <v type="int" >       15 </v>
  <v type="int" >       11 </v>
  <v type="int" >       12 </v>
  <v type="int" >       27 </v>
  <v type="int" >       29 </v>
  <v type="int" >       23 </v>
  <v type="int" >        4 </v>
  <v type="int" >       14 </v>
  <v type="int" >       26 </v>
  <v type="int" >        9 </v>
  <v type="int" >       28 </v>
  <v type="int" >       17 </v>
  <v type="int" >        3 </v>
  <v type="int" >       22 </v>
  <v type="int" >       10 </v>
  <v type="int" >       13 </v>
  <v type="int" >       25 </v>
  <v type="int" >       21 </v>
  <v type="int" >        5 </v>
 </varray>
 <kpoints>
  <generation param="Gamma">
   <v type="int" name="divisions">       7        7        7 </v>
   <v name="usershift">      0.00000000       0.00000000       0.00000000 </v>
   <v name="genvec1">      0.14285714       0.00000000       0.00000000 </v>
   <v name="genvec2">     -0.00000000       0.14285714       0.00000000 </v>
   <v name="genvec3">      0.00000000       0.00000000       0.14285714 </v>
   <v name="shift">      0.00000000       0.00000000       0.00000000 </v>
  </generation>
  <varray name="kpointlist" >
   <v>       0.00000000       0.00000000       0.00000000 </v>
   <v>       0.14285714       0.00000000      -0.00000000 </v>
   <v>       0.28571429       0.00000000       0.00000000 </v>
   <v>       0.42857143       0.00000000      -0.00000000 </v>
   <v>      -0.00000000       0.14285714       0.00000000 </v>
   <v>       0.14285714       0.14285714      -0.00000000 </v>
   <v>       0.28571429       0.14285714       0.00000000 </v>
   <v>       0.42857143       0.14285714      -0.00000000 </v>
   <v>      -0.42857143       0.14285714       0.00000000 </v>
   <v>      -0.28571429       0.14285714       0.00000000 </v>
   <v>      -0.14285714       0.14285714       0.00000000 </v>
   <v>       0.00000000       0.28571429      -0.00000000 </v>
   <v>       0.14285714       0.28571429      -0.00000000 </v>
   <v>       0.28571429       0.28571429      -0.00000000 </v>
   <v>       0.42857143       0.28571429      -0.00000000 </v>
   <v>      -0.42857143       0.28571429      -0.00000000 </v>
   <v>      -0.28571429       0.28571429      -0.00000000 </v>
   <v>      -0.14285714       0.28571429      -0.00000000 </v>
   <v>      -0.00000000       0.42857143      -0.00000000 </v>
   <v>       0.14285714       0.42857143       0.00000000 </v>
   <v>       0.28571429       0.42857143       0.00000000 </v>
   <v>       0.42857143       0.42857143      -0.00000000 </v>
   <v>      -0.42857143       0.42857143       0.00000000 </v>
   <v>      -0.28571429       0.42857143      -0.00000000 </v>
   <v>      -0.14285714       0.42857143      -0.00000000 </v>
   <v>       0.00000000       0.00000000       0.14285714 </v>
   <v>       0.14285714       0.00000000       0.14285714 </v>
   <v>       0.28571429       0.00000000       0.14285714 </v>
   <v>       0.42857143       0.00000000       0.14285714 </v>
   <v>      -0.42857143       0.00000000       0.14285714 </v>
   <v>      -0.28571429       0.00000000       0.14285714 </v>
   <v>      -0.14285714      -0.00000000       0.14285714 </v>
   <v>      -0.00000000       0.14285714       0.14285714 </v>
   <v>       0.14285714       0.14285714       0.14285714 </v>
   <v>       0.28571429       0.14285714       0.14285714 </v>
   <v>       0.42857143       0.14285714       0.14285714 </v>
   <v>      -0.42857143       0.14285714       0.14285714 </v>
   <v>      -0.28571429       0.14285714       0.14285714 </v>
   <v>      -0.14285714       0.14285714       0.14285714 </v>
   <v>      -0.00000000       0.28571429       0.14285714 </v>
   <v>       0.14285714       0.28571429       0.14285714 </v>
   <v>       0.28571429       0.28571429       0.14285714 </v>
   <v>       0.42857143       0.28571429       0.14285714 </v>
   <v>      -0.42857143       0.28571429       0.14285714 </v>
   <v>      -0.28571429       0.28571429       0.14285714 </v>
   <v>      -0.14285714       0.28571429       0.14285714 </v>
   <v>       0.00000000       0.42857143       0.14285714 </v>
   <v>       0.14285714       0.42857143       0.14285714 </v>
   <v>       0.28571429       0.42857143       0.14285714 </v>
   <v>       0.42857143       0.42857143       0.14285714 </v>
   <v>      -0.42857143       0.42857143       0.14285714 </v>
   <v>      -0.28571429       0.42857143       0.14285714 </v>
   <v>      -0.14285714       0.42857143       0.14285714 </v>
   <v>       0.00000000      -0.42857143       0.14285714 </v>
   <v>       0.14285714      -0.42857143       0.14285714 </v>
   <v>       0.28571429      -0.42857143       0.14285714 </v>
   <v>       0.42857143      -0.42857143       0.14285714 </v>
   <v>      -0.42857143      -0.42857143       0.14285714 </v>
   <v>      -0.28571429      -0.42857143       0.14285714 </v>
   <v>      -0.14285714      -0.42857143       0.14285714 </v>
   <v>       0.00000000      -0.28571429       0.14285714 </v>
   <v>       0.14285714      -0.28571429       0.14285714 </v>
   <v>       0.28571429      -0.28571429       0.14285714 </v>
   <v>       0.42857143      -0.28571429       0.14285714 </v>
   <v>      -0.42857143      -0.28571429       0.14285714 </v>
   <v>      -0.28571429      -0.28571429       0.14285714 </v>
   <v>      -0.14285714      -0.28571429       0.14285714 </v>
   <v>       0.00000000      -0.14285714       0.14285714 </v>
   <v>       0.14285714      -0.14285714       0.14285714 </v>
   <v>       0.28571429      -0.14285714       0.14285714 </v>
   <v>       0.42857143      -0.14285714       0.14285714 </v>
   <v>      -0.42857143      -0.14285714       0.14285714 </v>
   <v>      -0.28571429      -0.14285714       0.14285714 </v>
   <v>      -0.14285714      -0.14285714       0.14285714 </v>
   <v>       0.00000000       0.00000000       0.28571429 </v>
   <v>       0.14285714       0.00000000       0.28571429 </v>
   <v>       0.28571429       0.00000000       0.28571429 </v>
   <v>       0.42857143       0.00000000       0.28571429 </v>
   <v>      -0.42857143      -0.00000000       0.28571429 </v>
   <v>      -0.28571429      -0.00000000       0.28571429 </v>
   <v>      -0.14285714      -0.00000000       0.28571429 </v>
   <v>      -0.00000000       0.14285714       0.28571429 </v>
   <v>       0.14285714       0.14285714       0.28571429 </v>
   <v>       0.28571429       0.14285714       0.28571429 </v>
   <v>       0.42857143       0.14285714       0.28571429 </v>
   <v>      -0.42857143       0.14285714       0.28571429 </v>
   <v>      -0.28571429       0.14285714       0.28571429 </v>
   <v>      -0.14285714       0.14285714       0.28571429 </v>
   <v>      -0.00000000       0.28571429       0.28571429 </v>
   <v>       0.14285714       0.28571429       0.28571429 </v>
   <v>       0.28571429       0.28571429       0.28571429 </v>
   <v>       0.42857143       0.28571429       0.28571429 </v>
   <v>      -0.42857143       0.28571429       0.28571429 </v>
   <v>      -0.28571429       0.28571429       0.28571429 </v>
   <v>      -0.14285714       0.28571429       0.28571429 </v>
   <v>       0.00000000       0.42857143       0.28571429 </v>
   <v>       0.14285714       0.42857143       0.28571429 </v>
   <v>       0.28571429       0.42857143       0.28571429 </v>
   <v>       0.42857143       0.42857143       0.28571429 </v>
   <v>      -0.42857143       0.42857143       0.28571429 </v>
   <v>      -0.28571429       0.42857143       0.28571429 </v>
   <v>      -0.14285714       0.42857143       0.28571429 </v>
   <v>      -0.00000000      -0.42857143       0.28571429 </v>
   <v>       0.14285714      -0.42857143       0.28571429 </v>
   <v>       0.28571429      -0.42857143       0.28571429 </v>
   <v>       0.42857143      -0.42857143       0.28571429 </v>
   <v>      -0.42857143      -0.42857143       0.28571429 </v>
   <v>      -0.28571429      -0.42857143       0.28571429 </v>
   <v>      -0.14285714      -0.42857143       0.28571429 </v>
   <v>       0.00000000      -0.28571429       0.28571429 </v>
   <v>       0.14285714      -0.28571429       0.28571429 </v>
   <v>       0.28571429      -0.28571429       0.28571429 </v>
   <v>       0.42857143      -0.28571429       0.28571429 </v>
   <v>      -0.42857143      -0.28571429       0.28571429 </v>
   <v>      -0.28571429      -0.28571429       0.28571429 </v>
   <v>      -0.14285714      -0.28571429       0.28571429 </v>
   <v>       0.00000000      -0.14285714       0.28571429 </v>
   <v>       0.14285714      -0.14285714       0.28571429 </v>
   <v>       0.28571429      -0.14285714       0.28571429 </v>
   <v>       0.42857143      -0.14285714       0.28571429 </v>
   <v>      -0.42857143      -0.14285714       0.28571429 </v>
   <v>      -0.28571429      -0.14285714       0.28571429 </v>
   <v>      -0.14285714      -0.14285714       0.28571429 </v>
   <v>       0.00000000       0.00000000       0.42857143 </v>
   <v>       0.14285714       0.00000000       0.42857143 </v>
   <v>       0.28571429       0.00000000       0.42857143 </v>
   <v>       0.42857143      -0.00000000       0.42857143 </v>
   <v>      -0.42857143      -0.00000000       0.42857143 </v>
   <v>      -0.28571429       0.00000000       0.42857143 </v>
   <v>      -0.14285714      -0.00000000       0.42857143 </v>
   <v>      -0.00000000       0.14285714       0.42857143 </v>
   <v>       0.14285714       0.14285714       0.42857143 </v>
   <v>       0.28571429       0.14285714       0.42857143 </v>
   <v>       0.42857143       0.14285714       0.42857143 </v>
   <v>      -0.42857143       0.14285714       0.42857143 </v>
   <v>      -0.28571429       0.14285714       0.42857143 </v>
   <v>      -0.14285714       0.14285714       0.42857143 </v>
   <v>       0.00000000       0.28571429       0.42857143 </v>
   <v>       0.14285714       0.28571429       0.42857143 </v>
   <v>       0.28571429       0.28571429       0.42857143 </v>
   <v>       0.42857143       0.28571429       0.42857143 </v>
   <v>      -0.42857143       0.28571429       0.42857143 </v>
   <v>      -0.28571429       0.28571429       0.42857143 </v>
   <v>      -0.14285714       0.28571429       0.42857143 </v>
   <v>       0.00000000       0.42857143       0.42857143 </v>
   <v>       0.14285714       0.42857143       0.42857143 </v>
   <v>       0.28571429       0.42857143       0.42857143 </v>
   <v>       0.42857143       0.42857143       0.42857143 </v>
   <v>      -0.42857143       0.42857143       0.42857143 </v>
   <v>      -0.28571429       0.42857143       0.42857143 </v>
   <v>      -0.14285714       0.42857143       0.42857143 </v>
   <v>       0.00000000      -0.42857143       0.42857143 </v>
   <v>       0.14285714      -0.42857143       0.42857143 </v>
   <v>       0.28571429      -0.42857143       0.42857143 </v>
   <v>       0.42857143      -0.42857143       0.42857143 </v>
   <v>      -0.42857143      -0.42857143       0.42857143 </v>
   <v>      -0.28571429      -0.42857143       0.42857143 </v>
   <v>      -0.14285714      -0.42857143       0.42857143 </v>
   <v>      -0.00000000      -0.28571429       0.42857143 </v>
   <v>       0.14285714      -0.28571429       0.42857143 </v>
   <v>       0.28571429      -0.28571429       0.42857143 </v>
   <v>       0.42857143      -0.28571429       0.42857143 </v>
   <v>      -0.42857143      -0.28571429       0.42857143 </v>
   <v>      -0.28571429      -0.28571429       0.42857143 </v>
   <v>      -0.14285714      -0.28571429       0.42857143 </v>
   <v>       0.00000000      -0.14285714       0.42857143 </v>
   <v>       0.14285714      -0.14285714       0.42857143 </v>
   <v>       0.28571429      -0.14285714       0.42857143 </v>
   <v>       0.42857143      -0.14285714       0.42857143 </v>
   <v>      -0.42857143      -0.14285714       0.42857143 </v>
   <v>      -0.28571429      -0.14285714       0.42857143 </v>
   <v>      -0.14285714      -0.14285714       0.42857143 </v>
  </varray>
  <varray name="weights" >
   <v>       0.00291545 </v>
   <v>       0.00583090 </v>
   <v>       0.00583090 </v>
   <v>       0.00583090 </v>
   <v>       0.00583090 </v>
   <v>       0.00583090 </v>
   <v>       0.00583090 </v>
   <v>       0.00583090 </v>
   <v>       0.00583090 </v>
   <v>       0.00583090 </v>
   <v>       0.00583090 </v>
   <v>       0.00583090 </v>
   <v>       0.00583090 </v>
   <v>       0.00583090 </v>
   <v>       0.00583090 </v>
   <v>       0.00583090 </v>
   <v>       0.00583090 </v>
   <v>       0.00583090 </v>
   <v>       0.00583090 </v>
   <v>       0.00583090 </v>
   <v>       0.00583090 </v>
   <v>       0.00583090 </v>
   <v>       0.00583090 </v>
   <v>       0.00583090 </v>
   <v>       0.00583090 </v>
   <v>       0.00583090 </v>
   <v>       0.00583090 </v>
   <v>       0.00583090 </v>
   <v>       0.00583090 </v>
   <v>       0.00583090 </v>
   <v>       0.00583090 </v>
   <v>       0.00583090 </v>
   <v>       0.00583090 </v>
   <v>       0.00583090 </v>
   <v>       0.00583090 </v>
   <v>       0.00583090 </v>
   <v>       0.00583090 </v>
   <v>       0.00583090 </v>
   <v>       0.00583090 </v>
   <v>       0.00583090 </v>
   <v>       0.00583090 </v>
   <v>       0.00583090 </v>
   <v>       0.00583090 </v>
   <v>       0.00583090 </v>
   <v>       0.00583090 </v>
   <v>       0.00583090 </v>
   <v>       0.00583090 </v>
   <v>       0.00583090 </v>
   <v>       0.00583090 </v>
   <v>       0.00583090 </v>
   <v>       0.00583090 </v>
   <v>       0.00583090 </v>
   <v>       0.00583090 </v>
   <v>       0.00583090 </v>
   <v>       0.00583090 </v>
   <v>       0.00583090 </v>
   <v>       0.00583090 </v>
   <v>       0.00583090 </v>
   <v>       0.00583090 </v>
   <v>       0.00583090 </v>
   <v>       0.00583090 </v>
   <v>       0.00583090 </v>
   <v>       0.00583090 </v>
   <v>       0.00583090 </v>
   <v>       0.00583090 </v>
   <v>       0.00583090 </v>
   <v>       0.00583090 </v>
   <v>       0.00583090 </v>
   <v>       0.00583090 </v>
   <v>       0.00583090 </v>
   <v>       0.00583090 </v>
   <v>       0.00583090 </v>
   <v>       0.00583090 </v>
   <v>       0.00583090 </v>
   <v>       0.00583090 </v>
   <v>       0.00583090 </v>
   <v>       0.00583090 </v>
   <v>       0.00583090 </v>
   <v>       0.00583090 </v>
   <v>       0.00583090 </v>
   <v>       0.00583090 </v>
   <v>       0.00583090 </v>
   <v>       0.00583090 </v>
   <v>       0.00583090 </v>
   <v>       0.00583090 </v>
   <v>       0.00583090 </v>
   <v>       0.00583090 </v>
   <v>       0.00583090 </v>
   <v>       0.00583090 </v>
   <v>       0.00583090 </v>
   <v>       0.00583090 </v>
   <v>       0.00583090 </v>
   <v>       0.00583090 </v>
   <v>       0.00583090 </v>
   <v>       0.00583090 </v>
   <v>       0.00583090 </v>
   <v>       0.00583090 </v>
   <v>       0.00583090 </v>
   <v>       0.00583090 </v>
   <v>       0.00583090 </v>
   <v>       0.00583090 </v>
   <v>       0.00583090 </v>
   <v>       0.00583090 </v>
   <v>       0.00583090 </v>
   <v>       0.00583090 </v>
   <v>       0.00583090 </v>
   <v>       0.00583090 </v>
   <v>       0.00583090 </v>
   <v>       0.00583090 </v>
   <v>       0.00583090 </v>
   <v>       0.00583090 </v>
   <v>       0.00583090 </v>
   <v>       0.00583090 </v>
   <v>       0.00583090 </v>
   <v>       0.00583090 </v>
   <v>       0.00583090 </v>
   <v>       0.00583090 </v>
   <v>       0.00583090 </v>
   <v>       0.00583090 </v>
   <v>       0.00583090 </v>
   <v>       0.00583090 </v>
   <v>       0.00583090 </v>
   <v>       0.00583090 </v>
   <v>       0.00583090 </v>
   <v>       0.00583090 </v>
   <v>       0.00583090 </v>
   <v>       0.00583090 </v>
   <v>       0.00583090 </v>
   <v>       0.00583090 </v>
   <v>       0.00583090 </v>
   <v>       0.00583090 </v>
   <v>       0.00583090 </v>
   <v>       0.00583090 </v>
   <v>       0.00583090 </v>
   <v>       0.00583090 </v>
   <v>       0.00583090 </v>
   <v>       0.00583090 </v>
   <v>       0.00583090 </v>
   <v>       0.00583090 </v>
   <v>       0.00583090 </v>
   <v>       0.00583090 </v>
   <v>       0.00583090 </v>
   <v>       0.00583090 </v>
   <v>       0.00583090 </v>
   <v>       0.00583090 </v>
   <v>       0.00583090 </v>
   <v>       0.00583090 </v>
   <v>       0.00583090 </v>
   <v>       0.00583090 </v>
   <v>       0.00583090 </v>
   <v>       0.00583090 </v>
   <v>       0.00583090 </v>
   <v>       0.00583090 </v>
   <v>       0.00583090 </v>
   <v>       0.00583090 </v>
   <v>       0.00583090 </v>
   <v>       0.00583090 </v>
   <v>       0.00583090 </v>
   <v>       0.00583090 </v>
   <v>       0.00583090 </v>
   <v>       0.00583090 </v>
   <v>       0.00583090 </v>
   <v>       0.00583090 </v>
   <v>       0.00583090 </v>
   <v>       0.00583090 </v>
   <v>       0.00583090 </v>
   <v>       0.00583090 </v>
   <v>       0.00583090 </v>
   <v>       0.00583090 </v>
   <v>       0.00583090 </v>
   <v>       0.00583090 </v>
   <v>       0.00583090 </v>
  </varray>
 </kpoints>
 <parameters>
  <separator name="general" >
   <i type="string" name="SYSTEM">Nb - Mo - Ta - Ti - V SQS</i>
   <i type="logical" name="LCOMPAT"> F  </i>
  </separator>
  <separator name="electronic" >
   <i type="string" name="PREC">normal</i>
   <i name="ENMAX">    600.00000000</i>
   <i name="ENAUG">    455.65900000</i>
   <i name="EDIFF">      0.00010000</i>
   <i type="int" name="IALGO">    38</i>
   <i type="int" name="IWAVPR">    11</i>
   <i type="int" name="NBANDS">   120</i>
   <i name="NELECT">    193.00000000</i>
   <i type="int" name="TURBO">     0</i>
   <i type="int" name="IRESTART">     0</i>
   <i type="int" name="NREBOOT">     0</i>
   <i type="int" name="NMIN">     0</i>
   <i name="EREF">      0.00000000</i>
   <separator name="electronic smearing" >
    <i type="int" name="ISMEAR">     1</i>
    <i name="SIGMA">      0.20000000</i>
    <i name="KSPACING">      0.50000000</i>
    <i type="logical" name="KGAMMA"> T  </i>
   </separator>
   <separator name="electronic projectors" >
    <i type="logical" name="LREAL"> T  </i>
    <v name="ROPT">     -0.00050000     -0.00050000     -0.00050000     -0.00050000     -0.00050000</v>
    <i type="int" name="LMAXPAW">  -100</i>
    <i type="int" name="LMAXMIX">     2</i>
    <i type="logical" name="NLSPLINE"> F  </i>
   </separator>
   <separator name="electronic startup" >
    <i type="int" name="ISTART">     0</i>
    <i type="int" name="ICHARG">     0</i>
    <i type="int" name="INIWAV">     1</i>
   </separator>
   <separator name="electronic spin" >
    <i type="int" name="ISPIN">     1</i>
    <i type="logical" name="LNONCOLLINEAR"> F  </i>
    <v name="MAGMOM">      1.00000000      1.00000000      1.00000000      1.00000000      1.00000000      1.00000000      1.00000000      1.00000000      1.00000000      1.00000000      1.00000000      1.00000000      1.00000000      1.00000000      1.00000000      1.00000000      1.00000000      1.00000000      1.00000000      1.00000000
      1.00000000      1.00000000      1.00000000      1.00000000      1.00000000      1.00000000      1.00000000      1.00000000      1.00000000</v>
    <i name="NUPDOWN">     -1.00000000</i>
    <i type="logical" name="LSORBIT"> F  </i>
    <v name="SAXIS">      0.00000000      0.00000000      1.00000000</v>
    <i type="logical" name="LSPIRAL"> F  </i>
    <v name="QSPIRAL">      0.00000000      0.00000000      0.00000000</v>
    <i type="logical" name="LZEROZ"> F  </i>
   </separator>
   <separator name="electronic exchange-correlation" >
    <i type="logical" name="LASPH"> F  </i>
    <i type="logical" name="LMETAGGA"> F  </i>
   </separator>
   <separator name="electronic convergence" >
    <i type="int" name="NELM">    60</i>
    <i type="int" name="NELMDL">    -5</i>
    <i type="int" name="NELMIN">     2</i>
    <i name="ENINI">    600.00000000</i>
    <separator name="electronic convergence detail" >
     <i type="logical" name="LDIAG"> T  </i>
     <i type="logical" name="LSUBROT"> F  </i>
     <i name="WEIMIN">      0.00100000</i>
     <i name="EBREAK">      0.00000021</i>
     <i name="DEPER">      0.30000000</i>
     <i type="int" name="NRMM">     4</i>
     <i name="TIME">      0.40000000</i>
    </separator>
   </separator>
   <separator name="electronic mixer" >
    <i name="AMIX">      0.40000000</i>
    <i name="BMIX">      1.00000000</i>
    <i name="AMIN">      0.10000000</i>
    <i name="AMIX_MAG">      1.60000000</i>
    <i name="BMIX_MAG">      1.00000000</i>
    <separator name="electronic mixer details" >
     <i type="int" name="IMIX">     4</i>
     <i type="logical" name="MIXFIRST"> F  </i>
     <i type="int" name="MAXMIX">   -45</i>
     <i name="WC">    100.00000000</i>
     <i type="int" name="INIMIX">     1</i>
     <i type="int" name="MIXPRE">     1</i>
     <i type="int" name="MREMOVE">     5</i>
    </separator>
   </separator>
   <separator name="electronic dipolcorrection" >
    <i type="logical" name="LDIPOL"> F  </i>
    <i type="logical" name="LMONO"> F  </i>
    <i type="int" name="IDIPOL">     0</i>
    <i name="EPSILON">      1.00000000</i>
    <v name="DIPOL">   -100.00000000   -100.00000000   -100.00000000</v>
    <i name="EFIELD">      0.00000000</i>
   </separator>
  </separator>
  <separator name="grids" >
   <i type="int" name="NGX">    36</i>
   <i type="int" name="NGY">    50</i>
   <i type="int" name="NGZ">    70</i>
   <i type="int" name="NGXF">    72</i>
   <i type="int" name="NGYF">   100</i>
   <i type="int" name="NGZF">   140</i>
   <i type="logical" name="ADDGRID"> F  </i>
  </separator>
  <separator name="ionic" >
   <i type="int" name="NSW">    50</i>
   <i type="int" name="IBRION">     2</i>
   <i type="int" name="MDALGO">     0</i>
   <i type="int" name="ISIF">     3</i>
   <i name="PSTRESS">      0.00000000</i>
   <i name="EDIFFG">      0.00100000</i>
   <i type="int" name="NFREE">     1</i>
   <i name="POTIM">      0.50000000</i>
   <i name="SMASS">     -3.00000000</i>
   <i name="SCALEE">      1.00000000</i>
  </separator>
  <separator name="ionic md" >
   <i name="TEBEG">      0.00010000</i>
   <i name="TEEND">      0.00010000</i>
   <i type="int" name="NBLOCK">     1</i>
   <i type="int" name="KBLOCK">    50</i>
   <i type="int" name="NPACO">   256</i>
   <i name="APACO">     16.00000000</i>
  </separator>
  <separator name="symmetry" >
   <i type="int" name="ISYM">     2</i>
   <i name="SYMPREC">      0.00001000</i>
  </separator>
  <separator name="dos" >
   <i type="int" name="LORBIT">     0</i>
   <v name="RWIGS">     -1.00000000     -1.00000000     -1.00000000     -1.00000000     -1.00000000</v>
   <i type="int" name="NEDOS">   301</i>
   <i name="EMIN">     10.00000000</i>
   <i name="EMAX">    -10.00000000</i>
   <i name="EFERMI">      0.00000000</i>
  </separator>
  <separator name="writing" >
   <i type="int" name="NWRITE">     2</i>
   <i type="logical" name="LWAVE"> T  </i>
   <i type="logical" name="LDOWNSAMPLE"> F  </i>
   <i type="logical" name="LCHARG"> T  </i>
   <i type="logical" name="LPARD"> F  </i>
   <i type="logical" name="LVTOT"> F  </i>
   <i type="logical" name="LVHAR"> F  </i>
   <i type="logical" name="LELF"> F  </i>
   <i type="logical" name="LOPTICS"> F  </i>
   <v name="STM">      0.00000000      0.00000000      0.00000000      0.00000000      0.00000000      0.00000000      0.00000000</v>
  </separator>
  <separator name="performance" >
   <i type="int" name="NPAR">    12</i>
   <i type="int" name="NSIM">     4</i>
   <i type="int" name="NBLK">    -1</i>
   <i type="logical" name="LPLANE"> T  </i>
   <i type="logical" name="LSCALAPACK"> T  </i>
   <i type="logical" name="LSCAAWARE"> F  </i>
   <i type="logical" name="LSCALU"> F  </i>
   <i type="logical" name="LASYNC"> F  </i>
   <i type="logical" name="LORBITALREAL"> F  </i>
  </separator>
  <separator name="miscellaneous" >
   <i type="int" name="IDIOT">     3</i>
   <i type="int" name="ISPECIAL">     0</i>
   <i type="logical" name="LMUSIC"> F  </i>
   <v name="POMASS">     92.91000000     95.94000000    180.94800000     47.88000000     50.94100000</v>
   <v name="DARWINR">      0.00000000      0.00000000      0.00000000      0.00000000      0.00000000</v>
   <v name="DARWINV">      1.00000000      1.00000000      1.00000000      1.00000000      1.00000000</v>
   <i type="logical" name="LCORR"> T  </i>
  </separator>
  <i type="logical" name="GGA_COMPAT"> T  </i>
  <i type="logical" name="LBERRY"> F  </i>
  <i type="int" name="ICORELEVEL">     0</i>
  <i type="logical" name="LDAU"> F  </i>
  <i type="int" name="I_CONSTRAINED_M">     0</i>
  <separator name="electronic exchange-correlation" >
   <i type="string" name="GGA">PS</i>
   <i type="int" name="VOSKOWN">     0</i>
   <i type="logical" name="LHFCALC"> F  </i>
   <i type="string" name="PRECFOCK"></i>
   <i type="logical" name="LSYMGRAD"> F  </i>
   <i type="logical" name="LHFONE"> F  </i>
   <i type="logical" name="LRHFCALC"> F  </i>
   <i type="logical" name="LTHOMAS"> F  </i>
   <i type="logical" name="LMODELHF"> F  </i>
   <i name="ENCUT4O">     -1.00000000</i>
   <i type="int" name="EXXOEP">     0</i>
   <i type="int" name="FOURORBIT">     0</i>
   <i name="AEXX">      0.00000000</i>
   <i name="HFALPHA">      0.00000000</i>
   <i name="MCALPHA">      0.00000000</i>
   <i name="ALDAX">      1.00000000</i>
   <i name="AGGAX">      1.00000000</i>
   <i name="ALDAC">      1.00000000</i>
   <i name="AGGAC">      1.00000000</i>
   <i type="int" name="NKREDX">     1</i>
   <i type="int" name="NKREDY">     1</i>
   <i type="int" name="NKREDZ">     1</i>
   <i type="logical" name="SHIFTRED"> F  </i>
   <i type="logical" name="ODDONLY"> F  </i>
   <i type="logical" name="EVENONLY"> F  </i>
   <i type="int" name="LMAXFOCK">     0</i>
   <i type="int" name="NMAXFOCKAE">     0</i>
   <i type="logical" name="LFOCKAEDFT"> F  </i>
   <i name="HFSCREEN">      0.00000000</i>
   <i name="HFSCREENC">      0.00000000</i>
   <i type="int" name="NBANDSGWLOW">     0</i>
  </separator>
  <separator name="vdW DFT" >
   <i type="logical" name="LUSE_VDW"> F  </i>
   <i name="Zab_VDW">     -0.84910000</i>
   <i name="PARAM1">      0.12340000</i>
   <i name="PARAM2">      1.00000000</i>
   <i name="PARAM3">      0.00000000</i>
  </separator>
  <separator name="model GW" >
   <i type="int" name="MODEL_GW">     0</i>
   <i name="MODEL_EPS0">      9.79277462</i>
   <i name="MODEL_ALPHA">      1.00000000</i>
  </separator>
  <separator name="linear response parameters" >
   <i type="logical" name="LEPSILON"> F  </i>
   <i type="logical" name="LRPA"> F  </i>
   <i type="logical" name="LNABLA"> F  </i>
   <i type="logical" name="LVEL"> F  </i>
   <i type="int" name="KINTER">     0</i>
   <i name="CSHIFT">      0.10000000</i>
   <i name="OMEGAMAX">     -1.00000000</i>
   <i name="DEG_THRESHOLD">      0.00200000</i>
   <i name="RTIME">     -0.10000000</i>
   <i name="WPLASMAI">      0.00000000</i>
   <v name="DFIELD">      0.00000000      0.00000000      0.00000000</v>
   <v name="WPLASMA">      0.00000000      0.00000000      0.00000000      0.00000000      0.00000000      0.00000000      0.00000000      0.00000000      0.00000000</v>
  </separator>
  <separator name="orbital magnetization" >
   <i type="logical" name="NUCIND"> F  </i>
   <v name="MAGPOS">      0.00000000      0.00000000      0.00000000</v>
   <i type="logical" name="LNICSALL"> T  </i>
   <i type="logical" name="ORBITALMAG"> F  </i>
   <i type="logical" name="LMAGBLOCH"> F  </i>
   <i type="logical" name="LCHIMAG"> F  </i>
   <i type="logical" name="LGAUGE"> T  </i>
   <i type="int" name="MAGATOM">     0</i>
   <v name="MAGDIPOL">      0.00000000      0.00000000      0.00000000</v>
   <v name="AVECCONST">      0.00000000      0.00000000      0.00000000</v>
  </separator>
  <separator name="response functions" >
   <i type="logical" name="LADDER"> F  </i>
   <i type="logical" name="LRPAFORCE"> F  </i>
   <i type="logical" name="LFXC"> F  </i>
   <i type="logical" name="LHARTREE"> T  </i>
   <i type="int" name="IBSE">     0</i>
   <v type="int" name="KPOINT">    -1     0     0     0</v>
   <i type="logical" name="LTCTE"> F  </i>
   <i type="logical" name="LTETE"> F  </i>
   <i type="logical" name="LTRIPLET"> F  </i>
   <i type="logical" name="LFXCEPS"> F  </i>
   <i type="logical" name="LFXHEG"> F  </i>
   <i type="int" name="NATURALO">     2</i>
   <i type="logical" name="L2ORDER"> F  </i>
   <i type="logical" name="LMP2LT"> F  </i>
   <i type="logical" name="LUSEW"> F  </i>
   <i name="ENCUTGW">     -2.00000000</i>
   <i name="ENCUTGWSOFT">     -2.00000000</i>
   <i name="ENCUTLF">     -1.00000000</i>
   <i type="int" name="LMAXMP2">    -1</i>
   <i name="SCISSOR">      0.00000000</i>
   <i type="int" name="NOMEGA">     0</i>
   <i type="int" name="NOMEGAR">     0</i>
   <i type="int" name="NBANDSGW">    -1</i>
   <i type="int" name="NBANDSO">    -1</i>
   <i type="int" name="NBANDSV">    -1</i>
   <i type="int" name="NELM">     1</i>
   <i type="int" name="NELMHF">     1</i>
   <i type="int" name="DIM">     3</i>
   <i type="int" name="ANTIRES">     0</i>
   <i name="OMEGAMAX">    -30.00000000</i>
   <i name="OMEGAMIN">    -30.00000000</i>
   <i name="OMEGATL">   -200.00000000</i>
   <i type="int" name="OMEGAGRID">   140</i>
   <i name="CSHIFT">     -0.10000000</i>
   <i type="logical" name="SELFENERGY"> F  </i>
   <i type="logical" name="LSPECTRAL"> F  </i>
   <i type="logical" name="LSPECTRALGW"> F  </i>
   <i type="logical" name="LSINGLES"> F  </i>
   <i type="logical" name="LFERMIGW"> F  </i>
   <i type="logical" name="ODDONLYGW"> F  </i>
   <i type="logical" name="EVENONLYGW"> F  </i>
   <i type="int" name="NKREDLFX">     1</i>
   <i type="int" name="NKREDLFY">     1</i>
   <i type="int" name="NKREDLFZ">     1</i>
   <i type="int" name="MAXMEM">  2800</i>
   <i type="int" name="TELESCOPE">     0</i>
   <i type="int" name="TAUPAR">     1</i>
   <i type="int" name="OMEGAPAR">    -1</i>
   <i name="LAMBDA">      1.00000000</i>
  </separator>
  <separator name="External order field" >
   <i name="OFIELD_KAPPA">      0.00000000</i>
   <v name="OFIELD_K">      0.00000000      0.00000000      0.00000000</v>
   <i name="OFIELD_Q6_NEAR">      0.00000000</i>
   <i name="OFIELD_Q6_FAR">      0.00000000</i>
   <i name="OFIELD_A">      0.00000000</i>
  </separator>
  <separator name="solvation model" >
   <i type="logical" name="LSOL"> F  </i>
  </separator>
 </parameters>
 <atominfo>
  <atoms>      29 </atoms>
  <types>       5 </types>
  <array name="atoms" >
   <dimension dim="1">ion</dimension>
   <field type="string">element</field>
   <field type="int">atomtype</field>
   <set>
    <rc><c>Nb</c><c>   1</c></rc>
    <rc><c>Nb</c><c>   1</c></rc>
    <rc><c>Nb</c><c>   1</c></rc>
    <rc><c>Nb</c><c>   1</c></rc>
    <rc><c>Nb</c><c>   1</c></rc>
    <rc><c>Nb</c><c>   1</c></rc>
    <rc><c>Mo</c><c>   2</c></rc>
    <rc><c>Mo</c><c>   2</c></rc>
    <rc><c>Mo</c><c>   2</c></rc>
    <rc><c>Mo</c><c>   2</c></rc>
    <rc><c>Mo</c><c>   2</c></rc>
    <rc><c>Mo</c><c>   2</c></rc>
    <rc><c>Ta</c><c>   3</c></rc>
    <rc><c>Ta</c><c>   3</c></rc>
    <rc><c>Ta</c><c>   3</c></rc>
    <rc><c>Ta</c><c>   3</c></rc>
    <rc><c>Ta</c><c>   3</c></rc>
    <rc><c>Ta</c><c>   3</c></rc>
    <rc><c>Ti</c><c>   4</c></rc>
    <rc><c>Ti</c><c>   4</c></rc>
    <rc><c>Ti</c><c>   4</c></rc>
    <rc><c>Ti</c><c>   4</c></rc>
    <rc><c>Ti</c><c>   4</c></rc>
    <rc><c>Ti</c><c>   4</c></rc>
    <rc><c>V </c><c>   5</c></rc>
    <rc><c>V </c><c>   5</c></rc>
    <rc><c>V </c><c>   5</c></rc>
    <rc><c>V </c><c>   5</c></rc>
    <rc><c>V </c><c>   5</c></rc>
   </set>
  </array>
  <array name="atomtypes" >
   <dimension dim="1">type</dimension>
   <field type="int">atomspertype</field>
   <field type="string">element</field>
   <field>mass</field>
   <field>valence</field>
   <field type="string">pseudopotential</field>
   <set>
    <rc><c>   6</c><c>Nb</c><c>     92.91000000</c><c>     13.00000000</c><c>  PAW_PBE Nb_sv 25May2007               </c></rc>
    <rc><c>   6</c><c>Mo</c><c>     95.94000000</c><c>      6.00000000</c><c>  PAW_PBE Mo 08Apr2002                  </c></rc>
    <rc><c>   6</c><c>Ta</c><c>    180.94800000</c><c>      5.00000000</c><c>  PAW_PBE Ta 17Jan2003                  </c></rc>
    <rc><c>   6</c><c>Ti</c><c>     47.88000000</c><c>      4.00000000</c><c>  PAW_PBE Ti 08Apr2002                  </c></rc>
    <rc><c>   5</c><c>V </c><c>     50.94100000</c><c>      5.00000000</c><c>  PAW_PBE V 08Apr2002                   </c></rc>
   </set>
  </array>
 </atominfo>
 <structure name="initialpos" >
  <crystal>
   <varray name="basis" >
    <v>      -3.16000000      -3.16000000      -3.16000000 </v>
    <v>       1.58000000       1.58000000      -7.90000000 </v>
    <v>       7.90000000      -7.90000000      -1.58000000 </v>
   </varray>
   <i name="volume">    473.31744000 </i>
   <varray name="rec_basis" >
    <v>      -0.13713080      -0.12658228      -0.05274262 </v>
    <v>       0.04219409       0.06329114      -0.10548523 </v>
    <v>       0.06329114      -0.06329114       0.00000000 </v>
   </varray>
  </crystal>
  <varray name="positions" >
   <v>       0.96666667       0.93333333       0.40000000 </v>
   <v>       0.63333333       0.26666667       0.40000000 </v>
   <v>       0.50000000       0.00000000       0.00000000 </v>
   <v>       0.00000000       0.00000000       0.00000000 </v>
   <v>       0.10000000       0.20000000       0.80000000 </v>
   <v>       0.03333333       0.06666667       0.60000000 </v>
   <v>       0.90000000       0.80000000       0.20000000 </v>
   <v>       0.80000000       0.60000000       0.40000000 </v>
   <v>       0.73333333       0.46666667       0.20000000 </v>
   <v>       0.66666667       0.33333333       0.00000000 </v>
   <v>       0.36666667       0.73333333       0.60000000 </v>
   <v>       0.13333333       0.26666667       0.40000000 </v>
   <v>       0.83333333       0.66666667       0.00000000 </v>
   <v>       0.93333333       0.86666667       0.80000000 </v>
   <v>       0.56666667       0.13333333       0.20000000 </v>
   <v>       0.40000000       0.80000000       0.20000000 </v>
   <v>       0.43333333       0.86666667       0.80000000 </v>
   <v>       0.30000000       0.60000000       0.40000000 </v>
   <v>       0.86666667       0.73333333       0.60000000 </v>
   <v>       0.46666667       0.93333333       0.40000000 </v>
   <v>       0.16666667       0.33333333       0.00000000 </v>
   <v>       0.26666667       0.53333333       0.80000000 </v>
   <v>       0.20000000       0.40000000       0.60000000 </v>
   <v>       0.06666667       0.13333333       0.20000000 </v>
   <v>       0.76666667       0.53333333       0.80000000 </v>
   <v>       0.70000000       0.40000000       0.60000000 </v>
   <v>       0.53333333       0.06666667       0.60000000 </v>
   <v>       0.33333333       0.66666667       0.00000000 </v>
   <v>       0.23333333       0.46666667       0.20000000 </v>
  </varray>
 </structure>
 <calculation>
  <scstep>
   <time name="dav">   44.39   44.45</time>
   <time name="total">   44.54   44.62</time>
   <energy>
    <i name="alphaZ">   1173.71499705 </i>
    <i name="ewald"> -11186.26026208 </i>
    <i name="hartreedc">   -105.13654228 </i>
    <i name="XCdc">   -935.88862891 </i>
    <i name="pawpsdc"> 577255.34845986 </i>
    <i name="pawaedc">-575994.40110378 </i>
    <i name="eentropy">      0.00063916 </i>
    <i name="bandstr">  -7241.42595171 </i>
    <i name="atom">  12835.31476492 </i>
    <i name="e_fr_energy">  -4198.73362776 </i>
    <i name="e_wo_entrp">  -4198.73426692 </i>
    <i name="e_0_energy">  -4198.73384082 </i>
   </energy>
  </scstep>
  <scstep>
   <time name="dav">   53.10   53.16</time>
   <time name="total">   53.11   53.17</time>
   <energy>
    <i name="e_fr_energy">  -9437.15528793 </i>
    <i name="e_wo_entrp">  -9437.15551102 </i>
    <i name="e_0_energy">  -9437.15536229 </i>
   </energy>
  </scstep>
  <scstep>
   <time name="dav">   57.14   57.21</time>
   <time name="total">   57.15   57.22</time>
   <energy>
    <i name="e_fr_energy"> -10204.09548514 </i>
    <i name="e_wo_entrp"> -10204.09546027 </i>
    <i name="e_0_energy"> -10204.09547685 </i>
   </energy>
  </scstep>
  <scstep>
   <time name="dav">   57.48   57.55</time>
   <time name="total">   57.48   57.56</time>
   <energy>
    <i name="e_fr_energy"> -10442.46191234 </i>
    <i name="e_wo_entrp"> -10442.46219074 </i>
    <i name="e_0_energy"> -10442.46200514 </i>
   </energy>
  </scstep>
  <scstep>
   <time name="dav">   57.01   57.12</time>
   <time name="total">   57.69   57.80</time>
   <energy>
    <i name="e_fr_energy"> -10619.43710470 </i>
    <i name="e_wo_entrp"> -10619.43847581 </i>
    <i name="e_0_energy"> -10619.43756174 </i>
   </energy>
  </scstep>
  <scstep>
   <time name="dav">   47.60   47.66</time>
   <time name="total">   48.35   48.41</time>
   <energy>
    <i name="e_fr_energy">   -938.25166004 </i>
    <i name="e_wo_entrp">   -938.25092693 </i>
    <i name="e_0_energy">   -938.25141567 </i>
   </energy>
  </scstep>
  <scstep>
   <time name="dav">   50.81   50.88</time>
   <time name="total">   51.56   51.64</time>
   <energy>
    <i name="e_fr_energy">   -848.47003869 </i>
    <i name="e_wo_entrp">   -848.47185898 </i>
    <i name="e_0_energy">   -848.47064545 </i>
   </energy>
  </scstep>
  <scstep>
   <time name="dav">   49.11   49.18</time>
   <time name="total">   49.78   49.84</time>
   <energy>
    <i name="e_fr_energy">   -612.61804087 </i>
    <i name="e_wo_entrp">   -612.62585177 </i>
    <i name="e_0_energy">   -612.62064450 </i>
   </energy>
  </scstep>
  <scstep>
   <time name="dav">   51.24   51.30</time>
   <time name="total">   51.91   51.98</time>
   <energy>
    <i name="e_fr_energy">   -519.82488206 </i>
    <i name="e_wo_entrp">   -519.83225238 </i>
    <i name="e_0_energy">   -519.82733884 </i>
   </energy>
  </scstep>
  <scstep>
   <time name="dav">   55.58   55.64</time>
   <time name="total">   56.24   56.30</time>
   <energy>
    <i name="e_fr_energy">   -573.61103933 </i>
    <i name="e_wo_entrp">   -573.61709520 </i>
    <i name="e_0_energy">   -573.61305795 </i>
   </energy>
  </scstep>
  <scstep>
   <time name="dav">   52.62   52.68</time>
   <time name="total">   53.31   53.38</time>
   <energy>
    <i name="e_fr_energy">   -679.85797220 </i>
    <i name="e_wo_entrp">   -679.85640900 </i>
    <i name="e_0_energy">   -679.85745113 </i>
   </energy>
  </scstep>
  <scstep>
   <time name="dav">   52.25   52.31</time>
   <time name="total">   52.92   52.98</time>
   <energy>
    <i name="e_fr_energy">   -645.61201107 </i>
    <i name="e_wo_entrp">   -645.61527932 </i>
    <i name="e_0_energy">   -645.61310048 </i>
   </energy>
  </scstep>
  <scstep>
   <time name="dav">   52.86   52.92</time>
   <time name="total">   53.54   53.63</time>
   <energy>
    <i name="e_fr_energy">   -609.91427234 </i>
    <i name="e_wo_entrp">   -609.91016971 </i>
    <i name="e_0_energy">   -609.91290480 </i>
   </energy>
  </scstep>
  <scstep>
   <time name="dav">   50.77   50.83</time>
   <time name="total">   51.43   51.49</time>
   <energy>
    <i name="e_fr_energy">   -717.88512389 </i>
    <i name="e_wo_entrp">   -717.87386662 </i>
    <i name="e_0_energy">   -717.88137146 </i>
   </energy>
  </scstep>
  <scstep>
   <time name="dav">   50.03   50.09</time>
   <time name="total">   50.71   50.78</time>
   <energy>
    <i name="e_fr_energy">   -584.05786853 </i>
    <i name="e_wo_entrp">   -584.05819524 </i>
    <i name="e_0_energy">   -584.05797743 </i>
   </energy>
  </scstep>
  <scstep>
   <time name="dav">   49.69   49.75</time>
   <time name="total">   50.35   50.41</time>
   <energy>
    <i name="e_fr_energy">   -499.57153045 </i>
    <i name="e_wo_entrp">   -499.56685660 </i>
    <i name="e_0_energy">   -499.56997250 </i>
   </energy>
  </scstep>
  <scstep>
   <time name="dav">   51.09   51.14</time>
   <time name="total">   51.76   51.83</time>
   <energy>
    <i name="e_fr_energy">   -467.84950148 </i>
    <i name="e_wo_entrp">   -467.84307078 </i>
    <i name="e_0_energy">   -467.84735792 </i>
   </energy>
  </scstep>
  <scstep>
   <time name="dav">   51.10   51.18</time>
   <time name="total">   51.77   51.85</time>
   <energy>
    <i name="e_fr_energy">   -503.14641447 </i>
    <i name="e_wo_entrp">   -503.14625553 </i>
    <i name="e_0_energy">   -503.14636149 </i>
   </energy>
  </scstep>
  <scstep>
   <time name="dav">   50.29   50.36</time>
   <time name="total">   50.94   51.04</time>
   <energy>
    <i name="e_fr_energy">   -501.69740751 </i>
    <i name="e_wo_entrp">   -501.69609830 </i>
    <i name="e_0_energy">   -501.69697111 </i>
   </energy>
  </scstep>
  <scstep>
   <time name="dav">   49.28   49.35</time>
   <time name="total">   49.94   50.02</time>
   <energy>
    <i name="e_fr_energy">   -496.32052510 </i>
    <i name="e_wo_entrp">   -496.31085258 </i>
    <i name="e_0_energy">   -496.31730092 </i>
   </energy>
  </scstep>
  <scstep>
   <time name="dav">   46.71   46.76</time>
   <time name="total">   47.40   47.46</time>
   <energy>
    <i name="e_fr_energy">   -523.53638967 </i>
    <i name="e_wo_entrp">   -523.54413929 </i>
    <i name="e_0_energy">   -523.53897288 </i>
   </energy>
  </scstep>
  <scstep>
   <time name="dav">   47.40   47.45</time>
   <time name="total">   48.06   48.12</time>
   <energy>
    <i name="e_fr_energy">   -521.90805593 </i>
    <i name="e_wo_entrp">   -521.92047440 </i>
    <i name="e_0_energy">   -521.91219542 </i>
   </energy>
  </scstep>
  <scstep>
   <time name="dav">   46.91   46.98</time>
   <time name="total">   47.57   47.67</time>
   <energy>
    <i name="e_fr_energy">   -482.09937755 </i>
    <i name="e_wo_entrp">   -482.08988346 </i>
    <i name="e_0_energy">   -482.09621285 </i>
   </energy>
  </scstep>
  <scstep>
   <time name="dav">   48.69   48.76</time>
   <time name="total">   49.37   49.44</time>
   <energy>
    <i name="e_fr_energy">   -414.29389010 </i>
    <i name="e_wo_entrp">   -414.27883417 </i>
    <i name="e_0_energy">   -414.28887146 </i>
   </energy>
  </scstep>
  <scstep>
   <time name="dav">   52.15   52.21</time>
   <time name="total">   52.83   52.91</time>
   <energy>
    <i name="e_fr_energy">   -366.37415029 </i>
    <i name="e_wo_entrp">   -366.36599268 </i>
    <i name="e_0_energy">   -366.37143109 </i>
   </energy>
  </scstep>
  <scstep>
   <time name="dav">   51.59   51.66</time>
   <time name="total">   52.25   52.32</time>
   <energy>
    <i name="e_fr_energy">   -346.62172317 </i>
    <i name="e_wo_entrp">   -346.62006988 </i>
    <i name="e_0_energy">   -346.62117207 </i>
   </energy>
  </scstep>
  <scstep>
   <time name="dav">   55.47   55.54</time>
   <time name="total">   56.14   56.22</time>
   <energy>
    <i name="e_fr_energy">   -333.88189703 </i>
    <i name="e_wo_entrp">   -333.88315356 </i>
    <i name="e_0_energy">   -333.88231587 </i>
   </energy>
  </scstep>
  <scstep>
   <time name="dav">   52.51   52.57</time>
   <time name="total">   53.17   53.23</time>
   <energy>
    <i name="e_fr_energy">   -334.30663213 </i>
    <i name="e_wo_entrp">   -334.30742264 </i>
    <i name="e_0_energy">   -334.30689563 </i>
   </energy>
  </scstep>
  <scstep>
   <time name="dav">   52.09   52.16</time>
   <time name="total">   52.77   52.86</time>
   <energy>
    <i name="e_fr_energy">   -331.79267648 </i>
    <i name="e_wo_entrp">   -331.77680940 </i>
    <i name="e_0_energy">   -331.78738745 </i>
   </energy>
  </scstep>
  <scstep>
   <time name="dav">   49.24   49.32</time>
   <time name="total">   49.90   49.98</time>
   <energy>
    <i name="e_fr_energy">   -325.01305494 </i>
    <i name="e_wo_entrp">   -324.98180321 </i>
    <i name="e_0_energy">   -325.00263770 </i>
   </energy>
  </scstep>
  <scstep>
   <time name="dav">   46.79   46.84</time>
   <time name="total">   47.47   47.53</time>
   <energy>
    <i name="e_fr_energy">   -313.36907281 </i>
    <i name="e_wo_entrp">   -313.35691094 </i>
    <i name="e_0_energy">   -313.36501885 </i>
   </energy>
  </scstep>
  <scstep>
   <time name="dav">   53.20   53.25</time>
   <time name="total">   53.86   53.92</time>
   <energy>
    <i name="e_fr_energy">   -310.91452668 </i>
    <i name="e_wo_entrp">   -310.88608561 </i>
    <i name="e_0_energy">   -310.90504632 </i>
   </energy>
  </scstep>
  <scstep>
   <time name="dav">   49.81   49.87</time>
   <time name="total">   50.48   50.54</time>
   <energy>
    <i name="e_fr_energy">   -311.58467733 </i>
    <i name="e_wo_entrp">   -311.57181001 </i>
    <i name="e_0_energy">   -311.58038823 </i>
   </energy>
  </scstep>
  <scstep>
   <time name="dav">   55.35   55.42</time>
   <time name="total">   56.02   56.08</time>
   <energy>
    <i name="e_fr_energy">   -312.32047223 </i>
    <i name="e_wo_entrp">   -312.30717133 </i>
    <i name="e_0_energy">   -312.31603860 </i>
   </energy>
  </scstep>
  <scstep>
   <time name="dav">   49.64   49.70</time>
   <time name="total">   50.31   50.38</time>
   <energy>
    <i name="e_fr_energy">   -312.44581455 </i>
    <i name="e_wo_entrp">   -312.43134848 </i>
    <i name="e_0_energy">   -312.44099252 </i>
   </energy>
  </scstep>
  <scstep>
   <time name="dav">   45.99   46.04</time>
   <time name="total">   46.65   46.70</time>
   <energy>
    <i name="e_fr_energy">   -312.46213915 </i>
    <i name="e_wo_entrp">   -312.45049594 </i>
    <i name="e_0_energy">   -312.45825808 </i>
   </energy>
  </scstep>
  <scstep>
   <time name="dav">   44.24   44.29</time>
   <time name="total">   44.91   44.97</time>
   <energy>
    <i name="e_fr_energy">   -313.62097531 </i>
    <i name="e_wo_entrp">   -313.61146210 </i>
    <i name="e_0_energy">   -313.61780424 </i>
   </energy>
  </scstep>
  <scstep>
   <time name="dav">   49.92   49.97</time>
   <time name="total">   50.58   50.63</time>
   <energy>
    <i name="e_fr_energy">   -315.56919719 </i>
    <i name="e_wo_entrp">   -315.55906777 </i>
    <i name="e_0_energy">   -315.56582072 </i>
   </energy>
  </scstep>
  <scstep>
   <time name="dav">   52.23   52.29</time>
   <time name="total">   52.88   52.96</time>
   <energy>
    <i name="e_fr_energy">   -314.54263042 </i>
    <i name="e_wo_entrp">   -314.52852362 </i>
    <i name="e_0_energy">   -314.53792816 </i>
   </energy>
  </scstep>
  <scstep>
   <time name="dav">   52.61   52.68</time>
   <time name="total">   53.25   53.35</time>
   <energy>
    <i name="e_fr_energy">   -313.49414627 </i>
    <i name="e_wo_entrp">   -313.47820385 </i>
    <i name="e_0_energy">   -313.48883213 </i>
   </energy>
  </scstep>
  <scstep>
   <time name="dav">   48.38   48.43</time>
   <time name="total">   49.06   49.12</time>
   <energy>
    <i name="e_fr_energy">   -312.68480524 </i>
    <i name="e_wo_entrp">   -312.66925311 </i>
    <i name="e_0_energy">   -312.67962119 </i>
   </energy>
  </scstep>
  <scstep>
   <time name="dav">   51.81   51.88</time>
   <time name="total">   52.47   52.54</time>
   <energy>
    <i name="e_fr_energy">   -312.27280393 </i>
    <i name="e_wo_entrp">   -312.25715360 </i>
    <i name="e_0_energy">   -312.26758715 </i>
   </energy>
  </scstep>
  <scstep>
   <time name="dav">   45.60   45.65</time>
   <time name="total">   46.29   46.35</time>
   <energy>
    <i name="e_fr_energy">   -310.00368671 </i>
    <i name="e_wo_entrp">   -309.98438118 </i>
    <i name="e_0_energy">   -309.99725153 </i>
   </energy>
  </scstep>
  <scstep>
   <time name="dav">   54.12   54.18</time>
   <time name="total">   54.78   54.84</time>
   <energy>
    <i name="e_fr_energy">   -309.95070203 </i>
    <i name="e_wo_entrp">   -309.93707710 </i>
    <i name="e_0_energy">   -309.94616039 </i>
   </energy>
  </scstep>
  <scstep>
   <time name="dav">   48.96   49.17</time>
   <time name="total">   49.60   49.86</time>
   <energy>
    <i name="e_fr_energy">   -308.86224766 </i>
    <i name="e_wo_entrp">   -308.84740697 </i>
    <i name="e_0_energy">   -308.85730077 </i>
   </energy>
  </scstep>
  <scstep>
   <time name="dav">   48.42   48.48</time>
   <time name="total">   49.08   49.14</time>
   <energy>
    <i name="e_fr_energy">   -308.30595149 </i>
    <i name="e_wo_entrp">   -308.29264521 </i>
    <i name="e_0_energy">   -308.30151606 </i>
   </energy>
  </scstep>
  <scstep>
   <time name="dav">   45.31   45.37</time>
   <time name="total">   45.97   46.05</time>
   <energy>
    <i name="e_fr_energy">   -307.65944402 </i>
    <i name="e_wo_entrp">   -307.64898077 </i>
    <i name="e_0_energy">   -307.65595627 </i>
   </energy>
  </scstep>
  <scstep>
   <time name="dav">   46.98   47.05</time>
   <time name="total">   47.65   47.73</time>
   <energy>
    <i name="e_fr_energy">   -307.17160108 </i>
    <i name="e_wo_entrp">   -307.15945317 </i>
    <i name="e_0_energy">   -307.16755178 </i>
   </energy>
  </scstep>
  <scstep>
   <time name="dav">   49.16   49.21</time>
   <time name="total">   49.84   49.91</time>
   <energy>
    <i name="e_fr_energy">   -306.71787290 </i>
    <i name="e_wo_entrp">   -306.70354747 </i>
    <i name="e_0_energy">   -306.71309776 </i>
   </energy>
  </scstep>
  <scstep>
   <time name="dav">   46.31   46.36</time>
   <time name="total">   46.97   47.03</time>
   <energy>
    <i name="e_fr_energy">   -306.59656682 </i>
    <i name="e_wo_entrp">   -306.58126536 </i>
    <i name="e_0_energy">   -306.59146633 </i>
   </energy>
  </scstep>
  <scstep>
   <time name="dav">   44.77   44.82</time>
   <time name="total">   45.44   45.50</time>
   <energy>
    <i name="e_fr_energy">   -306.90885144 </i>
    <i name="e_wo_entrp">   -306.88776803 </i>
    <i name="e_0_energy">   -306.90182364 </i>
   </energy>
  </scstep>
  <scstep>
   <time name="dav">   49.01   49.07</time>
   <time name="total">   49.67   49.73</time>
   <energy>
    <i name="e_fr_energy">   -306.73171648 </i>
    <i name="e_wo_entrp">   -306.71035763 </i>
    <i name="e_0_energy">   -306.72459686 </i>
   </energy>
  </scstep>
  <scstep>
   <time name="dav">   52.66   52.72</time>
   <time name="total">   53.33   53.41</time>
   <energy>
    <i name="e_fr_energy">   -306.67380030 </i>
    <i name="e_wo_entrp">   -306.65117400 </i>
    <i name="e_0_energy">   -306.66625820 </i>
   </energy>
  </scstep>
  <scstep>
   <time name="dav">   49.97   50.03</time>
   <time name="total">   50.63   50.70</time>
   <energy>
    <i name="e_fr_energy">   -306.53663121 </i>
    <i name="e_wo_entrp">   -306.51364776 </i>
    <i name="e_0_energy">   -306.52897006 </i>
   </energy>
  </scstep>
  <scstep>
   <time name="dav">   45.11   45.17</time>
   <time name="total">   45.80   45.88</time>
   <energy>
    <i name="e_fr_energy">   -306.40437905 </i>
    <i name="e_wo_entrp">   -306.38106590 </i>
    <i name="e_0_energy">   -306.39660800 </i>
   </energy>
  </scstep>
  <scstep>
   <time name="dav">   45.77   45.83</time>
   <time name="total">   46.44   46.50</time>
   <energy>
    <i name="e_fr_energy">   -306.29953513 </i>
    <i name="e_wo_entrp">   -306.27661586 </i>
    <i name="e_0_energy">   -306.29189537 </i>
   </energy>
  </scstep>
  <scstep>
   <time name="dav">   49.49   49.55</time>
   <time name="total">   50.17   50.24</time>
   <energy>
    <i name="e_fr_energy">   -306.28507947 </i>
    <i name="e_wo_entrp">   -306.26212501 </i>
    <i name="e_0_energy">   -306.27742798 </i>
   </energy>
  </scstep>
  <scstep>
   <time name="dav">   50.59   50.65</time>
   <time name="total">   51.26   51.32</time>
   <energy>
    <i name="e_fr_energy">   -306.27531005 </i>
    <i name="e_wo_entrp">   -306.25238955 </i>
    <i name="e_0_energy">   -306.26766989 </i>
   </energy>
  </scstep>
  <scstep>
   <time name="dav">   52.50   52.57</time>
   <time name="total">   53.18   53.27</time>
   <energy>
    <i name="e_fr_energy">   -306.27162867 </i>
    <i name="e_wo_entrp">   -306.24864821 </i>
    <i name="e_0_energy">   -306.26396851 </i>
   </energy>
  </scstep>
  <scstep>
   <time name="dav">   46.33   46.39</time>
   <time name="total">   46.40   46.46</time>
   <energy>
    <i name="alphaZ">   1173.71499705 </i>
    <i name="ewald"> -11186.26026208 </i>
    <i name="hartreedc">  -2986.64126752 </i>
    <i name="XCdc">   -843.07138897 </i>
    <i name="pawpsdc">  18857.09577184 </i>
    <i name="pawaedc"> -17394.18117748 </i>
    <i name="eentropy">     -0.02301254 </i>
    <i name="bandstr">   -762.21856305 </i>
    <i name="atom">  12835.31476492 </i>
    <i name="e_fr_energy">   -306.27013784 </i>
    <i name="e_wo_entrp">   -306.24712529 </i>
    <i name="e_0_energy">   -306.26246699 </i>
   </energy>
  </scstep>
  <structure>
   <crystal>
    <varray name="basis" >
     <v>      -3.16000000      -3.16000000      -3.16000000 </v>
     <v>       1.58000000       1.58000000      -7.90000000 </v>
     <v>       7.90000000      -7.90000000      -1.58000000 </v>
    </varray>
    <i name="volume">    473.31744000 </i>
    <varray name="rec_basis" >
     <v>      -0.13713080      -0.12658228      -0.05274262 </v>
     <v>       0.04219409       0.06329114      -0.10548523 </v>
     <v>       0.06329114      -0.06329114       0.00000000 </v>
    </varray>
   </crystal>
   <varray name="positions" >
    <v>       0.96666667       0.93333333       0.40000000 </v>
    <v>       0.63333333       0.26666667       0.40000000 </v>
    <v>       0.50000000       0.00000000       0.00000000 </v>
    <v>       0.00000000       0.00000000       0.00000000 </v>
    <v>       0.10000000       0.20000000       0.80000000 </v>
    <v>       0.03333333       0.06666667       0.60000000 </v>
    <v>       0.90000000       0.80000000       0.20000000 </v>
    <v>       0.80000000       0.60000000       0.40000000 </v>
    <v>       0.73333333       0.46666667       0.20000000 </v>
    <v>       0.66666667       0.33333333       0.00000000 </v>
    <v>       0.36666667       0.73333333       0.60000000 </v>
    <v>       0.13333333       0.26666667       0.40000000 </v>
    <v>       0.83333333       0.66666667       0.00000000 </v>
    <v>       0.93333333       0.86666667       0.80000000 </v>
    <v>       0.56666667       0.13333333       0.20000000 </v>
    <v>       0.40000000       0.80000000       0.20000000 </v>
    <v>       0.43333333       0.86666667       0.80000000 </v>
    <v>       0.30000000       0.60000000       0.40000000 </v>
    <v>       0.86666667       0.73333333       0.60000000 </v>
    <v>       0.46666667       0.93333333       0.40000000 </v>
    <v>       0.16666667       0.33333333       0.00000000 </v>
    <v>       0.26666667       0.53333333       0.80000000 </v>
    <v>       0.20000000       0.40000000       0.60000000 </v>
    <v>       0.06666667       0.13333333       0.20000000 </v>
    <v>       0.76666667       0.53333333       0.80000000 </v>
    <v>       0.70000000       0.40000000       0.60000000 </v>
    <v>       0.53333333       0.06666667       0.60000000 </v>
    <v>       0.33333333       0.66666667       0.00000000 </v>
    <v>       0.23333333       0.46666667       0.20000000 </v>
   </varray>
  </structure>
  <varray name="forces" >
   <v>       0.14349590       0.44112026       0.19276717 </v>
   <v>       0.45768632      -0.22366024       0.03425174 </v>
   <v>      -0.32167030       0.70173560      -0.45933878 </v>
   <v>       0.23871251      -0.28785374      -0.13808605 </v>
   <v>       0.15881287       0.65329050      -0.44526540 </v>
   <v>      -0.48134163       0.23702977      -0.45361789 </v>
   <v>      -0.00900974      -0.51758576       0.24651612 </v>
   <v>      -0.49791117      -0.31674239       0.52243951 </v>
   <v>      -0.19224371       0.25019097       0.04640726 </v>
   <v>       0.09944329       0.37737448      -0.69300823 </v>
   <v>      -0.06336582      -0.59307562       0.33190805 </v>
   <v>       0.13588691       0.12255394      -0.61643278 </v>
   <v>      -0.07824126      -0.38118238       0.47890425 </v>
   <v>       0.26956757       0.38149849      -0.37589654 </v>
   <v>      -0.25015027       0.68432426      -0.20098431 </v>
   <v>      -0.54863800      -0.29780140       0.88272260 </v>
   <v>      -0.80676458      -0.02218861       1.12981821 </v>
   <v>       0.29720025      -0.25955171      -0.12964041 </v>
   <v>       0.21234102       0.14064062       0.50521607 </v>
   <v>       0.47353441      -0.58185227       0.09949547 </v>
   <v>       0.60236595      -0.19460961      -0.42857445 </v>
   <v>      -0.36942994      -0.20937022       0.11673727 </v>
   <v>      -0.17673302       0.48249420       0.61696603 </v>
   <v>       0.47430522      -0.03743921      -0.81707916 </v>
   <v>      -0.00754501      -0.53044192      -0.07449657 </v>
   <v>       0.22360526       0.15187575      -0.69061517 </v>
   <v>       0.21240201      -0.26180569      -0.22401799 </v>
   <v>      -0.29609309      -0.19498283       0.63583008 </v>
   <v>       0.09977805       0.28601477      -0.09292611 </v>
  </varray>
  <varray name="stress" >
   <v>       3.31314960      -8.29600050      -1.12260149 </v>
   <v>      -8.29600048      -0.35652721       1.08276614 </v>
   <v>      -1.12260151       1.08276612       4.58868807 </v>
  </varray>
  <energy>
   <i name="e_fr_energy">   -306.27013784 </i>
   <i name="e_wo_entrp">   -306.26246699 </i>
   <i name="e_0_energy">     -0.02301254 </i>
  </energy>
  <time name="totalsc"> 3065.05 3069.52</time>
 </calculation>
 <calculation>
  <scstep>
   <time name="dav">   33.41   33.45</time>
   <time name="total">   34.07   34.12</time>
   <energy>
    <i name="alphaZ">   1169.39542301 </i>
    <i name="ewald"> -11215.42425818 </i>
    <i name="hartreedc">  -2944.49789423 </i>
    <i name="XCdc">   -843.67997944 </i>
    <i name="pawpsdc">  18899.12869888 </i>
    <i name="pawaedc"> -17436.75796973 </i>
    <i name="eentropy">     -0.02256968 </i>
    <i name="bandstr">   -769.96637716 </i>
    <i name="atom">  12835.31476492 </i>
    <i name="e_fr_energy">   -306.51016162 </i>
    <i name="e_wo_entrp">   -306.48759194 </i>
    <i name="e_0_energy">   -306.50263839 </i>
   </energy>
  </scstep>
  <scstep>
   <time name="dav">   50.30   50.37</time>
   <time name="total">   50.96   51.03</time>
   <energy>
    <i name="e_fr_energy">   -307.80051350 </i>
    <i name="e_wo_entrp">   -307.78998197 </i>
    <i name="e_0_energy">   -307.79700299 </i>
   </energy>
  </scstep>
  <scstep>
   <time name="dav">   49.42   49.48</time>
   <time name="total">   50.10   50.17</time>
   <energy>
    <i name="e_fr_energy">   -306.93709962 </i>
    <i name="e_wo_entrp">   -306.91596470 </i>
    <i name="e_0_energy">   -306.93005465 </i>
   </energy>
  </scstep>
  <scstep>
   <time name="dav">   51.09   51.16</time>
   <time name="total">   51.76   51.82</time>
   <energy>
    <i name="e_fr_energy">   -306.87849007 </i>
    <i name="e_wo_entrp">   -306.85883033 </i>
    <i name="e_0_energy">   -306.87193682 </i>
   </energy>
  </scstep>
  <scstep>
   <time name="dav">   48.80   48.86</time>
   <time name="total">   49.48   49.56</time>
   <energy>
    <i name="e_fr_energy">   -306.84742622 </i>
    <i name="e_wo_entrp">   -306.82624055 </i>
    <i name="e_0_energy">   -306.84036433 </i>
   </energy>
  </scstep>
  <scstep>
   <time name="dav">   49.28   49.35</time>
   <time name="total">   49.94   50.02</time>
   <energy>
    <i name="e_fr_energy">   -306.82797037 </i>
    <i name="e_wo_entrp">   -306.80824166 </i>
    <i name="e_0_energy">   -306.82139413 </i>
   </energy>
  </scstep>
  <scstep>
   <time name="dav">   50.32   50.37</time>
   <time name="total">   51.02   51.10</time>
   <energy>
    <i name="e_fr_energy">   -306.84069715 </i>
    <i name="e_wo_entrp">   -306.82043172 </i>
    <i name="e_0_energy">   -306.83394200 </i>
   </energy>
  </scstep>
  <scstep>
   <time name="dav">   50.24   50.30</time>
   <time name="total">   50.90   50.96</time>
   <energy>
    <i name="e_fr_energy">   -306.83191299 </i>
    <i name="e_wo_entrp">   -306.81059142 </i>
    <i name="e_0_energy">   -306.82480580 </i>
   </energy>
  </scstep>
  <scstep>
   <time name="dav">   53.07   53.14</time>
   <time name="total">   53.71   53.83</time>
   <energy>
    <i name="e_fr_energy">   -306.81949416 </i>
    <i name="e_wo_entrp">   -306.79925971 </i>
    <i name="e_0_energy">   -306.81274934 </i>
   </energy>
  </scstep>
  <scstep>
   <time name="dav">   49.02   49.10</time>
   <time name="total">   49.68   49.76</time>
   <energy>
    <i name="e_fr_energy">   -306.81629997 </i>
    <i name="e_wo_entrp">   -306.79620541 </i>
    <i name="e_0_energy">   -306.80960178 </i>
   </energy>
  </scstep>
  <scstep>
   <time name="dav">   49.62   49.69</time>
   <time name="total">   50.28   50.38</time>
   <energy>
    <i name="e_fr_energy">   -306.81440292 </i>
    <i name="e_wo_entrp">   -306.79372503 </i>
    <i name="e_0_energy">   -306.80751029 </i>
   </energy>
  </scstep>
  <scstep>
   <time name="dav">   47.34   47.41</time>
   <time name="total">   48.00   48.07</time>
   <energy>
    <i name="e_fr_energy">   -306.81430596 </i>
    <i name="e_wo_entrp">   -306.79393556 </i>
    <i name="e_0_energy">   -306.80751583 </i>
   </energy>
  </scstep>
  <scstep>
   <time name="dav">   47.11   47.16</time>
   <time name="total">   47.77   47.84</time>
   <energy>
    <i name="e_fr_energy">   -306.81412170 </i>
    <i name="e_wo_entrp">   -306.79369123 </i>
    <i name="e_0_energy">   -306.80731154 </i>
   </energy>
  </scstep>
  <scstep>
   <time name="dav">   42.68   42.73</time>
   <time name="total">   43.34   43.39</time>
   <energy>
    <i name="e_fr_energy">   -306.81413552 </i>
    <i name="e_wo_entrp">   -306.79363360 </i>
    <i name="e_0_energy">   -306.80730154 </i>
   </energy>
  </scstep>
  <scstep>
   <time name="dav">   41.71   41.76</time>
   <time name="total">   42.38   42.44</time>
   <energy>
    <i name="e_fr_energy">   -306.81406025 </i>
    <i name="e_wo_entrp">   -306.79367256 </i>
    <i name="e_0_energy">   -306.80726435 </i>
   </energy>
  </scstep>
  <scstep>
   <time name="dav">   33.15   33.19</time>
   <time name="total">   33.22   33.26</time>
   <energy>
    <i name="alphaZ">   1169.39542301 </i>
    <i name="ewald"> -11215.42425818 </i>
    <i name="hartreedc">  -2945.87642996 </i>
    <i name="XCdc">   -843.56178824 </i>
    <i name="pawpsdc">  18685.97759965 </i>
    <i name="pawaedc"> -17224.57542526 </i>
    <i name="eentropy">     -0.02046381 </i>
    <i name="bandstr">   -768.04344075 </i>
    <i name="atom">  12835.31476492 </i>
    <i name="e_fr_energy">   -306.81401864 </i>
    <i name="e_wo_entrp">   -306.79355482 </i>
    <i name="e_0_energy">   -306.80719737 </i>
   </energy>
  </scstep>
  <structure>
   <crystal>
    <varray name="basis" >
     <v>      -3.15051843      -3.14824441      -3.16706422 </v>
     <v>       1.58048931       1.56907771      -7.91784613 </v>
     <v>       7.94594325      -7.93166510      -1.59212520 </v>
    </varray>
    <i name="volume">    475.06580474 </i>
    <varray name="rec_basis" >
     <v>      -0.13745437      -0.12713695      -0.05263211 </v>
     <v>       0.04232612       0.06353085      -0.10525832 </v>
     <v>       0.06293167      -0.06304565       0.00006811 </v>
    </varray>
   </crystal>
   <varray name="positions" >
    <v>       0.96253311       0.93399134       0.39909125 </v>
    <v>       0.63158415       0.26674110       0.40208038 </v>
    <v>       0.49901152       0.00382538      -0.00312480 </v>
    <v>       0.00052996       0.00030970       0.00160778 </v>
    <v>       0.09609289       0.20458389       0.79849020 </v>
    <v>       0.03622442       0.06871901       0.59780657 </v>
    <v>       0.90259308       0.79714681       0.20155285 </v>
    <v>       0.80389888       0.59536072       0.39944683 </v>
    <v>       0.73295922       0.46680310       0.19864910 </v>
    <v>       0.66546762       0.33821464      -0.00084862 </v>
    <v>       0.36986306       0.72970445       0.60161738 </v>
    <v>       0.13325445       0.27045443       0.40004071 </v>
    <v>       0.83496015       0.66290644       0.00092498 </v>
    <v>       0.93017676       0.87029313       0.79965824 </v>
    <v>       0.56465401       0.13593639       0.19714674 </v>
    <v>       0.40320208       0.79348185       0.19923411 </v>
    <v>       0.43593126       0.85920719       0.79760443 </v>
    <v>       0.29994871       0.60047220       0.40169995 </v>
    <v>       0.86311758       0.73162400       0.60021893 </v>
    <v>       0.46683399       0.93201433       0.40322245 </v>
    <v>       0.16496058       0.33614624       0.00243343 </v>
    <v>       0.27009218       0.53134800       0.79951128 </v>
    <v>       0.19665292       0.39797379       0.59798716 </v>
    <v>       0.06583652       0.13834251       0.20156253 </v>
    <v>       0.77014537       0.53207746       0.80159658 </v>
    <v>       0.69935050       0.40443335       0.60021901 </v>
    <v>       0.53409693       0.06743965       0.60144791 </v>
    <v>       0.33486501       0.66223294      -0.00030872 </v>
    <v>       0.23116309       0.46821596       0.19943136 </v>
   </varray>
  </structure>
  <varray name="forces" >
   <v>       0.06329786       0.24396427       0.06168661 </v>
   <v>       0.11617515      -0.04538228       0.04664247 </v>
   <v>      -0.43637855       0.44707806      -0.14769341 </v>
   <v>       0.09467008      -0.20188343      -0.12433471 </v>
   <v>       0.05922031       0.32916077      -0.12950558 </v>
   <v>      -0.34077514       0.13005077      -0.24853738 </v>
   <v>      -0.01396574      -0.11265978       0.09561520 </v>
   <v>      -0.19162361      -0.19338043       0.26884139 </v>
   <v>      -0.03320591       0.06758045       0.14926469 </v>
   <v>       0.09723735       0.37375507      -0.42906101 </v>
   <v>      -0.07807445      -0.40610122       0.39136238 </v>
   <v>       0.12205863       0.07667572      -0.21211795 </v>
   <v>       0.02829899      -0.05101989      -0.08843934 </v>
   <v>       0.28432934       0.28622422      -0.23653003 </v>
   <v>      -0.14206650       0.25601269      -0.07235597 </v>
   <v>      -0.31064856      -0.12071772       0.29485782 </v>
   <v>      -0.23793827       0.06288311       0.63135056 </v>
   <v>       0.21969682      -0.30974724      -0.13197470 </v>
   <v>       0.13787373       0.08592379       0.24924602 </v>
   <v>       0.24081151      -0.28526803       0.13976348 </v>
   <v>       0.27207545      -0.08047798      -0.31951898 </v>
   <v>      -0.33802757      -0.20750876       0.13958941 </v>
   <v>      -0.11033218       0.33194526       0.41056199 </v>
   <v>       0.34469445      -0.08883570      -0.44577534 </v>
   <v>      -0.01221291      -0.44275343       0.00219464 </v>
   <v>       0.25765401       0.12464576      -0.52114363 </v>
   <v>       0.17826395      -0.31070817      -0.21534156 </v>
   <v>      -0.34638004      -0.14107715       0.55699204 </v>
   <v>       0.07527179       0.18162128      -0.11563914 </v>
  </varray>
  <varray name="stress" >
   <v>     -14.63009006      -4.82198292       0.50700253 </v>
   <v>      -4.82198292     -18.05353946       2.37708317 </v>
   <v>       0.50700249       2.37708308     -13.07505161 </v>
  </varray>
  <energy>
   <i name="e_fr_energy">   -306.81401864 </i>
   <i name="e_wo_entrp">   -306.80719737 </i>
   <i name="e_0_energy">     -0.02046381 </i>
  </energy>
  <time name="totalsc">  775.89  777.06</time>
 </calculation>
 <calculation>
  <scstep>
   <time name="dav">   33.50   33.55</time>
   <time name="total">   34.17   34.23</time>
   <energy>
    <i name="alphaZ">   1164.54475343 </i>
    <i name="ewald"> -11239.85466757 </i>
    <i name="hartreedc">  -2903.03955190 </i>
    <i name="XCdc">   -844.28218443 </i>
    <i name="pawpsdc">  18685.52374386 </i>
    <i name="pawaedc"> -17224.15527784 </i>
    <i name="eentropy">     -0.01683677 </i>
    <i name="bandstr">   -780.66442727 </i>
    <i name="atom">  12835.31476492 </i>
    <i name="e_fr_energy">   -306.62968357 </i>
    <i name="e_wo_entrp">   -306.61284680 </i>
    <i name="e_0_energy">   -306.62407131 </i>
   </energy>
  </scstep>
  <scstep>
   <time name="dav">   50.61   50.69</time>
   <time name="total">   51.28   51.35</time>
   <energy>
    <i name="e_fr_energy">   -308.14342763 </i>
    <i name="e_wo_entrp">   -308.14252793 </i>
    <i name="e_0_energy">   -308.14312773 </i>
   </energy>
  </scstep>
  <scstep>
   <time name="dav">   50.56   50.61</time>
   <time name="total">   51.25   51.36</time>
   <energy>
    <i name="e_fr_energy">   -307.19561203 </i>
    <i name="e_wo_entrp">   -307.18128012 </i>
    <i name="e_0_energy">   -307.19083473 </i>
   </energy>
  </scstep>
  <scstep>
   <time name="dav">   50.59   50.65</time>
   <time name="total">   51.26   51.31</time>
   <energy>
    <i name="e_fr_energy">   -307.15105996 </i>
    <i name="e_wo_entrp">   -307.13635197 </i>
    <i name="e_0_energy">   -307.14615729 </i>
   </energy>
  </scstep>
  <scstep>
   <time name="dav">   50.37   50.43</time>
   <time name="total">   51.05   51.11</time>
   <energy>
    <i name="e_fr_energy">   -307.09491397 </i>
    <i name="e_wo_entrp">   -307.08125010 </i>
    <i name="e_0_energy">   -307.09035934 </i>
   </energy>
  </scstep>
  <scstep>
   <time name="dav">   48.81   48.86</time>
   <time name="total">   49.48   49.53</time>
   <energy>
    <i name="e_fr_energy">   -307.07776487 </i>
    <i name="e_wo_entrp">   -307.06348222 </i>
    <i name="e_0_energy">   -307.07300398 </i>
   </energy>
  </scstep>
  <scstep>
   <time name="dav">   48.79   48.85</time>
   <time name="total">   49.47   49.54</time>
   <energy>
    <i name="e_fr_energy">   -307.08159486 </i>
    <i name="e_wo_entrp">   -307.06851024 </i>
    <i name="e_0_energy">   -307.07723332 </i>
   </energy>
  </scstep>
  <scstep>
   <time name="dav">   51.05   51.11</time>
   <time name="total">   51.72   51.78</time>
   <energy>
    <i name="e_fr_energy">   -307.07622180 </i>
    <i name="e_wo_entrp">   -307.06128319 </i>
    <i name="e_0_energy">   -307.07124227 </i>
   </energy>
  </scstep>
  <scstep>
   <time name="dav">   52.60   52.66</time>
   <time name="total">   53.29   53.36</time>
   <energy>
    <i name="e_fr_energy">   -307.06187950 </i>
    <i name="e_wo_entrp">   -307.04759080 </i>
    <i name="e_0_energy">   -307.05711660 </i>
   </energy>
  </scstep>
  <scstep>
   <time name="dav">   50.27   50.33</time>
   <time name="total">   50.94   50.99</time>
   <energy>
    <i name="e_fr_energy">   -307.05740242 </i>
    <i name="e_wo_entrp">   -307.04359977 </i>
    <i name="e_0_energy">   -307.05280154 </i>
   </energy>
  </scstep>
  <scstep>
   <time name="dav">   48.35   48.41</time>
   <time name="total">   49.03   49.10</time>
   <energy>
    <i name="e_fr_energy">   -307.05643451 </i>
    <i name="e_wo_entrp">   -307.04198988 </i>
    <i name="e_0_energy">   -307.05161963 </i>
   </energy>
  </scstep>
  <scstep>
   <time name="dav">   47.05   47.10</time>
   <time name="total">   47.72   47.77</time>
   <energy>
    <i name="e_fr_energy">   -307.05619297 </i>
    <i name="e_wo_entrp">   -307.04218110 </i>
    <i name="e_0_energy">   -307.05152235 </i>
   </energy>
  </scstep>
  <scstep>
   <time name="dav">   47.08   47.16</time>
   <time name="total">   47.74   47.84</time>
   <energy>
    <i name="e_fr_energy">   -307.05602364 </i>
    <i name="e_wo_entrp">   -307.04183928 </i>
    <i name="e_0_energy">   -307.05129552 </i>
   </energy>
  </scstep>
  <scstep>
   <time name="dav">   43.49   43.54</time>
   <time name="total">   44.15   44.20</time>
   <energy>
    <i name="e_fr_energy">   -307.05606236 </i>
    <i name="e_wo_entrp">   -307.04189934 </i>
    <i name="e_0_energy">   -307.05134135 </i>
   </energy>
  </scstep>
  <scstep>
   <time name="dav">   41.11   41.15</time>
   <time name="total">   41.78   41.84</time>
   <energy>
    <i name="e_fr_energy">   -307.05599089 </i>
    <i name="e_wo_entrp">   -307.04185234 </i>
    <i name="e_0_energy">   -307.05127804 </i>
   </energy>
  </scstep>
  <scstep>
   <time name="dav">   34.52   34.56</time>
   <time name="total">   34.59   34.63</time>
   <energy>
    <i name="alphaZ">   1164.54475343 </i>
    <i name="ewald"> -11239.85466757 </i>
    <i name="hartreedc">  -2907.59239831 </i>
    <i name="XCdc">   -844.04256968 </i>
    <i name="pawpsdc">  18517.14931551 </i>
    <i name="pawaedc"> -17056.41550960 </i>
    <i name="eentropy">     -0.01417620 </i>
    <i name="bandstr">   -776.14545147 </i>
    <i name="atom">  12835.31476492 </i>
    <i name="e_fr_energy">   -307.05593898 </i>
    <i name="e_wo_entrp">   -307.04176278 </i>
    <i name="e_0_energy">   -307.05121358 </i>
   </energy>
  </scstep>
  <structure>
   <crystal>
    <varray name="basis" >
     <v>      -3.13969736      -3.13482805      -3.17512643 </v>
     <v>       1.58104774       1.55661236      -7.93821348 </v>
     <v>       7.99837714      -7.96780369      -1.60596339 </v>
    </varray>
    <i name="volume">    477.04459279 </i>
    <varray name="rec_basis" >
     <v>      -0.13782776      -0.12777363      -0.05250631 </v>
     <v>       0.04247897       0.06380556      -0.10500073 </v>
     <v>       0.06252534      -0.06276900       0.00014468 </v>
    </varray>
   </crystal>
   <varray name="positions" >
    <v>       0.95780072       0.93475158       0.39805797 </v>
    <v>       0.62958673       0.26682686       0.40444271 </v>
    <v>       0.49786491       0.00819237      -0.00667693 </v>
    <v>       0.00113849       0.00065937       0.00343357 </v>
    <v>       0.09160832       0.20981959       0.79677111 </v>
    <v>       0.03952252       0.07105527       0.59531430 </v>
    <v>       0.90556997       0.79388671       0.20331919 </v>
    <v>       0.80837030       0.59006475       0.39882305 </v>
    <v>       0.73252831       0.46696129       0.19711471 </v>
    <v>       0.66408166       0.34378261      -0.00181659 </v>
    <v>       0.37353229       0.72555875       0.60345774 </v>
    <v>       0.13315450       0.27477221       0.40008383 </v>
    <v>       0.83683274       0.65861536       0.00197883 </v>
    <v>       0.92655549       0.87443421       0.79926660 </v>
    <v>       0.56233934       0.13891190       0.19390383 </v>
    <v>       0.40688077       0.78604597       0.19837017 </v>
    <v>       0.43891815       0.85070183       0.79489033 </v>
    <v>       0.29989203       0.60100822       0.40363018 </v>
    <v>       0.85906208       0.72968289       0.60046837 </v>
    <v>       0.46703490       0.93050598       0.40688328 </v>
    <v>       0.16300608       0.33935300       0.00519449 </v>
    <v>       0.27401531       0.52907819       0.79895844 </v>
    <v>       0.19282515       0.39567413       0.59570229 </v>
    <v>       0.06487681       0.14405212       0.20333284 </v>
    <v>       0.77413140       0.53063618       0.80341141 </v>
    <v>       0.69859643       0.40948803       0.60046401 </v>
    <v>       0.53497126       0.06831712       0.60309180 </v>
    <v>       0.33662818       0.65717605      -0.00065545 </v>
    <v>       0.22867517       0.46998747       0.19878392 </v>
   </varray>
  </structure>
  <varray name="forces" >
   <v>      -0.01778668       0.00927046      -0.02868814 </v>
   <v>      -0.24540212       0.11402919       0.04267137 </v>
   <v>      -0.60202282       0.20788153       0.15995921 </v>
   <v>       0.01055121      -0.12426319      -0.08687789 </v>
   <v>       0.00664299       0.03945824       0.16290138 </v>
   <v>      -0.19007333      -0.01544414       0.01288122 </v>
   <v>      -0.06865478       0.27279538      -0.02314344 </v>
   <v>       0.20010275       0.01023228      -0.11314970 </v>
   <v>       0.17409522      -0.17492260       0.25782579 </v>
   <v>       0.05196976       0.35954760      -0.08483903 </v>
   <v>      -0.12294660      -0.09142160       0.42510718 </v>
   <v>      -0.00740707       0.04588460       0.25400069 </v>
   <v>       0.14301695       0.34985004      -0.74560040 </v>
   <v>       0.30293329       0.21542921      -0.08579304 </v>
   <v>      -0.02486231      -0.12703535       0.02381247 </v>
[...]
       <r>    4.7611    1.0000 </r>
       <r>    4.8454    1.0000 </r>
       <r>    4.9111    1.0000 </r>
       <r>    4.9466    1.0000 </r>
       <r>    4.9655    1.0000 </r>
       <r>    5.0411    1.0000 </r>
       <r>    5.1200    1.0000 </r>
       <r>    5.1752    1.0000 </r>
       <r>    5.2348    1.0000 </r>
       <r>    5.2659    1.0000 </r>
       <r>    5.3488    1.0000 </r>
       <r>    5.4162    1.0000 </r>
       <r>    5.4869    1.0000 </r>
       <r>    5.5106    1.0000 </r>
       <r>    5.5318    1.0000 </r>
       <r>    5.5817    1.0000 </r>
       <r>    5.6184    1.0000 </r>
       <r>    5.6963    1.0000 </r>
       <r>    5.8049    1.0000 </r>
       <r>    5.8326    1.0000 </r>
       <r>    5.9015    1.0000 </r>
       <r>    6.0039    1.0000 </r>
       <r>    6.0158    1.0000 </r>
       <r>    6.0590    1.0000 </r>
       <r>    6.1347    1.0001 </r>
       <r>    6.1862    1.0003 </r>
       <r>    6.2583    1.0015 </r>
       <r>    6.2699    1.0019 </r>
       <r>    6.3787    1.0127 </r>
       <r>    6.4278    1.0230 </r>
       <r>    6.4530    1.0288 </r>
       <r>    6.4976    1.0353 </r>
       <r>    6.5153    1.0348 </r>
       <r>    6.5894    0.9882 </r>
       <r>    6.6189    0.9394 </r>
       <r>    6.6666    0.8148 </r>
       <r>    6.7591    0.4530 </r>
       <r>    6.8291    0.1861 </r>
       <r>    6.9290   -0.0123 </r>
       <r>    6.9697   -0.0330 </r>
       <r>    7.0418   -0.0290 </r>
       <r>    7.1194   -0.0123 </r>
       <r>    7.2142   -0.0024 </r>
       <r>    7.2722   -0.0007 </r>
       <r>    7.3604   -0.0001 </r>
       <r>    7.4508   -0.0000 </r>
       <r>    7.5318   -0.0000 </r>
       <r>    7.6046   -0.0000 </r>
       <r>    7.6909   -0.0000 </r>
       <r>    7.8383   -0.0000 </r>
       <r>    7.9765   -0.0000 </r>
       <r>    8.0725   -0.0000 </r>
       <r>    8.1603   -0.0000 </r>
       <r>    8.3161   -0.0000 </r>
       <r>    8.4672   -0.0000 </r>
       <r>    8.5510   -0.0000 </r>
       <r>    8.5801   -0.0000 </r>
       <r>    8.6439   -0.0000 </r>
       <r>    8.6897   -0.0000 </r>
       <r>    8.7628   -0.0000 </r>
       <r>    8.8326   -0.0000 </r>
      </set>
     </set>
    </set>
   </array>
  </eigenvalues>
  <separator name="orbital magnetization" >
   <v name="MAGDIPOLOUT">      0.00000000      0.00000000      0.00000000</v>
  </separator>
  <dos>
   <i name="efermi">      6.74796391 </i>
   <total>
    <array>
     <dimension dim="1">gridpoints</dimension>
     <dimension dim="2">spin</dimension>
     <field>energy</field>
     <field>total</field>
     <field>integrated</field>
     <set>
      <set comment="spin 1">
       <r>   -50.3945     0.0000     0.0000 </r>
       <r>   -50.1875     0.0000     0.0000 </r>
       <r>   -49.9805     0.0000     0.0000 </r>
       <r>   -49.7735     0.0000     0.0000 </r>
       <r>   -49.5665     0.0000     0.0000 </r>
       <r>   -49.3595    -0.0000    -0.0000 </r>
       <r>   -49.1525    -0.0000    -0.0000 </r>
       <r>   -48.9455    -0.0000    -0.0000 </r>
       <r>   -48.7385    -0.0000    -0.0000 </r>
       <r>   -48.5315    -0.0000    -0.0000 </r>
       <r>   -48.3245    -0.0000    -0.0000 </r>
       <r>   -48.1175    -0.0036    -0.0007 </r>
       <r>   -47.9105    -0.1942    -0.0409 </r>
       <r>   -47.7034     0.1503    -0.0098 </r>
       <r>   -47.4964     9.4453     1.9454 </r>
       <r>   -47.2894    24.4327     7.0031 </r>
       <r>   -47.0824    18.5455    10.8422 </r>
       <r>   -46.8754     5.7444    12.0313 </r>
       <r>   -46.6684    -0.0313    12.0248 </r>
       <r>   -46.4614    -0.1183    12.0003 </r>
       <r>   -46.2544    -0.0016    12.0000 </r>
       <r>   -46.0474    -0.0000    12.0000 </r>
       <r>   -45.8404    -0.0000    12.0000 </r>
       <r>   -45.6334    -0.0000    12.0000 </r>
       <r>   -45.4264     0.0000    12.0000 </r>
       <r>   -45.2194     0.0000    12.0000 </r>
       <r>   -45.0124     0.0000    12.0000 </r>
       <r>   -44.8054     0.0000    12.0000 </r>
       <r>   -44.5984     0.0000    12.0000 </r>
       <r>   -44.3913     0.0000    12.0000 </r>
       <r>   -44.1843     0.0000    12.0000 </r>
       <r>   -43.9773     0.0000    12.0000 </r>
       <r>   -43.7703     0.0000    12.0000 </r>
       <r>   -43.5633     0.0000    12.0000 </r>
       <r>   -43.3563     0.0000    12.0000 </r>
       <r>   -43.1493     0.0000    12.0000 </r>
       <r>   -42.9423     0.0000    12.0000 </r>
       <r>   -42.7353     0.0000    12.0000 </r>
       <r>   -42.5283     0.0000    12.0000 </r>
       <r>   -42.3213     0.0000    12.0000 </r>
       <r>   -42.1143     0.0000    12.0000 </r>
       <r>   -41.9073     0.0000    12.0000 </r>
       <r>   -41.7003     0.0000    12.0000 </r>
       <r>   -41.4933     0.0000    12.0000 </r>
       <r>   -41.2863     0.0000    12.0000 </r>
       <r>   -41.0792     0.0000    12.0000 </r>
       <r>   -40.8722     0.0000    12.0000 </r>
       <r>   -40.6652     0.0000    12.0000 </r>
       <r>   -40.4582     0.0000    12.0000 </r>
       <r>   -40.2512     0.0000    12.0000 </r>
       <r>   -40.0442     0.0000    12.0000 </r>
       <r>   -39.8372     0.0000    12.0000 </r>
       <r>   -39.6302     0.0000    12.0000 </r>
       <r>   -39.4232     0.0000    12.0000 </r>
       <r>   -39.2162     0.0000    12.0000 </r>
       <r>   -39.0092     0.0000    12.0000 </r>
       <r>   -38.8022     0.0000    12.0000 </r>
       <r>   -38.5952     0.0000    12.0000 </r>
       <r>   -38.3882     0.0000    12.0000 </r>
       <r>   -38.1812     0.0000    12.0000 </r>
       <r>   -37.9741     0.0000    12.0000 </r>
       <r>   -37.7671     0.0000    12.0000 </r>
       <r>   -37.5601     0.0000    12.0000 </r>
       <r>   -37.3531     0.0000    12.0000 </r>
       <r>   -37.1461     0.0000    12.0000 </r>
       <r>   -36.9391     0.0000    12.0000 </r>
       <r>   -36.7321     0.0000    12.0000 </r>
       <r>   -36.5251     0.0000    12.0000 </r>
       <r>   -36.3181     0.0000    12.0000 </r>
       <r>   -36.1111     0.0000    12.0000 </r>
       <r>   -35.9041     0.0000    12.0000 </r>
       <r>   -35.6971     0.0000    12.0000 </r>
       <r>   -35.4901     0.0000    12.0000 </r>
       <r>   -35.2831     0.0000    12.0000 </r>
       <r>   -35.0761     0.0000    12.0000 </r>
       <r>   -34.8691     0.0000    12.0000 </r>
       <r>   -34.6620     0.0000    12.0000 </r>
       <r>   -34.4550     0.0000    12.0000 </r>
       <r>   -34.2480     0.0000    12.0000 </r>
       <r>   -34.0410     0.0000    12.0000 </r>
       <r>   -33.8340     0.0000    12.0000 </r>
       <r>   -33.6270     0.0000    12.0000 </r>
       <r>   -33.4200     0.0000    12.0000 </r>
       <r>   -33.2130     0.0000    12.0000 </r>
       <r>   -33.0060     0.0000    12.0000 </r>
       <r>   -32.7990     0.0000    12.0000 </r>
       <r>   -32.5920     0.0000    12.0000 </r>
       <r>   -32.3850     0.0000    12.0000 </r>
       <r>   -32.1780     0.0000    12.0000 </r>
       <r>   -31.9710     0.0000    12.0000 </r>
       <r>   -31.7640     0.0000    12.0000 </r>
       <r>   -31.5569     0.0000    12.0000 </r>
       <r>   -31.3499     0.0000    12.0000 </r>
       <r>   -31.1429     0.0000    12.0000 </r>
       <r>   -30.9359     0.0000    12.0000 </r>
       <r>   -30.7289     0.0000    12.0000 </r>
       <r>   -30.5219     0.0000    12.0000 </r>
       <r>   -30.3149     0.0000    12.0000 </r>
       <r>   -30.1079     0.0000    12.0000 </r>
       <r>   -29.9009     0.0000    12.0000 </r>
       <r>   -29.6939     0.0000    12.0000 </r>
       <r>   -29.4869     0.0000    12.0000 </r>
       <r>   -29.2799     0.0000    12.0000 </r>
       <r>   -29.0729     0.0000    12.0000 </r>
       <r>   -28.8659     0.0000    12.0000 </r>
       <r>   -28.6589     0.0000    12.0000 </r>
       <r>   -28.4519     0.0000    12.0000 </r>
       <r>   -28.2448     0.0000    12.0000 </r>
       <r>   -28.0378     0.0000    12.0000 </r>
       <r>   -27.8308     0.0000    12.0000 </r>
       <r>   -27.6238     0.0000    12.0000 </r>
       <r>   -27.4168     0.0000    12.0000 </r>
       <r>   -27.2098     0.0000    12.0000 </r>
       <r>   -27.0028     0.0000    12.0000 </r>
       <r>   -26.7958     0.0000    12.0000 </r>
       <r>   -26.5888     0.0000    12.0000 </r>
       <r>   -26.3818     0.0000    12.0000 </r>
       <r>   -26.1748     0.0000    12.0000 </r>
       <r>   -25.9678    -0.0000    12.0000 </r>
       <r>   -25.7608    -0.0000    12.0000 </r>
       <r>   -25.5538    -0.0000    12.0000 </r>
       <r>   -25.3468    -0.0000    12.0000 </r>
       <r>   -25.1397    -0.0000    12.0000 </r>
       <r>   -24.9327    -0.0000    12.0000 </r>
       <r>   -24.7257    -0.0053    11.9989 </r>
       <r>   -24.5187    -0.2097    11.9555 </r>
       <r>   -24.3117     0.5126    12.0616 </r>
       <r>   -24.1047     9.6833    14.0661 </r>
       <r>   -23.8977    13.7185    16.9059 </r>
       <r>   -23.6907    18.6227    20.7610 </r>
       <r>   -23.4837    44.4489    29.9622 </r>
       <r>   -23.2767    43.8461    39.0386 </r>
       <r>   -23.0697    22.1420    43.6221 </r>
       <r>   -22.8627    17.7511    47.2967 </r>
       <r>   -22.6557     4.0240    48.1297 </r>
       <r>   -22.4487    -0.5957    48.0064 </r>
       <r>   -22.2417    -0.0308    48.0000 </r>
       <r>   -22.0347    -0.0001    48.0000 </r>
       <r>   -21.8276    -0.0000    48.0000 </r>
       <r>   -21.6206    -0.0000    48.0000 </r>
       <r>   -21.4136     0.0000    48.0000 </r>
       <r>   -21.2066     0.0000    48.0000 </r>
       <r>   -20.9996     0.0000    48.0000 </r>
       <r>   -20.7926     0.0000    48.0000 </r>
       <r>   -20.5856     0.0000    48.0000 </r>
       <r>   -20.3786     0.0000    48.0000 </r>
       <r>   -20.1716     0.0000    48.0000 </r>
       <r>   -19.9646     0.0000    48.0000 </r>
       <r>   -19.7576     0.0000    48.0000 </r>
       <r>   -19.5506     0.0000    48.0000 </r>
       <r>   -19.3436     0.0000    48.0000 </r>
       <r>   -19.1366     0.0000    48.0000 </r>
       <r>   -18.9296     0.0000    48.0000 </r>
       <r>   -18.7225     0.0000    48.0000 </r>
       <r>   -18.5155     0.0000    48.0000 </r>
       <r>   -18.3085     0.0000    48.0000 </r>
       <r>   -18.1015     0.0000    48.0000 </r>
       <r>   -17.8945     0.0000    48.0000 </r>
       <r>   -17.6875     0.0000    48.0000 </r>
       <r>   -17.4805     0.0000    48.0000 </r>
       <r>   -17.2735     0.0000    48.0000 </r>
       <r>   -17.0665     0.0000    48.0000 </r>
       <r>   -16.8595     0.0000    48.0000 </r>
       <r>   -16.6525     0.0000    48.0000 </r>
       <r>   -16.4455     0.0000    48.0000 </r>
       <r>   -16.2385     0.0000    48.0000 </r>
       <r>   -16.0315     0.0000    48.0000 </r>
       <r>   -15.8245     0.0000    48.0000 </r>
       <r>   -15.6175     0.0000    48.0000 </r>
       <r>   -15.4104     0.0000    48.0000 </r>
       <r>   -15.2034     0.0000    48.0000 </r>
       <r>   -14.9964     0.0000    48.0000 </r>
       <r>   -14.7894     0.0000    48.0000 </r>
       <r>   -14.5824     0.0000    48.0000 </r>
       <r>   -14.3754     0.0000    48.0000 </r>
       <r>   -14.1684     0.0000    48.0000 </r>
       <r>   -13.9614     0.0000    48.0000 </r>
       <r>   -13.7544     0.0000    48.0000 </r>
       <r>   -13.5474     0.0000    48.0000 </r>
       <r>   -13.3404     0.0000    48.0000 </r>
       <r>   -13.1334     0.0000    48.0000 </r>
       <r>   -12.9264     0.0000    48.0000 </r>
       <r>   -12.7194     0.0000    48.0000 </r>
       <r>   -12.5124     0.0000    48.0000 </r>
       <r>   -12.3054     0.0000    48.0000 </r>
       <r>   -12.0983     0.0000    48.0000 </r>
       <r>   -11.8913     0.0000    48.0000 </r>
       <r>   -11.6843     0.0000    48.0000 </r>
       <r>   -11.4773     0.0000    48.0000 </r>
       <r>   -11.2703     0.0000    48.0000 </r>
       <r>   -11.0633     0.0000    48.0000 </r>
       <r>   -10.8563     0.0000    48.0000 </r>
       <r>   -10.6493     0.0000    48.0000 </r>
       <r>   -10.4423     0.0000    48.0000 </r>
       <r>   -10.2353     0.0000    48.0000 </r>
       <r>   -10.0283     0.0000    48.0000 </r>
       <r>    -9.8213     0.0000    48.0000 </r>
       <r>    -9.6143     0.0000    48.0000 </r>
       <r>    -9.4073     0.0000    48.0000 </r>
       <r>    -9.2003     0.0000    48.0000 </r>
       <r>    -8.9932     0.0000    48.0000 </r>
       <r>    -8.7862     0.0000    48.0000 </r>
       <r>    -8.5792     0.0000    48.0000 </r>
       <r>    -8.3722     0.0000    48.0000 </r>
       <r>    -8.1652     0.0000    48.0000 </r>
       <r>    -7.9582     0.0000    48.0000 </r>
       <r>    -7.7512     0.0000    48.0000 </r>
       <r>    -7.5442     0.0000    48.0000 </r>
       <r>    -7.3372     0.0000    48.0000 </r>
       <r>    -7.1302     0.0000    48.0000 </r>
       <r>    -6.9232     0.0000    48.0000 </r>
       <r>    -6.7162     0.0000    48.0000 </r>
       <r>    -6.5092     0.0000    48.0000 </r>
       <r>    -6.3022     0.0000    48.0000 </r>
       <r>    -6.0952     0.0000    48.0000 </r>
       <r>    -5.8882     0.0000    48.0000 </r>
       <r>    -5.6811     0.0000    48.0000 </r>
       <r>    -5.4741     0.0000    48.0000 </r>
       <r>    -5.2671     0.0000    48.0000 </r>
       <r>    -5.0601     0.0000    48.0000 </r>
       <r>    -4.8531     0.0000    48.0000 </r>
       <r>    -4.6461     0.0000    48.0000 </r>
       <r>    -4.4391     0.0000    48.0000 </r>
       <r>    -4.2321     0.0000    48.0000 </r>
       <r>    -4.0251     0.0000    48.0000 </r>
       <r>    -3.8181     0.0000    48.0000 </r>
       <r>    -3.6111     0.0000    48.0000 </r>
       <r>    -3.4041     0.0000    48.0000 </r>
       <r>    -3.1971     0.0000    48.0000 </r>
       <r>    -2.9901     0.0000    48.0000 </r>
       <r>    -2.7831     0.0000    48.0000 </r>
       <r>    -2.5760     0.0000    48.0000 </r>
       <r>    -2.3690     0.0000    48.0000 </r>
       <r>    -2.1620     0.0000    48.0000 </r>
       <r>    -1.9550     0.0000    48.0000 </r>
       <r>    -1.7480    -0.0000    48.0000 </r>
       <r>    -1.5410    -0.0000    48.0000 </r>
       <r>    -1.3340    -0.0000    48.0000 </r>
       <r>    -1.1270    -0.0000    48.0000 </r>
       <r>    -0.9200    -0.0000    48.0000 </r>
       <r>    -0.7130    -0.0000    48.0000 </r>
       <r>    -0.5060    -0.0017    47.9996 </r>
       <r>    -0.2990    -0.0173    47.9961 </r>
       <r>    -0.0920     0.1254    48.0220 </r>
       <r>     0.1150     0.8249    48.1928 </r>
       <r>     0.3220     1.2707    48.4558 </r>
       <r>     0.5290     1.6821    48.8040 </r>
       <r>     0.7361     2.1389    49.2468 </r>
       <r>     0.9431     1.7962    49.6186 </r>
       <r>     1.1501     2.5641    50.1494 </r>
       <r>     1.3571     3.1922    50.8102 </r>
       <r>     1.5641     3.1525    51.4628 </r>
       <r>     1.7711     3.5865    52.2052 </r>
       <r>     1.9781     4.4762    53.1318 </r>
       <r>     2.1851     5.1769    54.2035 </r>
       <r>     2.3921     5.9021    55.4252 </r>
       <r>     2.5991    10.3271    57.5630 </r>
       <r>     2.8061    17.3962    61.1641 </r>
       <r>     3.0131    22.6157    65.8457 </r>
       <r>     3.2201    25.3531    71.0940 </r>
       <r>     3.4271    27.8337    76.8557 </r>
       <r>     3.6341    29.6299    82.9893 </r>
       <r>     3.8412    30.7519    89.3552 </r>
       <r>     4.0482    30.9769    95.7676 </r>
       <r>     4.2552    29.7360   101.9231 </r>
       <r>     4.4622    28.6082   107.8452 </r>
       <r>     4.6692    27.5033   113.5385 </r>
       <r>     4.8762    32.3773   120.2409 </r>
       <r>     5.0832    37.3942   127.9817 </r>
       <r>     5.2902    38.5423   135.9602 </r>
       <r>     5.4972    39.5835   144.1542 </r>
       <r>     5.7042    39.8387   152.4011 </r>
       <r>     5.9112    39.1494   160.5053 </r>
       <r>     6.1182    40.0949   168.8052 </r>
       <r>     6.3252    39.7182   177.0271 </r>
       <r>     6.5322    38.6877   185.0357 </r>
       <r>     6.7392    36.9665   192.6880 </r>
       <r>     6.9462    33.7730   199.6792 </r>
       <r>     7.1533    30.6695   206.0280 </r>
       <r>     7.3603    24.3542   211.0695 </r>
       <r>     7.5673    19.7617   215.1603 </r>
       <r>     7.7743    19.2572   219.1467 </r>
       <r>     7.9813    20.5233   223.3951 </r>
       <r>     8.1883    23.6431   228.2894 </r>
       <r>     8.3953    25.5446   233.5773 </r>
       <r>     8.6023    20.3381   237.7874 </r>
       <r>     8.8093     9.7775   239.8114 </r>
       <r>     9.0163     1.1380   240.0470 </r>
       <r>     9.2233    -0.2107   240.0034 </r>
       <r>     9.4303    -0.0162   240.0000 </r>
       <r>     9.6373    -0.0001   240.0000 </r>
       <r>     9.8443    -0.0000   240.0000 </r>
       <r>    10.0513    -0.0000   240.0000 </r>
       <r>    10.2584    -0.0000   240.0000 </r>
       <r>    10.4654     0.0000   240.0000 </r>
       <r>    10.6724     0.0000   240.0000 </r>
       <r>    10.8794     0.0000   240.0000 </r>
       <r>    11.0864     0.0000   240.0000 </r>
       <r>    11.2934     0.0000   240.0000 </r>
       <r>    11.5004     0.0000   240.0000 </r>
       <r>    11.7074     0.0000   240.0000 </r>
      </set>
     </set>
    </array>
   </total>
  </dos>
 </calculation>
 <structure name="finalpos" >
  <crystal>
   <varray name="basis" >
    <v>      -3.12137132      -3.10875164      -3.15468569 </v>
    <v>       1.58681596       1.49338923      -7.85320383 </v>
    <v>       7.98724835      -7.88691592      -1.64447648 </v>
   </varray>
   <i name="volume">    464.99192555 </i>
   <varray name="rec_basis" >
    <v>      -0.13848284      -0.12928398      -0.05256684 </v>
    <v>       0.04251358       0.06522754      -0.10634242 </v>
    <v>       0.06263514      -0.06348211       0.00058408 </v>
   </varray>
  </crystal>
  <varray name="positions" >
   <v>       0.96163370       0.93434692       0.39736102 </v>
   <v>       0.63061386       0.26661220       0.40543830 </v>
   <v>       0.51149124       0.02654965      -0.02993858 </v>
   <v>       0.01087799       0.00437558       0.00278397 </v>
   <v>       0.02166623       0.20406715       0.79599604 </v>
   <v>       0.05018265       0.06058736       0.59266859 </v>
   <v>       0.90751797       0.80323923       0.19893015 </v>
   <v>       0.80530112       0.59628562       0.39973130 </v>
   <v>       0.72927377       0.47463144       0.19983487 </v>
   <v>       0.65913615       0.35546565      -0.00037645 </v>
   <v>       0.37410528       0.71218277       0.60533710 </v>
   <v>       0.13118683       0.27555006       0.39930065 </v>
   <v>       0.83185036       0.67326256       0.00185346 </v>
   <v>       0.92671079       0.86035833       0.79623339 </v>
   <v>       0.56322233       0.14197912       0.19425561 </v>
   <v>       0.41200298       0.79654699       0.19446261 </v>
   <v>       0.42866365       0.84740558       0.79536275 </v>
   <v>       0.30331039       0.60084365       0.40611311 </v>
   <v>       0.85712198       0.72473925       0.59920435 </v>
   <v>       0.46843150       0.93031397       0.40677566 </v>
   <v>       0.16577517       0.34590594       0.00551141 </v>
   <v>       0.32112835       0.47942905       0.79872868 </v>
   <v>       0.18304248       0.38725027       0.59610311 </v>
   <v>       0.06183505       0.15293226       0.20719916 </v>
   <v>       0.78151639       0.52567616       0.80755006 </v>
   <v>       0.68390270       0.40914930       0.60504505 </v>
   <v>       0.54801596       0.07717510       0.62153036 </v>
   <v>       0.34208723       0.65319740      -0.00291362 </v>
   <v>       0.22839588       0.47994144       0.19991789 </v>
  </varray>
 </structure>
</modeling>
