Nb - Mo - Ta - Ti - V SQS               
           1
    -3.160000   -3.160000   -3.160000
     1.580000    1.580000   -7.900000
     7.900000   -7.900000   -1.580000
   Nb   Mo   Ta   Ti   V 
   6   6   6   6   5
Direct configuration=     1
   0.96666667  0.93333333  0.40000000
   0.63333333  0.26666667  0.40000000
   0.50000000  0.00000000  0.00000000
   0.00000000  0.00000000  0.00000000
   0.10000000  0.20000000  0.80000000
   0.03333333  0.06666667  0.60000000
   0.90000000  0.80000000  0.20000000
   0.80000000  0.60000000  0.40000000
   0.73333333  0.46666667  0.20000000
   0.66666667  0.33333333  0.00000000
   0.36666667  0.73333333  0.60000000
   0.13333333  0.26666667  0.40000000
   0.83333333  0.66666667  0.00000000
   0.93333333  0.86666667  0.80000000
   0.56666667  0.13333333  0.20000000
   0.40000000  0.80000000  0.20000000
   0.43333333  0.86666667  0.80000000
   0.30000000  0.60000000  0.40000000
   0.86666667  0.73333333  0.60000000
   0.46666667  0.93333333  0.40000000
   0.16666667  0.33333333  0.00000000
   0.26666667  0.53333333  0.80000000
   0.20000000  0.40000000  0.60000000
   0.06666667  0.13333333  0.20000000
   0.76666667  0.53333333  0.80000000
   0.70000000  0.40000000  0.60000000
   0.53333333  0.06666667  0.60000000
   0.33333333  0.66666667  0.00000000
   0.23333333  0.46666667  0.20000000
Nb - Mo - Ta - Ti - V SQS               
           1
    -3.150518   -3.148244   -3.167064
     1.580489    1.569078   -7.917846
     7.945943   -7.931665   -1.592125
   Nb   Mo   Ta   Ti   V 
   6   6   6   6   5
Direct configuration=     2
   0.96253311  0.93399134  0.39909125
   0.63158415  0.26674110  0.40208038
   0.49901152  0.00382538 -0.00312480
   0.00052996  0.00030970  0.00160778
   0.09609289  0.20458389  0.79849020
   0.03622442  0.06871901  0.59780657
   0.90259308  0.79714681  0.20155285
   0.80389888  0.59536072  0.39944683
   0.73295922  0.46680310  0.19864910
   0.66546762  0.33821464 -0.00084862
   0.36986306  0.72970445  0.60161738
   0.13325445  0.27045443  0.40004071
   0.83496015  0.66290644  0.00092498
   0.93017676  0.87029313  0.79965824
   0.56465401  0.13593639  0.19714674
   0.40320208  0.79348185  0.19923411
   0.43593126  0.85920719  0.79760443
   0.29994871  0.60047220  0.40169995
   0.86311758  0.73162400  0.60021893
   0.46683399  0.93201433  0.40322245
   0.16496058  0.33614624  0.00243343
   0.27009218  0.53134800  0.79951128
   0.19665292  0.39797379  0.59798716
   0.06583652  0.13834251  0.20156253
   0.77014537  0.53207746  0.80159658
   0.69935050  0.40443335  0.60021901
   0.53409693  0.06743965  0.60144791
   0.33486501  0.66223294 -0.00030872
   0.23116309  0.46821596  0.19943136
Nb - Mo - Ta - Ti - V SQS               
           1
    -3.139697   -3.134828   -3.175126
     1.581048    1.556612   -7.938213
     7.998377   -7.967804   -1.605963
   Nb   Mo   Ta   Ti   V 
   6   6   6   6   5
Direct configuration=     3
   0.95780072  0.93475158  0.39805797
   0.62958673  0.26682686  0.40444271
   0.49786491  0.00819237 -0.00667693
   0.00113849  0.00065937  0.00343357
   0.09160832  0.20981959  0.79677111
   0.03952252  0.07105527  0.59531430
   0.90556997  0.79388671  0.20331919
   0.80837030  0.59006475  0.39882305
   0.73252831  0.46696129  0.19711471
   0.66408166  0.34378261 -0.00181659
   0.37353229  0.72555875  0.60345774
   0.13315450  0.27477221  0.40008383
   0.83683274  0.65861536  0.00197883
   0.92655549  0.87443421  0.79926660
   0.56233934  0.13891190  0.19390383
   0.40688077  0.78604597  0.19837017
   0.43891815  0.85070183  0.79489033
   0.29989203  0.60100822  0.40363018
   0.85906208  0.72968289  0.60046837
   0.46703490  0.93050598  0.40688328
   0.16300608  0.33935300  0.00519449
   0.27401531  0.52907819  0.79895844
   0.19282515  0.39567413  0.59570229
   0.06487681  0.14405212  0.20333284
   0.77413140  0.53063618  0.80341141
   0.69859643  0.40948803  0.60046401
   0.53497126  0.06831712  0.60309180
   0.33662818  0.65717605 -0.00065545
   0.22867517  0.46998747  0.19878392
Nb - Mo - Ta - Ti - V SQS               
           1
    -3.093749   -3.086939   -3.150595
     1.557191    1.511235   -7.854847
     7.926938   -7.877935   -1.607212
   Nb   Mo   Ta   Ti   V 
   6   6   6   6   5
Direct configuration=     4
   0.95551654  0.93531776  0.39742688
   0.62956440  0.26641949  0.40432067
   0.50010796  0.00871981 -0.01150218
   0.00257933  0.00093470  0.00487003
   0.08842148  0.21167365  0.79576645
   0.04285115  0.07163916  0.59338923
   0.90568231  0.79320631  0.20295720
   0.80932867  0.58858004  0.39920819
   0.73140425  0.46521705  0.19762578
   0.66047414  0.34866940 -0.00346076
   0.37581012  0.72011902  0.60429147
   0.13201996  0.27556971  0.39990818
   0.83631052  0.66272498  0.00174333
   0.92083938  0.87868123  0.79938412
   0.56222638  0.13975763  0.19262041
   0.40926743  0.78442080  0.19754680
   0.43745730  0.84663639  0.79432889
   0.30158345  0.60101240  0.40610703
   0.85668479  0.72920377  0.60078483
   0.46645407  0.92866759  0.40871225
   0.16348671  0.34179210  0.00650367
   0.27960007  0.52522337  0.79841154
   0.18975291  0.39402967  0.59386377
   0.06354057  0.14731991  0.20539130
   0.77816148  0.52836359  0.80546733
   0.69645142  0.41483146  0.60156513
   0.53754964  0.06863961  0.60577041
   0.33960463  0.65064028 -0.00160045
   0.22726896  0.47198912  0.19859853
Nb - Mo - Ta - Ti - V SQS               
           1
    -3.116213   -3.110352   -3.162588
     1.568854    1.533420   -7.895604
     7.961864   -7.921871   -1.606602
   Nb   Mo   Ta   Ti   V 
   6   6   6   6   5
Direct configuration=     5
   0.95665068  0.93503372  0.39773911
   0.62957460  0.26662101  0.40438067
   0.49900112  0.00845453 -0.00911881
   0.00186460  0.00080216  0.00416067
   0.09000642  0.21075025  0.79626412
   0.04120401  0.07135136  0.59434018
   0.90562530  0.79354285  0.20313551
   0.80884977  0.58931695  0.39901689
   0.73195693  0.46608011  0.19737225
   0.66227530  0.34624285 -0.00264513
   0.37466744  0.72281660  0.60387582
   0.13258440  0.27517317  0.39999555
   0.83657930  0.66068903  0.00186249
   0.92368289  0.87657140  0.79932937
   0.56228540  0.13933689  0.19325486
   0.40808114  0.78522729  0.19795218
   0.43817229  0.84864691  0.79460349
   0.30074303  0.60101591  0.40488363
   0.85786186  0.72943856  0.60062836
   0.46673620  0.92957980  0.40780772
   0.16325318  0.34058676  0.00585871
   0.27682294  0.52713822  0.79867864
   0.19127343  0.39483760  0.59477087
   0.06420906  0.14570307  0.20437697
   0.77615671  0.52949676  0.80445011
   0.69752649  0.41218447  0.60102510
   0.53627014  0.06848687  0.60444751
   0.33811445  0.65387893 -0.00113840
   0.22797092  0.47099597  0.19869156
Nb - Mo - Ta - Ti - V SQS               
           1
    -3.117220   -3.111005   -3.183120
     1.566573    1.506065   -7.916897
     7.988015   -7.931226   -1.632700
   Nb   Mo   Ta   Ti   V 
   6   6   6   6   5
Direct configuration=     6
   0.95585203  0.93534692  0.39755405
   0.63054477  0.26577331  0.40338403
   0.50238430  0.00801393 -0.01431356
   0.00359447  0.00135806  0.00514906
   0.08772239  0.21085952  0.79576375
   0.04371098  0.07079109  0.59321243
   0.90437722  0.79444151  0.20169644
   0.80742299  0.59082072  0.39995102
   0.73066797  0.46416580  0.19881682
   0.65827910  0.34962293 -0.00478795
   0.37546663  0.71786546  0.60408502
   0.13181989  0.27354171  0.39956711
   0.83530110  0.66761040  0.00092877
   0.91700630  0.88086579  0.79918341
   0.56303413  0.13850771  0.19318549
   0.40887985  0.78725261  0.19733679
   0.43458185  0.84741731  0.79538313
   0.30255091  0.60060245  0.40682828
   0.85715219  0.72968236  0.60112823
   0.46598736  0.92791740  0.40831789
   0.16494646  0.34235029  0.00599374
   0.28337708  0.52171340  0.79811468
   0.18956405  0.39379943  0.59388522
   0.06310451  0.14693169  0.20622148
   0.77937074  0.52730722  0.80620882
   0.69473916  0.41613195  0.60293672
   0.53954289  0.06868321  0.60756192
   0.34137685  0.64796493 -0.00222691
   0.22764184  0.47266088  0.19893414
Nb - Mo - Ta - Ti - V SQS               
           1
    -3.117428   -3.111139   -3.187351
     1.566103    1.500429   -7.921284
     7.993403   -7.933154   -1.638077
   Nb   Mo   Ta   Ti   V 
   6   6   6   6   5
Direct configuration=     7
   0.95568733  0.93541190  0.39751590
   0.63074505  0.26559897  0.40317941
   0.50307979  0.00792523 -0.01538136
   0.00395009  0.00147114  0.00535209
   0.08725217  0.21088335  0.79566083
   0.04422718  0.07067538  0.59298077
   0.90411916  0.79462811  0.20140029
   0.80712806  0.59113042  0.40014257
   0.73040500  0.46377110  0.19911442
   0.65745285  0.35032227 -0.00522960
   0.37563619  0.71684521  0.60412964
   0.13166415  0.27320630  0.39947955
   0.83503081  0.66903714  0.00073456
   0.91562799  0.88175325  0.79915196
   0.56318903  0.13833665  0.19317150
   0.40904201  0.78766983  0.19720962
   0.43384445  0.84716506  0.79554379
   0.30292378  0.60051521  0.40722822
   0.85700602  0.72973255  0.60123091
   0.46583507  0.92757498  0.40842331
   0.16529312  0.34271270  0.00602093
   0.28473118  0.52059364  0.79800054
   0.18921317  0.39358693  0.59370347
   0.06287637  0.14718397  0.20660028
   0.78003474  0.52685368  0.80657112
   0.69416198  0.41694491  0.60332842
   0.54021682  0.06872016  0.60820216
   0.34205397  0.64674618 -0.00244875
   0.22757247  0.47300377  0.19898347
Nb - Mo - Ta - Ti - V SQS               
           1
    -3.128506   -3.123054   -3.197293
     1.570789    1.496281   -7.935477
     8.022603   -7.958460   -1.648916
   Nb   Mo   Ta   Ti   V 
   6   6   6   6   5
Direct configuration=     8
   0.95635014  0.93460892  0.39773557
   0.63077893  0.26508702  0.40348178
   0.50305939  0.01004105 -0.01638842
   0.00436433  0.00248331  0.00501848
   0.08653674  0.20986510  0.79593765
   0.04480942  0.06946482  0.59342608
   0.90403369  0.79570621  0.20110414
   0.80637308  0.59264076  0.40031393
   0.72931518  0.46642818  0.19876303
   0.65859050  0.34969070 -0.00541544
   0.37438559  0.71721436  0.60462914
   0.13258527  0.27249342  0.39932241
   0.83516629  0.66824515  0.00087367
   0.91378899  0.88324954  0.79787464
   0.56336843  0.13693062  0.19288763
   0.40850503  0.78872656  0.19735408
   0.43184685  0.84719735  0.79564864
   0.30209612  0.60008792  0.40584768
   0.85735865  0.73014531  0.60164505
   0.46581444  0.92739895  0.40788078
   0.16471159  0.34358179  0.00546490
   0.28809060  0.51676970  0.79776723
   0.18966385  0.39311225  0.59411400
   0.06276481  0.14666001  0.20683251
   0.77959256  0.52735374  0.80698213
   0.69308432  0.41629622  0.60442896
   0.54171508  0.06894333  0.60935465
   0.34339638  0.64682467 -0.00261641
   0.22785376  0.47275307  0.19973151
Nb - Mo - Ta - Ti - V SQS               
           1
    -3.128812   -3.123383   -3.197568
     1.570919    1.496166   -7.935869
     8.023410   -7.959160   -1.649216
   Nb   Mo   Ta   Ti   V 
   6   6   6   6   5
Direct configuration=     9
   0.95636841  0.93458675  0.39774163
   0.63077987  0.26507288  0.40349012
   0.50305878  0.01009948 -0.01641620
   0.00437572  0.00251126  0.00500927
   0.08651705  0.20983698  0.79594529
   0.04482548  0.06943140  0.59343836
   0.90403132  0.79573598  0.20109596
   0.80635226  0.59268244  0.40031863
   0.72928511  0.46650153  0.19875331
   0.65862185  0.34967327 -0.00542055
   0.37435114  0.71722453  0.60464290
   0.13261066  0.27247375  0.39931809
   0.83517003  0.66822329  0.00087752
   0.91373830  0.88329086  0.79783943
   0.56337339  0.13689181  0.19287983
   0.40849022  0.78875572  0.19735805
   0.43179182  0.84719822  0.79565153
   0.30207331  0.60007615  0.40580965
   0.85736836  0.73015670  0.60165646
   0.46581387  0.92739410  0.40786584
   0.16469556  0.34360579  0.00544957
   0.28818320  0.51666416  0.79776085
   0.18967627  0.39309914  0.59412532
   0.06276175  0.14664554  0.20683891
   0.77958037  0.52736754  0.80699345
   0.69305466  0.41627828  0.60445930
   0.54175636  0.06894947  0.60938640
   0.34343336  0.64682685 -0.00262104
   0.22786152  0.47274614  0.19975212
Nb - Mo - Ta - Ti - V SQS               
           1
    -3.125682   -3.121159   -3.193023
     1.569281    1.488417   -7.917994
     8.016383   -7.949982   -1.651278
   Nb   Mo   Ta   Ti   V 
   6   6   6   6   5
Direct configuration=    10
   0.95682177  0.93403952  0.39783969
   0.63087978  0.26481141  0.40364260
   0.50312909  0.01142963 -0.01696648
   0.00456036  0.00313005  0.00468881
   0.08594761  0.20918353  0.79614630
   0.04527986  0.06869056  0.59360386
   0.90395928  0.79644942  0.20089108
   0.80588882  0.59337518  0.40038445
   0.72868606  0.46813265  0.19857120
   0.65947752  0.34928956 -0.00539492
   0.37363579  0.71745971  0.60488330
   0.13300929  0.27223432  0.39926399
   0.83518157  0.66787204  0.00091080
   0.91246254  0.88396564  0.79714777
   0.56352153  0.13610373  0.19270700
   0.40829066  0.78947102  0.19738107
   0.43074240  0.84728430  0.79573215
   0.30151881  0.59981167  0.40503603
   0.85745144  0.73042973  0.60191044
   0.46585112  0.92734630  0.40750676
   0.16425085  0.34414136  0.00516091
   0.29057832  0.51403698  0.79759850
   0.18995302  0.39275003  0.59430750
   0.06257051  0.14643912  0.20694802
   0.77909039  0.52774232  0.80727121
   0.69226571  0.41572861  0.60518659
   0.54270131  0.06910313  0.61013397
   0.34424403  0.64699979 -0.00269986
   0.22805057  0.47254869  0.20020726
Nb - Mo - Ta - Ti - V SQS               
           1
    -3.121918   -3.118483   -3.187556
     1.567310    1.479096   -7.896495
     8.007930   -7.938942   -1.653757
   Nb   Mo   Ta   Ti   V 
   6   6   6   6   5
Direct configuration=    11
   0.95736781  0.93337973  0.39795799
   0.63100018  0.26449605  0.40382631
   0.50321319  0.01303386 -0.01762968
   0.00478240  0.00387642  0.00430266
   0.08526228  0.20839536  0.79638867
   0.04582723  0.06779727  0.59380346
   0.90387226  0.79730979  0.20064406
   0.80533060  0.59421032  0.40046341
   0.72796420  0.47009940  0.19835119
   0.66050788  0.34882709 -0.00536394
   0.37277447  0.71774297  0.60517268
   0.13348931  0.27194575  0.39919894
   0.83519559  0.66744850  0.00095104
   0.91092622  0.88477940  0.79631474
   0.56370014  0.13515361  0.19249927
   0.40805013  0.79033344  0.19740846
   0.42947890  0.84738778  0.79582925
   0.30085120  0.59949310  0.40410472
   0.85755140  0.73075881  0.60221611
   0.46589595  0.92728890  0.40707444
   0.16371520  0.34478722  0.00481313
   0.29346292  0.51086985  0.79740409
   0.19028636  0.39232903  0.59452700
   0.06234036  0.14619010  0.20707950
   0.77850037  0.52819394  0.80760549
   0.69131612  0.41506517  0.60606261
   0.54383904  0.06928817  0.61103394
   0.34521999  0.64720856 -0.00279492
   0.22827831  0.47231038  0.20075537
Nb - Mo - Ta - Ti - V SQS               
           1
    -3.122638   -3.119995   -3.187216
     1.567630    1.475612   -7.891501
     8.011285   -7.941472   -1.656346
   Nb   Mo   Ta   Ti   V 
   6   6   6   6   5
Direct configuration=    12
   0.95759940  0.93313916  0.39796501
   0.63129368  0.26442391  0.40379964
   0.50341775  0.01382805 -0.01808228
   0.00496526  0.00417379  0.00396065
   0.08449514  0.20821719  0.79646586
   0.04620819  0.06755313  0.59359197
   0.90377615  0.79772427  0.20039781
   0.80492457  0.59413715  0.40052122
   0.72804779  0.47023530  0.19852763
   0.66079539  0.34878528 -0.00523855
   0.37271816  0.71752179  0.60510770
   0.13329145  0.27207125  0.39923272
   0.83524122  0.66807187  0.00072775
   0.90993483  0.88469306  0.79619239
   0.56377210  0.13511228  0.19254819
   0.40790005  0.79120653  0.19713505
   0.42909567  0.84753567  0.79602420
   0.30076651  0.59937427  0.40418487
   0.85740823  0.73076406  0.60230583
   0.46599726  0.92734720  0.40694694
   0.16361917  0.34496437  0.00481818
   0.29554694  0.50866671  0.79729961
   0.19031414  0.39209693  0.59454922
   0.06204044  0.14640730  0.20705026
   0.77811070  0.52829142  0.80772217
   0.69057869  0.41444309  0.60664781
   0.54429213  0.06956205  0.61160619
   0.34545517  0.64738276 -0.00283328
   0.22839382  0.47227015  0.20082524
Nb - Mo - Ta - Ti - V SQS               
           1
    -3.124800   -3.124528   -3.186196
     1.568587    1.465159   -7.876519
     8.021352   -7.949061   -1.664112
   Nb   Mo   Ta   Ti   V 
   6   6   6   6   5
Direct configuration=    13
   0.95829406  0.93241701  0.39798621
   0.63217395  0.26420747  0.40371967
   0.50403087  0.01621285 -0.01944018
   0.00551355  0.00506691  0.00293476
   0.08219441  0.20768186  0.79669757
   0.04735088  0.06682051  0.59295784
   0.90348773  0.79896877  0.19965904
   0.80370686  0.59391722  0.40069470
   0.72829843  0.47064324  0.19905664
   0.66165772  0.34865984 -0.00486255
   0.37254939  0.71685780  0.60491300
   0.13269797  0.27244789  0.39933396
   0.83537781  0.66994358  0.00005766
   0.90696155  0.88443344  0.79582568
   0.56398792  0.13498819  0.19269490
   0.40744954  0.79382787  0.19631449
   0.42794623  0.84797931  0.79660879
   0.30051258  0.59901743  0.40442534
   0.85697884  0.73077967  0.60257492
   0.46630109  0.92752237  0.40656455
   0.16333109  0.34549615  0.00483321
   0.30179823  0.50205350  0.79698755
   0.19039753  0.39140011  0.59461602
   0.06114084  0.14705924  0.20696247
   0.77694197  0.52858380  0.80807205
   0.68836729  0.41257462  0.60840333
   0.54565091  0.07038411  0.61332205
   0.34616045  0.64790587 -0.00294848
   0.22874030  0.47214934  0.20103479
Nb - Mo - Ta - Ti - V SQS               
           1
    -3.125478   -3.125951   -3.185875
     1.568888    1.461878   -7.871815
     8.024513   -7.951443   -1.666550
   Nb   Mo   Ta   Ti   V 
   6   6   6   6   5
Direct configuration=    14
   0.95851207  0.93218989  0.39799299
   0.63245011  0.26413953  0.40369460
   0.50422286  0.01696365 -0.01986659
   0.00568541  0.00534827  0.00261281
   0.08147277  0.20751301  0.79677047
   0.04770943  0.06659032  0.59275909
   0.90339707  0.79936049  0.19942709
   0.80332491  0.59384779  0.40074921
   0.72837700  0.47077151  0.19922243
   0.66192824  0.34862041 -0.00474464
   0.37249654  0.71664890  0.60485210
   0.13251174  0.27256629  0.39936565
   0.83542040  0.67053270 -0.00015292
   0.90602890  0.88435137  0.79571088
   0.56405564  0.13494915  0.19274093
   0.40730785  0.79465281  0.19605658
   0.42758561  0.84811858  0.79679208
   0.30043298  0.59890505  0.40450085
   0.85684415  0.73078445  0.60265932
   0.46639637  0.92757762  0.40644457
   0.16324065  0.34566343  0.00483782
   0.30376011  0.49997370  0.79689090
   0.19042379  0.39118085  0.59463713
   0.06085855  0.14726426  0.20693483
   0.77657532  0.52867553  0.80818177
   0.68767387  0.41198595  0.60895440
   0.54607704  0.07064257  0.61385990
   0.34638161  0.64807060 -0.00298476
   0.22884900  0.47211133  0.20110051
Nb - Mo - Ta - Ti - V SQS               
           1
    -3.127840   -3.127778   -3.188648
     1.571121    1.464207   -7.881143
     8.032150   -7.957595   -1.668069
   Nb   Mo   Ta   Ti   V 
   6   6   6   6   5
Direct configuration=    15
   0.95868387  0.93232040  0.39775172
   0.63220431  0.26410281  0.40386847
   0.50423358  0.01786823 -0.02033033
   0.00586192  0.00542803  0.00253178
   0.07959198  0.20807947  0.79647730
   0.04818474  0.06626057  0.59264022
   0.90387978  0.79929730  0.19921921
   0.80347374  0.59347188  0.40072218
   0.72850064  0.47058832  0.19912435
   0.66148071  0.34943810 -0.00426998
   0.37326562  0.71586952  0.60493047
   0.13225382  0.27300226  0.39930609
   0.83513670  0.67111404  0.00000213
   0.90703924  0.88347881  0.79559125
   0.56379620  0.13587423  0.19291127
   0.40794416  0.79446889  0.19582741
   0.42653284  0.84813040  0.79663725
   0.30057912  0.59937587  0.40482579
   0.85628653  0.73029415  0.60241244
   0.46654440  0.92755581  0.40660280
   0.16365604  0.34581004  0.00519902
   0.30601659  0.49753589  0.79698966
   0.18978041  0.39079589  0.59471844
   0.06055148  0.14812615  0.20682103
   0.77668922  0.52833496  0.80816083
   0.68694226  0.41105461  0.60919601
   0.54595790  0.07143089  0.61417096
   0.34629423  0.64822126 -0.00296352
   0.22863796  0.47267122  0.20092576
Nb - Mo - Ta - Ti - V SQS               
           1
    -3.130110   -3.129534   -3.191314
     1.573268    1.466447   -7.890109
     8.039492   -7.963510   -1.669528
   Nb   Mo   Ta   Ti   V 
   6   6   6   6   5
Direct configuration=    16
   0.95884888  0.93244571  0.39751998
   0.63196820  0.26406755  0.40403547
   0.50424391  0.01873680 -0.02077574
   0.00603147  0.00550461  0.00245395
   0.07778519  0.20862352  0.79619565
   0.04864129  0.06594393  0.59252605
   0.90434346  0.79923662  0.19901955
   0.80361667  0.59311095  0.40069622
   0.72861937  0.47041244  0.19903015
   0.66105098  0.35022320 -0.00381406
   0.37400436  0.71512114  0.60500576
   0.13200609  0.27342089  0.39924889
   0.83486426  0.67167223  0.00015104
   0.90800971  0.88264095  0.79547636
   0.56354710  0.13676245  0.19307488
   0.40855538  0.79429227  0.19560731
   0.42552146  0.84814184  0.79648851
   0.30071962  0.59982790  0.40513790
   0.85575074  0.72982345  0.60217528
   0.46668663  0.92753485  0.40675478
   0.16405517  0.34595075  0.00554598
   0.30818403  0.49519505  0.79708455
   0.18916230  0.39042631  0.59479652
   0.06025658  0.14895373  0.20671172
   0.77679860  0.52800795  0.80814073
   0.68623936  0.41016041  0.60942804
   0.54584359  0.07218777  0.61446975
   0.34621031  0.64836593 -0.00294311
   0.22843526  0.47320882  0.20075791
Nb - Mo - Ta - Ti - V SQS               
           1
    -3.128045   -3.126845   -3.189082
     1.572738    1.467047   -7.886913
     8.034295   -7.957519   -1.667629
   Nb   Mo   Ta   Ti   V 
   6   6   6   6   5
Direct configuration=    17
   0.95892066  0.93255267  0.39736564
   0.63174545  0.26411209  0.40416101
   0.50423887  0.01916762 -0.02101925
   0.00608270  0.00556330  0.00246263
   0.07654534  0.20892413  0.79606003
   0.04888339  0.06571442  0.59248232
   0.90464093  0.79923153  0.19895023
   0.80380809  0.59296318  0.40063672
   0.72862237  0.47042845  0.19896471
   0.66081806  0.35072824 -0.00351342
   0.37436503  0.71467495  0.60507433
   0.13186407  0.27365313  0.39922108
   0.83465141  0.67191999  0.00024988
   0.90860364  0.88200426  0.79543228
   0.56338759  0.13727599  0.19314896
   0.40896291  0.79410152  0.19552382
   0.42526425  0.84809309  0.79633036
   0.30080864  0.60007084  0.40527676
   0.85544555  0.72953093  0.60200118
   0.46680093  0.92752050  0.40683593
   0.16434216  0.34605976  0.00575166
   0.30940375  0.49389362  0.79720115
   0.18870828  0.39025069  0.59481093
   0.06014355  0.14942329  0.20666156
   0.77692028  0.52780071  0.80813319
   0.68588639  0.40963373  0.60945581
   0.54576349  0.07260217  0.61460890
   0.34608280  0.64848426 -0.00294217
   0.22828944  0.47362095  0.20067377
Nb - Mo - Ta - Ti - V SQS               
           1
    -3.124383   -3.122078   -3.185125
     1.571799    1.468111   -7.881246
     8.025083   -7.946901   -1.664263
   Nb   Mo   Ta   Ti   V 
   6   6   6   6   5
Direct configuration=    18
   0.95904797  0.93274230  0.39709190
   0.63135038  0.26419108  0.40438369
   0.50422999  0.01993148 -0.02145114
   0.00617358  0.00566736  0.00247805
   0.07434606  0.20945719  0.79581941
   0.04931277  0.06530747  0.59240475
   0.90516858  0.79922248  0.19882730
   0.80414760  0.59270117  0.40053118
   0.72862769  0.47045683  0.19884863
   0.66040511  0.35162376 -0.00298011
   0.37500470  0.71388379  0.60519594
   0.13161221  0.27406493  0.39917178
   0.83427394  0.67235932  0.00042520
   0.90965698  0.88087530  0.79535406
   0.56310480  0.13818657  0.19328041
   0.40968572  0.79376328  0.19537573
   0.42480792  0.84800665  0.79604983
   0.30096665  0.60050162  0.40552310
   0.85490405  0.72901227  0.60169231
   0.46700371  0.92749507  0.40697987
   0.16485131  0.34625304  0.00611653
   0.31156701  0.49158600  0.79740791
   0.18790286  0.38993933  0.59483644
   0.05994317  0.15025587  0.20657263
   0.77713607  0.52743323  0.80811981
   0.68526012  0.40869987  0.60950498
   0.54562155  0.07333697  0.61485578
   0.34585664  0.64869408 -0.00294051
   0.22803086  0.47435170  0.20052456
Nb - Mo - Ta - Ti - V SQS               
           1
    -3.124584   -3.121706   -3.184236
     1.571779    1.469439   -7.880403
     8.024243   -7.945745   -1.662677
   Nb   Mo   Ta   Ti   V 
   6   6   6   6   5
Direct configuration=    19
   0.95903431  0.93281424  0.39708032
   0.63124899  0.26429701  0.40445180
   0.50418994  0.02004077 -0.02154670
   0.00613692  0.00578333  0.00250548
   0.07363643  0.20939662  0.79588883
   0.04930996  0.06516152  0.59242276
   0.90521207  0.79938570  0.19886915
   0.80422771  0.59287706  0.40046780
   0.72857820  0.47067008  0.19889190
   0.66049676  0.35166536 -0.00289863
   0.37482842  0.71381542  0.60522188
   0.13160152  0.27401113  0.39919591
   0.83424865  0.67236301  0.00035499
   0.90971528  0.88044084  0.79537466
   0.56304948  0.13823037  0.19328185
   0.40971583  0.79382440  0.19539278
   0.42533906  0.84791410  0.79598472
   0.30097660  0.60043241  0.40547123
   0.85495248  0.72891546  0.60161311
   0.46711301  0.92751746  0.40694533
   0.16497222  0.34631090  0.00612107
   0.31187752  0.49118646  0.79752363
   0.18768027  0.38998090  0.59482044
   0.06006148  0.15023540  0.20658136
   0.77724036  0.52740833  0.80811420
   0.68526874  0.40846446  0.60939177
   0.54563381  0.07339450  0.61490029
   0.34564205  0.64889059 -0.00297199
   0.22801191  0.47457216  0.20055008
Nb - Mo - Ta - Ti - V SQS               
           1
    -3.125184   -3.120591   -3.181571
     1.571717    1.473426   -7.877874
     8.021723   -7.942279   -1.657917
   Nb   Mo   Ta   Ti   V 
   6   6   6   6   5
Direct configuration=    20
   0.95899339  0.93303006  0.39704559
   0.63094490  0.26461478  0.40465619
   0.50406980  0.02036860 -0.02183339
   0.00602704  0.00613126  0.00258783
   0.07150736  0.20921475  0.79609700
   0.04930145  0.06472368  0.59247676
   0.90534269  0.79987539  0.19899477
   0.80446815  0.59340474  0.40027767
   0.72842990  0.47130984  0.19902178
   0.66077177  0.35179020 -0.00265413
   0.37429954  0.71361029  0.60529967
   0.13156943  0.27384972  0.39926832
   0.83417275  0.67237405  0.00014430
   0.90988992  0.87913747  0.79543638
   0.56288356  0.13836178  0.19328619
   0.40980621  0.79400776  0.19544398
   0.42693251  0.84763656  0.79578939
   0.30100639  0.60022478  0.40531558
   0.85509769  0.72862503  0.60137546
   0.46744093  0.92758463  0.40684171
   0.16533501  0.34648452  0.00613471
   0.31280890  0.48998795  0.79787074
   0.18701248  0.39010558  0.59477241
   0.06041639  0.15017402  0.20660756
   0.77755323  0.52733365  0.80809736
   0.68529442  0.40775821  0.60905202
   0.54567063  0.07356712  0.61503387
   0.34499835  0.64948004 -0.00306640
   0.22795520  0.47523355  0.20062670
Nb - Mo - Ta - Ti - V SQS               
           1
    -3.126384   -3.118362   -3.176241
     1.571593    1.481399   -7.872814
     8.016682   -7.935345   -1.648397
   Nb   Mo   Ta   Ti   V 
   6   6   6   6   5
Direct configuration=    21
   0.95891177  0.93346165  0.39697621
   0.63033714  0.26525036  0.40506521
   0.50382971  0.02102398 -0.02240684
   0.00580772  0.00682714  0.00275274
   0.06724830  0.20885016  0.79651295
   0.04928390  0.06384802  0.59258458
   0.90560468  0.80085493  0.19924638
   0.80494965  0.59446007  0.39989760
   0.72813413  0.47258941  0.19928192
   0.66132223  0.35204022 -0.00216483
   0.37324135  0.71319983  0.60545508
   0.13150507  0.27352695  0.39941309
   0.83402081  0.67239593 -0.00027723
   0.91023766  0.87653084  0.79555923
   0.56255181  0.13862452  0.19329489
   0.40998727  0.79437456  0.19554652
   0.43011956  0.84708206  0.79539877
   0.30106562  0.59980939  0.40500406
   0.85538764  0.72804405  0.60089986
   0.46809691  0.92771906  0.40663451
   0.16606096  0.34683193  0.00616217
   0.31467073  0.48759160  0.79856482
   0.18567675  0.39035458  0.59467626
   0.06112631  0.15005144  0.20666003
   0.77817899  0.52718443  0.80806369
   0.68534466  0.40634544  0.60837194
   0.54574460  0.07391248  0.61530123
   0.34371139  0.65065858 -0.00325513
   0.22784265  0.47655638  0.20078031
Nb - Mo - Ta - Ti - V SQS               
           1
    -3.130188   -3.123838   -3.181082
     1.573516    1.481988   -7.882848
     8.025448   -7.946888   -1.652284
   Nb   Mo   Ta   Ti   V 
   6   6   6   6   5
Direct configuration=    22
   0.95918361  0.93343556  0.39712798
   0.63062334  0.26504555  0.40487632
   0.50413139  0.02110395 -0.02252554
   0.00571552  0.00659298  0.00264096
   0.06667073  0.20852127  0.79645916
   0.04925402  0.06370577  0.59271725
   0.90534612  0.80105033  0.19898425
   0.80446837  0.59435290  0.39998738
   0.72848847  0.47243878  0.19925982
   0.66116063  0.35209038 -0.00212500
   0.37365577  0.71300718  0.60527749
   0.13147507  0.27354804  0.39947991
   0.83397564  0.67247179  0.00002179
   0.91206704  0.87642991  0.79559627
   0.56285219  0.13872415  0.19341119
   0.40977302  0.79486372  0.19541089
   0.42837059  0.84721822  0.79546030
   0.30109499  0.60013181  0.40509837
   0.85533948  0.72806569  0.60082327
   0.46779037  0.92791774  0.40663232
   0.16588340  0.34676149  0.00620612
   0.31466367  0.48754177  0.79842310
   0.18570251  0.39005762  0.59480880
   0.06095194  0.15015081  0.20678799
   0.77834854  0.52706781  0.80794976
   0.68520503  0.40649226  0.60833693
   0.54578713  0.07394515  0.61541715
   0.34405694  0.65075296 -0.00323655
   0.22796449  0.47651438  0.20069234
Nb - Mo - Ta - Ti - V SQS               
           1
    -3.130262   -3.123945   -3.181177
     1.573553    1.481999   -7.883044
     8.025619   -7.947114   -1.652360
   Nb   Mo   Ta   Ti   V 
   6   6   6   6   5
Direct configuration=    23
   0.95918891  0.93343505  0.39713093
   0.63062893  0.26504156  0.40487263
   0.50413727  0.02110551 -0.02252785
   0.00571373  0.00658841  0.00263878