  29  29   0   0
  0.1632129E+02  0.5473281E-09  0.8209921E-09  0.1128346E-08  0.5000000E-15
  1.000000000000000E-004
  CAR 
 Nb - Mo - Ta - Ti - V SQS               
     11.61342882    -50.33241498  301      6.64907000      1.00000000
    -50.332  0.0000E+00  0.0000E+00
    -50.126  0.0000E+00  0.0000E+00
    -49.919  0.0000E+00  0.0000E+00
    -49.713  0.0000E+00  0.0000E+00
    -49.506  0.0000E+00  0.0000E+00
    -49.300 -0.1377E-34 -0.2844E-35
    -49.093 -0.4178E-27 -0.8628E-28
    -48.887 -0.1478E-20 -0.3052E-21
    -48.681 -0.5852E-15 -0.1208E-15
    -48.474 -0.2745E-10 -0.5667E-11
    -48.268 -0.1439E-06 -0.2972E-07
    -48.061 -0.8211E-04 -0.1698E-04
    -47.855 -0.4593E-02 -0.9653E-03
    -47.648 -0.1161E-02 -0.1205E-02
    -47.442  0.2630E+00  0.5310E-01
    -47.235  0.5265E+00  0.1618E+00
    -47.029  0.3578E+00  0.2357E+00
    -46.822  0.2977E-01  0.2419E+00
    -46.616 -0.8729E-02  0.2400E+00
    -46.409 -0.2413E-03  0.2400E+00
    -46.203 -0.5963E-06  0.2400E+00
    -45.996 -0.1616E-09  0.2400E+00
    -45.790 -0.5023E-14  0.2400E+00
    -45.583  0.0000E+00  0.2400E+00
    -45.377  0.0000E+00  0.2400E+00
    -45.170  0.0000E+00  0.2400E+00
    -44.964  0.0000E+00  0.2400E+00
    -44.757  0.0000E+00  0.2400E+00
    -44.551  0.0000E+00  0.2400E+00
    -44.344  0.0000E+00  0.2400E+00
    -44.138  0.0000E+00  0.2400E+00
    -43.931  0.0000E+00  0.2400E+00
    -43.725  0.0000E+00  0.2400E+00
    -43.518  0.0000E+00  0.2400E+00
    -43.312  0.0000E+00  0.2400E+00
    -43.105  0.0000E+00  0.2400E+00
    -42.899  0.0000E+00  0.2400E+00
    -42.692  0.0000E+00  0.2400E+00
    -42.486  0.0000E+00  0.2400E+00
    -42.279  0.0000E+00  0.2400E+00
    -42.073  0.0000E+00  0.2400E+00
    -41.866  0.0000E+00  0.2400E+00
    -41.660  0.0000E+00  0.2400E+00
    -41.454  0.0000E+00  0.2400E+00
    -41.247  0.0000E+00  0.2400E+00
    -41.041  0.0000E+00  0.2400E+00
    -40.834  0.0000E+00  0.2400E+00
    -40.628  0.0000E+00  0.2400E+00
    -40.421  0.0000E+00  0.2400E+00
    -40.215  0.0000E+00  0.2400E+00
    -40.008  0.0000E+00  0.2400E+00
    -39.802  0.0000E+00  0.2400E+00
    -39.595  0.0000E+00  0.2400E+00
    -39.389  0.0000E+00  0.2400E+00
    -39.182  0.0000E+00  0.2400E+00
    -38.976  0.0000E+00  0.2400E+00
    -38.769  0.0000E+00  0.2400E+00
    -38.563  0.0000E+00  0.2400E+00
    -38.356  0.0000E+00  0.2400E+00
    -38.150  0.0000E+00  0.2400E+00
    -37.943  0.0000E+00  0.2400E+00
    -37.737  0.0000E+00  0.2400E+00
    -37.530  0.0000E+00  0.2400E+00
    -37.324  0.0000E+00  0.2400E+00
    -37.117  0.0000E+00  0.2400E+00
    -36.911  0.0000E+00  0.2400E+00
    -36.704  0.0000E+00  0.2400E+00
    -36.498  0.0000E+00  0.2400E+00
    -36.291  0.0000E+00  0.2400E+00
    -36.085  0.0000E+00  0.2400E+00
    -35.878  0.0000E+00  0.2400E+00
    -35.672  0.0000E+00  0.2400E+00
    -35.465  0.0000E+00  0.2400E+00
    -35.259  0.0000E+00  0.2400E+00
    -35.052  0.0000E+00  0.2400E+00
    -34.846  0.0000E+00  0.2400E+00
    -34.639  0.0000E+00  0.2400E+00
    -34.433  0.0000E+00  0.2400E+00
    -34.226  0.0000E+00  0.2400E+00
    -34.020  0.0000E+00  0.2400E+00
    -33.814  0.0000E+00  0.2400E+00
    -33.607  0.0000E+00  0.2400E+00
    -33.401  0.0000E+00  0.2400E+00
    -33.194  0.0000E+00  0.2400E+00
    -32.988  0.0000E+00  0.2400E+00
    -32.781  0.0000E+00  0.2400E+00
    -32.575  0.0000E+00  0.2400E+00
    -32.368  0.0000E+00  0.2400E+00
    -32.162  0.0000E+00  0.2400E+00
    -31.955  0.0000E+00  0.2400E+00
    -31.749  0.0000E+00  0.2400E+00
    -31.542  0.0000E+00  0.2400E+00
    -31.336  0.0000E+00  0.2400E+00
    -31.129  0.0000E+00  0.2400E+00
    -30.923  0.0000E+00  0.2400E+00
    -30.716  0.0000E+00  0.2400E+00
    -30.510  0.0000E+00  0.2400E+00
    -30.303  0.0000E+00  0.2400E+00
    -30.097  0.0000E+00  0.2400E+00
    -29.890  0.0000E+00  0.2400E+00
    -29.684  0.0000E+00  0.2400E+00
    -29.477  0.0000E+00  0.2400E+00
    -29.271  0.0000E+00  0.2400E+00
    -29.064  0.0000E+00  0.2400E+00
    -28.858  0.0000E+00  0.2400E+00
    -28.651  0.0000E+00  0.2400E+00
    -28.445  0.0000E+00  0.2400E+00
    -28.238  0.0000E+00  0.2400E+00
    -28.032  0.0000E+00  0.2400E+00
    -27.825  0.0000E+00  0.2400E+00
    -27.619  0.0000E+00  0.2400E+00
    -27.412  0.0000E+00  0.2400E+00
    -27.206  0.0000E+00  0.2400E+00
    -26.999  0.0000E+00  0.2400E+00
    -26.793  0.0000E+00  0.2400E+00
    -26.587  0.0000E+00  0.2400E+00
    -26.380  0.0000E+00  0.2400E+00
    -26.174  0.0000E+00  0.2400E+00
    -25.967  0.0000E+00  0.2400E+00
    -25.761 -0.1833E-28  0.2400E+00
    -25.554 -0.9552E-22  0.2400E+00
    -25.348 -0.5854E-16  0.2400E+00
    -25.141 -0.4026E-11  0.2400E+00
    -24.935 -0.3250E-07  0.2400E+00
    -24.728 -0.2881E-04  0.2400E+00
    -24.522 -0.2451E-02  0.2395E+00
    -24.315 -0.3087E-02  0.2389E+00
    -24.109  0.1493E+00  0.2697E+00
    -23.902  0.2574E+00  0.3228E+00
    -23.696  0.4371E+00  0.4131E+00
    -23.489  0.8796E+00  0.5947E+00
    -23.283  0.8698E+00  0.7743E+00
    -23.076  0.5735E+00  0.8927E+00
    -22.870  0.2682E+00  0.9481E+00
    -22.663  0.6029E-01  0.9605E+00
    -22.457 -0.1288E-02  0.9603E+00
    -22.250 -0.1321E-02  0.9600E+00
    -22.044 -0.2650E-04  0.9600E+00
    -21.837 -0.5379E-07  0.9600E+00
    -21.631 -0.1232E-10  0.9600E+00
    -21.424 -0.3257E-15  0.9600E+00
    -21.218  0.0000E+00  0.9600E+00
    -21.011  0.0000E+00  0.9600E+00
    -20.805  0.0000E+00  0.9600E+00
    -20.598  0.0000E+00  0.9600E+00
    -20.392  0.0000E+00  0.9600E+00
    -20.185  0.0000E+00  0.9600E+00
    -19.979  0.0000E+00  0.9600E+00
    -19.772  0.0000E+00  0.9600E+00
    -19.566  0.0000E+00  0.9600E+00
    -19.359  0.0000E+00  0.9600E+00
    -19.153  0.0000E+00  0.9600E+00
    -18.947  0.0000E+00  0.9600E+00
    -18.740  0.0000E+00  0.9600E+00
    -18.534  0.0000E+00  0.9600E+00
    -18.327  0.0000E+00  0.9600E+00
    -18.121  0.0000E+00  0.9600E+00
    -17.914  0.0000E+00  0.9600E+00
    -17.708  0.0000E+00  0.9600E+00
    -17.501  0.0000E+00  0.9600E+00
    -17.295  0.0000E+00  0.9600E+00
    -17.088  0.0000E+00  0.9600E+00
    -16.882  0.0000E+00  0.9600E+00
    -16.675  0.0000E+00  0.9600E+00
    -16.469  0.0000E+00  0.9600E+00
    -16.262  0.0000E+00  0.9600E+00
    -16.056  0.0000E+00  0.9600E+00
    -15.849  0.0000E+00  0.9600E+00
    -15.643  0.0000E+00  0.9600E+00
    -15.436  0.0000E+00  0.9600E+00
    -15.230  0.0000E+00  0.9600E+00
    -15.023  0.0000E+00  0.9600E+00
    -14.817  0.0000E+00  0.9600E+00
    -14.610  0.0000E+00  0.9600E+00
    -14.404  0.0000E+00  0.9600E+00
    -14.197  0.0000E+00  0.9600E+00
    -13.991  0.0000E+00  0.9600E+00
    -13.784  0.0000E+00  0.9600E+00
    -13.578  0.0000E+00  0.9600E+00
    -13.371  0.0000E+00  0.9600E+00
    -13.165  0.0000E+00  0.9600E+00
    -12.958  0.0000E+00  0.9600E+00
    -12.752  0.0000E+00  0.9600E+00
    -12.545  0.0000E+00  0.9600E+00
    -12.339  0.0000E+00  0.9600E+00
    -12.132  0.0000E+00  0.9600E+00
    -11.926  0.0000E+00  0.9600E+00
    -11.720  0.0000E+00  0.9600E+00
    -11.513  0.0000E+00  0.9600E+00
    -11.307  0.0000E+00  0.9600E+00
    -11.100  0.0000E+00  0.9600E+00
    -10.894  0.0000E+00  0.9600E+00
    -10.687  0.0000E+00  0.9600E+00
    -10.481  0.0000E+00  0.9600E+00
    -10.274  0.0000E+00  0.9600E+00
    -10.068  0.0000E+00  0.9600E+00
     -9.861  0.0000E+00  0.9600E+00
     -9.655  0.0000E+00  0.9600E+00
     -9.448  0.0000E+00  0.9600E+00
     -9.242  0.0000E+00  0.9600E+00
     -9.035  0.0000E+00  0.9600E+00
     -8.829  0.0000E+00  0.9600E+00
     -8.622  0.0000E+00  0.9600E+00
     -8.416  0.0000E+00  0.9600E+00
     -8.209  0.0000E+00  0.9600E+00
     -8.003  0.0000E+00  0.9600E+00
     -7.796  0.0000E+00  0.9600E+00
     -7.590  0.0000E+00  0.9600E+00
     -7.383  0.0000E+00  0.9600E+00
     -7.177  0.0000E+00  0.9600E+00
     -6.970  0.0000E+00  0.9600E+00
     -6.764  0.0000E+00  0.9600E+00
     -6.557  0.0000E+00  0.9600E+00
     -6.351  0.0000E+00  0.9600E+00
     -6.144  0.0000E+00  0.9600E+00
     -5.938  0.0000E+00  0.9600E+00
     -5.731  0.0000E+00  0.9600E+00
     -5.525  0.0000E+00  0.9600E+00
     -5.318  0.0000E+00  0.9600E+00
     -5.112  0.0000E+00  0.9600E+00
     -4.905  0.0000E+00  0.9600E+00
     -4.699  0.0000E+00  0.9600E+00
     -4.492  0.0000E+00  0.9600E+00
     -4.286  0.0000E+00  0.9600E+00
     -4.080  0.0000E+00  0.9600E+00
     -3.873  0.0000E+00  0.9600E+00
     -3.667  0.0000E+00  0.9600E+00
     -3.460  0.0000E+00  0.9600E+00
     -3.254  0.0000E+00  0.9600E+00
     -3.047  0.0000E+00  0.9600E+00
     -2.841  0.0000E+00  0.9600E+00
     -2.634  0.0000E+00  0.9600E+00
     -2.428  0.0000E+00  0.9600E+00
     -2.221  0.0000E+00  0.9600E+00
     -2.015  0.0000E+00  0.9600E+00
     -1.808 -0.1825E-31  0.9600E+00
     -1.602 -0.1205E-24  0.9600E+00
     -1.395 -0.9459E-19  0.9600E+00
     -1.189 -0.8523E-14  0.9600E+00
     -0.982 -0.9391E-10  0.9600E+00
     -0.776 -0.1236E-06  0.9600E+00
     -0.569 -0.1934E-04  0.9600E+00
     -0.363 -0.3065E-03  0.9599E+00
     -0.156  0.1406E-02  0.9602E+00
      0.050  0.1417E-01  0.9631E+00
      0.257  0.2493E-01  0.9683E+00
      0.463  0.3061E-01  0.9746E+00
      0.670  0.4236E-01  0.9834E+00
      0.876  0.3539E-01  0.9907E+00
      1.083  0.5097E-01  0.1001E+01
      1.289  0.6487E-01  0.1015E+01
      1.496  0.6422E-01  0.1028E+01
      1.702  0.6916E-01  0.1042E+01
      1.909  0.8568E-01  0.1060E+01
      2.115  0.1023E+00  0.1081E+01
      2.322  0.1210E+00  0.1106E+01
      2.528  0.1801E+00  0.1143E+01
      2.735  0.2959E+00  0.1204E+01
      2.941  0.4168E+00  0.1290E+01
      3.147  0.4768E+00  0.1389E+01
      3.354  0.5517E+00  0.1503E+01
      3.560  0.5940E+00  0.1625E+01
      3.767  0.5950E+00  0.1748E+01
      3.973  0.5943E+00  0.1871E+01
      4.180  0.5926E+00  0.1993E+01
      4.386  0.5526E+00  0.2107E+01
      4.593  0.5268E+00  0.2216E+01
      4.799  0.6341E+00  0.2347E+01
      5.006  0.7373E+00  0.2499E+01
      5.212  0.8296E+00  0.2671E+01
      5.419  0.8343E+00  0.2843E+01
      5.625  0.8043E+00  0.3009E+01
      5.832  0.8027E+00  0.3175E+01
      6.038  0.8248E+00  0.3345E+01
      6.245  0.8494E+00  0.3520E+01
      6.451  0.8372E+00  0.3693E+01
      6.658  0.7393E+00  0.3846E+01
      6.864  0.6424E+00  0.3979E+01
      7.071  0.5729E+00  0.4097E+01
      7.277  0.4931E+00  0.4199E+01
      7.484  0.4335E+00  0.4288E+01
      7.690  0.4220E+00  0.4375E+01
      7.897  0.4465E+00  0.4468E+01
      8.103  0.4936E+00  0.4569E+01
      8.310  0.5374E+00  0.4680E+01
      8.516  0.4024E+00  0.4764E+01
      8.723  0.1653E+00  0.4798E+01
      8.929  0.1484E-01  0.4801E+01
      9.136 -0.3412E-02  0.4800E+01
      9.342 -0.2502E-03  0.4800E+01
      9.549 -0.2170E-05  0.4800E+01
      9.755 -0.2510E-08  0.4800E+01
      9.962 -0.3748E-12  0.4800E+01
     10.168 -0.6772E-17  0.4800E+01
     10.375  0.0000E+00  0.4800E+01
     10.581  0.0000E+00  0.4800E+01
     10.787  0.0000E+00  0.4800E+01
     10.994  0.0000E+00  0.4800E+01
     11.200  0.0000E+00  0.4800E+01
     11.407  0.0000E+00  0.4800E+01
     11.613  0.0000E+00  0.4800E+01
