   29   29   50    1
  0.1632129E+02  0.5473281E-09  0.8209921E-09  0.1128346E-08  0.5000000E-15
  1.000000000000000E-004
  CAR 
 Nb - Mo - Ta - Ti - V SQS               
    192    172    120
 
  0.0000000E+00  0.0000000E+00  0.0000000E+00  0.2915452E-02
    1      -47.516695   1.000000
    2      -47.410899   1.000000
    3      -47.382960   1.000000
    4      -47.282560   1.000000
    5      -47.172133   1.000000
    6      -47.112860   1.000000
    7      -24.158617   1.000000
    8      -24.111940   1.000000
    9      -23.902324   1.000000
   10      -23.784792   1.000000
   11      -23.662496   1.000000
   12      -23.655263   1.000000
   13      -23.564852   1.000000
   14      -23.548130   1.000000
   15      -23.502664   1.000000
   16      -23.458296   1.000000
   17      -23.440679   1.000000
   18      -23.380679   1.000000
   19      -23.301786   1.000000
   20      -23.263285   1.000000
   21      -23.164874   1.000000
   22      -23.145574   1.000000
   23      -22.999447   1.000000
   24      -22.771985   1.000000
   25       -0.176259   1.000000
   26        1.122664   1.000000
   27        1.514671   1.000000
   28        2.268210   1.000000
   29        2.383982   1.000000
   30        2.484653   1.000000
   31        2.564830   1.000000
   32        2.718396   1.000000
   33        2.781381   1.000000
   34        2.802199   1.000000
   35        2.932288   1.000000
   36        3.014475   1.000000
   37        3.136901   1.000000
   38        3.141976   1.000000
   39        3.197532   1.000000
   40        3.223931   1.000000
   41        3.295767   1.000000
   42        3.452560   1.000000
   43        3.514236   1.000000
   44        3.563006   1.000000
   45        3.674872   1.000000
   46        3.700677   1.000000
   47        3.825397   1.000000
   48        3.861778   1.000000
   49        3.901321   1.000000
   50        4.003014   1.000000
   51        4.013145   1.000000
   52        4.119855   1.000000
   53        4.128306   1.000000
   54        4.214488   1.000000
   55        4.308329   1.000000
   56        4.463280   1.000000
   57        4.503690   1.000000
   58        4.622735   1.000000
   59        4.657964   1.000000
   60        4.763091   1.000000
   61        4.816833   1.000000
   62        4.904677   1.000000
   63        4.935701   1.000000
   64        4.941980   1.000000
   65        5.030262   1.000000
   66        5.094887   1.000000
   67        5.130132   1.000000
   68        5.167495   1.000000
   69        5.193652   1.000000
   70        5.285635   1.000000
   71        5.330026   1.000000
   72        5.399422   1.000000
   73        5.485424   1.000000
   74        5.518597   1.000000
   75        5.548901   1.000000
   76        5.600881   1.000000
   77        5.718207   1.000000
   78        5.799680   1.000000
   79        5.888338   1.000001
   80        5.889680   1.000001
   81        5.989473   1.000016
   82        6.013621   1.000034
   83        6.118521   1.000570
   84        6.144687   1.001049
   85        6.221533   1.004997
   86        6.225310   1.005345
   87        6.278735   1.012526
   88        6.337278   1.024965
   89        6.381089   1.033719
   90        6.469834   1.010730
   91        6.473995   1.006898
   92        6.580605   0.771739
   93        6.694474   0.313261
   94        6.749747   0.128047
   95        6.782030   0.053022
   96        6.813038   0.005050
   97        6.941418  -0.029319
   98        6.978343  -0.020938
   99        7.042789  -0.008837
  100        7.095938  -0.003491
  101        7.118789  -0.002217
  102        7.255574  -0.000078
  103        7.328988  -0.000008
  104        7.392517  -0.000001
  105        7.488378  -0.000000
  106        7.549692  -0.000000
  107        7.739698  -0.000000
  108        7.839945  -0.000000
  109        7.877458  -0.000000
  110        8.081193  -0.000000
  111        8.171741  -0.000000
  112        8.242101  -0.000000
  113        8.305567  -0.000000
  114        8.368872  -0.000000
  115        8.515594  -0.000000
  116        8.569903  -0.000000
  117        8.608356  -0.000000
  118        8.634763  -0.000000
  119        8.658470  -0.000000
  120        8.702283  -0.000000
 
  0.1428571E+00  0.0000000E+00 -0.1561251E-16  0.5830904E-02
    1      -47.516489   1.000000
    2      -47.406442   1.000000
    3      -47.382533   1.000000
    4      -47.282600   1.000000
    5      -47.172095   1.000000
    6      -47.117593   1.000000
    7      -24.141659   1.000000
    8      -24.071455   1.000000
    9      -23.899848   1.000000
   10      -23.780854   1.000000
   11      -23.663876   1.000000
   12      -23.656068   1.000000
   13      -23.560551   1.000000
   14      -23.550854   1.000000
   15      -23.503324   1.000000
   16      -23.459753   1.000000
   17      -23.441908   1.000000
   18      -23.384427   1.000000
   19      -23.306902   1.000000
   20      -23.263847   1.000000
   21      -23.168060   1.000000
   22      -23.148247   1.000000
   23      -22.999969   1.000000
   24      -22.839911   1.000000
   25       -0.012069   1.000000
   26        1.272564   1.000000
   27        1.652770   1.000000
   28        2.287035   1.000000
   29        2.512961   1.000000
   30        2.598593   1.000000
   31        2.663495   1.000000
   32        2.813276   1.000000
   33        2.871017   1.000000
   34        2.905764   1.000000
   35        3.024911   1.000000
   36        3.114201   1.000000
   37        3.174474   1.000000
   38        3.217633   1.000000
   39        3.261277   1.000000
   40        3.312092   1.000000
   41        3.408635   1.000000
   42        3.480030   1.000000
   43        3.553911   1.000000
   44        3.599767   1.000000
   45        3.707101   1.000000
   46        3.751829   1.000000
   47        3.888653   1.000000
   48        3.895368   1.000000
   49        3.948023   1.000000
   50        4.021143   1.000000
   51        4.104322   1.000000
   52        4.164509   1.000000
   53        4.222826   1.000000
   54        4.257144   1.000000
   55        4.344349   1.000000
   56        4.467797   1.000000
   57        4.598298   1.000000
   58        4.663776   1.000000
   59        4.708329   1.000000
   60        4.778370   1.000000
   61        4.826951   1.000000
   62        4.934339   1.000000
   63        4.971024   1.000000
   64        4.995020   1.000000
   65        5.064050   1.000000
   66        5.113097   1.000000
   67        5.165493   1.000000
   68        5.205089   1.000000
   69        5.274362   1.000000
   70        5.327918   1.000000
   71        5.393952   1.000000
   72        5.412744   1.000000
   73        5.449490   1.000000
   74        5.471455   1.000000
   75        5.576886   1.000000
   76        5.655988   1.000000
   77        5.690305   1.000000
   78        5.768795   1.000000
   79        5.840915   1.000000
   80        5.870996   1.000000
   81        5.948084   1.000004
   82        6.005832   1.000027
   83        6.068387   1.000159
   84        6.105979   1.000419
   85        6.171440   1.001881
   86        6.199098   1.003288
   87        6.257379   1.009122
   88        6.295672   1.015732
   89        6.390738   1.034829
   90        6.403913   1.035458
   91        6.453689   1.022562
   92        6.511986   0.954680
   93        6.560110   0.838291
   94        6.621384   0.615916
   95        6.673367   0.398026
   96        6.758429   0.105292
   97        6.836339  -0.017198
   98        6.908132  -0.034762
   99        6.978480  -0.020907
  100        7.040328  -0.009184
  101        7.084572  -0.004323
  102        7.135893  -0.001546
  103        7.187288  -0.000473
  104        7.295072  -0.000024
  105        7.411143  -0.000000
  106        7.431287  -0.000000
  107        7.593787  -0.000000
  108        7.688686  -0.000000
  109        7.740121  -0.000000
  110        7.935600  -0.000000
  111        7.982136  -0.000000
  112        8.069780  -0.000000
  113        8.136438  -0.000000
  114        8.257852  -0.000000
  115        8.307322  -0.000000
  116        8.347976  -0.000000
  117        8.378113  -0.000000
  118        8.448963  -0.000000
  119        8.533093  -0.000000
  120        8.589118  -0.000000
 
  0.2857143E+00  0.1387779E-16  0.3469447E-17  0.5830904E-02
    1      -47.516030   1.000000
    2      -47.395919   1.000000
    3      -47.381479   1.000000
    4      -47.282692   1.000000
    5      -47.172125   1.000000
    6      -47.128712   1.000000
    7      -24.136670   1.000000
    8      -23.926946   1.000000
    9      -23.889562   1.000000
   10      -23.763656   1.000000
   11      -23.667210   1.000000
   12      -23.657555   1.000000
   13      -23.559134   1.000000
   14      -23.548317   1.000000
   15      -23.504450   1.000000
   16      -23.463348   1.000000
   17      -23.444224   1.000000
   18      -23.392621   1.000000
   19      -23.319431   1.000000
   20      -23.266290   1.000000
   21      -23.176626   1.000000
   22      -23.156134   1.000000
   23      -23.036139   1.000000
   24      -22.986689   1.000000
   25        0.454220   1.000000
   26        1.674541   1.000000
   27        2.026120   1.000000
   28        2.404412   1.000000
   29        2.675056   1.000000
   30        2.808645   1.000000
   31        2.899719   1.000000
   32        2.925483   1.000000
   33        3.015990   1.000000
   34        3.164883   1.000000
   35        3.200160   1.000000
   36        3.295973   1.000000
   37        3.328429   1.000000
   38        3.378977   1.000000
   39        3.448676   1.000000
   40        3.509445   1.000000
   41        3.547703   1.000000
   42        3.602000   1.000000
   43        3.697849   1.000000
   44        3.773462   1.000000
   45        3.858580   1.000000
   46        3.881567   1.000000
   47        3.929020   1.000000
   48        4.038711   1.000000
   49        4.095807   1.000000
   50        4.162476   1.000000
   51        4.225682   1.000000
   52        4.312247   1.000000
   53        4.376607   1.000000
   54        4.449107   1.000000
   55        4.502368   1.000000
   56        4.580932   1.000000
   57        4.679393   1.000000
   58        4.750909   1.000000
   59        4.769451   1.000000
   60        4.831612   1.000000
   61        4.886453   1.000000
   62        4.935909   1.000000
   63        5.039916   1.000000
   64        5.086760   1.000000
   65        5.135904   1.000000
   66        5.166922   1.000000
   67        5.218414   1.000000
   68        5.281005   1.000000
   69        5.305198   1.000000
   70        5.348690   1.000000
   71        5.389125   1.000000
   72        5.444467   1.000000
   73        5.489958   1.000000
   74        5.524903   1.000000
   75        5.599391   1.000000
   76        5.625219   1.000000
   77        5.692295   1.000000
   78        5.748058   1.000000
   79        5.777609   1.000000
   80        5.830347   1.000000
   81        5.859788   1.000000
   82        5.914758   1.000001
   83        5.964627   1.000007
   84        5.985912   1.000014
   85        6.075900   1.000194
   86        6.182937   1.002386
   87        6.205032   1.003684
   88        6.281539   1.013026
   89        6.313005   1.019413
   90        6.346527   1.027081
   91        6.396600   1.035251
   92        6.417286   1.034729
   93        6.463892   1.015629
   94        6.528062   0.922264
   95        6.538115   0.898686
   96        6.614883   0.642338
   97        6.663942   0.437265
   98        6.702302   0.283360
   99        6.790214   0.038146
  100        6.829463  -0.011736
  101        6.906450  -0.034911
  102        6.981970  -0.020119
  103        7.025422  -0.011493
  104        7.086564  -0.004166
  105        7.195206  -0.000389
  106        7.281467  -0.000037
  107        7.311359  -0.000015
  108        7.432224  -0.000000
  109        7.465742  -0.000000
  110        7.597694  -0.000000
  111        7.675808  -0.000000
  112        7.739457  -0.000000
  113        7.818200  -0.000000
  114        7.868357  -0.000000
  115        7.966776  -0.000000
  116        8.005309  -0.000000
  117        8.058972  -0.000000
  118        8.157751  -0.000000
  119        8.250661  -0.000000
  120        8.386423  -0.000000
 
  0.4285714E+00  0.5551115E-16 -0.4163336E-16  0.5830904E-02
    1      -47.515665   1.000000
    2      -47.387191   1.000000
    3      -47.380196   1.000000
    4      -47.282767   1.000000
    5      -47.172373   1.000000
    6      -47.138126   1.000000
    7      -24.136558   1.000000
    8      -23.893566   1.000000
    9      -23.806867   1.000000
   10      -23.672634   1.000000
   11      -23.660779   1.000000
   12      -23.634936   1.000000
   13      -23.564488   1.000000
   14      -23.539221   1.000000
   15      -23.505016   1.000000
   16      -23.466674   1.000000
   17      -23.445794   1.000000
   18      -23.401664   1.000000
   19      -23.332019   1.000000
   20      -23.305118   1.000000
   21      -23.253987   1.000000
   22      -23.177473   1.000000
   23      -23.146289   1.000000
   24      -22.994678   1.000000
   25        1.131422   1.000000
   26        1.913472   1.000000
   27        2.338820   1.000000
   28        2.520348   1.000000
   29        2.592313   1.000000
   30        2.895174   1.000000
   31        2.988813   1.000000
   32        3.082043   1.000000
   33        3.187641   1.000000
   34        3.272733   1.000000
   35        3.330286   1.000000
   36        3.415449   1.000000
   37        3.452367   1.000000
   38        3.521588   1.000000
   39        3.576460   1.000000
   40        3.683259   1.000000
   41        3.756743   1.000000
   42        3.807350   1.000000
   43        3.842145   1.000000
   44        3.953676   1.000000
   45        3.989784   1.000000
   46        4.064946   1.000000
   47        4.129824   1.000000
   48        4.193394   1.000000
   49        4.243216   1.000000
   50        4.275116   1.000000
   51        4.342072   1.000000
   52        4.397059   1.000000
   53        4.502739   1.000000
   54        4.556749   1.000000
   55        4.603769   1.000000
   56        4.702895   1.000000
   57        4.733641   1.000000
   58        4.763865   1.000000
   59        4.818422   1.000000
   60        4.920766   1.000000
   61        4.975642   1.000000
   62        4.999159   1.000000
   63        5.038435   1.000000
   64        5.055458   1.000000
   65        5.117868   1.000000
   66        5.167853   1.000000
   67        5.206616   1.000000
   68        5.253816   1.000000
   69        5.301111   1.000000
   70        5.328397   1.000000
   71        5.397263   1.000000
   72        5.421915   1.000000
   73        5.479537   1.000000
   74        5.494531   1.000000
   75        5.563013   1.000000
   76        5.662871   1.000000
   77        5.724211   1.000000
   78        5.764370   1.000000
   79        5.801817   1.000000
   80        5.849547   1.000000
   81        5.878737   1.000000
   82        5.915756   1.000001
   83        5.962182   1.000007
   84        5.974513   1.000010
   85        6.045659   1.000085
   86        6.102117   1.000381
   87        6.146069   1.001083
   88        6.175078   1.002030
   89        6.219139   1.004786
   90        6.245135   1.007498
   91        6.336016   1.024673
   92        6.370362   1.032006
   93        6.388809   1.034646
   94        6.403410   1.035456
   95        6.458870   1.019266
   96        6.498843   0.976468
   97        6.594241   0.722616
   98        6.611603   0.655493
   99        6.707172   0.265276
  100        6.791509   0.035941
  101        6.840374  -0.020007
  102        6.916440  -0.033803
  103        6.941809  -0.029236
  104        6.988889  -0.018587
  105        7.061365  -0.006521
  106        7.145455  -0.001255
  107        7.170060  -0.000715
  108        7.307357  -0.000017
  109        7.340583  -0.000006
  110        7.453906  -0.000000
  111        7.520371  -0.000000
  112        7.569391  -0.000000
  113        7.599454  -0.000000
  114        7.652989  -0.000000
  115        7.726710  -0.000000
  116        7.813368  -0.000000
  117        7.915167  -0.000000
  118        8.126225  -0.000000
  119        8.166367  -0.000000
  120        8.217020  -0.000000
 
 -0.6938894E-17  0.1428571E+00  0.1040834E-16  0.5830904E-02
    1      -47.516677   1.000000
    2      -47.410895   1.000000
    3      -47.382774   1.000000
    4      -47.282771   1.000000
    5      -47.172131   1.000000
    6      -47.112857   1.000000
    7      -24.158569   1.000000
    8      -24.111823   1.000000
    9      -23.899504   1.000000
   10      -23.784742   1.000000
   11      -23.662337   1.000000
   12      -23.655243   1.000000
   13      -23.564931   1.000000
   14      -23.548289   1.000000
   15      -23.502696   1.000000
   16      -23.458257   1.000000
   17      -23.440557   1.000000
   18      -23.380713   1.000000
   19      -23.301836   1.000000
   20      -23.263344   1.000000
   21      -23.166064   1.000000
   22      -23.147895   1.000000
   23      -22.999564   1.000000
   24      -22.771992   1.000000
   25       -0.105556   1.000000
   26        1.157774   1.000000
   27        1.584108   1.000000
   28        2.002003   1.000000
   29        2.406361   1.000000
   30        2.485055   1.000000
   31        2.584639   1.000000
   32        2.725292   1.000000
   33        2.768088   1.000000
   34        2.829789   1.000000
   35        2.922090   1.000000
   36        3.015516   1.000000
   37        3.049171   1.000000
   38        3.099812   1.000000
   39        3.185274   1.000000
   40        3.249933   1.000000
   41        3.355559   1.000000
   42        3.465682   1.000000
   43        3.500931   1.000000
   44        3.580339   1.000000
   45        3.687920   1.000000
   46        3.713091   1.000000
   47        3.790372   1.000000
   48        3.851441   1.000000
   49        3.922999   1.000000
   50        3.998532   1.000000
   51        4.069328   1.000000
   52        4.131528   1.000000
   53        4.155463   1.000000
   54        4.203908   1.000000
   55        4.369549   1.000000
   56        4.513900   1.000000
   57        4.575115   1.000000
   58        4.656567   1.000000
   59        4.683235   1.000000
   60        4.756329   1.000000
   61        4.842585   1.000000
   62        4.884541   1.000000
   63        4.920212   1.000000
   64        4.944383   1.000000
   65        5.031412   1.000000
   66        5.092258   1.000000
   67        5.146967   1.000000
   68        5.198091   1.000000
   69        5.242762   1.000000
   70        5.320799   1.000000
   71        5.332549   1.000000
   72        5.388282   1.000000
   73        5.447472   1.000000
   74        5.494478   1.000000
   75        5.598739   1.000000
   76        5.620714   1.000000
   77        5.714760   1.000000
   78        5.809792   1.000000
   79        5.855256   1.000000
   80        5.903764   1.000001
   81        5.974284   1.000010
   82        5.998680   1.000021
   83        6.088793   1.000271
   84        6.139982   1.000943
   85        6.163993   1.001606
   86        6.202532   1.003513
   87        6.247417   1.007783
   88        6.298730   1.016355
   89        6.367993   1.031574
   90        6.436508   1.030477
   91        6.491870   0.986378
   92        6.542031   0.888813
   93        6.585870   0.753195
   94        6.687619   0.340199
   95        6.737277   0.163985
   96        6.804397   0.016174
   97        6.904525  -0.035062
   98        7.021482  -0.012163
   99        7.086243  -0.004191
  100        7.157114  -0.000966
  101        7.196324  -0.000378
  102        7.218365  -0.000215
  103        7.366813  -0.000002
  104        7.444150  -0.000000
  105        7.516961  -0.000000
  106        7.633218  -0.000000
  107        7.682207  -0.000000
  108        7.766692  -0.000000
  109        7.857862  -0.000000
  110        7.981197  -0.000000
  111        8.071617  -0.000000
  112        8.184227  -0.000000
  113        8.251123  -0.000000
  114        8.323722  -0.000000
  115        8.393171  -0.000000
  116        8.468409  -0.000000
  117        8.531394  -0.000000
  118        8.585380  -0.000000
  119        8.642981  -0.000000
  120        8.680184  -0.000000
 
  0.1428571E+00  0.1428571E+00 -0.1387779E-16  0.5830904E-02
    1      -47.516505   1.000000
    2      -47.406446   1.000000
    3      -47.382706   1.000000
    4      -47.282404   1.000000
    5      -47.172098   1.000000
    6      -47.117595   1.000000
    7      -24.141760   1.000000
    8      -24.071490   1.000000
    9      -23.902540   1.000000
   10      -23.780902   1.000000
   11      -23.664006   1.000000
   12      -23.656128   1.000000
   13      -23.560518   1.000000
   14      -23.550884   1.000000
   15      -23.503310   1.000000
   16      -23.459644   1.000000
   17      -23.441908   1.000000
   18      -23.384389   1.000000
   19      -23.306846   1.000000
   20      -23.263793   1.000000
   21      -23.167016   1.000000
   22      -23.146006   1.000000
   23      -22.999876   1.000000
   24      -22.839906   1.000000
   25       -0.010277   1.000000
   26        1.250914   1.000000
   27        1.670410   1.000000
   28        2.286166   1.000000
   29        2.491530   1.000000
   30        2.593295   1.000000
   31        2.670089   1.000000
   32        2.775957   1.000000
   33        2.827224   1.000000
   34        2.884537   1.000000
   35        2.968846   1.000000
   36        3.035554   1.000000
   37        3.137101   1.000000
   38        3.225363   1.000000
   39        3.252467   1.000000
   40        3.330703   1.000000
   41        3.389710   1.000000
   42        3.491823   1.000000
   43        3.564969   1.000000
   44        3.608724   1.000000
   45        3.727580   1.000000
   46        3.802818   1.000000
   47        3.870589   1.000000
   48        3.916793   1.000000
   49        3.955537   1.000000
   50        4.050358   1.000000
   51        4.123041   1.000000
   52        4.166058   1.000000
   53        4.226938   1.000000
   54        4.266830   1.000000
   55        4.417286   1.000000
   56        4.511321   1.000000
   57        4.582458   1.000000
   58        4.660285   1.000000
   59        4.698505   1.000000
   60        4.796592   1.000000
   61        4.830161   1.000000
   62        4.903467   1.000000
   63        4.934201   1.000000
   64        4.975195   1.000000
   65        5.058399   1.000000
   66        5.098276   1.000000
   67        5.158511   1.000000
   68        5.203332   1.000000
   69        5.258113   1.000000
   70        5.290391   1.000000
   71        5.350561   1.000000
   72        5.410193   1.000000
   73        5.456014   1.000000
   74        5.511120   1.000000
   75        5.555926   1.000000
   76        5.617339   1.000000
   77        5.695971   1.000000
   78        5.740071   1.000000
   79        5.823928   1.000000
   80        5.860112   1.000000
   81        5.874458   1.000000
   82        5.981707   1.000013
   83        6.042494   1.000078
   84        6.114329   1.000515
   85        6.149237   1.001162
   86        6.240439   1.006937
   87        6.277962   1.012390
   88        6.302798   1.017202
   89        6.375747   1.032920
   90        6.414363   1.035025
   91        6.480439   1.000279
   92        6.539111   0.896212
   93        6.614148   0.645300
   94        6.661601   0.447091
   95        6.698718   0.296930
   96        6.757059   0.108756
   97        6.849505  -0.025351
   98        6.904792  -0.035043
   99        7.003171  -0.015591
  100        7.033783  -0.010153
  101        7.118379  -0.002236
  102        7.164997  -0.000805
  103        7.226158  -0.000175
  104        7.289858  -0.000029
  105        7.353895  -0.000004
  106        7.439062  -0.000000
  107        7.552592  -0.000000
  108        7.699511  -0.000000
  109        7.757985  -0.000000
  110        7.844003  -0.000000
  111        8.056910  -0.000000
  112        8.147157  -0.000000
  113        8.199370  -0.000000
  114        8.356275  -0.000000
  115        8.396652  -0.000000
  116        8.474710  -0.000000
  117        8.541613  -0.000000
  118        8.582030  -0.000000
  119        8.623987  -0.000000
  120        8.693167  -0.000000
 
  0.2857143E+00  0.1428571E+00  0.2775558E-16  0.5830904E-02
    1      -47.516067   1.000000
    2      -47.395938   1.000000
    3      -47.381870   1.000000
    4      -47.282238   1.000000
    5      -47.172130   1.000000
    6      -47.128717   1.000000
    7      -24.136956   1.000000
    8      -23.928024   1.000000
    9      -23.894768   1.000000
   10      -23.763714   1.000000
   11      -23.667489   1.000000
   12      -23.657739   1.000000
   13      -23.559081   1.000000
   14      -23.548210   1.000000
   15      -23.504408   1.000000
   16      -23.463188   1.000000
   17      -23.444285   1.000000
   18      -23.392528   1.000000
   19      -23.319297   1.000000
   20      -23.266191   1.000000
   21      -23.174345   1.000000
   22      -23.150812   1.000000
   23      -23.036005   1.000000
   24      -22.986567   1.000000
   25        0.392946   1.000000
   26        1.592515   1.000000
   27        1.992334   1.000000
   28        2.510059   1.000000
   29        2.601711   1.000000
   30        2.788058   1.000000
   31        2.897832   1.000000
   32        2.925113   1.000000
   33        3.020924   1.000000
   34        3.106210   1.000000
   35        3.159882   1.000000
   36        3.249256   1.000000
   37        3.337080   1.000000
   38        3.405093   1.000000
   39        3.453254   1.000000
   40        3.505012   1.000000
   41        3.562527   1.000000
   42        3.643788   1.000000
   43        3.714094   1.000000
   44        3.755573   1.000000
   45        3.779249   1.000000
   46        3.880709   1.000000
   47        4.012235   1.000000
   48        4.051560   1.000000
   49        4.092259   1.000000
   50        4.163560   1.000000
   51        4.284235   1.000000
   52        4.323381   1.000000
   53        4.356700   1.000000
   54        4.414988   1.000000
   55        4.460299   1.000000
   56        4.560058   1.000000
   57        4.677108   1.000000
   58        4.724728   1.000000
   59        4.783736   1.000000
   60        4.808629   1.000000
   61        4.900331   1.000000
   62        4.957828   1.000000
   63        4.994195   1.000000
   64        5.084613   1.000000
   65        5.108285   1.000000
   66        5.166281   1.000000
   67        5.206270   1.000000
   68        5.267153   1.000000
   69        5.293302   1.000000
   70        5.330016   1.000000
   71        5.388391   1.000000
   72        5.419499   1.000000
   73        5.472905   1.000000
   74        5.509704   1.000000
   75        5.560756   1.000000
   76        5.621755   1.000000
   77        5.690139   1.000000
   78        5.715986   1.000000
   79        5.781586   1.000000
   80        5.824965   1.000000
   81        5.904887   1.000001
   82        5.924189   1.000002
   83        5.963934   1.000007
   84        6.067592   1.000155
   85        6.104534   1.000404
   86        6.143592   1.001024
   87        6.183762   1.002426
   88        6.257220   1.009099
   89        6.289014   1.014421
   90        6.317952   1.020520
   91        6.361624   1.030335
   92        6.401489   1.035432
   93        6.414909   1.034976
   94        6.500188   0.974428
   95        6.548380   0.871986
   96        6.588283   0.744512
   97        6.670377   0.410405
   98        6.720920   0.216634
   99        6.788101   0.041829
  100        6.829230  -0.011535
  101        6.897668  -0.035408
  102        6.946937  -0.028124
  103        7.012623  -0.013758
  104        7.124791  -0.001958
  105        7.170720  -0.000704
  106        7.308596  -0.000016
  107        7.358280  -0.000003
  108        7.467889  -0.000000
  109        7.571790  -0.000000
  110        7.663005  -0.000000
  111        7.810965  -0.000000
  112        7.874998  -0.000000
  113        7.953689  -0.000000
  114        8.079469  -0.000000
  115        8.138324  -0.000000
  116        8.227529  -0.000000
  117        8.284377  -0.000000
  118        8.341336  -0.000000
  119        8.429464  -0.000000
  120        8.482743  -0.000000
 
  0.4285714E+00  0.1428571E+00 -0.2081668E-16  0.5830904E-02
    1      -47.515694   1.000000
    2      -47.387247   1.000000
    3      -47.380471   1.000000
    4      -47.282401   1.000000
    5      -47.172378   1.000000
    6      -47.138130   1.000000
    7      -24.136782   1.000000
    8      -23.898507   1.000000
    9      -23.807104   1.000000
   10      -23.672762   1.000000
   11      -23.661063   1.000000
   12      -23.634914   1.000000
   13      -23.564461   1.000000
   14      -23.539128   1.000000
   15      -23.504980   1.000000
   16      -23.466519   1.000000
   17      -23.445839   1.000000
   18      -23.401581   1.000000
   19      -23.331911   1.000000
   20      -23.305096   1.000000
   21      -23.253917   1.000000
   22      -23.173016   1.000000
   23      -23.144519   1.000000
   24      -22.994545   1.000000
   25        1.036765   1.000000
   26        1.938743   1.000000
   27        2.288985   1.000000
   28        2.422926   1.000000
   29        2.588028   1.000000
   30        2.713563   1.000000
   31        3.072047   1.000000
   32        3.185079   1.000000
   33        3.261931   1.000000
   34        3.302050   1.000000
   35        3.335511   1.000000
   36        3.397948   1.000000
   37        3.488456   1.000000
   38        3.545751   1.000000
   39        3.632698   1.000000
   40        3.654491   1.000000
   41        3.724162   1.000000
   42        3.798246   1.000000
   43        3.866821   1.000000
   44        3.912429   1.000000
   45        3.963890   1.000000
   46        4.044706   1.000000
   47        4.143390   1.000000