 running on   96 total cores
 distrk:  each k-point on   96 cores,    1 groups
 distr:  one band on    8 cores,   12 groups
 using from now: INCAR     
 vasp.5.4.4.18Apr17-6-g9f103f2a35 (build Aug 09 2018 16:20:53) complex          
  
 POSCAR found :  5 types and      29 ions
 scaLAPACK will be used

 ----------------------------------------------------------------------------- 
|                                                                             |
|  ADVICE TO THIS USER RUNNING 'VASP/VAMP'   (HEAR YOUR MASTER'S VOICE ...):  |
|                                                                             |
|      You enforced a specific xc-type in the INCAR file,                     |
|      a different type was found on the POTCAR file                          |
|          I HOPE YOU KNOW, WHAT YOU ARE  DOING                               |
|                                                                             |
 ----------------------------------------------------------------------------- 

 LDA part: xc-table for Pade appr. of Perdew
 POSCAR found :  5 types and      29 ions
 POSCAR, INCAR and KPOINTS ok, starting setup
 FFT: planning ...
 WAVECAR not read
 initial charge from wavefunction
 entering main loop
       N       E                     dE             d eps       ncg     rms          rms(c)
DAV:   1    -0.424389252464E+04   -0.42439E+04   -0.16066E+05 61188   0.198E+03
DAV:   2    -0.981716117773E+04   -0.55733E+04   -0.52355E+04 76716   0.122E+03
DAV:   3    -0.106774787538E+05   -0.86032E+03   -0.83278E+03 82560   0.527E+02
DAV:   4    -0.109219979900E+05   -0.24452E+03   -0.22247E+03 82560   0.240E+02
DAV:   5    -0.110684785359E+05   -0.14648E+03   -0.13276E+03 82560   0.168E+02    0.591E+03
DAV:   6    -0.144924901537E+04    0.96192E+04   -0.25720E+04 65796   0.614E+02    0.273E+03
DAV:   7    -0.105780211499E+04    0.39145E+03   -0.16680E+04 72612   0.540E+02    0.209E+03
DAV:   8    -0.734891614181E+03    0.32291E+03   -0.41786E+03 70992   0.325E+02    0.185E+03
DAV:   9    -0.661106884880E+03    0.73785E+02   -0.74683E+02 76056   0.819E+01    0.176E+03
DAV:  10    -0.656055071287E+03    0.50518E+01   -0.13783E+02 75672   0.426E+01    0.174E+03
DAV:  11    -0.638672965129E+03    0.17382E+02   -0.50809E+02 70308   0.115E+02    0.166E+03
DAV:  12    -0.696578426455E+03   -0.57905E+02   -0.21698E+03 70188   0.339E+02    0.139E+03
DAV:  13    -0.116495889661E+04   -0.46838E+03   -0.53203E+03 76356   0.188E+02    0.534E+02
DAV:  14    -0.719921548775E+03    0.44504E+03   -0.17969E+03 70944   0.153E+02    0.406E+02
DAV:  15    -0.646896601568E+03    0.73025E+02   -0.12289E+03 74760   0.181E+02    0.365E+02
DAV:  16    -0.570015539634E+03    0.76881E+02   -0.84682E+02 78528   0.139E+02    0.246E+02
DAV:  17    -0.489687990153E+03    0.80328E+02   -0.84893E+02 72888   0.135E+02    0.214E+02
DAV:  18    -0.417526608186E+03    0.72161E+02   -0.45027E+02 77076   0.100E+02    0.150E+02
DAV:  19    -0.408477112657E+03    0.90495E+01   -0.10906E+02 77400   0.407E+01    0.142E+02
DAV:  20    -0.405236994705E+03    0.32401E+01   -0.27639E+01 77796   0.243E+01    0.141E+02
DAV:  21    -0.382181046375E+03    0.23056E+02   -0.52862E+01 69636   0.470E+01    0.126E+02
DAV:  22    -0.346252156619E+03    0.35929E+02   -0.71543E+01 63456   0.279E+01    0.919E+01
DAV:  23    -0.316244174670E+03    0.30008E+02   -0.61901E+01 80388   0.330E+01    0.657E+01
DAV:  24    -0.311206518573E+03    0.50377E+01   -0.24496E+01 75780   0.255E+01    0.558E+01
DAV:  25    -0.309764704733E+03    0.14418E+01   -0.15299E+01 70248   0.189E+01    0.510E+01
DAV:  26    -0.310619773141E+03   -0.85507E+00   -0.62267E+00 76380   0.951E+00    0.504E+01
DAV:  27    -0.308758224129E+03    0.18615E+01   -0.86674E+00 71292   0.134E+01    0.444E+01
DAV:  28    -0.309548744788E+03   -0.79052E+00   -0.16242E+01 65952   0.163E+01    0.369E+01
DAV:  29    -0.306439515762E+03    0.31092E+01   -0.10164E+01 71256   0.142E+01    0.317E+01
DAV:  30    -0.305147386207E+03    0.12921E+01   -0.14065E+01 72864   0.147E+01    0.243E+01
DAV:  31    -0.304783183741E+03    0.36420E+00   -0.31521E+00 69228   0.715E+00    0.226E+01
DAV:  32    -0.304461424457E+03    0.32176E+00   -0.38726E+00 62976   0.880E+00    0.201E+01
DAV:  33    -0.304891241262E+03   -0.42982E+00   -0.11624E+00 69288   0.389E+00    0.206E+01
DAV:  34    -0.304909308842E+03   -0.18068E-01   -0.25951E-01 63972   0.196E+00    0.200E+01
DAV:  35    -0.304364766662E+03    0.54454E+00   -0.54657E+00 62340   0.849E+00    0.170E+01
DAV:  36    -0.305021842359E+03   -0.65708E+00   -0.19398E+00 66048   0.585E+00    0.164E+01
DAV:  37    -0.304294253377E+03    0.72759E+00   -0.20835E+00 69252   0.744E+00    0.104E+01
DAV:  38    -0.304697966464E+03   -0.40371E+00   -0.66132E-01 66672   0.404E+00    0.115E+01
DAV:  39    -0.304367439690E+03    0.33053E+00   -0.41451E-01 65748   0.329E+00    0.928E+00
DAV:  40    -0.304221099205E+03    0.14634E+00   -0.13471E-01 67980   0.154E+00    0.747E+00
DAV:  41    -0.304137535069E+03    0.83564E-01   -0.84295E-02 69912   0.110E+00    0.567E+00
DAV:  42    -0.304083087103E+03    0.54448E-01   -0.46032E-02 68016   0.863E-01    0.497E+00
DAV:  43    -0.304032165512E+03    0.50922E-01   -0.46715E-02 67716   0.939E-01    0.370E+00
DAV:  44    -0.304005386275E+03    0.26779E-01   -0.36531E-02 68424   0.821E-01    0.285E+00
DAV:  45    -0.304009526662E+03   -0.41404E-02   -0.14202E-02 71172   0.479E-01    0.284E+00
DAV:  46    -0.303990631359E+03    0.18895E-01   -0.34621E-02 65136   0.789E-01    0.197E+00
DAV:  47    -0.303989095190E+03    0.15362E-02   -0.75305E-03 75924   0.400E-01    0.167E+00
DAV:  48    -0.303988376789E+03    0.71840E-03   -0.35010E-03 74316   0.226E-01    0.144E+00
DAV:  49    -0.303985772053E+03    0.26047E-02   -0.20548E-03 61104   0.191E-01    0.117E+00
DAV:  50    -0.303981329124E+03    0.44429E-02   -0.59492E-03 60996   0.340E-01    0.750E-01
DAV:  51    -0.303980748426E+03    0.58070E-03   -0.19070E-03 68424   0.144E-01    0.623E-01
DAV:  52    -0.303980606215E+03    0.14221E-03   -0.33440E-04 36168   0.771E-02    0.497E-01
DAV:  53    -0.303979729834E+03    0.87638E-03   -0.10494E-03 52440   0.143E-01    0.332E-01
DAV:  54    -0.303979255081E+03    0.47475E-03   -0.84974E-04 50868   0.127E-01    0.195E-01
DAV:  55    -0.303979224388E+03    0.30692E-04   -0.15344E-04 28272   0.758E-02
   1 F= -.30397922E+03 E0= -.30397424E+03  d E =-.303979E+03
 curvature:   0.00 expect dE= 0.000E+00 dE for cont linesearch  0.000E+00
 trial: gam= 0.00000 g(F)=  0.770E+00 g(S)=  0.622E-01 ort = 0.000E+00 (trialstep = 0.100E+01)
 search vector abs. value=  0.833E+00
 bond charge predicted
       N       E                     dE             d eps       ncg     rms          rms(c)
DAV:   1    -0.304430107873E+03   -0.45085E+00   -0.86575E+01 42024   0.321E+01    0.503E+00
DAV:   2    -0.305931381838E+03   -0.15013E+01   -0.14344E+01 73608   0.212E+01    0.964E+00
DAV:   3    -0.304792550825E+03    0.11388E+01   -0.71878E+00 73608   0.116E+01    0.381E+00
DAV:   4    -0.304794389894E+03   -0.18391E-02   -0.24278E+00 70896   0.713E+00    0.421E+00
DAV:   5    -0.304669339135E+03    0.12505E+00   -0.15556E+00 70128   0.615E+00    0.241E+00
DAV:   6    -0.304616921706E+03    0.52417E-01   -0.59866E-01 72780   0.315E+00    0.152E+00
DAV:   7    -0.304624165313E+03   -0.72436E-02   -0.49941E-01 71472   0.309E+00    0.192E+00
DAV:   8    -0.304599060807E+03    0.25105E-01   -0.29777E-01 73644   0.241E+00    0.980E-01
DAV:   9    -0.304592623786E+03    0.64370E-02   -0.88262E-02 71604   0.117E+00    0.637E-01
DAV:  10    -0.304590176596E+03    0.24472E-02   -0.32130E-02 68796   0.736E-01    0.485E-01
DAV:  11    -0.304590349483E+03   -0.17289E-03   -0.15259E-02 62268   0.548E-01    0.427E-01
DAV:  12    -0.304590621307E+03   -0.27182E-03   -0.11417E-02 70860   0.435E-01    0.278E-01
DAV:  13    -0.304591237328E+03   -0.61602E-03   -0.10203E-02 70380   0.400E-01    0.266E-01
DAV:  14    -0.304590813961E+03    0.42337E-03   -0.92454E-03 66312   0.427E-01    0.179E-01
DAV:  15    -0.304590586829E+03    0.22713E-03   -0.34925E-03 60552   0.266E-01    0.894E-02
DAV:  16    -0.304590497531E+03    0.89298E-04   -0.97276E-04 53508   0.132E-01
   2 F= -.30459050E+03 E0= -.30458714E+03  d E =-.611273E+00
 trial-energy change:   -0.611273  1 .order   -0.606928   -0.832521   -0.381334
 step:   1.7669(harm=  1.8452)  dis= 0.09176  next Energy=  -304.738676 (dE=-0.759E+00)
 bond charge predicted
       N       E                     dE             d eps       ncg     rms          rms(c)
DAV:   1    -0.304621248165E+03   -0.30661E-01   -0.50898E+01 41976   0.247E+01    0.396E+00
DAV:   2    -0.305466571987E+03   -0.84532E+00   -0.83169E+00 72936   0.163E+01    0.724E+00
DAV:   3    -0.304844667499E+03    0.62190E+00   -0.41806E+00 73068   0.907E+00    0.289E+00
DAV:   4    -0.304842995664E+03    0.16718E-02   -0.13578E+00 71316   0.536E+00    0.312E+00
DAV:   5    -0.304777703368E+03    0.65292E-01   -0.89122E-01 69660   0.474E+00    0.193E+00
DAV:   6    -0.304744548143E+03    0.33155E-01   -0.36459E-01 72564   0.253E+00    0.117E+00
DAV:   7    -0.304749593291E+03   -0.50451E-02   -0.29657E-01 71412   0.246E+00    0.147E+00
DAV:   8    -0.304733136080E+03    0.16457E-01   -0.16929E-01 73200   0.187E+00    0.688E-01
DAV:   9    -0.304729993541E+03    0.31425E-02   -0.42897E-02 69756   0.826E-01    0.459E-01
DAV:  10    -0.304728942402E+03    0.10511E-02   -0.16725E-02 66324   0.521E-01    0.367E-01
DAV:  11    -0.304729251760E+03   -0.30936E-03   -0.84508E-03 59676   0.413E-01    0.338E-01
DAV:  12    -0.304729406101E+03   -0.15434E-03   -0.75164E-03 66348   0.373E-01    0.212E-01
DAV:  13    -0.304729518824E+03   -0.11272E-03   -0.56081E-03 70056   0.306E-01    0.163E-01
DAV:  14    -0.304729412732E+03    0.10609E-03   -0.45486E-03 61212   0.302E-01    0.131E-01
DAV:  15    -0.304729255167E+03    0.15757E-03   -0.15243E-03 56052   0.192E-01    0.484E-02
DAV:  16    -0.304729219350E+03    0.35816E-04   -0.26705E-04 35484   0.855E-02
   3 F= -.30472922E+03 E0= -.30472700E+03  d E =-.749995E+00
 curvature:  -0.91 expect dE=-0.922E+00 dE for cont linesearch -0.701E-03
 trial: gam= 1.24071 g(F)=  0.249E+00 g(S)=  0.759E+00 ort =-0.253E-01 (trialstep = 0.431E+00)
 search vector abs. value=  0.223E+01
 bond charge predicted
       N       E                     dE             d eps       ncg     rms          rms(c)
DAV:   1    -0.305119681200E+03   -0.39043E+00   -0.39929E+01 44148   0.246E+01    0.532E+00
DAV:   2    -0.305616672504E+03   -0.49699E+00   -0.69359E+00 71964   0.125E+01    0.669E+00
DAV:   3    -0.305261842089E+03    0.35483E+00   -0.61485E+00 74940   0.105E+01    0.474E+00
DAV:   4    -0.305227547365E+03    0.34295E-01   -0.24683E+00 71232   0.792E+00    0.400E+00
DAV:   5    -0.305052183207E+03    0.17536E+00   -0.12554E+00 70800   0.539E+00    0.187E+00
DAV:   6    -0.305014605026E+03    0.37578E-01   -0.49163E-01 72240   0.320E+00    0.131E+00
DAV:   7    -0.305012010815E+03    0.25942E-02   -0.29005E-01 79368   0.211E+00    0.131E+00
DAV:   8    -0.305000981323E+03    0.11029E-01   -0.13724E-01 71652   0.172E+00    0.741E-01
DAV:   9    -0.304998135264E+03    0.28461E-02   -0.37511E-02 68544   0.863E-01    0.498E-01
DAV:  10    -0.304998351497E+03   -0.21623E-03   -0.16923E-02 69084   0.533E-01    0.446E-01
DAV:  11    -0.304999424757E+03   -0.10733E-02   -0.16688E-02 61812   0.580E-01    0.418E-01
DAV:  12    -0.304999421866E+03    0.28912E-05   -0.15656E-02 67272   0.552E-01    0.254E-01
DAV:  13    -0.304999177476E+03    0.24439E-03   -0.97357E-03 74556   0.399E-01    0.183E-01
DAV:  14    -0.304998974694E+03    0.20278E-03   -0.48418E-03 62076   0.296E-01    0.123E-01
DAV:  15    -0.304998939183E+03    0.35511E-04   -0.17537E-03 59844   0.194E-01    0.880E-02
DAV:  16    -0.304998864708E+03    0.74475E-04   -0.41460E-04 39060   0.113E-01
   4 F= -.30499886E+03 E0= -.30499759E+03  d E =-.269645E+00
 trial-energy change:   -0.269645  1 .order   -0.270634   -0.421043   -0.120224
 step:   0.6086(harm=  0.6036)  dis= 0.04422  next Energy=  -305.023508 (dE=-0.294E+00)
 bond charge predicted
       N       E                     dE             d eps       ncg     rms          rms(c)
DAV:   1    -0.305040799463E+03   -0.41860E-01   -0.66727E+00 42120   0.998E+00    0.217E+00
DAV:   2    -0.305117948451E+03   -0.77149E-01   -0.10969E+00 71532   0.494E+00    0.260E+00
DAV:   3    -0.305071627928E+03    0.46321E-01   -0.10015E+00 74652   0.440E+00    0.200E+00
DAV:   4    -0.305059512091E+03    0.12116E-01   -0.38233E-01 71976   0.310E+00    0.163E+00
DAV:   5    -0.305030910333E+03    0.28602E-01   -0.21085E-01 71412   0.220E+00    0.741E-01
DAV:   6    -0.305025794352E+03    0.51160E-02   -0.77872E-02 72432   0.127E+00    0.530E-01
DAV:   7    -0.305025025606E+03    0.76875E-03   -0.43043E-02 80172   0.807E-01    0.505E-01
DAV:   8    -0.305023455933E+03    0.15697E-02   -0.19519E-02 63996   0.649E-01    0.297E-01
DAV:   9    -0.305023056557E+03    0.39938E-03   -0.59588E-03 60384   0.350E-01    0.203E-01
DAV:  10    -0.305023151400E+03   -0.94844E-04   -0.30363E-03 63072   0.226E-01    0.184E-01
DAV:  11    -0.305023420749E+03   -0.26935E-03   -0.34459E-03 60360   0.271E-01    0.190E-01
DAV:  12    -0.305023296138E+03    0.12461E-03   -0.30260E-03 65736   0.253E-01    0.956E-02
DAV:  13    -0.305023236600E+03    0.59538E-04   -0.14286E-03 60432   0.155E-01    0.631E-02
DAV:  14    -0.305023200279E+03    0.36321E-04   -0.53740E-04 43824   0.115E-01
   5 F= -.30502320E+03 E0= -.30502224E+03  d E =-.293981E+00
 curvature:  -0.69 expect dE=-0.158E+00 dE for cont linesearch -0.937E-05
 trial: gam= 0.13843 g(F)=  0.216E+00 g(S)=  0.138E-01 ort = 0.551E-02 (trialstep = 0.467E+00)
 search vector abs. value=  0.274E+00
 bond charge predicted
       N       E                     dE             d eps       ncg     rms          rms(c)
DAV:   1    -0.305088687888E+03   -0.65451E-01   -0.59031E+00 41316   0.791E+00    0.755E-01
DAV:   2    -0.305148531286E+03   -0.59843E-01   -0.56279E-01 70032   0.409E+00    0.154E+00
DAV:   3    -0.305125353782E+03    0.23178E-01   -0.22249E-01 70332   0.243E+00    0.675E-01
DAV:   4    -0.305123418164E+03    0.19356E-02   -0.50285E-02 71592   0.105E+00    0.497E-01
DAV:   5    -0.305121041894E+03    0.23763E-02   -0.20727E-02 67164   0.623E-01    0.335E-01
DAV:   6    -0.305120679073E+03    0.36282E-03   -0.99368E-03 65772   0.480E-01    0.285E-01
DAV:   7    -0.305120687697E+03   -0.86239E-05   -0.87586E-03 66528   0.427E-01    0.258E-01
DAV:   8    -0.305120032040E+03    0.65566E-03   -0.66624E-03 66240   0.356E-01    0.145E-01
DAV:   9    -0.305119856454E+03    0.17559E-03   -0.23780E-03 62868   0.230E-01    0.994E-02
DAV:  10    -0.305119770400E+03    0.86054E-04   -0.10016E-03 51216   0.152E-01    0.565E-02
DAV:  11    -0.305119759688E+03    0.10712E-04   -0.30765E-04 35328   0.102E-01
   6 F= -.30511976E+03 E0= -.30511878E+03  d E =-.965594E-01
 trial-energy change:   -0.096559  1 .order   -0.096135   -0.107405   -0.084864
 step:   1.7094(harm=  2.2239)  dis= 0.05545  next Energy=  -305.240757 (dE=-0.218E+00)
 bond charge predicted
       N       E                     dE             d eps       ncg     rms          rms(c)
DAV:   1    -0.305076893160E+03    0.42877E-01   -0.42128E+01 42384   0.211E+01    0.189E+00
DAV:   2    -0.305455294866E+03   -0.37840E+00   -0.36600E+00 70272   0.989E+00    0.395E+00
DAV:   3    -0.305306574711E+03    0.14872E+00   -0.15107E+00 70512   0.626E+00    0.177E+00
DAV:   4    -0.305290708335E+03    0.15866E-01   -0.33734E-01 72264   0.273E+00    0.122E+00
DAV:   5    -0.305277170617E+03    0.13538E-01   -0.13542E-01 71112   0.162E+00    0.868E-01
DAV:   6    -0.305274662525E+03    0.25081E-02   -0.74761E-02 69660   0.134E+00    0.729E-01
DAV:   7    -0.305273867570E+03    0.79496E-03   -0.58398E-02 66036   0.113E+00    0.643E-01
DAV:   8    -0.305270490565E+03    0.33770E-02   -0.45474E-02 73248   0.940E-01    0.405E-01
DAV:   9    -0.305268864844E+03    0.16257E-02   -0.15077E-02 70992   0.520E-01    0.199E-01
DAV:  10    -0.305268465319E+03    0.39953E-03   -0.53929E-03 69144   0.281E-01    0.121E-01
DAV:  11    -0.305268499522E+03   -0.34203E-04   -0.22555E-03 62640   0.201E-01    0.111E-01
DAV:  12    -0.305268409855E+03    0.89667E-04   -0.12763E-03 55728   0.168E-01    0.702E-02
DAV:  13    -0.305268366201E+03    0.43654E-04   -0.42124E-04 38520   0.115E-01
   7 F= -.30526837E+03 E0= -.30526723E+03  d E =-.245166E+00
 curvature:  -1.21 expect dE=-0.823E-01 dE for cont linesearch -0.128E-01
 ZBRENT: extrapolating
 opt :   2.2317  next Energy=  -305.282418 (dE=-0.259E+00)
 bond charge predicted
       N       E                     dE             d eps       ncg     rms          rms(c)
DAV:   1    -0.305244186081E+03    0.24224E-01   -0.73984E+00 41304   0.886E+00    0.831E-01
DAV:   2    -0.305317833362E+03   -0.73647E-01   -0.70183E-01 70164   0.455E+00    0.171E+00
DAV:   3    -0.305289920673E+03    0.27913E-01   -0.27438E-01 69840   0.270E+00    0.765E-01
DAV:   4    -0.305286968004E+03    0.29527E-02   -0.62821E-02 71700   0.116E+00    0.514E-01
DAV:   5    -0.305284315862E+03    0.26521E-02   -0.23027E-02 67668   0.656E-01    0.346E-01
DAV:   6    -0.305284117176E+03    0.19869E-03   -0.12957E-02 67380   0.552E-01    0.325E-01
DAV:   7    -0.305283883361E+03    0.23381E-03   -0.10693E-02 64128   0.494E-01    0.268E-01
DAV:   8    -0.305283241597E+03    0.64176E-03   -0.77598E-03 70260   0.391E-01    0.163E-01
DAV:   9    -0.305282994160E+03    0.24744E-03   -0.26159E-03 61980   0.225E-01    0.843E-02
DAV:  10    -0.305282926516E+03    0.67643E-04   -0.87109E-04 53304   0.120E-01
   8 F= -.30528293E+03 E0= -.30528165E+03  d E =-.259726E+00
 curvature:  -1.33 expect dE=-0.116E+00 dE for cont linesearch -0.573E-05
 trial: gam= 0.37576 g(F)=  0.774E-01 g(S)=  0.965E-02 ort =-0.109E-02 (trialstep = 0.820E+00)
 search vector abs. value=  0.125E+00
 bond charge predicted
       N       E                     dE             d eps       ncg     rms          rms(c)
DAV:   1    -0.305321678837E+03   -0.38685E-01   -0.74296E+00 41280   0.969E+00    0.155E+00
DAV:   2    -0.305425974435E+03   -0.10430E+00   -0.11324E+00 72624   0.573E+00    0.255E+00
DAV:   3    -0.305360473648E+03    0.65501E-01   -0.59907E-01 72096   0.403E+00    0.125E+00
DAV:   4    -0.305351718836E+03    0.87548E-02   -0.18235E-01 72720   0.190E+00    0.935E-01
DAV:   5    -0.305343621100E+03    0.80977E-02   -0.11277E-01 74616   0.137E+00    0.691E-01
DAV:   6    -0.305340810494E+03    0.28106E-02   -0.64647E-02 70584   0.122E+00    0.543E-01
DAV:   7    -0.305339133853E+03    0.16766E-02   -0.33002E-02 71772   0.831E-01    0.347E-01
DAV:   8    -0.305338439802E+03    0.69405E-03   -0.14456E-02 64584   0.541E-01    0.246E-01
DAV:   9    -0.305338016084E+03    0.42372E-03   -0.50982E-03 62328   0.324E-01    0.161E-01
DAV:  10    -0.305337921200E+03    0.94885E-04   -0.16598E-03 58956   0.177E-01    0.125E-01
DAV:  11    -0.305337979983E+03   -0.58784E-04   -0.84177E-04 49632   0.140E-01
   9 F= -.30533798E+03 E0= -.30533688E+03  d E =-.550535E-01
 trial-energy change:   -0.055053  1 .order   -0.055670   -0.070999   -0.040342
 step:   2.5458(harm=  1.8984)  dis= 0.05385  next Energy=  -305.374694 (dE=-0.918E-01)
 bond charge predicted
       N       E                     dE             d eps       ncg     rms          rms(c)
DAV:   1    -0.305275523230E+03    0.62398E-01   -0.32882E+01 41280   0.204E+01    0.335E+00
DAV:   2    -0.305748300009E+03   -0.47278E+00   -0.51794E+00 72888   0.125E+01    0.542E+00
DAV:   3    -0.305445334619E+03    0.30297E+00   -0.27487E+00 70776   0.887E+00    0.269E+00
DAV:   4    -0.305395224532E+03    0.50110E-01   -0.79984E-01 73308   0.404E+00    0.182E+00
DAV:   5    -0.305365958899E+03    0.29266E-01   -0.47286E-01 72756   0.279E+00    0.140E+00
DAV:   6    -0.305355023032E+03    0.10936E-01   -0.28616E-01 70128   0.259E+00    0.114E+00
DAV:   7    -0.305347349733E+03    0.76733E-02   -0.13643E-01 72276   0.170E+00    0.716E-01
DAV:   8    -0.305344553309E+03    0.27964E-02   -0.62275E-02 71940   0.115E+00    0.532E-01
DAV:   9    -0.305342665993E+03    0.18873E-02   -0.22369E-02 68388   0.690E-01    0.337E-01
DAV:  10    -0.305342300729E+03    0.36526E-03   -0.70473E-03 64320   0.345E-01    0.263E-01
DAV:  11    -0.305342694911E+03   -0.39418E-03   -0.41891E-03 62712   0.288E-01    0.228E-01
DAV:  12    -0.305342952025E+03   -0.25711E-03   -0.48536E-03 65628   0.318E-01    0.172E-01
DAV:  13    -0.305342921175E+03    0.30851E-04   -0.41825E-03 68556   0.277E-01    0.126E-01
DAV:  14    -0.305342772372E+03    0.14880E-03   -0.20894E-03 62304   0.206E-01    0.693E-02
DAV:  15    -0.305342748541E+03    0.23831E-04   -0.66388E-04 46944   0.150E-01
  10 F= -.30534275E+03 E0= -.30534204E+03  d E =-.598220E-01
 curvature:  -0.88 expect dE=-0.226E+00 dE for cont linesearch -0.123E-01
 ZBRENT: interpolating
 opt :   1.7530  next Energy=  -305.359324 (dE=-0.764E-01)
 bond charge predicted
       N       E                     dE             d eps       ncg     rms          rms(c)
DAV:   1    -0.305345979799E+03   -0.32074E-02   -0.70088E+00 41280   0.950E+00    0.155E+00
DAV:   2    -0.305462845170E+03   -0.11687E+00   -0.11564E+00 72204   0.584E+00    0.282E+00
DAV:   3    -0.305379227133E+03    0.83618E-01   -0.63792E-01 72720   0.414E+00    0.115E+00
DAV:   4    -0.305374266083E+03    0.49610E-02   -0.17931E-01 72984   0.181E+00    0.937E-01
DAV:   5    -0.305364870882E+03    0.93952E-02   -0.10797E-01 72756   0.133E+00    0.632E-01
DAV:   6    -0.305362972239E+03    0.18986E-02   -0.60240E-02 69984   0.117E+00    0.555E-01
DAV:   7    -0.305361123861E+03    0.18484E-02   -0.33160E-02 70536   0.853E-01    0.348E-01
DAV:   8    -0.305360355496E+03    0.76837E-03   -0.14254E-02 66816   0.550E-01    0.241E-01
DAV:   9    -0.305359948755E+03    0.40674E-03   -0.50795E-03 61572   0.327E-01    0.160E-01
DAV:  10    -0.305359826862E+03    0.12189E-03   -0.15472E-03 57588   0.174E-01    0.117E-01
DAV:  11    -0.305359861795E+03   -0.34933E-04   -0.68065E-04 47724   0.129E-01
  11 F= -.30535986E+03 E0= -.30535893E+03  d E =-.769353E-01
 curvature:  -1.18 expect dE=-0.142E+00 dE for cont linesearch -0.507E-04
 trial: gam= 1.34484 g(F)=  0.249E-01 g(S)=  0.954E-01 ort =-0.231E-02 (trialstep = 0.370E+00)
 search vector abs. value=  0.340E+00
 bond charge predicted
       N       E                     dE             d eps       ncg     rms          rms(c)
DAV:   1    -0.305387881624E+03   -0.28055E-01   -0.40548E+00 41280   0.773E+00    0.156E+00
DAV:   2    -0.305447052016E+03   -0.59170E-01   -0.68112E-01 70128   0.459E+00    0.214E+00
DAV:   3    -0.305410796083E+03    0.36256E-01   -0.46926E-01 71076   0.364E+00    0.129E+00
DAV:   4    -0.305399120172E+03    0.11676E-01   -0.15438E-01 73344   0.184E+00    0.722E-01
DAV:   5    -0.305393016991E+03    0.61032E-02   -0.81027E-02 71424   0.114E+00    0.547E-01
DAV:   6    -0.305392069681E+03    0.94731E-03   -0.45949E-02 68928   0.100E+00    0.477E-01
DAV:   7    -0.305390343361E+03    0.17263E-02   -0.21851E-02 75408   0.688E-01    0.264E-01
DAV:   8    -0.305390003961E+03    0.33940E-03   -0.72142E-03 67224   0.344E-01    0.197E-01
DAV:   9    -0.305389827955E+03    0.17601E-03   -0.25347E-03 63576   0.218E-01    0.148E-01
DAV:  10    -0.305389828366E+03   -0.41105E-06   -0.15496E-03 55908   0.186E-01    0.128E-01
DAV:  11    -0.305389936542E+03   -0.10818E-03   -0.12971E-03 58308   0.164E-01    0.102E-01
DAV:  12    -0.305389907105E+03    0.29437E-04   -0.13720E-03 58848   0.174E-01    0.684E-02
DAV:  13    -0.305389853244E+03    0.53861E-04   -0.53249E-04 41988   0.134E-01
  12 F= -.30538985E+03 E0= -.30538920E+03  d E =-.299914E-01
 trial-energy change:   -0.029991  1 .order   -0.030648   -0.043329   -0.017966
 step:   0.7524(harm=  0.6314)  dis= 0.02916  next Energy=  -305.398428 (dE=-0.386E-01)
 bond charge predicted
       N       E                     dE             d eps       ncg     rms          rms(c)
DAV:   1    -0.305391257781E+03   -0.13507E-02   -0.43306E+00 41280   0.797E+00    0.160E+00
DAV:   2    -0.305456137307E+03   -0.64880E-01   -0.73247E-01 69828   0.479E+00    0.227E+00
DAV:   3    -0.305415633336E+03    0.40504E-01   -0.50402E-01 69960   0.377E+00    0.132E+00
DAV:   4    -0.305403633328E+03    0.12000E-01   -0.16274E-01 73668   0.189E+00    0.748E-01
DAV:   5    -0.305397337728E+03    0.62956E-02   -0.86699E-02 71592   0.119E+00    0.579E-01
DAV:   6    -0.305395942479E+03    0.13952E-02   -0.48258E-02 69816   0.102E+00    0.480E-01
DAV:   7    -0.305394264872E+03    0.16776E-02   -0.24250E-02 75288   0.715E-01    0.291E-01
DAV:   8    -0.305393806889E+03    0.45798E-03   -0.85442E-03 69060   0.388E-01    0.202E-01
DAV:   9    -0.305393575588E+03    0.23130E-03   -0.28802E-03 64128   0.229E-01    0.143E-01
DAV:  10    -0.305393570755E+03    0.48324E-05   -0.16737E-03 58620   0.186E-01    0.125E-01
DAV:  11    -0.305393652569E+03   -0.81814E-04   -0.11884E-03 55512   0.156E-01    0.988E-02
DAV:  12    -0.305393639831E+03    0.12738E-04   -0.13145E-03 58092   0.172E-01    0.722E-02
DAV:  13    -0.305393580377E+03    0.59454E-04   -0.55608E-04 43764   0.132E-01
  13 F= -.30539358E+03 E0= -.30539319E+03  d E =-.337186E-01
 curvature:  -0.72 expect dE=-0.317E-01 dE for cont linesearch -0.112E-02
 ZBRENT: interpolating
 opt :   0.6293  next Energy=  -305.394998 (dE=-0.351E-01)
 bond charge predicted
       N       E                     dE             d eps       ncg     rms          rms(c)
DAV:   1    -0.305395209284E+03   -0.15695E-02   -0.45049E-01 41304   0.257E+00    0.526E-01
DAV:   2    -0.305402433969E+03   -0.72247E-02   -0.80352E-02 70368   0.159E+00    0.758E-01
DAV:   3    -0.305397795317E+03    0.46387E-02   -0.54898E-02 70548   0.125E+00    0.430E-01
DAV:   4    -0.305396468244E+03    0.13271E-02   -0.16801E-02 65484   0.612E-01    0.248E-01
DAV:   5    -0.305395823495E+03    0.64475E-03   -0.93406E-03 69144   0.418E-01    0.198E-01
DAV:   6    -0.305395653171E+03    0.17032E-03   -0.55008E-03 60660   0.349E-01    0.160E-01
DAV:   7    -0.305395474239E+03    0.17893E-03   -0.27441E-03 62616   0.253E-01    0.992E-02
DAV:   8    -0.305395413418E+03    0.60820E-04   -0.10594E-03 53412   0.151E-01    0.687E-02
DAV:   9    -0.305395367407E+03    0.46012E-04   -0.21306E-04 30504   0.101E-01
  14 F= -.30539537E+03 E0= -.30539489E+03  d E =-.355056E-01
 curvature:  -0.91 expect dE=-0.279E-01 dE for cont linesearch -0.274E-04
 trial: gam= 0.25420 g(F)=  0.268E-01 g(S)=  0.394E-02 ort =-0.320E-02 (trialstep = 0.422E+00)
 search vector abs. value=  0.510E-01
 bond charge predicted
       N       E                     dE             d eps       ncg     rms          rms(c)
DAV:   1    -0.305404773102E+03   -0.93597E-02   -0.64434E-01 41280   0.261E+00    0.285E-01
DAV:   2    -0.305415612782E+03   -0.10840E-01   -0.82064E-02 71100   0.160E+00    0.798E-01
DAV:   3    -0.305407858963E+03    0.77538E-02   -0.40487E-02 71424   0.104E+00    0.213E-01
DAV:   4    -0.305407828218E+03    0.30745E-04   -0.72426E-03 63084   0.399E-01    0.198E-01
DAV:   5    -0.305407397519E+03    0.43070E-03   -0.28366E-03 62412   0.255E-01    0.955E-02
DAV:   6    -0.305407415980E+03   -0.18461E-04   -0.12504E-03 53736   0.186E-01    0.113E-01
DAV:   7    -0.305407350291E+03    0.65688E-04   -0.13351E-03 53688   0.190E-01    0.817E-02
DAV:   8    -0.305407317801E+03    0.32490E-04   -0.73182E-04 48912   0.141E-01
  15 F= -.30540732E+03 E0= -.30540696E+03  d E =-.119504E-01
 ZBRENT: can't locate minimum, use default step
 trial-energy change:   -0.011950  1 .order   -0.011955   -0.012597   -0.011314
 step:   1.6862(harm=  4.1398)  dis= 0.03096  next Energy=  -305.457220 (dE=-0.619E-01)
 bond charge predicted
       N       E                     dE             d eps       ncg     rms          rms(c)
DAV:   1    -0.305412786410E+03   -0.54361E-02   -0.57971E+00 41280   0.783E+00    0.834E-01
DAV:   2    -0.305505860225E+03   -0.93074E-01   -0.71773E-01 71580   0.472E+00    0.232E+00
DAV:   3    -0.305438683502E+03    0.67177E-01   -0.34078E-01 71136   0.297E+00    0.638E-01
DAV:   4    -0.305438540358E+03    0.14314E-03   -0.64382E-02 70764   0.119E+00    0.595E-01
DAV:   5    -0.305434786787E+03    0.37536E-02   -0.25156E-02 66948   0.748E-01    0.304E-01
DAV:   6    -0.305434968289E+03   -0.18150E-03   -0.12560E-02 68256   0.557E-01    0.352E-01
DAV:   7    -0.305434258259E+03    0.71003E-03   -0.12732E-02 61800   0.535E-01    0.246E-01
DAV:   8    -0.305433915525E+03    0.34273E-03   -0.74340E-03 63552   0.394E-01    0.206E-01
DAV:   9    -0.305433478916E+03    0.43661E-03   -0.34119E-03 57996   0.276E-01    0.692E-02
DAV:  10    -0.305433445610E+03    0.33306E-04   -0.67292E-04 47928   0.119E-01
  16 F= -.30543345E+03 E0= -.30543343E+03  d E =-.380782E-01
 curvature:  -2.00 expect dE=-0.322E-01 dE for cont linesearch -0.890E-02
 ZBRENT: increasing intervall
 opt :   4.2155  next Energy=  -305.441891 (dE=-0.465E-01)
 bond charge predicted
       N       E                     dE             d eps       ncg     rms          rms(c)
DAV:   1    -0.305362973168E+03    0.70506E-01   -0.23212E+01 41280   0.157E+01    0.168E+00
DAV:   2    -0.305731805076E+03   -0.36883E+00   -0.29092E+00 72072   0.959E+00    0.450E+00
DAV:   3    -0.305464939101E+03    0.26687E+00   -0.13257E+00 71040   0.581E+00    0.126E+00
DAV:   4    -0.305465944401E+03   -0.10053E-02   -0.26186E-01 70128   0.241E+00    0.121E+00
DAV:   5    -0.305451271594E+03    0.14673E-01   -0.10717E-01 70620   0.158E+00    0.643E-01
DAV:   6    -0.305451210090E+03    0.61504E-04   -0.52648E-02 70848   0.113E+00    0.679E-01
DAV:   7    -0.305448183709E+03    0.30264E-02   -0.45634E-02 68724   0.998E-01    0.445E-01
DAV:   8    -0.305447403935E+03    0.77977E-03   -0.29799E-02 71484   0.775E-01    0.416E-01
DAV:   9    -0.305445603180E+03    0.18008E-02   -0.13831E-02 61524   0.551E-01    0.146E-01
DAV:  10    -0.305445437295E+03    0.16589E-03   -0.29878E-03 63228   0.224E-01    0.960E-02
DAV:  11    -0.305445397218E+03    0.40078E-04   -0.10980E-03 55512   0.138E-01    0.700E-02
DAV:  12    -0.305445406751E+03   -0.95333E-05   -0.73682E-04 49200   0.150E-01
  17 F= -.30544541E+03 E0= -.30544606E+03  d E =-.500393E-01
 curvature:  -1.89 expect dE=-0.923E-01 dE for cont linesearch -0.156E-02
 ZBRENT: bracketing found
 ZBRENT: interpolating
 opt :   3.4552  next Energy=  -305.447872 (dE=-0.525E-01)
 bond charge predicted
       N       E                     dE             d eps       ncg     rms          rms(c)
DAV:   1    -0.305439888845E+03    0.55084E-02   -0.20901E+00 41280   0.471E+00    0.524E-01
DAV:   2    -0.305477559733E+03   -0.37671E-01   -0.28541E-01 70920   0.295E+00    0.154E+00
DAV:   3    -0.305449545988E+03    0.28014E-01   -0.14974E-01 70380   0.200E+00    0.390E-01
DAV:   4    -0.305449385001E+03    0.16099E-03   -0.23701E-02 66696   0.722E-01    0.356E-01
DAV:   5    -0.305448056119E+03    0.13289E-02   -0.87421E-03 62376   0.450E-01    0.191E-01
DAV:   6    -0.305448095524E+03   -0.39406E-04   -0.44008E-03 60000   0.335E-01    0.212E-01
DAV:   7    -0.305447868591E+03    0.22693E-03   -0.44983E-03 59196   0.329E-01    0.154E-01
DAV:   8    -0.305447762746E+03    0.10584E-03   -0.30277E-03 62400   0.263E-01    0.138E-01
DAV:   9    -0.305447565943E+03    0.19680E-03   -0.14301E-03 53880   0.188E-01    0.442E-02
DAV:  10    -0.305447543340E+03    0.22602E-04   -0.17384E-04 28176   0.834E-02
  18 F= -.30544754E+03 E0= -.30544803E+03  d E =-.521759E-01
 curvature:  -2.99 expect dE=-0.926E-01 dE for cont linesearch -0.178E-04
 trial: gam= 0.96303 g(F)=  0.299E-01 g(S)=  0.103E-02 ort = 0.551E-03 (trialstep = 0.661E+00)
 search vector abs. value=  0.793E-01
 bond charge predicted
       N       E                     dE             d eps       ncg     rms          rms(c)
DAV:   1    -0.305460590867E+03   -0.13025E-01   -0.20855E+00 41280   0.438E+00    0.413E-01
DAV:   2    -0.305480006942E+03   -0.19416E-01   -0.17229E-01 69348   0.227E+00    0.107E+00
DAV:   3    -0.305468666370E+03    0.11341E-01   -0.74159E-02 67368   0.139E+00    0.293E-01
DAV:   4    -0.305468512025E+03    0.15435E-03   -0.11788E-02 62976   0.522E-01    0.258E-01
DAV:   5    -0.305467693497E+03    0.81853E-03   -0.54329E-03 63264   0.341E-01    0.140E-01
DAV:   6    -0.305467700263E+03   -0.67663E-05   -0.27272E-03 59004   0.273E-01    0.160E-01
DAV:   7    -0.305467532011E+03    0.16825E-03   -0.34088E-03 60960   0.276E-01    0.117E-01
DAV:   8    -0.305467364323E+03    0.16769E-03   -0.11548E-03 54444   0.170E-01    0.615E-02
DAV:   9    -0.305467327184E+03    0.37139E-04   -0.35998E-04 37656   0.121E-01
  19 F= -.30546733E+03 E0= -.30546799E+03  d E =-.197838E-01
 ZBRENT: can't locate minimum, use default step
 trial-energy change:   -0.019784  1 .order   -0.019883   -0.020819   -0.018947
 step:   2.6457(harm=  7.3556)  dis= 0.06554  next Energy=  -305.563308 (dE=-0.116E+00)
 bond charge predicted
       N       E                     dE             d eps       ncg     rms          rms(c)
DAV:   1    -0.305449985667E+03    0.17379E-01   -0.18759E+01 41280   0.132E+01    0.126E+00
DAV:   2    -0.305605308315E+03   -0.15532E+00   -0.14684E+00 69084   0.660E+00    0.289E+00
DAV:   3    -0.305525468625E+03    0.79840E-01   -0.60370E-01 67332   0.393E+00    0.928E-01
DAV:   4    -0.305522407784E+03    0.30608E-02   -0.10244E-01 70332   0.156E+00    0.741E-01
DAV:   5    -0.305515851034E+03    0.65568E-02   -0.43559E-02 69480   0.917E-01    0.422E-01
DAV:   6    -0.305516801424E+03   -0.95039E-03   -0.30243E-02 64716   0.866E-01    0.583E-01
DAV:   7    -0.305514383106E+03    0.24183E-02   -0.34517E-02 66372   0.863E-01    0.336E-01
DAV:   8    -0.305513216863E+03    0.11662E-02   -0.10131E-02 66936   0.523E-01    0.239E-01
DAV:   9    -0.305512675813E+03    0.54105E-03   -0.54008E-03 60264   0.354E-01    0.904E-02
DAV:  10    -0.305512622582E+03    0.53230E-04   -0.11622E-03 56448   0.167E-01    0.711E-02
DAV:  11    -0.305512606691E+03    0.15892E-04   -0.74212E-04 48864   0.146E-01
  20 F= -.30551261E+03 E0= -.30551373E+03  d E =-.650634E-01
 curvature:  -4.68 expect dE=-0.122E+00 dE for cont linesearch -0.161E-01
 ZBRENT: increasing intervall
 opt :   6.6143  next Energy=  -305.529937 (dE=-0.824E-01)
 bond charge predicted
       N       E                     dE             d eps       ncg     rms          rms(c)
DAV:   1    -0.305241675564E+03    0.27095E+00   -0.74934E+01 41280   0.265E+01    0.263E+00
DAV:   2    -0.305797054213E+03   -0.55538E+00   -0.56175E+00 68880   0.127E+01    0.509E+00
DAV:   3    -0.305572482909E+03    0.22457E+00   -0.22166E+00 67044   0.756E+00    0.208E+00
DAV:   4    -0.305548584320E+03    0.23899E-01   -0.43499E-01 70176   0.320E+00    0.149E+00
DAV:   5    -0.305525607560E+03    0.22977E-01   -0.17296E-01 70200   0.182E+00    0.945E-01
DAV:   6    -0.305531367773E+03   -0.57602E-02   -0.14436E-01 63732   0.185E+00    0.126E+00
DAV:   7    -0.305516332293E+03    0.15035E-01   -0.11053E-01 70884   0.162E+00    0.531E-01
DAV:   8    -0.305514444591E+03    0.18877E-02   -0.45928E-02 71532   0.112E+00    0.538E-01
DAV:   9    -0.305511221406E+03    0.32232E-02   -0.25857E-02 69288   0.768E-01    0.192E-01
DAV:  10    -0.305511044663E+03    0.17674E-03   -0.64165E-03 67404   0.333E-01    0.145E-01
DAV:  11    -0.305510912315E+03    0.13235E-03   -0.31381E-03 63684   0.240E-01    0.109E-01
DAV:  12    -0.305510815244E+03    0.97071E-04   -0.13573E-03 55284   0.192E-01    0.801E-02
DAV:  13    -0.305510747522E+03    0.67721E-04   -0.61704E-04 46116   0.131E-01
  21 F= -.30551075E+03 E0= -.30551212E+03  d E =-.632042E-01
 curvature:  -5.05 expect dE=-0.563E+00 dE for cont linesearch -0.302E-01
 ZBRENT: bracketing found
 ZBRENT: interpolating
 opt :   4.3563  next Energy=  -305.526725 (dE=-0.792E-01)
 bond charge predicted
       N       E                     dE             d eps       ncg     rms          rms(c)
DAV:   1    -0.305451898313E+03    0.58917E-01   -0.24313E+01 41280   0.150E+01    0.149E+00
DAV:   2    -0.305707227505E+03   -0.25533E+00   -0.22713E+00 68592   0.832E+00    0.413E+00
DAV:   3    -0.305546637437E+03    0.16059E+00   -0.10956E+00 66720   0.550E+00    0.994E-01
DAV:   4    -0.305544391618E+03    0.22458E-02   -0.15119E-01 71520   0.176E+00    0.883E-01
DAV:   5    -0.305534472919E+03    0.99187E-02   -0.64215E-02 69576   0.112E+00    0.486E-01
DAV:   6    -0.305535674982E+03   -0.12021E-02   -0.40018E-02 66420   0.966E-01    0.639E-01
DAV:   7    -0.305532525333E+03    0.31496E-02   -0.40354E-02 69264   0.934E-01    0.386E-01
DAV:   8    -0.305531031060E+03    0.14943E-02   -0.15639E-02 72504   0.575E-01    0.269E-01
DAV:   9    -0.305530477701E+03    0.55336E-03   -0.78266E-03 58728   0.431E-01    0.154E-01
DAV:  10    -0.305530281804E+03    0.19590E-03   -0.23080E-03 63276   0.231E-01    0.895E-02
DAV:  11    -0.305530220052E+03    0.61753E-04   -0.10049E-03 53496   0.142E-01    0.623E-02
DAV:  12    -0.305530190940E+03    0.29111E-04   -0.45059E-04 40608   0.129E-01
  22 F= -.30553019E+03 E0= -.30553153E+03  d E =-.826476E-01
 curvature:  -2.36 expect dE=-0.111E+00 dE for cont linesearch -0.282E-03
 trial: gam= 1.37361 g(F)=  0.430E-01 g(S)=  0.415E-02 ort = 0.308E-02 (trialstep = 0.541E+00)
 search vector abs. value=  0.205E+00
 bond charge predicted
       N       E                     dE             d eps       ncg     rms          rms(c)
DAV:   1    -0.305543985187E+03   -0.13765E-01   -0.34669E+00 41280   0.584E+00    0.675E-01
DAV:   2    -0.305564465760E+03   -0.20481E-01   -0.27792E-01 69420   0.262E+00    0.925E-01
DAV:   3    -0.305559992743E+03    0.44730E-02   -0.10263E-01 66456   0.162E+00    0.666E-01
DAV:   4    -0.305556622396E+03    0.33703E-02   -0.38318E-02 70368   0.952E-01    0.383E-01
DAV:   5    -0.305555260963E+03    0.13614E-02   -0.19224E-02 68544   0.571E-01    0.279E-01
DAV:   6    -0.305554943120E+03    0.31784E-03   -0.10812E-02 72048   0.452E-01    0.236E-01
DAV:   7    -0.305554614186E+03    0.32893E-03   -0.86202E-03 65748   0.414E-01    0.198E-01
DAV:   8    -0.305554297609E+03    0.31658E-03   -0.36289E-03 62268   0.283E-01    0.103E-01
DAV:   9    -0.305554181386E+03    0.11622E-03   -0.75658E-04 47220   0.145E-01    0.626E-02
DAV:  10    -0.305554159819E+03    0.21567E-04   -0.23185E-04 30060   0.101E-01
  23 F= -.30555416E+03 E0= -.30555561E+03  d E =-.239689E-01
 trial-energy change:   -0.023969  1 .order   -0.024118   -0.027791   -0.020444
 step:   2.0475(harm=  2.0475)  dis= 0.08045  next Energy=  -305.582755 (dE=-0.526E-01)
 bond charge predicted
       N       E                     dE             d eps       ncg     rms          rms(c)
DAV:   1    -0.305502305102E+03    0.51876E-01   -0.26883E+01 41580   0.162E+01    0.186E+00
DAV:   2    -0.305650823467E+03   -0.14852E+00   -0.20987E+00 69456   0.715E+00    0.239E+00
DAV:   3    -0.305622370624E+03    0.28453E-01   -0.74861E-01 66252   0.428E+00    0.189E+00
DAV:   4    -0.305597883393E+03    0.24487E-01   -0.33227E-01 71088   0.280E+00    0.113E+00
DAV:   5    -0.305587074486E+03    0.10809E-01   -0.15366E-01 69828   0.167E+00    0.808E-01
DAV:   6    -0.305584535654E+03    0.25388E-02   -0.86759E-02 70572   0.132E+00    0.690E-01
DAV:   7    -0.305581513696E+03    0.30220E-02   -0.65861E-02 73896   0.119E+00    0.523E-01
DAV:   8    -0.305579076482E+03    0.24372E-02   -0.25562E-02 76476   0.733E-01    0.273E-01
DAV:   9    -0.305578318777E+03    0.75770E-03   -0.61157E-03 65748   0.360E-01    0.177E-01
DAV:  10    -0.305578251513E+03    0.67263E-04   -0.25635E-03 62640   0.223E-01    0.138E-01
DAV:  11    -0.305578314027E+03   -0.62514E-04   -0.12997E-03 55536   0.182E-01    0.114E-01
DAV:  12    -0.305578359482E+03   -0.45455E-04   -0.16399E-03 56628   0.211E-01    0.979E-02
DAV:  13    -0.305578274399E+03    0.85084E-04   -0.87480E-04 50376   0.165E-01
  24 F= -.30557827E+03 E0= -.30558001E+03  d E =-.480835E-01
 curvature:  -4.09 expect dE=-0.276E+00 dE for cont linesearch -0.116E-02
 trial: gam= 1.29733 g(F)=  0.162E-01 g(S)=  0.513E-01 ort =-0.763E-02 (trialstep = 0.440E+00)
 search vector abs. value=  0.393E+00
 bond charge predicted
       N       E                     dE             d eps       ncg     rms          rms(c)
DAV:   1    -0.305586351271E+03   -0.79918E-02   -0.50910E+00 41280   0.800E+00    0.139E+00
DAV:   2    -0.305617260089E+03   -0.30909E-01   -0.55879E-01 69816   0.335E+00    0.127E+00
DAV:   3    -0.305615218021E+03    0.20421E-02   -0.35303E-01 71832   0.249E+00    0.133E+00
DAV:   4    -0.305603257105E+03    0.11961E-01   -0.16794E-01 66348   0.206E+00    0.829E-01
DAV:   5    -0.305595285052E+03    0.79721E-02   -0.66902E-02 75396   0.122E+00    0.422E-01
DAV:   6    -0.305594451167E+03    0.83389E-03   -0.34195E-02 75756   0.769E-01    0.377E-01
DAV:   7    -0.305593402220E+03    0.10489E-02   -0.16190E-02 69684   0.574E-01    0.249E-01
DAV:   8    -0.305593075959E+03    0.32626E-03   -0.69440E-03 60396   0.378E-01    0.183E-01
DAV:   9    -0.305592910110E+03    0.16585E-03   -0.22690E-03 60480   0.228E-01    0.125E-01
DAV:  10    -0.305592872956E+03    0.37154E-04   -0.78760E-04 48324   0.148E-01
  25 F= -.30559287E+03 E0= -.30559474E+03  d E =-.145986E-01
 trial-energy change:   -0.014599  1 .order   -0.014763   -0.025328   -0.004197
 step:   0.5272(harm=  0.5272)  dis= 0.02691  next Energy=  -305.593454 (dE=-0.152E-01)
 bond charge predicted
       N       E                     dE             d eps       ncg     rms          rms(c)
DAV:   1    -0.305592926051E+03   -0.15941E-04   -0.20196E-01 41688   0.159E+00    0.282E-01
DAV:   2    -0.305594582722E+03   -0.16567E-02   -0.25161E-02 71148   0.780E-01    0.346E-01
DAV:   3    -0.305593869051E+03    0.71367E-03   -0.17963E-02 70068   0.627E-01    0.272E-01
DAV:   4    -0.305593353774E+03    0.51528E-03   -0.67524E-03 58260   0.402E-01    0.158E-01
DAV:   5    -0.305593092900E+03    0.26087E-03   -0.31930E-03 63612   0.242E-01    0.103E-01
DAV:   6    -0.305593065771E+03    0.27129E-04   -0.15279E-03 57516   0.195E-01    0.960E-02
DAV:   7    -0.305592990004E+03    0.75767E-04   -0.67443E-04 45936   0.144E-01
  26 F= -.30559299E+03 E0= -.30559485E+03  d E =-.147156E-01
 curvature:  -1.80 expect dE=-0.253E-01 dE for cont linesearch -0.421E-05
 trial: gam=-0.04544 g(F)=  0.115E-01 g(S)=  0.253E-02 ort =-0.959E-03 (trialstep = 0.457E+00)
 search vector abs. value=  0.149E-01
 bond charge predicted
       N       E                     dE             d eps       ncg     rms          rms(c)
DAV:   1    -0.305597565925E+03   -0.45002E-02   -0.27867E-01 41484   0.176E+00    0.202E-01
DAV:   2    -0.305600532622E+03   -0.29667E-02   -0.30761E-02 70140   0.971E-01    0.387E-01
DAV:   3    -0.305599069247E+03    0.14634E-02   -0.12617E-02 69552   0.599E-01    0.160E-01
DAV:   4    -0.305598949244E+03    0.12000E-03   -0.34089E-03 63012   0.265E-01    0.128E-01
DAV:   5    -0.305598797897E+03    0.15135E-03   -0.18582E-03 59076   0.198E-01    0.959E-02
DAV:   6    -0.305598751516E+03    0.46381E-04   -0.98493E-04 50244   0.167E-01
  27 F= -.30559875E+03 E0= -.30560069E+03  d E =-.576151E-02
 ZBRENT: can't locate minimum, use default step
 trial-energy change:   -0.005762  1 .order   -0.005931   -0.006443   -0.005419
 step:   1.8293(harm=  2.8780)  dis= 0.01047  next Energy=  -305.613262 (dE=-0.203E-01)
 bond charge predicted
       N       E                     dE             d eps       ncg     rms          rms(c)
DAV:   1    -0.305598291591E+03    0.50631E-03   -0.25020E+00 41280   0.529E+00    0.595E-01
DAV:   2    -0.305625644242E+03   -0.27353E-01   -0.27881E-01 70500   0.288E+00    0.119E+00
DAV:   3    -0.305611113696E+03    0.14531E-01   -0.11564E-01 70428   0.182E+00    0.463E-01
DAV:   4    -0.305610351902E+03    0.76179E-03   -0.30221E-02 71244   0.782E-01    0.401E-01
DAV:   5    -0.305608762618E+03    0.15893E-02   -0.17346E-02 65640   0.585E-01    0.281E-01
DAV:   6    -0.305608508520E+03    0.25410E-03   -0.95853E-03 62088   0.482E-01    0.241E-01
DAV:   7    -0.305608122323E+03    0.38620E-03   -0.66302E-03 67536   0.362E-01    0.148E-01
DAV:   8    -0.305607852282E+03    0.27004E-03   -0.23282E-03 61848   0.203E-01    0.755E-02
DAV:   9    -0.305607802714E+03    0.49568E-04   -0.77390E-04 49368   0.143E-01
  28 F= -.30560780E+03 E0= -.30560983E+03  d E =-.148127E-01
 curvature:  -1.24 expect dE=-0.595E-02 dE for cont linesearch -0.419E-03
 trial: gam= 0.19982 g(F)=  0.377E-02 g(S)=  0.103E-02 ort = 0.225E-02 (trialstep = 0.732E+00)
 search vector abs. value=  0.629E-02
 bond charge predicted
       N       E                     dE             d eps       ncg     rms          rms(c)
DAV:   1    -0.305610631865E+03   -0.27796E-02   -0.33786E-01 41388   0.228E+00    0.470E-01
DAV:   2    -0.305613061635E+03   -0.24298E-02   -0.51338E-02 71304   0.114E+00    0.436E-01
DAV:   3    -0.305613310833E+03   -0.24920E-03   -0.37128E-02 68832   0.957E-01    0.471E-01
DAV:   4    -0.305611252659E+03    0.20582E-02   -0.16475E-02 59604   0.672E-01    0.215E-01
DAV:   5    -0.305610738254E+03    0.51440E-03   -0.63906E-03 67260   0.367E-01    0.146E-01
DAV:   6    -0.305610651136E+03    0.87117E-04   -0.32733E-03 60720   0.281E-01    0.138E-01
DAV:   7    -0.305610537937E+03    0.11320E-03   -0.21068E-03 59592   0.229E-01    0.887E-02
DAV:   8    -0.305610476376E+03    0.61562E-04   -0.66473E-04 47316   0.124E-01
  29 F= -.30561048E+03 E0= -.30561253E+03  d E =-.267366E-02
 trial-energy change:   -0.002674  1 .order   -0.002672   -0.003838   -0.001506
 step:   1.2042(harm=  1.2042)  dis= 0.00422  next Energy=  -305.610960 (dE=-0.316E-02)
 bond charge predicted
       N       E                     dE             d eps       ncg     rms          rms(c)
DAV:   1    -0.305610861410E+03   -0.32347E-03   -0.14047E-01 41412   0.148E+00    0.292E-01
DAV:   2    -0.305611955210E+03   -0.10938E-02   -0.20594E-02 69120   0.749E-01    0.295E-01
DAV:   3    -0.305611988557E+03   -0.33347E-04   -0.15716E-02 67416   0.634E-01    0.301E-01
DAV:   4    -0.305611158482E+03    0.83008E-03   -0.62646E-03 59088   0.410E-01    0.123E-01
DAV:   5    -0.305611059628E+03    0.98854E-04   -0.25771E-03 60660   0.252E-01    0.119E-01
DAV:   6    -0.305610954398E+03    0.10523E-03   -0.13049E-03 53532   0.200E-01    0.715E-02
DAV:   7    -0.305610914964E+03    0.39434E-04   -0.39425E-04 37296   0.118E-01
  30 F= -.30561091E+03 E0= -.30561298E+03  d E =-.311225E-02
 curvature:  -0.72 expect dE=-0.435E-02 dE for cont linesearch -0.488E-05
 trial: gam= 1.30764 g(F)=  0.149E-02 g(S)=  0.453E-02 ort = 0.206E-03 (trialstep = 0.300E+00)
 search vector abs. value=  0.173E-01
 bond charge predicted
       N       E                     dE             d eps       ncg     rms          rms(c)
DAV:   1    -0.305611771977E+03   -0.81758E-03   -0.15996E-01 41304   0.148E+00    0.219E-01
DAV:   2    -0.305613978730E+03   -0.22068E-02   -0.24714E-02 70128   0.817E-01    0.335E-01
DAV:   3    -0.305612963428E+03    0.10153E-02   -0.11486E-02 70284   0.551E-01    0.185E-01
DAV:   4    -0.305612762786E+03    0.20064E-03   -0.34003E-03 62664   0.283E-01    0.128E-01
DAV:   5    -0.305612581271E+03    0.18152E-03   -0.17463E-03 60444   0.176E-01    0.751E-02
DAV:   6    -0.305612579986E+03    0.12852E-05   -0.99472E-04 52404   0.150E-01
  31 F= -.30561258E+03 E0= -.30561465E+03  d E =-.166502E-02
 ZBRENT: can't locate minimum, use default step
 trial-energy change:   -0.001665  1 .order   -0.001725   -0.001889   -0.001562
 step:   1.2002(harm=  1.7303)  dis= 0.00844  next Energy=  -305.616362 (dE=-0.545E-02)
 bond charge predicted
       N       E                     dE             d eps       ncg     rms          rms(c)
DAV:   1    -0.305607216298E+03    0.53650E-02   -0.14368E+00 41280   0.440E+00    0.588E-01
DAV:   2    -0.305625514096E+03   -0.18298E-01   -0.20211E-01 69936   0.228E+00    0.900E-01
DAV:   3    -0.305616817438E+03    0.86967E-02   -0.84763E-02 74328   0.147E+00    0.470E-01
DAV:   4    -0.305616062911E+03    0.75453E-03   -0.28283E-02 70572   0.823E-01    0.399E-01
DAV:   5    -0.305614282745E+03    0.17802E-02   -0.15338E-02 68040   0.553E-01    0.212E-01
DAV:   6    -0.305614352160E+03   -0.69415E-04   -0.84730E-03 68616   0.426E-01    0.242E-01
DAV:   7    -0.305614029661E+03    0.32250E-03   -0.60511E-03 58692   0.364E-01    0.162E-01
DAV:   8    -0.305613755430E+03    0.27423E-03   -0.23630E-03 61428   0.214E-01    0.714E-02
DAV:   9    -0.305613722195E+03    0.33235E-04   -0.55374E-04 45816   0.119E-01
  32 F= -.30561372E+03 E0= -.30561581E+03  d E =-.280723E-02
 curvature:  -2.05 expect dE=-0.564E-02 dE for cont linesearch -0.128E-03
 trial: gam= 0.47388 g(F)=  0.262E-02 g(S)=  0.130E-03 ort =-0.104E-02 (trialstep = 0.480E+00)
 search vector abs. value=  0.565E-02
 bond charge predicted
       N       E                     dE             d eps       ncg     rms          rms(c)
DAV:   1    -0.305613524799E+03    0.23063E-03   -0.14712E-01 41340   0.136E+00    0.137E-01
DAV:   2    -0.305615443924E+03   -0.19191E-02   -0.17641E-02 69096   0.750E-01    0.269E-01
DAV:   3    -0.305614681724E+03    0.76220E-03   -0.56229E-03 67824   0.428E-01    0.978E-02
DAV:   4    -0.305614631178E+03    0.50547E-04   -0.10323E-03 53376   0.168E-01    0.766E-02
DAV:   5    -0.305614585264E+03    0.45914E-04   -0.49352E-04 45324   0.117E-01
  33 F= -.30561459E+03 E0= -.30561670E+03  d E =-.863069E-03
 trial-energy change:   -0.000863  1 .order   -0.000937   -0.001082   -0.000792
 step:   1.7891(harm=  1.7891)  dis= 0.00740  next Energy=  -305.615739 (dE=-0.202E-02)
 bond charge predicted
       N       E                     dE             d eps       ncg     rms          rms(c)
DAV:   1    -0.305608095820E+03    0.65354E-02   -0.10965E+00 41916   0.369E+00    0.340E-01
DAV:   2    -0.305622639990E+03   -0.14544E-01   -0.12836E-01 68448   0.201E+00    0.813E-01
DAV:   3    -0.305615658869E+03    0.69811E-02   -0.44107E-02 68856   0.119E+00    0.230E-01
DAV:   4    -0.305615394730E+03    0.26414E-03   -0.63101E-03 65868   0.385E-01    0.188E-01
DAV:   5    -0.305615180119E+03    0.21461E-03   -0.34810E-03 60792   0.267E-01    0.157E-01
DAV:   6    -0.305615146755E+03    0.33364E-04   -0.23822E-03 57900   0.244E-01    0.142E-01
DAV:   7    -0.305615009847E+03    0.13691E-03   -0.17659E-03 59880   0.191E-01    0.807E-02
DAV:   8    -0.305614916702E+03    0.93145E-04   -0.68531E-04 46980   0.122E-01
  34 F= -.30561492E+03 E0= -.30561710E+03  d E =-.119451E-02
 curvature:  -2.24 expect dE=-0.613E-02 dE for cont linesearch -0.108E-03
 trial: gam= 0.77911 g(F)=  0.101E-02 g(S)=  0.172E-02 ort =-0.521E-03 (trialstep = 0.742E+00)
 search vector abs. value=  0.535E-02
 bond charge predicted
       N       E                     dE             d eps       ncg     rms          rms(c)
DAV:   1    -0.305615752839E+03   -0.74299E-03   -0.39603E-01 53352   0.269E+00    0.558E-01
DAV:   2    -0.305619053995E+03   -0.33012E-02   -0.76839E-02 73992   0.135E+00    0.498E-01
DAV:   3    -0.305618937663E+03    0.11633E-03   -0.55405E-02 72216   0.108E+00    0.547E-01
DAV:   4    -0.305616486395E+03    0.24513E-02   -0.23648E-02 63600   0.798E-01    0.290E-01
DAV:   5    -0.305615606220E+03    0.88017E-03   -0.10180E-02 69852   0.442E-01    0.202E-01
DAV:   6    -0.305615375776E+03    0.23044E-03   -0.63737E-03 63600   0.376E-01    0.166E-01
DAV:   7    -0.305615200676E+03    0.17510E-03   -0.30441E-03 60396   0.265E-01    0.104E-01
DAV:   8    -0.305615166056E+03    0.34620E-04   -0.14854E-03 57876   0.180E-01    0.799E-02
DAV:   9    -0.305615106334E+03    0.59722E-04   -0.32055E-04 35868   0.117E-01
  35 F= -.30561511E+03 E0= -.30561731E+03  d E =-.189632E-03
 trial-energy change:   -0.000190  1 .order   -0.000399   -0.001725    0.000927
 step:   0.4826(harm=  0.4826)  dis= 0.00182  next Energy=  -305.615478 (dE=-0.561E-03)
 bond charge predicted
       N       E                     dE             d eps       ncg     rms          rms(c)
DAV:   1    -0.305615452733E+03   -0.28668E-03   -0.49064E-02 54156   0.948E-01    0.208E-01
DAV:   2    -0.305615915064E+03   -0.46233E-03   -0.10398E-02 74700   0.478E-01    0.187E-01
DAV:   3    -0.305615890367E+03    0.24697E-04   -0.76304E-03 68184   0.399E-01    0.205E-01
DAV:   4    -0.305615554489E+03    0.33588E-03   -0.32930E-03 61908   0.304E-01    0.109E-01
DAV:   5    -0.305615431980E+03    0.12251E-03   -0.13577E-03 57876   0.160E-01    0.764E-02
DAV:   6    -0.305615397928E+03    0.34052E-04   -0.90011E-04 51768   0.150E-01
  36 F= -.30561540E+03 E0= -.30561757E+03  d E =-.481226E-03
 curvature:  -0.56 expect dE=-0.996E-03 dE for cont linesearch -0.772E-04
 trial: gam= 0.00000 g(F)=  0.104E-02 g(S)=  0.753E-03 ort =-0.863E-03 (trialstep = 0.690E+00)
 search vector abs. value=  0.179E-02
 reached required accuracy - stopping structural energy minimisation
 writing wavefunctions
VASP is done!
