<?xml version="1.0" encoding="ISO-8859-1"?>
<modeling>
 <generator>
  <i name="program" type="string">vasp </i>
  <i name="version" type="string">5.4.4.18Apr17-6-g9f103f2a35  </i>
  <i name="subversion" type="string">(build Aug 09 2018 16:20:53) complex            parallel </i>
  <i name="platform" type="string">LinuxIFC </i>
  <i name="date" type="string">2020 04 29 </i>
  <i name="time" type="string">09:24:00 </i>
 </generator>
 <incar>
  <i type="string" name="SYSTEM"> Nb - Mo - Ta - Ti - V SQS</i>
  <i type="string" name="PREC">normal</i>
  <i type="int" name="ICHARG">     0</i>
  <i type="int" name="IBRION">     2</i>
  <i type="int" name="NSW">    50</i>
  <i type="int" name="ISIF">     3</i>
  <i name="ENCUT">    600.00000000</i>
  <i type="string" name="LREAL"> Auto</i>
  <i type="int" name="ISMEAR">     1</i>
  <i name="SIGMA">      0.20000000</i>
  <v type="int" name="KPOINT_BSE">    -1     0     0     0</v>
  <i type="string" name="GGA"> PS</i>
 </incar>
 <structure name="primitive_cell" >
  <crystal>
   <varray name="basis" >
    <v>      -3.16000000      -3.16000000      -3.16000000 </v>
    <v>       1.58000000       1.58000000      -7.90000000 </v>
    <v>       7.90000000      -7.90000000      -1.58000000 </v>
   </varray>
   <i name="volume">    473.31744000 </i>
   <varray name="rec_basis" >
    <v>      -0.13713080      -0.12658228      -0.05274262 </v>
    <v>       0.04219409       0.06329114      -0.10548523 </v>
    <v>       0.06329114      -0.06329114       0.00000000 </v>
   </varray>
  </crystal>
  <varray name="positions" >
   <v>      -0.03333333      -0.06666667       0.40000000 </v>
   <v>       0.30000000      -0.40000000       0.40000000 </v>
   <v>      -0.10000000      -0.20000000       0.20000000 </v>
   <v>       0.06666667       0.13333333       0.20000000 </v>
   <v>       0.46666667      -0.06666667       0.40000000 </v>
   <v>      -0.13333333      -0.26666667      -0.40000000 </v>
   <v>       0.03333333       0.06666667      -0.40000000 </v>
   <v>      -0.36666667       0.26666667       0.40000000 </v>
   <v>       0.40000000      -0.20000000       0.20000000 </v>
   <v>      -0.20000000      -0.40000000       0.40000000 </v>
   <v>      -0.43333333       0.13333333       0.20000000 </v>
   <v>       0.13333333       0.26666667       0.40000000 </v>
   <v>      -0.46666667       0.06666667      -0.40000000 </v>
   <v>       0.23333333       0.46666667       0.20000000 </v>
   <v>       0.20000000       0.40000000      -0.40000000 </v>
   <v>       0.00000000       0.00000000       0.00000000 </v>
   <v>      -0.06666667      -0.13333333      -0.20000000 </v>
   <v>      -0.30000000       0.40000000      -0.40000000 </v>
   <v>      -0.26666667       0.46666667       0.20000000 </v>
   <v>       0.33333333      -0.33333333       0.00000000 </v>
   <v>       0.43333333      -0.13333333      -0.20000000 </v>
   <v>      -0.50000000       0.00000000       0.00000000 </v>
   <v>       0.26666667      -0.46666667      -0.20000000 </v>
   <v>      -0.33333333       0.33333333       0.00000000 </v>
   <v>      -0.40000000       0.20000000      -0.20000000 </v>
   <v>      -0.16666667      -0.33333333       0.00000000 </v>
   <v>      -0.23333333      -0.46666667      -0.20000000 </v>
   <v>       0.16666667       0.33333333       0.00000000 </v>
   <v>       0.10000000       0.20000000      -0.20000000 </v>
  </varray>
 </structure>
 <varray name="primitive_index" >
  <v type="int" >        1 </v>
  <v type="int" >       17 </v>
  <v type="int" >        7 </v>
  <v type="int" >       23 </v>
  <v type="int" >       19 </v>
  <v type="int" >       18 </v>
  <v type="int" >        6 </v>
  <v type="int" >        2 </v>
  <v type="int" >       15 </v>
  <v type="int" >        8 </v>
  <v type="int" >       14 </v>
  <v type="int" >       11 </v>
  <v type="int" >       27 </v>
  <v type="int" >       29 </v>
  <v type="int" >       22 </v>
  <v type="int" >        4 </v>
  <v type="int" >       13 </v>
  <v type="int" >       25 </v>
  <v type="int" >        9 </v>
  <v type="int" >       28 </v>
  <v type="int" >       16 </v>
  <v type="int" >        3 </v>
  <v type="int" >       21 </v>
  <v type="int" >       10 </v>
  <v type="int" >       26 </v>
  <v type="int" >       12 </v>
  <v type="int" >       24 </v>
  <v type="int" >       20 </v>
  <v type="int" >        5 </v>
 </varray>
 <kpoints>
  <generation param="Gamma">
   <v type="int" name="divisions">       7        7        7 </v>
   <v name="usershift">      0.00000000       0.00000000       0.00000000 </v>
   <v name="genvec1">      0.14285714       0.00000000       0.00000000 </v>
   <v name="genvec2">     -0.00000000       0.14285714       0.00000000 </v>
   <v name="genvec3">      0.00000000       0.00000000       0.14285714 </v>
   <v name="shift">      0.00000000       0.00000000       0.00000000 </v>
  </generation>
  <varray name="kpointlist" >
   <v>       0.00000000       0.00000000       0.00000000 </v>
   <v>       0.14285714       0.00000000      -0.00000000 </v>
   <v>       0.28571429       0.00000000       0.00000000 </v>
   <v>       0.42857143       0.00000000      -0.00000000 </v>
   <v>      -0.00000000       0.14285714       0.00000000 </v>
   <v>       0.14285714       0.14285714      -0.00000000 </v>
   <v>       0.28571429       0.14285714       0.00000000 </v>
   <v>       0.42857143       0.14285714      -0.00000000 </v>
   <v>      -0.42857143       0.14285714       0.00000000 </v>
   <v>      -0.28571429       0.14285714       0.00000000 </v>
   <v>      -0.14285714       0.14285714       0.00000000 </v>
   <v>       0.00000000       0.28571429      -0.00000000 </v>
   <v>       0.14285714       0.28571429      -0.00000000 </v>
   <v>       0.28571429       0.28571429      -0.00000000 </v>
   <v>       0.42857143       0.28571429      -0.00000000 </v>
   <v>      -0.42857143       0.28571429      -0.00000000 </v>
   <v>      -0.28571429       0.28571429      -0.00000000 </v>
   <v>      -0.14285714       0.28571429      -0.00000000 </v>
   <v>      -0.00000000       0.42857143      -0.00000000 </v>
   <v>       0.14285714       0.42857143       0.00000000 </v>
   <v>       0.28571429       0.42857143       0.00000000 </v>
   <v>       0.42857143       0.42857143      -0.00000000 </v>
   <v>      -0.42857143       0.42857143       0.00000000 </v>
   <v>      -0.28571429       0.42857143      -0.00000000 </v>
   <v>      -0.14285714       0.42857143      -0.00000000 </v>
   <v>       0.00000000       0.00000000       0.14285714 </v>
   <v>       0.14285714       0.00000000       0.14285714 </v>
   <v>       0.28571429       0.00000000       0.14285714 </v>
   <v>       0.42857143       0.00000000       0.14285714 </v>
   <v>      -0.42857143       0.00000000       0.14285714 </v>
   <v>      -0.28571429       0.00000000       0.14285714 </v>
   <v>      -0.14285714      -0.00000000       0.14285714 </v>
   <v>      -0.00000000       0.14285714       0.14285714 </v>
   <v>       0.14285714       0.14285714       0.14285714 </v>
   <v>       0.28571429       0.14285714       0.14285714 </v>
   <v>       0.42857143       0.14285714       0.14285714 </v>
   <v>      -0.42857143       0.14285714       0.14285714 </v>
   <v>      -0.28571429       0.14285714       0.14285714 </v>
   <v>      -0.14285714       0.14285714       0.14285714 </v>
   <v>      -0.00000000       0.28571429       0.14285714 </v>
   <v>       0.14285714       0.28571429       0.14285714 </v>
   <v>       0.28571429       0.28571429       0.14285714 </v>
   <v>       0.42857143       0.28571429       0.14285714 </v>
   <v>      -0.42857143       0.28571429       0.14285714 </v>
   <v>      -0.28571429       0.28571429       0.14285714 </v>
   <v>      -0.14285714       0.28571429       0.14285714 </v>
   <v>       0.00000000       0.42857143       0.14285714 </v>
   <v>       0.14285714       0.42857143       0.14285714 </v>
   <v>       0.28571429       0.42857143       0.14285714 </v>
   <v>       0.42857143       0.42857143       0.14285714 </v>
   <v>      -0.42857143       0.42857143       0.14285714 </v>
   <v>      -0.28571429       0.42857143       0.14285714 </v>
   <v>      -0.14285714       0.42857143       0.14285714 </v>
   <v>       0.00000000      -0.42857143       0.14285714 </v>
   <v>       0.14285714      -0.42857143       0.14285714 </v>
   <v>       0.28571429      -0.42857143       0.14285714 </v>
   <v>       0.42857143      -0.42857143       0.14285714 </v>
   <v>      -0.42857143      -0.42857143       0.14285714 </v>
   <v>      -0.28571429      -0.42857143       0.14285714 </v>
   <v>      -0.14285714      -0.42857143       0.14285714 </v>
   <v>       0.00000000      -0.28571429       0.14285714 </v>
   <v>       0.14285714      -0.28571429       0.14285714 </v>
   <v>       0.28571429      -0.28571429       0.14285714 </v>
   <v>       0.42857143      -0.28571429       0.14285714 </v>
   <v>      -0.42857143      -0.28571429       0.14285714 </v>
   <v>      -0.28571429      -0.28571429       0.14285714 </v>
   <v>      -0.14285714      -0.28571429       0.14285714 </v>
   <v>       0.00000000      -0.14285714       0.14285714 </v>
   <v>       0.14285714      -0.14285714       0.14285714 </v>
   <v>       0.28571429      -0.14285714       0.14285714 </v>
   <v>       0.42857143      -0.14285714       0.14285714 </v>
   <v>      -0.42857143      -0.14285714       0.14285714 </v>
   <v>      -0.28571429      -0.14285714       0.14285714 </v>
   <v>      -0.14285714      -0.14285714       0.14285714 </v>
   <v>       0.00000000       0.00000000       0.28571429 </v>
   <v>       0.14285714       0.00000000       0.28571429 </v>
   <v>       0.28571429       0.00000000       0.28571429 </v>
   <v>       0.42857143       0.00000000       0.28571429 </v>
   <v>      -0.42857143      -0.00000000       0.28571429 </v>
   <v>      -0.28571429      -0.00000000       0.28571429 </v>
   <v>      -0.14285714      -0.00000000       0.28571429 </v>
   <v>      -0.00000000       0.14285714       0.28571429 </v>
   <v>       0.14285714       0.14285714       0.28571429 </v>
   <v>       0.28571429       0.14285714       0.28571429 </v>
   <v>       0.42857143       0.14285714       0.28571429 </v>
   <v>      -0.42857143       0.14285714       0.28571429 </v>
   <v>      -0.28571429       0.14285714       0.28571429 </v>
   <v>      -0.14285714       0.14285714       0.28571429 </v>
   <v>      -0.00000000       0.28571429       0.28571429 </v>
   <v>       0.14285714       0.28571429       0.28571429 </v>
   <v>       0.28571429       0.28571429       0.28571429 </v>
   <v>       0.42857143       0.28571429       0.28571429 </v>
   <v>      -0.42857143       0.28571429       0.28571429 </v>
   <v>      -0.28571429       0.28571429       0.28571429 </v>
   <v>      -0.14285714       0.28571429       0.28571429 </v>
   <v>       0.00000000       0.42857143       0.28571429 </v>
   <v>       0.14285714       0.42857143       0.28571429 </v>
   <v>       0.28571429       0.42857143       0.28571429 </v>
   <v>       0.42857143       0.42857143       0.28571429 </v>
   <v>      -0.42857143       0.42857143       0.28571429 </v>
   <v>      -0.28571429       0.42857143       0.28571429 </v>
   <v>      -0.14285714       0.42857143       0.28571429 </v>
   <v>      -0.00000000      -0.42857143       0.28571429 </v>
   <v>       0.14285714      -0.42857143       0.28571429 </v>
   <v>       0.28571429      -0.42857143       0.28571429 </v>
   <v>       0.42857143      -0.42857143       0.28571429 </v>
   <v>      -0.42857143      -0.42857143       0.28571429 </v>
   <v>      -0.28571429      -0.42857143       0.28571429 </v>
   <v>      -0.14285714      -0.42857143       0.28571429 </v>
   <v>       0.00000000      -0.28571429       0.28571429 </v>
   <v>       0.14285714      -0.28571429       0.28571429 </v>
   <v>       0.28571429      -0.28571429       0.28571429 </v>
   <v>       0.42857143      -0.28571429       0.28571429 </v>
   <v>      -0.42857143      -0.28571429       0.28571429 </v>
   <v>      -0.28571429      -0.28571429       0.28571429 </v>
   <v>      -0.14285714      -0.28571429       0.28571429 </v>
   <v>       0.00000000      -0.14285714       0.28571429 </v>
   <v>       0.14285714      -0.14285714       0.28571429 </v>
   <v>       0.28571429      -0.14285714       0.28571429 </v>
   <v>       0.42857143      -0.14285714       0.28571429 </v>
   <v>      -0.42857143      -0.14285714       0.28571429 </v>
   <v>      -0.28571429      -0.14285714       0.28571429 </v>
   <v>      -0.14285714      -0.14285714       0.28571429 </v>
   <v>       0.00000000       0.00000000       0.42857143 </v>
   <v>       0.14285714       0.00000000       0.42857143 </v>
   <v>       0.28571429       0.00000000       0.42857143 </v>
   <v>       0.42857143      -0.00000000       0.42857143 </v>
   <v>      -0.42857143      -0.00000000       0.42857143 </v>
   <v>      -0.28571429       0.00000000       0.42857143 </v>
   <v>      -0.14285714      -0.00000000       0.42857143 </v>
   <v>      -0.00000000       0.14285714       0.42857143 </v>
   <v>       0.14285714       0.14285714       0.42857143 </v>
   <v>       0.28571429       0.14285714       0.42857143 </v>
   <v>       0.42857143       0.14285714       0.42857143 </v>
   <v>      -0.42857143       0.14285714       0.42857143 </v>
   <v>      -0.28571429       0.14285714       0.42857143 </v>
   <v>      -0.14285714       0.14285714       0.42857143 </v>
   <v>       0.00000000       0.28571429       0.42857143 </v>
   <v>       0.14285714       0.28571429       0.42857143 </v>
   <v>       0.28571429       0.28571429       0.42857143 </v>
   <v>       0.42857143       0.28571429       0.42857143 </v>
   <v>      -0.42857143       0.28571429       0.42857143 </v>
   <v>      -0.28571429       0.28571429       0.42857143 </v>
   <v>      -0.14285714       0.28571429       0.42857143 </v>
   <v>       0.00000000       0.42857143       0.42857143 </v>
   <v>       0.14285714       0.42857143       0.42857143 </v>
   <v>       0.28571429       0.42857143       0.42857143 </v>
   <v>       0.42857143       0.42857143       0.42857143 </v>
   <v>      -0.42857143       0.42857143       0.42857143 </v>
   <v>      -0.28571429       0.42857143       0.42857143 </v>
   <v>      -0.14285714       0.42857143       0.42857143 </v>
   <v>       0.00000000      -0.42857143       0.42857143 </v>
   <v>       0.14285714      -0.42857143       0.42857143 </v>
   <v>       0.28571429      -0.42857143       0.42857143 </v>
   <v>       0.42857143      -0.42857143       0.42857143 </v>
   <v>      -0.42857143      -0.42857143       0.42857143 </v>
   <v>      -0.28571429      -0.42857143       0.42857143 </v>
   <v>      -0.14285714      -0.42857143       0.42857143 </v>
   <v>      -0.00000000      -0.28571429       0.42857143 </v>
   <v>       0.14285714      -0.28571429       0.42857143 </v>
   <v>       0.28571429      -0.28571429       0.42857143 </v>
   <v>       0.42857143      -0.28571429       0.42857143 </v>
   <v>      -0.42857143      -0.28571429       0.42857143 </v>
   <v>      -0.28571429      -0.28571429       0.42857143 </v>
   <v>      -0.14285714      -0.28571429       0.42857143 </v>
   <v>       0.00000000      -0.14285714       0.42857143 </v>
   <v>       0.14285714      -0.14285714       0.42857143 </v>
   <v>       0.28571429      -0.14285714       0.42857143 </v>
   <v>       0.42857143      -0.14285714       0.42857143 </v>
   <v>      -0.42857143      -0.14285714       0.42857143 </v>
   <v>      -0.28571429      -0.14285714       0.42857143 </v>
   <v>      -0.14285714      -0.14285714       0.42857143 </v>
  </varray>
  <varray name="weights" >
   <v>       0.00291545 </v>
   <v>       0.00583090 </v>
   <v>       0.00583090 </v>
   <v>       0.00583090 </v>
   <v>       0.00583090 </v>
   <v>       0.00583090 </v>
   <v>       0.00583090 </v>
   <v>       0.00583090 </v>
   <v>       0.00583090 </v>
   <v>       0.00583090 </v>
   <v>       0.00583090 </v>
   <v>       0.00583090 </v>
   <v>       0.00583090 </v>
   <v>       0.00583090 </v>
   <v>       0.00583090 </v>
   <v>       0.00583090 </v>
   <v>       0.00583090 </v>
   <v>       0.00583090 </v>
   <v>       0.00583090 </v>
   <v>       0.00583090 </v>
   <v>       0.00583090 </v>
   <v>       0.00583090 </v>
   <v>       0.00583090 </v>
   <v>       0.00583090 </v>
   <v>       0.00583090 </v>
   <v>       0.00583090 </v>
   <v>       0.00583090 </v>
   <v>       0.00583090 </v>
   <v>       0.00583090 </v>
   <v>       0.00583090 </v>
   <v>       0.00583090 </v>
   <v>       0.00583090 </v>
   <v>       0.00583090 </v>
   <v>       0.00583090 </v>
   <v>       0.00583090 </v>
   <v>       0.00583090 </v>
   <v>       0.00583090 </v>
   <v>       0.00583090 </v>
   <v>       0.00583090 </v>
   <v>       0.00583090 </v>
   <v>       0.00583090 </v>
   <v>       0.00583090 </v>
   <v>       0.00583090 </v>
   <v>       0.00583090 </v>
   <v>       0.00583090 </v>
   <v>       0.00583090 </v>
   <v>       0.00583090 </v>
   <v>       0.00583090 </v>
   <v>       0.00583090 </v>
   <v>       0.00583090 </v>
   <v>       0.00583090 </v>
   <v>       0.00583090 </v>
   <v>       0.00583090 </v>
   <v>       0.00583090 </v>
   <v>       0.00583090 </v>
   <v>       0.00583090 </v>
   <v>       0.00583090 </v>
   <v>       0.00583090 </v>
   <v>       0.00583090 </v>
   <v>       0.00583090 </v>
   <v>       0.00583090 </v>
   <v>       0.00583090 </v>
   <v>       0.00583090 </v>
   <v>       0.00583090 </v>
   <v>       0.00583090 </v>
   <v>       0.00583090 </v>
   <v>       0.00583090 </v>
   <v>       0.00583090 </v>
   <v>       0.00583090 </v>
   <v>       0.00583090 </v>
   <v>       0.00583090 </v>
   <v>       0.00583090 </v>
   <v>       0.00583090 </v>
   <v>       0.00583090 </v>
   <v>       0.00583090 </v>
   <v>       0.00583090 </v>
   <v>       0.00583090 </v>
   <v>       0.00583090 </v>
   <v>       0.00583090 </v>
   <v>       0.00583090 </v>
   <v>       0.00583090 </v>
   <v>       0.00583090 </v>
   <v>       0.00583090 </v>
   <v>       0.00583090 </v>
   <v>       0.00583090 </v>
   <v>       0.00583090 </v>
   <v>       0.00583090 </v>
   <v>       0.00583090 </v>
   <v>       0.00583090 </v>
   <v>       0.00583090 </v>
   <v>       0.00583090 </v>
   <v>       0.00583090 </v>
   <v>       0.00583090 </v>
   <v>       0.00583090 </v>
   <v>       0.00583090 </v>
   <v>       0.00583090 </v>
   <v>       0.00583090 </v>
   <v>       0.00583090 </v>
   <v>       0.00583090 </v>
   <v>       0.00583090 </v>
   <v>       0.00583090 </v>
   <v>       0.00583090 </v>
   <v>       0.00583090 </v>
   <v>       0.00583090 </v>
   <v>       0.00583090 </v>
   <v>       0.00583090 </v>
   <v>       0.00583090 </v>
   <v>       0.00583090 </v>
   <v>       0.00583090 </v>
   <v>       0.00583090 </v>
   <v>       0.00583090 </v>
   <v>       0.00583090 </v>
   <v>       0.00583090 </v>
   <v>       0.00583090 </v>
   <v>       0.00583090 </v>
   <v>       0.00583090 </v>
   <v>       0.00583090 </v>
   <v>       0.00583090 </v>
   <v>       0.00583090 </v>
   <v>       0.00583090 </v>
   <v>       0.00583090 </v>
   <v>       0.00583090 </v>
   <v>       0.00583090 </v>
   <v>       0.00583090 </v>
   <v>       0.00583090 </v>
   <v>       0.00583090 </v>
   <v>       0.00583090 </v>
   <v>       0.00583090 </v>
   <v>       0.00583090 </v>
   <v>       0.00583090 </v>
   <v>       0.00583090 </v>
   <v>       0.00583090 </v>
   <v>       0.00583090 </v>
   <v>       0.00583090 </v>
   <v>       0.00583090 </v>
   <v>       0.00583090 </v>
   <v>       0.00583090 </v>
   <v>       0.00583090 </v>
   <v>       0.00583090 </v>
   <v>       0.00583090 </v>
   <v>       0.00583090 </v>
   <v>       0.00583090 </v>
   <v>       0.00583090 </v>
   <v>       0.00583090 </v>
   <v>       0.00583090 </v>
   <v>       0.00583090 </v>
   <v>       0.00583090 </v>
   <v>       0.00583090 </v>
   <v>       0.00583090 </v>
   <v>       0.00583090 </v>
   <v>       0.00583090 </v>
   <v>       0.00583090 </v>
   <v>       0.00583090 </v>
   <v>       0.00583090 </v>
   <v>       0.00583090 </v>
   <v>       0.00583090 </v>
   <v>       0.00583090 </v>
   <v>       0.00583090 </v>
   <v>       0.00583090 </v>
   <v>       0.00583090 </v>
   <v>       0.00583090 </v>
   <v>       0.00583090 </v>
   <v>       0.00583090 </v>
   <v>       0.00583090 </v>
   <v>       0.00583090 </v>
   <v>       0.00583090 </v>
   <v>       0.00583090 </v>
   <v>       0.00583090 </v>
   <v>       0.00583090 </v>
   <v>       0.00583090 </v>
   <v>       0.00583090 </v>
   <v>       0.00583090 </v>
  </varray>
 </kpoints>
 <parameters>
  <separator name="general" >
   <i type="string" name="SYSTEM">Nb - Mo - Ta - Ti - V SQS</i>
   <i type="logical" name="LCOMPAT"> F  </i>
  </separator>
  <separator name="electronic" >
   <i type="string" name="PREC">normal</i>
   <i name="ENMAX">    600.00000000</i>
   <i name="ENAUG">    455.65900000</i>
   <i name="EDIFF">      0.00010000</i>
   <i type="int" name="IALGO">    38</i>
   <i type="int" name="IWAVPR">    11</i>
   <i type="int" name="NBANDS">   120</i>
   <i name="NELECT">    192.00000000</i>
   <i type="int" name="TURBO">     0</i>
   <i type="int" name="IRESTART">     0</i>
   <i type="int" name="NREBOOT">     0</i>
   <i type="int" name="NMIN">     0</i>
   <i name="EREF">      0.00000000</i>
   <separator name="electronic smearing" >
    <i type="int" name="ISMEAR">     1</i>
    <i name="SIGMA">      0.20000000</i>
    <i name="KSPACING">      0.50000000</i>
    <i type="logical" name="KGAMMA"> T  </i>
   </separator>
   <separator name="electronic projectors" >
    <i type="logical" name="LREAL"> T  </i>
    <v name="ROPT">     -0.00050000     -0.00050000     -0.00050000     -0.00050000     -0.00050000</v>
    <i type="int" name="LMAXPAW">  -100</i>
    <i type="int" name="LMAXMIX">     2</i>
    <i type="logical" name="NLSPLINE"> F  </i>
   </separator>
   <separator name="electronic startup" >
    <i type="int" name="ISTART">     0</i>
    <i type="int" name="ICHARG">     0</i>
    <i type="int" name="INIWAV">     1</i>
   </separator>
   <separator name="electronic spin" >
    <i type="int" name="ISPIN">     1</i>
    <i type="logical" name="LNONCOLLINEAR"> F  </i>
    <v name="MAGMOM">      1.00000000      1.00000000      1.00000000      1.00000000      1.00000000      1.00000000      1.00000000      1.00000000      1.00000000      1.00000000      1.00000000      1.00000000      1.00000000      1.00000000      1.00000000      1.00000000      1.00000000      1.00000000      1.00000000      1.00000000
      1.00000000      1.00000000      1.00000000      1.00000000      1.00000000      1.00000000      1.00000000      1.00000000      1.00000000</v>
    <i name="NUPDOWN">     -1.00000000</i>
    <i type="logical" name="LSORBIT"> F  </i>
    <v name="SAXIS">      0.00000000      0.00000000      1.00000000</v>
    <i type="logical" name="LSPIRAL"> F  </i>
    <v name="QSPIRAL">      0.00000000      0.00000000      0.00000000</v>
    <i type="logical" name="LZEROZ"> F  </i>
   </separator>
   <separator name="electronic exchange-correlation" >
    <i type="logical" name="LASPH"> F  </i>
    <i type="logical" name="LMETAGGA"> F  </i>
   </separator>
   <separator name="electronic convergence" >
    <i type="int" name="NELM">    60</i>
    <i type="int" name="NELMDL">    -5</i>
    <i type="int" name="NELMIN">     2</i>
    <i name="ENINI">    600.00000000</i>
    <separator name="electronic convergence detail" >
     <i type="logical" name="LDIAG"> T  </i>
     <i type="logical" name="LSUBROT"> F  </i>
     <i name="WEIMIN">      0.00100000</i>
     <i name="EBREAK">      0.00000021</i>
     <i name="DEPER">      0.30000000</i>
     <i type="int" name="NRMM">     4</i>
     <i name="TIME">      0.40000000</i>
    </separator>
   </separator>
   <separator name="electronic mixer" >
    <i name="AMIX">      0.40000000</i>
    <i name="BMIX">      1.00000000</i>
    <i name="AMIN">      0.10000000</i>
    <i name="AMIX_MAG">      1.60000000</i>
    <i name="BMIX_MAG">      1.00000000</i>
    <separator name="electronic mixer details" >
     <i type="int" name="IMIX">     4</i>
     <i type="logical" name="MIXFIRST"> F  </i>
     <i type="int" name="MAXMIX">   -45</i>
     <i name="WC">    100.00000000</i>
     <i type="int" name="INIMIX">     1</i>
     <i type="int" name="MIXPRE">     1</i>
     <i type="int" name="MREMOVE">     5</i>
    </separator>
   </separator>
   <separator name="electronic dipolcorrection" >
    <i type="logical" name="LDIPOL"> F  </i>
    <i type="logical" name="LMONO"> F  </i>
    <i type="int" name="IDIPOL">     0</i>
    <i name="EPSILON">      1.00000000</i>
    <v name="DIPOL">   -100.00000000   -100.00000000   -100.00000000</v>
    <i name="EFIELD">      0.00000000</i>
   </separator>
  </separator>
  <separator name="grids" >
   <i type="int" name="NGX">    36</i>
   <i type="int" name="NGY">    50</i>
   <i type="int" name="NGZ">    70</i>
   <i type="int" name="NGXF">    72</i>
   <i type="int" name="NGYF">   100</i>
   <i type="int" name="NGZF">   140</i>
   <i type="logical" name="ADDGRID"> F  </i>
  </separator>
  <separator name="ionic" >
   <i type="int" name="NSW">    50</i>
   <i type="int" name="IBRION">     2</i>
   <i type="int" name="MDALGO">     0</i>
   <i type="int" name="ISIF">     3</i>
   <i name="PSTRESS">      0.00000000</i>
   <i name="EDIFFG">      0.00100000</i>
   <i type="int" name="NFREE">     1</i>
   <i name="POTIM">      0.50000000</i>
   <i name="SMASS">     -3.00000000</i>
   <i name="SCALEE">      1.00000000</i>
  </separator>
  <separator name="ionic md" >
   <i name="TEBEG">      0.00010000</i>
   <i name="TEEND">      0.00010000</i>
   <i type="int" name="NBLOCK">     1</i>
   <i type="int" name="KBLOCK">    50</i>
   <i type="int" name="NPACO">   256</i>
   <i name="APACO">     16.00000000</i>
  </separator>
  <separator name="symmetry" >
   <i type="int" name="ISYM">     2</i>
   <i name="SYMPREC">      0.00001000</i>
  </separator>
  <separator name="dos" >
   <i type="int" name="LORBIT">     0</i>
   <v name="RWIGS">     -1.00000000     -1.00000000     -1.00000000     -1.00000000     -1.00000000</v>
   <i type="int" name="NEDOS">   301</i>
   <i name="EMIN">     10.00000000</i>
   <i name="EMAX">    -10.00000000</i>
   <i name="EFERMI">      0.00000000</i>
  </separator>
  <separator name="writing" >
   <i type="int" name="NWRITE">     2</i>
   <i type="logical" name="LWAVE"> T  </i>
   <i type="logical" name="LDOWNSAMPLE"> F  </i>
   <i type="logical" name="LCHARG"> T  </i>
   <i type="logical" name="LPARD"> F  </i>
   <i type="logical" name="LVTOT"> F  </i>
   <i type="logical" name="LVHAR"> F  </i>
   <i type="logical" name="LELF"> F  </i>
   <i type="logical" name="LOPTICS"> F  </i>
   <v name="STM">      0.00000000      0.00000000      0.00000000      0.00000000      0.00000000      0.00000000      0.00000000</v>
  </separator>
  <separator name="performance" >
   <i type="int" name="NPAR">    12</i>
   <i type="int" name="NSIM">     4</i>
   <i type="int" name="NBLK">    -1</i>
   <i type="logical" name="LPLANE"> T  </i>
   <i type="logical" name="LSCALAPACK"> T  </i>
   <i type="logical" name="LSCAAWARE"> F  </i>
   <i type="logical" name="LSCALU"> F  </i>
   <i type="logical" name="LASYNC"> F  </i>
   <i type="logical" name="LORBITALREAL"> F  </i>
  </separator>
  <separator name="miscellaneous" >
   <i type="int" name="IDIOT">     3</i>
   <i type="int" name="ISPECIAL">     0</i>
   <i type="logical" name="LMUSIC"> F  </i>
   <v name="POMASS">     92.91000000     95.94000000    180.94800000     47.88000000     50.94100000</v>
   <v name="DARWINR">      0.00000000      0.00000000      0.00000000      0.00000000      0.00000000</v>
   <v name="DARWINV">      1.00000000      1.00000000      1.00000000      1.00000000      1.00000000</v>
   <i type="logical" name="LCORR"> T  </i>
  </separator>
  <i type="logical" name="GGA_COMPAT"> T  </i>
  <i type="logical" name="LBERRY"> F  </i>
  <i type="int" name="ICORELEVEL">     0</i>
  <i type="logical" name="LDAU"> F  </i>
  <i type="int" name="I_CONSTRAINED_M">     0</i>
  <separator name="electronic exchange-correlation" >
   <i type="string" name="GGA">PS</i>
   <i type="int" name="VOSKOWN">     0</i>
   <i type="logical" name="LHFCALC"> F  </i>
   <i type="string" name="PRECFOCK"></i>
   <i type="logical" name="LSYMGRAD"> F  </i>
   <i type="logical" name="LHFONE"> F  </i>
   <i type="logical" name="LRHFCALC"> F  </i>
   <i type="logical" name="LTHOMAS"> F  </i>
   <i type="logical" name="LMODELHF"> F  </i>
   <i name="ENCUT4O">     -1.00000000</i>
   <i type="int" name="EXXOEP">     0</i>
   <i type="int" name="FOURORBIT">     0</i>
   <i name="AEXX">      0.00000000</i>
   <i name="HFALPHA">      0.00000000</i>
   <i name="MCALPHA">      0.00000000</i>
   <i name="ALDAX">      1.00000000</i>
   <i name="AGGAX">      1.00000000</i>
   <i name="ALDAC">      1.00000000</i>
   <i name="AGGAC">      1.00000000</i>
   <i type="int" name="NKREDX">     1</i>
   <i type="int" name="NKREDY">     1</i>
   <i type="int" name="NKREDZ">     1</i>
   <i type="logical" name="SHIFTRED"> F  </i>
   <i type="logical" name="ODDONLY"> F  </i>
   <i type="logical" name="EVENONLY"> F  </i>
   <i type="int" name="LMAXFOCK">     0</i>
   <i type="int" name="NMAXFOCKAE">     0</i>
   <i type="logical" name="LFOCKAEDFT"> F  </i>
   <i name="HFSCREEN">      0.00000000</i>
   <i name="HFSCREENC">      0.00000000</i>
   <i type="int" name="NBANDSGWLOW">     0</i>
  </separator>
  <separator name="vdW DFT" >
   <i type="logical" name="LUSE_VDW"> F  </i>
   <i name="Zab_VDW">     -0.84910000</i>
   <i name="PARAM1">      0.12340000</i>
   <i name="PARAM2">      1.00000000</i>
   <i name="PARAM3">      0.00000000</i>
  </separator>
  <separator name="model GW" >
   <i type="int" name="MODEL_GW">     0</i>
   <i name="MODEL_EPS0">      9.79277462</i>
   <i name="MODEL_ALPHA">      1.00000000</i>
  </separator>
  <separator name="linear response parameters" >
   <i type="logical" name="LEPSILON"> F  </i>
   <i type="logical" name="LRPA"> F  </i>
   <i type="logical" name="LNABLA"> F  </i>
   <i type="logical" name="LVEL"> F  </i>
   <i type="int" name="KINTER">     0</i>
   <i name="CSHIFT">      0.10000000</i>
   <i name="OMEGAMAX">     -1.00000000</i>
   <i name="DEG_THRESHOLD">      0.00200000</i>
   <i name="RTIME">     -0.10000000</i>
   <i name="WPLASMAI">      0.00000000</i>
   <v name="DFIELD">      0.00000000      0.00000000      0.00000000</v>
   <v name="WPLASMA">      0.00000000      0.00000000      0.00000000      0.00000000      0.00000000      0.00000000      0.00000000      0.00000000      0.00000000</v>
  </separator>
  <separator name="orbital magnetization" >
   <i type="logical" name="NUCIND"> F  </i>
   <v name="MAGPOS">      0.00000000      0.00000000      0.00000000</v>
   <i type="logical" name="LNICSALL"> T  </i>
   <i type="logical" name="ORBITALMAG"> F  </i>
   <i type="logical" name="LMAGBLOCH"> F  </i>
   <i type="logical" name="LCHIMAG"> F  </i>
   <i type="logical" name="LGAUGE"> T  </i>
   <i type="int" name="MAGATOM">     0</i>
   <v name="MAGDIPOL">      0.00000000      0.00000000      0.00000000</v>
   <v name="AVECCONST">      0.00000000      0.00000000      0.00000000</v>
  </separator>
  <separator name="response functions" >
   <i type="logical" name="LADDER"> F  </i>
   <i type="logical" name="LRPAFORCE"> F  </i>
   <i type="logical" name="LFXC"> F  </i>
   <i type="logical" name="LHARTREE"> T  </i>
   <i type="int" name="IBSE">     0</i>
   <v type="int" name="KPOINT">    -1     0     0     0</v>
   <i type="logical" name="LTCTE"> F  </i>
   <i type="logical" name="LTETE"> F  </i>
   <i type="logical" name="LTRIPLET"> F  </i>
   <i type="logical" name="LFXCEPS"> F  </i>
   <i type="logical" name="LFXHEG"> F  </i>
   <i type="int" name="NATURALO">     2</i>
   <i type="logical" name="L2ORDER"> F  </i>
   <i type="logical" name="LMP2LT"> F  </i>
   <i type="logical" name="LUSEW"> F  </i>
   <i name="ENCUTGW">     -2.00000000</i>
   <i name="ENCUTGWSOFT">     -2.00000000</i>
   <i name="ENCUTLF">     -1.00000000</i>
   <i type="int" name="LMAXMP2">    -1</i>
   <i name="SCISSOR">      0.00000000</i>
   <i type="int" name="NOMEGA">     0</i>
   <i type="int" name="NOMEGAR">     0</i>
   <i type="int" name="NBANDSGW">    -1</i>
   <i type="int" name="NBANDSO">    -1</i>
   <i type="int" name="NBANDSV">    -1</i>
   <i type="int" name="NELM">     1</i>
   <i type="int" name="NELMHF">     1</i>
   <i type="int" name="DIM">     3</i>
   <i type="int" name="ANTIRES">     0</i>
   <i name="OMEGAMAX">    -30.00000000</i>
   <i name="OMEGAMIN">    -30.00000000</i>
   <i name="OMEGATL">   -200.00000000</i>
   <i type="int" name="OMEGAGRID">   140</i>
   <i name="CSHIFT">     -0.10000000</i>
   <i type="logical" name="SELFENERGY"> F  </i>
   <i type="logical" name="LSPECTRAL"> F  </i>
   <i type="logical" name="LSPECTRALGW"> F  </i>
   <i type="logical" name="LSINGLES"> F  </i>
   <i type="logical" name="LFERMIGW"> F  </i>
   <i type="logical" name="ODDONLYGW"> F  </i>
   <i type="logical" name="EVENONLYGW"> F  </i>
   <i type="int" name="NKREDLFX">     1</i>
   <i type="int" name="NKREDLFY">     1</i>
   <i type="int" name="NKREDLFZ">     1</i>
   <i type="int" name="MAXMEM">  2800</i>
   <i type="int" name="TELESCOPE">     0</i>
   <i type="int" name="TAUPAR">     1</i>
   <i type="int" name="OMEGAPAR">    -1</i>
   <i name="LAMBDA">      1.00000000</i>
  </separator>
  <separator name="External order field" >
   <i name="OFIELD_KAPPA">      0.00000000</i>
   <v name="OFIELD_K">      0.00000000      0.00000000      0.00000000</v>
   <i name="OFIELD_Q6_NEAR">      0.00000000</i>
   <i name="OFIELD_Q6_FAR">      0.00000000</i>
   <i name="OFIELD_A">      0.00000000</i>
  </separator>
  <separator name="solvation model" >
   <i type="logical" name="LSOL"> F  </i>
  </separator>
 </parameters>
 <atominfo>
  <atoms>      29 </atoms>
  <types>       5 </types>
  <array name="atoms" >
   <dimension dim="1">ion</dimension>
   <field type="string">element</field>
   <field type="int">atomtype</field>
   <set>
    <rc><c>Nb</c><c>   1</c></rc>
    <rc><c>Nb</c><c>   1</c></rc>
    <rc><c>Nb</c><c>   1</c></rc>
    <rc><c>Nb</c><c>   1</c></rc>
    <rc><c>Nb</c><c>   1</c></rc>
    <rc><c>Nb</c><c>   1</c></rc>
    <rc><c>Mo</c><c>   2</c></rc>
    <rc><c>Mo</c><c>   2</c></rc>
    <rc><c>Mo</c><c>   2</c></rc>
    <rc><c>Mo</c><c>   2</c></rc>
    <rc><c>Mo</c><c>   2</c></rc>
    <rc><c>Ta</c><c>   3</c></rc>
    <rc><c>Ta</c><c>   3</c></rc>
    <rc><c>Ta</c><c>   3</c></rc>
    <rc><c>Ta</c><c>   3</c></rc>
    <rc><c>Ta</c><c>   3</c></rc>
    <rc><c>Ta</c><c>   3</c></rc>
    <rc><c>Ti</c><c>   4</c></rc>
    <rc><c>Ti</c><c>   4</c></rc>
    <rc><c>Ti</c><c>   4</c></rc>
    <rc><c>Ti</c><c>   4</c></rc>
    <rc><c>Ti</c><c>   4</c></rc>
    <rc><c>Ti</c><c>   4</c></rc>
    <rc><c>V </c><c>   5</c></rc>
    <rc><c>V </c><c>   5</c></rc>
    <rc><c>V </c><c>   5</c></rc>
    <rc><c>V </c><c>   5</c></rc>
    <rc><c>V </c><c>   5</c></rc>
    <rc><c>V </c><c>   5</c></rc>
   </set>
  </array>
  <array name="atomtypes" >
   <dimension dim="1">type</dimension>
   <field type="int">atomspertype</field>
   <field type="string">element</field>
   <field>mass</field>
   <field>valence</field>
   <field type="string">pseudopotential</field>
   <set>
    <rc><c>   6</c><c>Nb</c><c>     92.91000000</c><c>     13.00000000</c><c>  PAW_PBE Nb_sv 25May2007               </c></rc>
    <rc><c>   5</c><c>Mo</c><c>     95.94000000</c><c>      6.00000000</c><c>  PAW_PBE Mo 08Apr2002                  </c></rc>
    <rc><c>   6</c><c>Ta</c><c>    180.94800000</c><c>      5.00000000</c><c>  PAW_PBE Ta 17Jan2003                  </c></rc>
    <rc><c>   6</c><c>Ti</c><c>     47.88000000</c><c>      4.00000000</c><c>  PAW_PBE Ti 08Apr2002                  </c></rc>
    <rc><c>   6</c><c>V </c><c>     50.94100000</c><c>      5.00000000</c><c>  PAW_PBE V 08Apr2002                   </c></rc>
   </set>
  </array>
 </atominfo>
 <structure name="initialpos" >
  <crystal>
   <varray name="basis" >
    <v>      -3.16000000      -3.16000000      -3.16000000 </v>
    <v>       1.58000000       1.58000000      -7.90000000 </v>
    <v>       7.90000000      -7.90000000      -1.58000000 </v>
   </varray>
   <i name="volume">    473.31744000 </i>
   <varray name="rec_basis" >
    <v>      -0.13713080      -0.12658228      -0.05274262 </v>
    <v>       0.04219409       0.06329114      -0.10548523 </v>
    <v>       0.06329114      -0.06329114       0.00000000 </v>
   </varray>
  </crystal>
  <varray name="positions" >
   <v>       0.96666667       0.93333333       0.40000000 </v>
   <v>       0.63333333       0.26666667       0.40000000 </v>
   <v>       0.50000000       0.00000000       0.00000000 </v>
   <v>       0.00000000       0.00000000       0.00000000 </v>
   <v>       0.10000000       0.20000000       0.80000000 </v>
   <v>       0.03333333       0.06666667       0.60000000 </v>
   <v>       0.90000000       0.80000000       0.20000000 </v>
   <v>       0.80000000       0.60000000       0.40000000 </v>
   <v>       0.73333333       0.46666667       0.20000000 </v>
   <v>       0.66666667       0.33333333       0.00000000 </v>
   <v>       0.13333333       0.26666667       0.40000000 </v>
   <v>       0.83333333       0.66666667       0.00000000 </v>
   <v>       0.93333333       0.86666667       0.80000000 </v>
   <v>       0.56666667       0.13333333       0.20000000 </v>
   <v>       0.40000000       0.80000000       0.20000000 </v>
   <v>       0.43333333       0.86666667       0.80000000 </v>
   <v>       0.30000000       0.60000000       0.40000000 </v>
   <v>       0.86666667       0.73333333       0.60000000 </v>
   <v>       0.46666667       0.93333333       0.40000000 </v>
   <v>       0.16666667       0.33333333       0.00000000 </v>
   <v>       0.26666667       0.53333333       0.80000000 </v>
   <v>       0.20000000       0.40000000       0.60000000 </v>
   <v>       0.06666667       0.13333333       0.20000000 </v>
   <v>       0.76666667       0.53333333       0.80000000 </v>
   <v>       0.70000000       0.40000000       0.60000000 </v>
   <v>       0.60000000       0.20000000       0.80000000 </v>
   <v>       0.53333333       0.06666667       0.60000000 </v>
   <v>       0.33333333       0.66666667       0.00000000 </v>
   <v>       0.23333333       0.46666667       0.20000000 </v>
  </varray>
 </structure>
 <calculation>
  <scstep>
   <time name="dav">   44.45   44.52</time>
   <time name="total">   44.60   44.67</time>
   <energy>
    <i name="alphaZ">   1146.37395419 </i>
    <i name="ewald"> -10890.88767167 </i>
    <i name="hartreedc">   -110.77796617 </i>
    <i name="XCdc">   -921.54649840 </i>
    <i name="pawpsdc"> 562802.26532462 </i>
    <i name="pawaedc">-561562.51163103 </i>
    <i name="eentropy">     -0.00227130 </i>
    <i name="bandstr">  -7495.28403086 </i>
    <i name="atom">  12788.47826598 </i>
    <i name="e_fr_energy">  -4243.89252464 </i>
    <i name="e_wo_entrp">  -4243.89025334 </i>
    <i name="e_0_energy">  -4243.89176754 </i>
   </energy>
  </scstep>
  <scstep>
   <time name="dav">   53.54   53.60</time>
   <time name="total">   53.55   53.61</time>
   <energy>
    <i name="e_fr_energy">  -9817.16117773 </i>
    <i name="e_wo_entrp">  -9817.16155339 </i>
    <i name="e_0_energy">  -9817.16130295 </i>
   </energy>
  </scstep>
  <scstep>
   <time name="dav">   56.72   56.81</time>
   <time name="total">   56.73   56.82</time>
   <energy>
    <i name="e_fr_energy"> -10677.47875383 </i>
    <i name="e_wo_entrp"> -10677.47855086 </i>
    <i name="e_0_energy"> -10677.47868617 </i>
   </energy>
  </scstep>
  <scstep>
   <time name="dav">   56.96   57.02</time>
   <time name="total">   56.97   57.03</time>
   <energy>
    <i name="e_fr_energy"> -10921.99798997 </i>
    <i name="e_wo_entrp"> -10921.99490177 </i>
    <i name="e_0_energy"> -10921.99696057 </i>
   </energy>
  </scstep>
  <scstep>
   <time name="dav">   56.72   56.78</time>
   <time name="total">   57.36   57.43</time>
   <energy>
    <i name="e_fr_energy"> -11068.47853588 </i>
    <i name="e_wo_entrp"> -11068.48251812 </i>
    <i name="e_0_energy"> -11068.47986330 </i>
   </energy>
  </scstep>
  <scstep>
   <time name="dav">   46.92   46.97</time>
   <time name="total">   47.65   47.70</time>
   <energy>
    <i name="e_fr_energy">  -1449.24901537 </i>
    <i name="e_wo_entrp">  -1449.25337574 </i>
    <i name="e_0_energy">  -1449.25046883 </i>
   </energy>
  </scstep>
  <scstep>
   <time name="dav">   51.20   51.25</time>
   <time name="total">   51.93   51.99</time>
   <energy>
    <i name="e_fr_energy">  -1057.80211499 </i>
    <i name="e_wo_entrp">  -1057.79918980 </i>
    <i name="e_0_energy">  -1057.80113992 </i>
   </energy>
  </scstep>
  <scstep>
   <time name="dav">   49.88   49.93</time>
   <time name="total">   50.56   50.61</time>
   <energy>
    <i name="e_fr_energy">   -734.89161418 </i>
    <i name="e_wo_entrp">   -734.89231535 </i>
    <i name="e_0_energy">   -734.89184790 </i>
   </energy>
  </scstep>
  <scstep>
   <time name="dav">   52.86   52.91</time>
   <time name="total">   53.53   53.59</time>
   <energy>
    <i name="e_fr_energy">   -661.10688488 </i>
    <i name="e_wo_entrp">   -661.10147307 </i>
    <i name="e_0_energy">   -661.10508094 </i>
   </energy>
  </scstep>
  <scstep>
   <time name="dav">   52.64   52.70</time>
   <time name="total">   53.33   53.38</time>
   <energy>
    <i name="e_fr_energy">   -656.05507129 </i>
    <i name="e_wo_entrp">   -656.05056949 </i>
    <i name="e_0_energy">   -656.05357069 </i>
   </energy>
  </scstep>
  <scstep>
   <time name="dav">   49.59   49.64</time>
   <time name="total">   50.26   50.32</time>
   <energy>
    <i name="e_fr_energy">   -638.67296513 </i>
    <i name="e_wo_entrp">   -638.66847050 </i>
    <i name="e_0_energy">   -638.67146692 </i>
   </energy>
  </scstep>
  <scstep>
   <time name="dav">   49.72   49.77</time>
   <time name="total">   50.40   50.46</time>
   <energy>
    <i name="e_fr_energy">   -696.57842646 </i>
    <i name="e_wo_entrp">   -696.57703813 </i>
    <i name="e_0_energy">   -696.57796368 </i>
   </energy>
  </scstep>
  <scstep>
   <time name="dav">   53.14   53.19</time>
   <time name="total">   53.82   53.88</time>
   <energy>
    <i name="e_fr_energy">  -1164.95889661 </i>
    <i name="e_wo_entrp">  -1164.95622755 </i>
    <i name="e_0_energy">  -1164.95800693 </i>
   </energy>
  </scstep>
  <scstep>
   <time name="dav">   50.17   50.22</time>
   <time name="total">   50.86   50.91</time>
   <energy>
    <i name="e_fr_energy">   -719.92154878 </i>
    <i name="e_wo_entrp">   -719.91754689 </i>
    <i name="e_0_energy">   -719.92021481 </i>
   </energy>
  </scstep>
  <scstep>
   <time name="dav">   52.27   52.33</time>
   <time name="total">   52.96   53.03</time>
   <energy>
    <i name="e_fr_energy">   -646.89660157 </i>
    <i name="e_wo_entrp">   -646.90105453 </i>
    <i name="e_0_energy">   -646.89808589 </i>
   </energy>
  </scstep>
  <scstep>
   <time name="dav">   54.29   54.34</time>
   <time name="total">   54.96   55.02</time>
   <energy>
    <i name="e_fr_energy">   -570.01553963 </i>
    <i name="e_wo_entrp">   -570.02031985 </i>
    <i name="e_0_energy">   -570.01713304 </i>
   </energy>
  </scstep>
  <scstep>
   <time name="dav">   51.09   51.14</time>
   <time name="total">   51.76   51.82</time>
   <energy>
    <i name="e_fr_energy">   -489.68799015 </i>
    <i name="e_wo_entrp">   -489.68099031 </i>
    <i name="e_0_energy">   -489.68565687 </i>
   </energy>
  </scstep>
  <scstep>
   <time name="dav">   53.52   53.58</time>
   <time name="total">   54.20   54.26</time>
   <energy>
    <i name="e_fr_energy">   -417.52660819 </i>
    <i name="e_wo_entrp">   -417.51298185 </i>
    <i name="e_0_energy">   -417.52206607 </i>
   </energy>
  </scstep>
  <scstep>
   <time name="dav">   53.77   53.82</time>
   <time name="total">   54.44   54.50</time>
   <energy>
    <i name="e_fr_energy">   -408.47711266 </i>
    <i name="e_wo_entrp">   -408.46545303 </i>
    <i name="e_0_energy">   -408.47322612 </i>
   </energy>
  </scstep>
  <scstep>
   <time name="dav">   54.09   54.15</time>
   <time name="total">   54.78   54.84</time>
   <energy>
    <i name="e_fr_energy">   -405.23699471 </i>
    <i name="e_wo_entrp">   -405.21158889 </i>
    <i name="e_0_energy">   -405.22852610 </i>
   </energy>
  </scstep>
  <scstep>
   <time name="dav">   49.12   49.19</time>
   <time name="total">   49.79   49.88</time>
   <energy>
    <i name="e_fr_energy">   -382.18104637 </i>
    <i name="e_wo_entrp">   -382.16474258 </i>
    <i name="e_0_energy">   -382.17561178 </i>
   </energy>
  </scstep>
  <scstep>
   <time name="dav">   45.45   45.50</time>
   <time name="total">   46.14   46.19</time>
   <energy>
    <i name="e_fr_energy">   -346.25215662 </i>
    <i name="e_wo_entrp">   -346.24735855 </i>
    <i name="e_0_energy">   -346.25055726 </i>
   </energy>
  </scstep>
  <scstep>
   <time name="dav">   55.42   55.47</time>
   <time name="total">   56.09   56.16</time>
   <energy>
    <i name="e_fr_energy">   -316.24417467 </i>
    <i name="e_wo_entrp">   -316.23932919 </i>
    <i name="e_0_energy">   -316.24255951 </i>
   </energy>
  </scstep>
  <scstep>
   <time name="dav">   52.69   52.76</time>
   <time name="total">   53.39   53.45</time>
   <energy>
    <i name="e_fr_energy">   -311.20651857 </i>
    <i name="e_wo_entrp">   -311.19157243 </i>
    <i name="e_0_energy">   -311.20153652 </i>
   </energy>
  </scstep>
  <scstep>
   <time name="dav">   49.47   49.53</time>
   <time name="total">   50.15   50.21</time>
   <energy>
    <i name="e_fr_energy">   -309.76470473 </i>
    <i name="e_wo_entrp">   -309.74674622 </i>
    <i name="e_0_energy">   -309.75871856 </i>
   </energy>
  </scstep>
  <scstep>
   <time name="dav">   53.14   53.20</time>
   <time name="total">   53.81   53.88</time>
   <energy>
    <i name="e_fr_energy">   -310.61977314 </i>
    <i name="e_wo_entrp">   -310.61203614 </i>
    <i name="e_0_energy">   -310.61719414 </i>
   </energy>
  </scstep>
  <scstep>
   <time name="dav">   49.98   50.04</time>
   <time name="total">   50.64   50.72</time>
   <energy>
    <i name="e_fr_energy">   -308.75822413 </i>
    <i name="e_wo_entrp">   -308.73975122 </i>
    <i name="e_0_energy">   -308.75206649 </i>
   </energy>
  </scstep>
  <scstep>
   <time name="dav">   47.02   47.07</time>
   <time name="total">   47.70   47.75</time>
   <energy>
    <i name="e_fr_energy">   -309.54874479 </i>
    <i name="e_wo_entrp">   -309.54643068 </i>
    <i name="e_0_energy">   -309.54797342 </i>
   </energy>
  </scstep>
  <scstep>
   <time name="dav">   50.16   50.21</time>
   <time name="total">   50.85   50.90</time>
   <energy>
    <i name="e_fr_energy">   -306.43951576 </i>
    <i name="e_wo_entrp">   -306.42238485 </i>
    <i name="e_0_energy">   -306.43380546 </i>
   </energy>
  </scstep>
  <scstep>
   <time name="dav">   51.08   51.13</time>
   <time name="total">   51.75   51.81</time>
   <energy>
    <i name="e_fr_energy">   -305.14738621 </i>
    <i name="e_wo_entrp">   -305.13123592 </i>
    <i name="e_0_energy">   -305.14200278 </i>
   </energy>
  </scstep>
  <scstep>
   <time name="dav">   48.72   48.76</time>
   <time name="total">   49.39   49.44</time>
   <energy>
    <i name="e_fr_energy">   -304.78318374 </i>
    <i name="e_wo_entrp">   -304.76555443 </i>
    <i name="e_0_energy">   -304.77730730 </i>
   </energy>
  </scstep>
  <scstep>
   <time name="dav">   45.24   45.29</time>
   <time name="total">   45.93   45.97</time>
   <energy>
    <i name="e_fr_energy">   -304.46142446 </i>
    <i name="e_wo_entrp">   -304.44668892 </i>
    <i name="e_0_energy">   -304.45651261 </i>
   </energy>
  </scstep>
  <scstep>
   <time name="dav">   48.87   48.92</time>
   <time name="total">   49.55   49.61</time>
   <energy>
    <i name="e_fr_energy">   -304.89124126 </i>
    <i name="e_wo_entrp">   -304.87845223 </i>
    <i name="e_0_energy">   -304.88697825 </i>
   </energy>
  </scstep>
  <scstep>
   <time name="dav">   45.87   45.91</time>
   <time name="total">   46.54   46.60</time>
   <energy>
    <i name="e_fr_energy">   -304.90930884 </i>
    <i name="e_wo_entrp">   -304.89757967 </i>
    <i name="e_0_energy">   -304.90539912 </i>
   </energy>
  </scstep>
  <scstep>
   <time name="dav">   44.90   44.94</time>
   <time name="total">   45.58   45.63</time>
   <energy>
    <i name="e_fr_energy">   -304.36476666 </i>
    <i name="e_wo_entrp">   -304.34773656 </i>
    <i name="e_0_energy">   -304.35908996 </i>
   </energy>
  </scstep>
  <scstep>
   <time name="dav">   47.03   47.08</time>
   <time name="total">   47.71   47.76</time>
   <energy>
    <i name="e_fr_energy">   -305.02184236 </i>
    <i name="e_wo_entrp">   -305.00598226 </i>
    <i name="e_0_energy">   -305.01655566 </i>
   </energy>
  </scstep>
  <scstep>
   <time name="dav">   48.85   48.90</time>
   <time name="total">   49.53   49.59</time>
   <energy>
    <i name="e_fr_energy">   -304.29425338 </i>
    <i name="e_wo_entrp">   -304.27879089 </i>
    <i name="e_0_energy">   -304.28909922 </i>
   </energy>
  </scstep>
  <scstep>
   <time name="dav">   47.37   47.41</time>
   <time name="total">   48.03   48.09</time>
   <energy>
    <i name="e_fr_energy">   -304.69796646 </i>
    <i name="e_wo_entrp">   -304.68261885 </i>
    <i name="e_0_energy">   -304.69285059 </i>
   </energy>
  </scstep>
  <scstep>
   <time name="dav">   46.84   46.88</time>
   <time name="total">   47.51   47.57</time>
   <energy>
    <i name="e_fr_energy">   -304.36743969 </i>
    <i name="e_wo_entrp">   -304.35214281 </i>
    <i name="e_0_energy">   -304.36234073 </i>
   </energy>
  </scstep>
  <scstep>
   <time name="dav">   48.20   48.25</time>
   <time name="total">   48.88   48.93</time>
   <energy>
    <i name="e_fr_energy">   -304.22109920 </i>
    <i name="e_wo_entrp">   -304.20597763 </i>
    <i name="e_0_energy">   -304.21605868 </i>
   </energy>
  </scstep>
  <scstep>
   <time name="dav">   49.49   49.54</time>
   <time name="total">   50.16   50.22</time>
   <energy>
    <i name="e_fr_energy">   -304.13753507 </i>
    <i name="e_wo_entrp">   -304.12226002 </i>
    <i name="e_0_energy">   -304.13244339 </i>
   </energy>
  </scstep>
  <scstep>
   <time name="dav">   48.24   48.29</time>
   <time name="total">   48.92   48.97</time>
   <energy>
    <i name="e_fr_energy">   -304.08308710 </i>
    <i name="e_wo_entrp">   -304.06806251 </i>
    <i name="e_0_energy">   -304.07807890 </i>
   </energy>
  </scstep>
  <scstep>
   <time name="dav">   48.10   48.16</time>
   <time name="total">   48.78   48.85</time>
   <energy>
    <i name="e_fr_energy">   -304.03216551 </i>
    <i name="e_wo_entrp">   -304.01723102 </i>
    <i name="e_0_energy">   -304.02718735 </i>
   </energy>
  </scstep>
  <scstep>
   <time name="dav">   48.40   48.45</time>
   <time name="total">   49.09   49.14</time>
   <energy>
    <i name="e_fr_energy">   -304.00538627 </i>
    <i name="e_wo_entrp">   -303.99056070 </i>
    <i name="e_0_energy">   -304.00044442 </i>
   </energy>
  </scstep>
  <scstep>
   <time name="dav">   49.96   50.01</time>
   <time name="total">   50.64   50.71</time>
   <energy>
    <i name="e_fr_energy">   -304.00952666 </i>
    <i name="e_wo_entrp">   -303.99450478 </i>
    <i name="e_0_energy">   -304.00451937 </i>
   </energy>
  </scstep>
  <scstep>
   <time name="dav">   46.51   46.56</time>
   <time name="total">   47.18   47.25</time>
   <energy>
    <i name="e_fr_energy">   -303.99063136 </i>
    <i name="e_wo_entrp">   -303.97571833 </i>
    <i name="e_0_energy">   -303.98566035 </i>
   </energy>
  </scstep>
  <scstep>
   <time name="dav">   52.84   52.91</time>
   <time name="total">   53.51   53.60</time>
   <energy>
    <i name="e_fr_energy">   -303.98909519 </i>
    <i name="e_wo_entrp">   -303.97402353 </i>
    <i name="e_0_energy">   -303.98407130 </i>
   </energy>
  </scstep>
  <scstep>
   <time name="dav">   52.07   52.13</time>
   <time name="total">   52.74   52.81</time>
   <energy>
    <i name="e_fr_energy">   -303.98837679 </i>
    <i name="e_wo_entrp">   -303.97319548 </i>
    <i name="e_0_energy">   -303.98331635 </i>
   </energy>
  </scstep>
  <scstep>
   <time name="dav">   44.47   44.53</time>
   <time name="total">   45.16   45.22</time>
   <energy>
    <i name="e_fr_energy">   -303.98577205 </i>
    <i name="e_wo_entrp">   -303.97056602 </i>
    <i name="e_0_energy">   -303.98070338 </i>
   </energy>
  </scstep>
  <scstep>
   <time name="dav">   44.19   44.25</time>
   <time name="total">   44.87   44.93</time>
   <energy>
    <i name="e_fr_energy">   -303.98132912 </i>
    <i name="e_wo_entrp">   -303.96622206 </i>
    <i name="e_0_energy">   -303.97629344 </i>
   </energy>
  </scstep>
  <scstep>
   <time name="dav">   48.67   48.72</time>
   <time name="total">   49.36   49.41</time>
   <energy>
    <i name="e_fr_energy">   -303.98074843 </i>
    <i name="e_wo_entrp">   -303.96567983 </i>
    <i name="e_0_energy">   -303.97572556 </i>
   </energy>
  </scstep>
  <scstep>
   <time name="dav">   30.71   30.75</time>
   <time name="total">   31.38   31.43</time>
   <energy>
    <i name="e_fr_energy">   -303.98060622 </i>
    <i name="e_wo_entrp">   -303.96555543 </i>
    <i name="e_0_energy">   -303.97558929 </i>
   </energy>
  </scstep>
  <scstep>
   <time name="dav">   39.67   39.72</time>
   <time name="total">   40.35   40.42</time>
   <energy>
    <i name="e_fr_energy">   -303.97972983 </i>
    <i name="e_wo_entrp">   -303.96474045 </i>
    <i name="e_0_energy">   -303.97473337 </i>
   </energy>
  </scstep>
  <scstep>
   <time name="dav">   38.97   39.02</time>
   <time name="total">   39.65   39.70</time>
   <energy>
    <i name="e_fr_energy">   -303.97925508 </i>
    <i name="e_wo_entrp">   -303.96431596 </i>
    <i name="e_0_energy">   -303.97427538 </i>
   </energy>
  </scstep>
  <scstep>
   <time name="dav">   26.57   26.60</time>
   <time name="total">   26.65   26.69</time>
   <energy>
    <i name="alphaZ">   1146.37395419 </i>
    <i name="ewald"> -10890.88767167 </i>
    <i name="hartreedc">  -3192.55463597 </i>
    <i name="XCdc">   -828.50431604 </i>
    <i name="pawpsdc">  18690.17274937 </i>
    <i name="pawaedc"> -17248.77396707 </i>
    <i name="eentropy">     -0.01494519 </i>
    <i name="bandstr">   -768.26865799 </i>
    <i name="atom">  12788.47826598 </i>
    <i name="e_fr_energy">   -303.97922439 </i>
    <i name="e_wo_entrp">   -303.96427920 </i>
    <i name="e_0_energy">   -303.97424266 </i>
   </energy>
  </scstep>
  <structure>
   <crystal>
    <varray name="basis" >
     <v>      -3.16000000      -3.16000000      -3.16000000 </v>
     <v>       1.58000000       1.58000000      -7.90000000 </v>
     <v>       7.90000000      -7.90000000      -1.58000000 </v>
    </varray>
    <i name="volume">    473.31744000 </i>
    <varray name="rec_basis" >
     <v>      -0.13713080      -0.12658228      -0.05274262 </v>
     <v>       0.04219409       0.06329114      -0.10548523 </v>
     <v>       0.06329114      -0.06329114       0.00000000 </v>
    </varray>
   </crystal>
   <varray name="positions" >
    <v>       0.96666667       0.93333333       0.40000000 </v>
    <v>       0.63333333       0.26666667       0.40000000 </v>
    <v>       0.50000000       0.00000000       0.00000000 </v>
    <v>       0.00000000       0.00000000       0.00000000 </v>
    <v>       0.10000000       0.20000000       0.80000000 </v>
    <v>       0.03333333       0.06666667       0.60000000 </v>
    <v>       0.90000000       0.80000000       0.20000000 </v>
    <v>       0.80000000       0.60000000       0.40000000 </v>
    <v>       0.73333333       0.46666667       0.20000000 </v>
    <v>       0.66666667       0.33333333       0.00000000 </v>
    <v>       0.13333333       0.26666667       0.40000000 </v>
    <v>       0.83333333       0.66666667       0.00000000 </v>
    <v>       0.93333333       0.86666667       0.80000000 </v>
    <v>       0.56666667       0.13333333       0.20000000 </v>
    <v>       0.40000000       0.80000000       0.20000000 </v>
    <v>       0.43333333       0.86666667       0.80000000 </v>
    <v>       0.30000000       0.60000000       0.40000000 </v>
    <v>       0.86666667       0.73333333       0.60000000 </v>
    <v>       0.46666667       0.93333333       0.40000000 </v>
    <v>       0.16666667       0.33333333       0.00000000 </v>
    <v>       0.26666667       0.53333333       0.80000000 </v>
    <v>       0.20000000       0.40000000       0.60000000 </v>
    <v>       0.06666667       0.13333333       0.20000000 </v>
    <v>       0.76666667       0.53333333       0.80000000 </v>
    <v>       0.70000000       0.40000000       0.60000000 </v>
    <v>       0.60000000       0.20000000       0.80000000 </v>
    <v>       0.53333333       0.06666667       0.60000000 </v>
    <v>       0.33333333       0.66666667       0.00000000 </v>
    <v>       0.23333333       0.46666667       0.20000000 </v>
   </varray>
  </structure>
  <varray name="forces" >
   <v>       0.23336733       0.59189296       0.32170580 </v>
   <v>       0.47367580      -0.36028397       0.00914694 </v>
   <v>      -0.02829308       0.39238926      -0.23775654 </v>
   <v>       0.02000479      -0.09188665      -0.04110302 </v>
   <v>      -0.11448970       0.84032438      -0.57504758 </v>
   <v>      -0.15209541       0.21236169      -0.17312870 </v>
   <v>       0.05329214      -0.74583498       0.21647890 </v>
   <v>      -0.65270381      -0.42832350       0.48690755 </v>
   <v>      -0.05939758       0.24165476       0.03009576 </v>
   <v>       0.21719001       0.65406947      -0.61249884 </v>
   <v>       0.15397899       0.14016768      -0.61511907 </v>
   <v>      -0.05936840      -0.32875541       0.45614521 </v>
   <v>       0.55867855       0.48519993       0.12463706 </v>
   <v>      -0.27465298       0.64520324      -0.07383943 </v>
   <v>      -0.56224294      -0.23509919       0.80640013 </v>
   <v>      -0.94453381      -0.06431495       0.61306048 </v>
   <v>       0.35305922      -0.32743355      -0.24525363 </v>
   <v>       0.20011633       0.34518062       0.46560613 </v>
   <v>       0.50500633      -0.58943748       0.16177451 </v>
   <v>      -0.00543700      -0.24171368      -0.44269797 </v>
   <v>      -0.35726049      -0.09953487      -0.28887524 </v>
   <v>      -0.09434731       0.01331516       1.07650528 </v>
   <v>       0.59929263      -0.26616611      -0.79134843 </v>
   <v>      -0.10940112      -0.77414847       0.49213543 </v>
   <v>       0.29676963      -0.04945336      -0.37546298 </v>
   <v>      -0.15403371       0.39903750      -0.28025886 </v>
   <v>       0.09946566      -0.49914325      -1.00917633 </v>
   <v>      -0.35872280      -0.15932105       0.60906325 </v>
   <v>       0.16308273       0.30005379      -0.10809581 </v>
  </varray>
  <varray name="stress" >
   <v>     -10.49807488      -1.81651160      -3.98665674 </v>
   <v>      -1.81651153     -13.84250992      -0.55301372 </v>
   <v>      -3.98665670      -0.55301373      -9.37126749 </v>
  </varray>
  <energy>
   <i name="e_fr_energy">   -303.97922439 </i>
   <i name="e_wo_entrp">   -303.97424266 </i>
   <i name="e_0_energy">     -0.01494519 </i>
  </energy>
  <time name="totalsc"> 2742.48 2745.88</time>
 </calculation>
 <calculation>
  <scstep>
   <time name="dav">   33.68   33.72</time>
   <time name="total">   34.35   34.40</time>
   <energy>
    <i name="alphaZ">   1165.58534439 </i>
    <i name="ewald"> -10984.16669284 </i>
    <i name="hartreedc">  -3179.53990041 </i>
    <i name="XCdc">   -826.41169286 </i>
    <i name="pawpsdc">  18689.78620995 </i>
    <i name="pawaedc"> -17248.39254557 </i>
    <i name="eentropy">     -0.00802918 </i>
    <i name="bandstr">   -709.76106733 </i>
    <i name="atom">  12788.47826598 </i>
    <i name="e_fr_energy">   -304.43010787 </i>
    <i name="e_wo_entrp">   -304.42207869 </i>
    <i name="e_0_energy">   -304.42743148 </i>
   </energy>
  </scstep>
  <scstep>
   <time name="dav">   51.94   52.00</time>
   <time name="total">   52.62   52.68</time>
   <energy>
    <i name="e_fr_energy">   -305.93138184 </i>
    <i name="e_wo_entrp">   -305.92280363 </i>
    <i name="e_0_energy">   -305.92852243 </i>
   </energy>
  </scstep>
  <scstep>
   <time name="dav">   51.80   51.85</time>
   <time name="total">   52.48   52.54</time>
   <energy>
    <i name="e_fr_energy">   -304.79255082 </i>
    <i name="e_wo_entrp">   -304.78316358 </i>
    <i name="e_0_energy">   -304.78942174 </i>
   </energy>
  </scstep>
  <scstep>
   <time name="dav">   50.05   50.18</time>
   <time name="total">   50.70   50.88</time>
   <energy>
    <i name="e_fr_energy">   -304.79438989 </i>
    <i name="e_wo_entrp">   -304.78763406 </i>
    <i name="e_0_energy">   -304.79213795 </i>
   </energy>
  </scstep>
  <scstep>
   <time name="dav">   49.63   49.69</time>
   <time name="total">   50.31   50.37</time>
   <energy>
    <i name="e_fr_energy">   -304.66933914 </i>
    <i name="e_wo_entrp">   -304.65810306 </i>
    <i name="e_0_energy">   -304.66559378 </i>
   </energy>
  </scstep>
  <scstep>
   <time name="dav">   51.37   51.42</time>
   <time name="total">   52.04   52.10</time>
   <energy>
    <i name="e_fr_energy">   -304.61692171 </i>
    <i name="e_wo_entrp">   -304.60921445 </i>
    <i name="e_0_energy">   -304.61435262 </i>
   </energy>
  </scstep>
  <scstep>
   <time name="dav">   50.36   50.41</time>
   <time name="total">   51.05   51.11</time>
   <energy>
    <i name="e_fr_energy">   -304.62416531 </i>
    <i name="e_wo_entrp">   -304.61243853 </i>
    <i name="e_0_energy">   -304.62025638 </i>
   </energy>
  </scstep>
  <scstep>
   <time name="dav">   51.58   51.64</time>
   <time name="total">   52.25   52.32</time>
   <energy>
    <i name="e_fr_energy">   -304.59906081 </i>
    <i name="e_wo_entrp">   -304.58896716 </i>
    <i name="e_0_energy">   -304.59569626 </i>
   </energy>
  </scstep>
  <scstep>
   <time name="dav">   50.45   50.56</time>
   <time name="total">   51.13   51.24</time>
   <energy>
    <i name="e_fr_energy">   -304.59262379 </i>
    <i name="e_wo_entrp">   -304.58259076 </i>
    <i name="e_0_energy">   -304.58927944 </i>
   </energy>
  </scstep>
  <scstep>
   <time name="dav">   48.95   49.00</time>
   <time name="total">   49.64   49.69</time>
   <energy>
    <i name="e_fr_energy">   -304.59017660 </i>
    <i name="e_wo_entrp">   -304.58014161 </i>
    <i name="e_0_energy">   -304.58683160 </i>
   </energy>
  </scstep>
  <scstep>
   <time name="dav">   45.19   45.24</time>
   <time name="total">   45.88   45.93</time>
   <energy>
    <i name="e_fr_energy">   -304.59034948 </i>
    <i name="e_wo_entrp">   -304.58016952 </i>
    <i name="e_0_energy">   -304.58695616 </i>
   </energy>
  </scstep>
  <scstep>
   <time name="dav">   50.24   50.29</time>
   <time name="total">   50.92   50.98</time>
   <energy>
    <i name="e_fr_energy">   -304.59062131 </i>
    <i name="e_wo_entrp">   -304.58050567 </i>
    <i name="e_0_energy">   -304.58724943 </i>
   </energy>
  </scstep>
  <scstep>
   <time name="dav">   50.07   50.12</time>
   <time name="total">   50.75   50.80</time>
   <energy>
    <i name="e_fr_energy">   -304.59123733 </i>
    <i name="e_wo_entrp">   -304.58101145 </i>
    <i name="e_0_energy">   -304.58782870 </i>
   </energy>
  </scstep>
  <scstep>
   <time name="dav">   47.45   47.50</time>
   <time name="total">   48.13   48.18</time>
   <energy>
    <i name="e_fr_energy">   -304.59081396 </i>
    <i name="e_wo_entrp">   -304.58085774 </i>
    <i name="e_0_energy">   -304.58749522 </i>
   </energy>
  </scstep>
  <scstep>
   <time name="dav">   44.37   44.42</time>
   <time name="total">   45.06   45.11</time>
   <energy>
    <i name="e_fr_energy">   -304.59058683 </i>
    <i name="e_wo_entrp">   -304.58044028 </i>
    <i name="e_0_energy">   -304.58720465 </i>
   </energy>
  </scstep>
  <scstep>
   <time name="dav">   40.46   40.54</time>
   <time name="total">   40.51   40.63</time>
   <energy>
    <i name="alphaZ">   1165.58534439 </i>
    <i name="ewald"> -10984.16669284 </i>
    <i name="hartreedc">  -3147.10757535 </i>
    <i name="XCdc">   -827.38813911 </i>
    <i name="pawpsdc">  19017.32284060 </i>
    <i name="pawaedc"> -17576.70946965 </i>
    <i name="eentropy">     -0.01007821 </i>
    <i name="bandstr">   -740.59499334 </i>
    <i name="atom">  12788.47826598 </i>
    <i name="e_fr_energy">   -304.59049753 </i>
    <i name="e_wo_entrp">   -304.58041932 </i>
    <i name="e_0_energy">   -304.58713813 </i>
   </energy>
  </scstep>
  <structure>
   <crystal>
    <varray name="basis" >
     <v>      -3.13468471      -3.13482325      -3.13839677 </v>
     <v>       1.58591579       1.56998806      -7.86714181 </v>
     <v>       7.86939012      -7.85288065      -1.58605420 </v>
    </varray>
    <i name="volume">    465.51613564 </i>
    <varray name="rec_basis" >
     <v>      -0.13806141      -0.12758797      -0.05329322 </v>
     <v>       0.04226160       0.06373366      -0.10587270 </v>
     <v>       0.06356245      -0.06366749       0.00010773 </v>
    </varray>
   </crystal>
   <varray name="positions" >
    <v>       0.96068976       0.93397848       0.39890530 </v>
    <v>       0.63237656       0.26648425       0.40254636 </v>
    <v>       0.49839594       0.00235042      -0.00128448 </v>
    <v>       0.00053336      -0.00003067       0.00034164 </v>
    <v>       0.09708901       0.20525909       0.79708464 </v>
    <v>       0.03348322       0.06788651       0.59888719 </v>
    <v>       0.90365119       0.79672956       0.20244000 </v>
    <v>       0.80569472       0.59488575       0.39931489 </v>
    <v>       0.73217400       0.46713046       0.19908079 </v>
    <v>       0.66279412       0.33888946      -0.00133394 </v>
    <v>       0.13302385       0.27053835       0.40004217 </v>
    <v>       0.83457305       0.66322075       0.00082253 </v>
    <v>       0.92635728       0.86865110       0.80022435 </v>
    <v>       0.56473149       0.13512004       0.19719137 </v>
    <v>       0.40310338       0.79403401       0.19900112 </v>
    <v>       0.43841480       0.86142785       0.79731240 </v>
    <v>       0.30028788       0.60096698       0.40207777 </v>
    <v>       0.86205018       0.73242521       0.59955707 </v>
    <v>       0.46651364       0.93173830       0.40334170 </v>
    <v>       0.16930512       0.33483707       0.00072143 </v>
    <v>       0.27037300       0.53377225       0.79921308 </v>
    <v>       0.19780374       0.39437039       0.59967127 </v>
    <v>       0.06634095       0.13776761       0.20264253 </v>
    <v>       0.77086567       0.52824248       0.80202969 </v>
    <v>       0.69929404       0.40236378       0.60105713 </v>
    <v>       0.59929533       0.20233106       0.79831129 </v>
    <v>       0.53829120       0.07048067       0.60182775 </v>
    <v>       0.33512967       0.66235056      -0.00060884 </v>
    <v>       0.23069716       0.46846489       0.19958178 </v>
   </varray>
  </structure>
  <varray name="forces" >
   <v>       0.18986140       0.28645406       0.16790833 </v>
   <v>       0.15754130      -0.05963631       0.00381477 </v>
   <v>      -0.22493348       0.22931552       0.01504060 </v>
   <v>       0.04366307      -0.01652555      -0.12285717 </v>
   <v>      -0.05124988       0.37152283      -0.27683707 </v>
   <v>      -0.28493101      -0.02038907      -0.06152177 </v>
   <v>      -0.05787551      -0.24346488       0.16824691 </v>
   <v>      -0.31014823      -0.25435068       0.21028209 </v>
   <v>       0.00633472       0.04555375       0.16871252 </v>
   <v>       0.01701969       0.50411390      -0.35082886 </v>
   <v>       0.06247645       0.04186598      -0.21461974 </v>
   <v>      -0.01213418      -0.13983123       0.04066472 </v>
   <v>       0.15992967       0.25504104      -0.01363572 </v>
   <v>      -0.05606181       0.24255795      -0.09859046 </v>
   <v>      -0.23102287      -0.13376036       0.25727333 </v>
   <v>      -0.50018952       0.24513308       0.59408076 </v>
   <v>       0.37600651      -0.54918941      -0.28196472 </v>
   <v>       0.28032191       0.27992006       0.48560611 </v>
   <v>       0.46259898      -0.43470438       0.26067300 </v>
   <v>      -0.03747586      -0.13136849      -0.32524120 </v>
   <v>      -0.43965402       0.01779792      -0.31300926 </v>
   <v>      -0.03792327       0.08523929       0.60965741 </v>
   <v>       0.35051171      -0.12440637      -0.45294086 </v>
   <v>      -0.06232039      -0.54833047       0.40725873 </v>
   <v>       0.47457841       0.01681227      -0.31135932 </v>
   <v>      -0.12950942       0.36666050      -0.26443418 </v>
   <v>       0.10139030      -0.42350126      -0.72013357 </v>
   <v>      -0.30398848      -0.11203001       0.51818247 </v>
   <v>       0.05718382       0.20350031      -0.09942787 </v>
  </varray>
  <varray name="stress" >
   <v>      17.04408897      -1.01267979      -1.25323390 </v>
   <v>      -1.01267974      16.26342766      -0.00915783 </v>
   <v>      -1.25323401      -0.00915789      17.83222439 </v>
  </varray>
  <energy>
   <i name="e_fr_energy">   -304.59049753 </i>
   <i name="e_wo_entrp">   -304.58713813 </i>
   <i name="e_0_energy">     -0.01007821 </i>
  </energy>
  <time name="totalsc">  797.90  799.06</time>
 </calculation>
 <calculation>
  <scstep>
   <time name="dav">   33.80   33.87</time>
   <time name="total">   34.47   34.55</time>
   <energy>
    <i name="alphaZ">   1180.61984721 </i>
    <i name="ewald"> -11051.10567806 </i>
    <i name="hartreedc">  -3141.16187500 </i>
    <i name="XCdc">   -825.76970794 </i>
    <i name="pawpsdc">  19017.39029833 </i>
    <i name="pawaedc"> -17576.75045099 </i>
    <i name="eentropy">     -0.00604441 </i>
    <i name="bandstr">   -696.31590329 </i>
    <i name="atom">  12788.47826598 </i>
    <i name="e_fr_energy">   -304.62124816 </i>
    <i name="e_wo_entrp">   -304.61520375 </i>
    <i name="e_0_energy">   -304.61923336 </i>
   </energy>
  </scstep>
  <scstep>
   <time name="dav">   51.59   51.70</time>
   <time name="total">   52.26   52.37</time>
   <energy>
    <i name="e_fr_energy">   -305.46657199 </i>
    <i name="e_wo_entrp">   -305.46091323 </i>
    <i name="e_0_energy">   -305.46468574 </i>
   </energy>
  </scstep>
  <scstep>
   <time name="dav">   51.56   51.66</time>
   <time name="total">   52.23   52.35</time>
   <energy>
    <i name="e_fr_energy">   -304.84466750 </i>
    <i name="e_wo_entrp">   -304.83965958 </i>
    <i name="e_0_energy">   -304.84299819 </i>
   </energy>
  </scstep>
  <scstep>
   <time name="dav">   50.49   50.56</time>
   <time name="total">   51.15   51.23</time>
   <energy>
    <i name="e_fr_energy">   -304.84299566 </i>
    <i name="e_wo_entrp">   -304.83766280 </i>
    <i name="e_0_energy">   -304.84121804 </i>
   </energy>
  </scstep>
  <scstep>
   <time name="dav">   49.68   49.73</time>
   <time name="total">   50.37   50.43</time>
   <energy>
    <i name="e_fr_energy">   -304.77770337 </i>
    <i name="e_wo_entrp">   -304.77004723 </i>
    <i name="e_0_energy">   -304.77515132 </i>
   </energy>
  </scstep>
  <scstep>
   <time name="dav">   51.38   51.43</time>
   <time name="total">   52.05   52.11</time>
   <energy>
    <i name="e_fr_energy">   -304.74454814 </i>
    <i name="e_wo_entrp">   -304.73986519 </i>
    <i name="e_0_energy">   -304.74298716 </i>
   </energy>
  </scstep>
  <scstep>
   <time name="dav">   50.46   50.51</time>
   <time name="total">   51.14   51.20</time>
   <energy>
    <i name="e_fr_energy">   -304.74959329 </i>
    <i name="e_wo_entrp">   -304.74147153 </i>
    <i name="e_0_energy">   -304.74688604 </i>
   </energy>
  </scstep>
  <scstep>
   <time name="dav">   51.71   51.76</time>
   <time name="total">   52.37   52.43</time>
   <energy>
    <i name="e_fr_energy">   -304.73313608 </i>
    <i name="e_wo_entrp">   -304.72667138 </i>
    <i name="e_0_energy">   -304.73098118 </i>
   </energy>
  </scstep>
  <scstep>
   <time name="dav">   49.90   49.95</time>
   <time name="total">   50.58   50.64</time>
   <energy>
    <i name="e_fr_energy">   -304.72999354 </i>
    <i name="e_wo_entrp">   -304.72326483 </i>
    <i name="e_0_energy">   -304.72775064 </i>
   </energy>
  </scstep>
  <scstep>
   <time name="dav">   47.56   47.61</time>
   <time name="total">   48.23   48.28</time>
   <energy>
    <i name="e_fr_energy">   -304.72894240 </i>
    <i name="e_wo_entrp">   -304.72245279 </i>
    <i name="e_0_energy">   -304.72677920 </i>
   </energy>
  </scstep>
  <scstep>
   <time name="dav">   44.12   44.17</time>
   <time name="total">   44.82   44.87</time>
   <energy>
    <i name="e_fr_energy">   -304.72925176 </i>
    <i name="e_wo_entrp">   -304.72252346 </i>
    <i name="e_0_energy">   -304.72700899 </i>
   </energy>
  </scstep>
  <scstep>
   <time name="dav">   47.87   47.92</time>
   <time name="total">   48.54   48.59</time>
   <energy>
    <i name="e_fr_energy">   -304.72940610 </i>
    <i name="e_wo_entrp">   -304.72272944 </i>
    <i name="e_0_energy">   -304.72718055 </i>
   </energy>
  </scstep>
  <scstep>
   <time name="dav">   50.23   50.28</time>
   <time name="total">   50.92   50.98</time>
   <energy>
    <i name="e_fr_energy">   -304.72951882 </i>
    <i name="e_wo_entrp">   -304.72295814 </i>
    <i name="e_0_energy">   -304.72733193 </i>
   </energy>
  </scstep>
  <scstep>
   <time name="dav">   45.11   45.16</time>
   <time name="total">   45.78   45.83</time>
   <energy>
    <i name="e_fr_energy">   -304.72941273 </i>
    <i name="e_wo_entrp">   -304.72274147 </i>
    <i name="e_0_energy">   -304.72718898 </i>
   </energy>
  </scstep>
  <scstep>
   <time name="dav">   42.09   42.16</time>
   <time name="total">   42.77   42.84</time>
   <energy>
    <i name="e_fr_energy">   -304.72925517 </i>
    <i name="e_wo_entrp">   -304.72264099 </i>
    <i name="e_0_energy">   -304.72705044 </i>
   </energy>
  </scstep>
  <scstep>
   <time name="dav">   30.69   30.72</time>
   <time name="total">   30.76   30.79</time>
   <energy>
    <i name="alphaZ">   1180.61984721 </i>
    <i name="ewald"> -11051.10567806 </i>
    <i name="hartreedc">  -3116.94939323 </i>
    <i name="XCdc">   -826.50805317 </i>
    <i name="pawpsdc">  19309.24529863 </i>
    <i name="pawaedc"> -17869.08090371 </i>
    <i name="eentropy">     -0.00664508 </i>
    <i name="bandstr">   -719.42195793 </i>
    <i name="atom">  12788.47826598 </i>
    <i name="e_fr_energy">   -304.72921935 </i>
    <i name="e_wo_entrp">   -304.72257427 </i>
    <i name="e_0_energy">   -304.72700433 </i>
   </energy>
  </scstep>
  <structure>
   <crystal>
    <varray name="basis" >
     <v>      -3.11527093      -3.11551571      -3.12182970 </v>
     <v>       1.59045249       1.56231011      -7.84194353 </v>
     <v>       7.84591603      -7.81674578      -1.59069704 </v>
    </varray>
    <i name="volume">    459.58806009 </i>
    <varray name="rec_basis" >
     <v>      -0.13878437      -0.12836996      -0.05372184 </v>
     <v>       0.04231334       0.06407709      -0.10617194 </v>
     <v>       0.06377225      -0.06395923       0.00019161 </v>
    </varray>
   </crystal>
   <varray name="positions" >
    <v>       0.95606958       0.93447890       0.39806118 </v>
    <v>       0.63163975       0.26633951       0.40450891 </v>
    <v>       0.49715704       0.00416267      -0.00227622 </v>
    <v>       0.00094595      -0.00005506       0.00060496 </v>
    <v>       0.09484102       0.20931390       0.79483376 </v>
    <v>       0.03359903       0.06882757       0.59802863 </v>
    <v>       0.90647272       0.79420635       0.20432297 </v>
    <v>       0.81009037       0.59094812       0.39879085 </v>
    <v>       0.73127737       0.46748951       0.19837202 </v>
    <v>       0.65980501       0.34317038      -0.00236628 </v>
    <v>       0.13278853       0.27351896       0.40007165 </v>
    <v>       0.83552875       0.66056608       0.00145911 </v>
    <v>       0.92096766       0.87018048       0.80039576 </v>
    <v>       0.56323440       0.13650117       0.19502546 </v>
    <v>       0.40549498       0.78944200       0.19823595 </v>
    <v>       0.44233409       0.85739810       0.79524519 </v>
    <v>       0.30051367       0.60170757       0.40367830 </v>
    <v>       0.85848067       0.73172827       0.59921646 </v>
    <v>       0.46639754       0.93050439       0.40591830 </v>
    <v>       0.17134670       0.33599263       0.00127623 </v>
    <v>       0.27323720       0.53411046       0.79860625 </v>
    <v>       0.19610030       0.39003771       0.59942233 </v>
    <v>       0.06609655       0.14117666       0.20467561 </v>
    <v>       0.77410835       0.52431841       0.80359787 </v>
    <v>       0.69875193       0.40418183       0.60187000 </v>
    <v>       0.59875110       0.20412886       0.79700803 </v>
    <v>       0.54212900       0.07341210       0.60323334 </v>
    <v>       0.33651312       0.65902838      -0.00107470 </v>
    <v>       0.22866096       0.46985077       0.19925809 </v>
   </varray>
  </structure>
  <varray name="forces" >
   <v>       0.15709115       0.02080939       0.04244811 </v>
   <v>      -0.09429882       0.18049690      -0.04076651 </v>
   <v>      -0.38242311       0.10848308       0.21903860 </v>
   <v>       0.06444504       0.03166504      -0.17059622 </v>
   <v>      -0.00242783      -0.05752661      -0.00626020 </v>
   <v>      -0.37743181      -0.22861856       0.04680895 </v>
   <v>      -0.16351236       0.18796930       0.11885632 </v>
   <v>       0.01719317      -0.09208917      -0.04223288 </v>
   <v>       0.07310621      -0.15479375       0.29489119 </v>
   <v>      -0.15718457       0.33084989      -0.08284489 </v>
   <v>      -0.05491719      -0.07004294       0.15631521 </v>
   <v>       0.01564652       0.02696874      -0.31285631 </v>
   <v>      -0.14617552       0.02717844      -0.11938390 </v>
   <v>       0.12834927      -0.07768529      -0.15306780 </v>
   <v>       0.05533748      -0.01946621      -0.20400523 </v>
   <v>      -0.16186689       0.48916853       0.60202489 </v>
   <v>       0.42619143      -0.70840109      -0.30196851 </v>
   <v>       0.32273951       0.20388526       0.46657940 </v>
   <v>       0.42332013      -0.31491588       0.33444743 </v>
   <v>      -0.06975195      -0.02718226      -0.18543648 </v>
   <v>      -0.49442152       0.15072884      -0.33065628 </v>
   <v>      -0.01554574       0.13528911       0.17052347 </v>
   <v>       0.15990940       0.00137276      -0.15775382 </v>
   <v>      -0.04051493      -0.29989756       0.27804733 </v>
   <v>       0.61933193       0.10770730      -0.24465746 </v>
   <v>      -0.11461303       0.34098652      -0.26360020 </v>
   <v>       0.08708952      -0.34983273      -0.42532401 </v>
   <v>      -0.23705167      -0.03872466       0.40328297 </v>
   <v>      -0.03761380       0.09561760      -0.09185319 </v>
  </varray>
  <varray name="stress" >
   <v>      41.79750456      -0.17482001       1.10309666 </v>
   <v>      -0.17482009      44.00706952       0.44093219 </v>
   <v>       1.10309667       0.44093222      43.09667253 </v>
  </varray>
  <energy>
   <i name="e_fr_energy">   -304.72921935 </i>
   <i name="e_wo_entrp">   -304.72700433 </i>
   <i name="e_0_energy">     -0.00664508 </i>
  </energy>
  <time name="totalsc">  778.63  779.71</time>
 </calculation>
 <calculation>
  <scstep>
[...]
       <r>    4.7814    1.0000 </r>
       <r>    4.7901    1.0000 </r>
       <r>    4.8830    1.0000 </r>
       <r>    4.9491    1.0000 </r>
       <r>    5.0438    1.0000 </r>
       <r>    5.0724    1.0000 </r>
       <r>    5.1369    1.0000 </r>
       <r>    5.1534    1.0000 </r>
       <r>    5.2177    1.0000 </r>
       <r>    5.2755    1.0000 </r>
       <r>    5.3263    1.0000 </r>
       <r>    5.4116    1.0000 </r>
       <r>    5.4593    1.0000 </r>
       <r>    5.5284    1.0000 </r>
       <r>    5.5567    1.0000 </r>
       <r>    5.5928    1.0000 </r>
       <r>    5.6440    1.0000 </r>
       <r>    5.6946    1.0000 </r>
       <r>    5.7305    1.0000 </r>
       <r>    5.7957    1.0000 </r>
       <r>    5.8755    1.0000 </r>
       <r>    5.8988    1.0000 </r>
       <r>    6.0149    1.0000 </r>
       <r>    6.0619    1.0001 </r>
       <r>    6.1213    1.0006 </r>
       <r>    6.1822    1.0023 </r>
       <r>    6.2066    1.0038 </r>
       <r>    6.2366    1.0065 </r>
       <r>    6.2927    1.0151 </r>
       <r>    6.3318    1.0237 </r>
       <r>    6.3732    1.0325 </r>
       <r>    6.3922    1.0350 </r>
       <r>    6.4688    1.0116 </r>
       <r>    6.5295    0.9191 </r>
       <r>    6.5658    0.8209 </r>
       <r>    6.6254    0.5996 </r>
       <r>    6.6866    0.3441 </r>
       <r>    6.7361    0.1675 </r>
       <r>    6.8095    0.0094 </r>
       <r>    6.8623   -0.0307 </r>
       <r>    7.0289   -0.0109 </r>
       <r>    7.0625   -0.0064 </r>
       <r>    7.1652   -0.0008 </r>
       <r>    7.2113   -0.0003 </r>
       <r>    7.2846   -0.0000 </r>
       <r>    7.4089   -0.0000 </r>
       <r>    7.4651   -0.0000 </r>
       <r>    7.5839   -0.0000 </r>
       <r>    7.6365   -0.0000 </r>
       <r>    7.7056   -0.0000 </r>
       <r>    7.8993   -0.0000 </r>
       <r>    8.0038   -0.0000 </r>
       <r>    8.0281   -0.0000 </r>
       <r>    8.2245   -0.0000 </r>
       <r>    8.3011   -0.0000 </r>
       <r>    8.4156   -0.0000 </r>
       <r>    8.4742   -0.0000 </r>
       <r>    8.5307   -0.0000 </r>
       <r>    8.5876   -0.0000 </r>
       <r>    8.6856   -0.0000 </r>
       <r>    8.7336   -0.0000 </r>
      </set>
     </set>
    </set>
   </array>
  </eigenvalues>
  <separator name="orbital magnetization" >
   <v name="MAGDIPOLOUT">      0.00000000      0.00000000      0.00000000</v>
  </separator>
  <dos>
   <i name="efermi">      6.64907000 </i>
   <total>
    <array>
     <dimension dim="1">gridpoints</dimension>
     <dimension dim="2">spin</dimension>
     <field>energy</field>
     <field>total</field>
     <field>integrated</field>
     <set>
      <set comment="spin 1">
       <r>   -50.3324     0.0000     0.0000 </r>
       <r>   -50.1259     0.0000     0.0000 </r>
       <r>   -49.9194     0.0000     0.0000 </r>
       <r>   -49.7130     0.0000     0.0000 </r>
       <r>   -49.5065     0.0000     0.0000 </r>
       <r>   -49.3000    -0.0000    -0.0000 </r>
       <r>   -49.0935    -0.0000    -0.0000 </r>
       <r>   -48.8870    -0.0000    -0.0000 </r>
       <r>   -48.6805    -0.0000    -0.0000 </r>
       <r>   -48.4740    -0.0000    -0.0000 </r>
       <r>   -48.2676    -0.0000    -0.0000 </r>
       <r>   -48.0611    -0.0041    -0.0008 </r>
       <r>   -47.8546    -0.2296    -0.0483 </r>
       <r>   -47.6481    -0.0580    -0.0603 </r>
       <r>   -47.4416    13.1508     2.6552 </r>
       <r>   -47.2351    26.3250     8.0909 </r>
       <r>   -47.0286    17.8916    11.7853 </r>
       <r>   -46.8222     1.4883    12.0926 </r>
       <r>   -46.6157    -0.4365    12.0025 </r>
       <r>   -46.4092    -0.0121    12.0000 </r>
       <r>   -46.2027    -0.0000    12.0000 </r>
       <r>   -45.9962    -0.0000    12.0000 </r>
       <r>   -45.7897    -0.0000    12.0000 </r>
       <r>   -45.5832     0.0000    12.0000 </r>
       <r>   -45.3767     0.0000    12.0000 </r>
       <r>   -45.1703     0.0000    12.0000 </r>
       <r>   -44.9638     0.0000    12.0000 </r>
       <r>   -44.7573     0.0000    12.0000 </r>
       <r>   -44.5508     0.0000    12.0000 </r>
       <r>   -44.3443     0.0000    12.0000 </r>
       <r>   -44.1378     0.0000    12.0000 </r>
       <r>   -43.9313     0.0000    12.0000 </r>
       <r>   -43.7249     0.0000    12.0000 </r>
       <r>   -43.5184     0.0000    12.0000 </r>
       <r>   -43.3119     0.0000    12.0000 </r>
       <r>   -43.1054     0.0000    12.0000 </r>
       <r>   -42.8989     0.0000    12.0000 </r>
       <r>   -42.6924     0.0000    12.0000 </r>
       <r>   -42.4859     0.0000    12.0000 </r>
       <r>   -42.2795     0.0000    12.0000 </r>
       <r>   -42.0730     0.0000    12.0000 </r>
       <r>   -41.8665     0.0000    12.0000 </r>
       <r>   -41.6600     0.0000    12.0000 </r>
       <r>   -41.4535     0.0000    12.0000 </r>
       <r>   -41.2470     0.0000    12.0000 </r>
       <r>   -41.0405     0.0000    12.0000 </r>
       <r>   -40.8341     0.0000    12.0000 </r>
       <r>   -40.6276     0.0000    12.0000 </r>
       <r>   -40.4211     0.0000    12.0000 </r>
       <r>   -40.2146     0.0000    12.0000 </r>
       <r>   -40.0081     0.0000    12.0000 </r>
       <r>   -39.8016     0.0000    12.0000 </r>
       <r>   -39.5951     0.0000    12.0000 </r>
       <r>   -39.3886     0.0000    12.0000 </r>
       <r>   -39.1822     0.0000    12.0000 </r>
       <r>   -38.9757     0.0000    12.0000 </r>
       <r>   -38.7692     0.0000    12.0000 </r>
       <r>   -38.5627     0.0000    12.0000 </r>
       <r>   -38.3562     0.0000    12.0000 </r>
       <r>   -38.1497     0.0000    12.0000 </r>
       <r>   -37.9432     0.0000    12.0000 </r>
       <r>   -37.7368     0.0000    12.0000 </r>
       <r>   -37.5303     0.0000    12.0000 </r>
       <r>   -37.3238     0.0000    12.0000 </r>
       <r>   -37.1173     0.0000    12.0000 </r>
       <r>   -36.9108     0.0000    12.0000 </r>
       <r>   -36.7043     0.0000    12.0000 </r>
       <r>   -36.4978     0.0000    12.0000 </r>
       <r>   -36.2914     0.0000    12.0000 </r>
       <r>   -36.0849     0.0000    12.0000 </r>
       <r>   -35.8784     0.0000    12.0000 </r>
       <r>   -35.6719     0.0000    12.0000 </r>
       <r>   -35.4654     0.0000    12.0000 </r>
       <r>   -35.2589     0.0000    12.0000 </r>
       <r>   -35.0524     0.0000    12.0000 </r>
       <r>   -34.8460     0.0000    12.0000 </r>
       <r>   -34.6395     0.0000    12.0000 </r>
       <r>   -34.4330     0.0000    12.0000 </r>
       <r>   -34.2265     0.0000    12.0000 </r>
       <r>   -34.0200     0.0000    12.0000 </r>
       <r>   -33.8135     0.0000    12.0000 </r>
       <r>   -33.6070     0.0000    12.0000 </r>
       <r>   -33.4006     0.0000    12.0000 </r>
       <r>   -33.1941     0.0000    12.0000 </r>
       <r>   -32.9876     0.0000    12.0000 </r>
       <r>   -32.7811     0.0000    12.0000 </r>
       <r>   -32.5746     0.0000    12.0000 </r>
       <r>   -32.3681     0.0000    12.0000 </r>
       <r>   -32.1616     0.0000    12.0000 </r>
       <r>   -31.9551     0.0000    12.0000 </r>
       <r>   -31.7487     0.0000    12.0000 </r>
       <r>   -31.5422     0.0000    12.0000 </r>
       <r>   -31.3357     0.0000    12.0000 </r>
       <r>   -31.1292     0.0000    12.0000 </r>
       <r>   -30.9227     0.0000    12.0000 </r>
       <r>   -30.7162     0.0000    12.0000 </r>
       <r>   -30.5097     0.0000    12.0000 </r>
       <r>   -30.3033     0.0000    12.0000 </r>
       <r>   -30.0968     0.0000    12.0000 </r>
       <r>   -29.8903     0.0000    12.0000 </r>
       <r>   -29.6838     0.0000    12.0000 </r>
       <r>   -29.4773     0.0000    12.0000 </r>
       <r>   -29.2708     0.0000    12.0000 </r>
       <r>   -29.0643     0.0000    12.0000 </r>
       <r>   -28.8579     0.0000    12.0000 </r>
       <r>   -28.6514     0.0000    12.0000 </r>
       <r>   -28.4449     0.0000    12.0000 </r>
       <r>   -28.2384     0.0000    12.0000 </r>
       <r>   -28.0319     0.0000    12.0000 </r>
       <r>   -27.8254     0.0000    12.0000 </r>
       <r>   -27.6189     0.0000    12.0000 </r>
       <r>   -27.4125     0.0000    12.0000 </r>
       <r>   -27.2060     0.0000    12.0000 </r>
       <r>   -26.9995     0.0000    12.0000 </r>
       <r>   -26.7930     0.0000    12.0000 </r>
       <r>   -26.5865     0.0000    12.0000 </r>
       <r>   -26.3800     0.0000    12.0000 </r>
       <r>   -26.1735     0.0000    12.0000 </r>
       <r>   -25.9670     0.0000    12.0000 </r>
       <r>   -25.7606    -0.0000    12.0000 </r>
       <r>   -25.5541    -0.0000    12.0000 </r>
       <r>   -25.3476    -0.0000    12.0000 </r>
       <r>   -25.1411    -0.0000    12.0000 </r>
       <r>   -24.9346    -0.0000    12.0000 </r>
       <r>   -24.7281    -0.0014    11.9997 </r>
       <r>   -24.5216    -0.1226    11.9744 </r>
       <r>   -24.3152    -0.1543    11.9425 </r>
       <r>   -24.1087     7.4651    13.4840 </r>
       <r>   -23.9022    12.8682    16.1411 </r>
       <r>   -23.6957    21.8556    20.6539 </r>
       <r>   -23.4892    43.9784    29.7349 </r>
       <r>   -23.2827    43.4891    38.7148 </r>
       <r>   -23.0762    28.6736    44.6355 </r>
       <r>   -22.8698    13.4117    47.4048 </r>
       <r>   -22.6633     3.0143    48.0272 </r>
       <r>   -22.4568    -0.0644    48.0139 </r>
       <r>   -22.2503    -0.0660    48.0003 </r>
       <r>   -22.0438    -0.0013    48.0000 </r>
       <r>   -21.8373    -0.0000    48.0000 </r>
       <r>   -21.6308    -0.0000    48.0000 </r>
       <r>   -21.4244    -0.0000    48.0000 </r>
       <r>   -21.2179     0.0000    48.0000 </r>
       <r>   -21.0114     0.0000    48.0000 </r>
       <r>   -20.8049     0.0000    48.0000 </r>
       <r>   -20.5984     0.0000    48.0000 </r>
       <r>   -20.3919     0.0000    48.0000 </r>
       <r>   -20.1854     0.0000    48.0000 </r>
       <r>   -19.9790     0.0000    48.0000 </r>
       <r>   -19.7725     0.0000    48.0000 </r>
       <r>   -19.5660     0.0000    48.0000 </r>
       <r>   -19.3595     0.0000    48.0000 </r>
       <r>   -19.1530     0.0000    48.0000 </r>
       <r>   -18.9465     0.0000    48.0000 </r>
       <r>   -18.7400     0.0000    48.0000 </r>
       <r>   -18.5335     0.0000    48.0000 </r>
       <r>   -18.3271     0.0000    48.0000 </r>
       <r>   -18.1206     0.0000    48.0000 </r>
       <r>   -17.9141     0.0000    48.0000 </r>
       <r>   -17.7076     0.0000    48.0000 </r>
       <r>   -17.5011     0.0000    48.0000 </r>
       <r>   -17.2946     0.0000    48.0000 </r>
       <r>   -17.0881     0.0000    48.0000 </r>
       <r>   -16.8817     0.0000    48.0000 </r>
       <r>   -16.6752     0.0000    48.0000 </r>
       <r>   -16.4687     0.0000    48.0000 </r>
       <r>   -16.2622     0.0000    48.0000 </r>
       <r>   -16.0557     0.0000    48.0000 </r>
       <r>   -15.8492     0.0000    48.0000 </r>
       <r>   -15.6427     0.0000    48.0000 </r>
       <r>   -15.4363     0.0000    48.0000 </r>
       <r>   -15.2298     0.0000    48.0000 </r>
       <r>   -15.0233     0.0000    48.0000 </r>
       <r>   -14.8168     0.0000    48.0000 </r>
       <r>   -14.6103     0.0000    48.0000 </r>
       <r>   -14.4038     0.0000    48.0000 </r>
       <r>   -14.1973     0.0000    48.0000 </r>
       <r>   -13.9909     0.0000    48.0000 </r>
       <r>   -13.7844     0.0000    48.0000 </r>
       <r>   -13.5779     0.0000    48.0000 </r>
       <r>   -13.3714     0.0000    48.0000 </r>
       <r>   -13.1649     0.0000    48.0000 </r>
       <r>   -12.9584     0.0000    48.0000 </r>
       <r>   -12.7519     0.0000    48.0000 </r>
       <r>   -12.5455     0.0000    48.0000 </r>
       <r>   -12.3390     0.0000    48.0000 </r>
       <r>   -12.1325     0.0000    48.0000 </r>
       <r>   -11.9260     0.0000    48.0000 </r>
       <r>   -11.7195     0.0000    48.0000 </r>
       <r>   -11.5130     0.0000    48.0000 </r>
       <r>   -11.3065     0.0000    48.0000 </r>
       <r>   -11.1000     0.0000    48.0000 </r>
       <r>   -10.8936     0.0000    48.0000 </r>
       <r>   -10.6871     0.0000    48.0000 </r>
       <r>   -10.4806     0.0000    48.0000 </r>
       <r>   -10.2741     0.0000    48.0000 </r>
       <r>   -10.0676     0.0000    48.0000 </r>
       <r>    -9.8611     0.0000    48.0000 </r>
       <r>    -9.6546     0.0000    48.0000 </r>
       <r>    -9.4482     0.0000    48.0000 </r>
       <r>    -9.2417     0.0000    48.0000 </r>
       <r>    -9.0352     0.0000    48.0000 </r>
       <r>    -8.8287     0.0000    48.0000 </r>
       <r>    -8.6222     0.0000    48.0000 </r>
       <r>    -8.4157     0.0000    48.0000 </r>
       <r>    -8.2092     0.0000    48.0000 </r>
       <r>    -8.0028     0.0000    48.0000 </r>
       <r>    -7.7963     0.0000    48.0000 </r>
       <r>    -7.5898     0.0000    48.0000 </r>
       <r>    -7.3833     0.0000    48.0000 </r>
       <r>    -7.1768     0.0000    48.0000 </r>
       <r>    -6.9703     0.0000    48.0000 </r>
       <r>    -6.7638     0.0000    48.0000 </r>
       <r>    -6.5574     0.0000    48.0000 </r>
       <r>    -6.3509     0.0000    48.0000 </r>
       <r>    -6.1444     0.0000    48.0000 </r>
       <r>    -5.9379     0.0000    48.0000 </r>
       <r>    -5.7314     0.0000    48.0000 </r>
       <r>    -5.5249     0.0000    48.0000 </r>
       <r>    -5.3184     0.0000    48.0000 </r>
       <r>    -5.1119     0.0000    48.0000 </r>
       <r>    -4.9055     0.0000    48.0000 </r>
       <r>    -4.6990     0.0000    48.0000 </r>
       <r>    -4.4925     0.0000    48.0000 </r>
       <r>    -4.2860     0.0000    48.0000 </r>
       <r>    -4.0795     0.0000    48.0000 </r>
       <r>    -3.8730     0.0000    48.0000 </r>
       <r>    -3.6665     0.0000    48.0000 </r>
       <r>    -3.4601     0.0000    48.0000 </r>
       <r>    -3.2536     0.0000    48.0000 </r>
       <r>    -3.0471     0.0000    48.0000 </r>
       <r>    -2.8406     0.0000    48.0000 </r>
       <r>    -2.6341     0.0000    48.0000 </r>
       <r>    -2.4276     0.0000    48.0000 </r>
       <r>    -2.2211     0.0000    48.0000 </r>
       <r>    -2.0147     0.0000    48.0000 </r>
       <r>    -1.8082    -0.0000    48.0000 </r>
       <r>    -1.6017    -0.0000    48.0000 </r>
       <r>    -1.3952    -0.0000    48.0000 </r>
       <r>    -1.1887    -0.0000    48.0000 </r>
       <r>    -0.9822    -0.0000    48.0000 </r>
       <r>    -0.7757    -0.0000    48.0000 </r>
       <r>    -0.5693    -0.0010    47.9998 </r>
       <r>    -0.3628    -0.0153    47.9966 </r>
       <r>    -0.1563     0.0703    48.0112 </r>
       <r>     0.0502     0.7084    48.1574 </r>
       <r>     0.2567     1.2465    48.4148 </r>
       <r>     0.4632     1.5307    48.7309 </r>
       <r>     0.6697     2.1178    49.1682 </r>
       <r>     0.8761     1.7693    49.5335 </r>
       <r>     1.0826     2.5487    50.0598 </r>
       <r>     1.2891     3.2435    50.7295 </r>
       <r>     1.4956     3.2110    51.3926 </r>
       <r>     1.7021     3.4578    52.1065 </r>
       <r>     1.9086     4.2841    52.9911 </r>
       <r>     2.1151     5.1161    54.0475 </r>
       <r>     2.3216     6.0525    55.2973 </r>
       <r>     2.5280     9.0026    57.1562 </r>
       <r>     2.7345    14.7967    60.2115 </r>
       <r>     2.9410    20.8381    64.5143 </r>
       <r>     3.1475    23.8401    69.4370 </r>
       <r>     3.3540    27.5853    75.1329 </r>
       <r>     3.5605    29.7021    81.2660 </r>
       <r>     3.7670    29.7509    87.4092 </r>
       <r>     3.9734    29.7174    93.5454 </r>
       <r>     4.1799    29.6323    99.6641 </r>
       <r>     4.3864    27.6302   105.3693 </r>
       <r>     4.5929    26.3394   110.8081 </r>
       <r>     4.7994    31.7043   117.3546 </r>
       <r>     5.0059    36.8639   124.9664 </r>
       <r>     5.2124    41.4792   133.5313 </r>
       <r>     5.4188    41.7144   142.1448 </r>
       <r>     5.6253    40.2148   150.4486 </r>
       <r>     5.8318    40.1353   158.7359 </r>
       <r>     6.0383    41.2410   167.2516 </r>
       <r>     6.2448    42.4692   176.0209 </r>
       <r>     6.4513    41.8617   184.6648 </r>
       <r>     6.6578    36.9645   192.2974 </r>
       <r>     6.8642    32.1198   198.9297 </r>
       <r>     7.0707    28.6439   204.8443 </r>
       <r>     7.2772    24.6563   209.9355 </r>
       <r>     7.4837    21.6764   214.4114 </r>
       <r>     7.6902    21.0978   218.7678 </r>
       <r>     7.8967    22.3268   223.3779 </r>
       <r>     8.1032    24.6814   228.4743 </r>
       <r>     8.3097    26.8716   234.0229 </r>
       <r>     8.5161    20.1220   238.1778 </r>
       <r>     8.7226     8.2659   239.8846 </r>
       <r>     8.9291     0.7419   240.0378 </r>
       <r>     9.1356    -0.1706   240.0026 </r>
       <r>     9.3421    -0.0125   240.0000 </r>
       <r>     9.5486    -0.0001   240.0000 </r>
       <r>     9.7551    -0.0000   240.0000 </r>
       <r>     9.9615    -0.0000   240.0000 </r>
       <r>    10.1680    -0.0000   240.0000 </r>
       <r>    10.3745     0.0000   240.0000 </r>
       <r>    10.5810     0.0000   240.0000 </r>
       <r>    10.7875     0.0000   240.0000 </r>
       <r>    10.9940     0.0000   240.0000 </r>
       <r>    11.2005     0.0000   240.0000 </r>
       <r>    11.4069     0.0000   240.0000 </r>
       <r>    11.6134     0.0000   240.0000 </r>
      </set>
     </set>
    </array>
   </total>
  </dos>
 </calculation>
 <structure name="finalpos" >
  <crystal>
   <varray name="basis" >
    <v>      -3.16522181      -3.15316903      -3.17104759 </v>
    <v>       1.55603701       1.54907506      -7.87390811 </v>
    <v>       7.83955829      -7.81704826      -1.57681779 </v>
   </varray>
   <i name="volume">    466.53601489 </i>
   <varray name="rec_basis" >
    <v>      -0.13716696      -0.12705209      -0.05210247 </v>
    <v>       0.04247530       0.06398346      -0.10601999 </v>
    <v>       0.06374632      -0.06399706       0.00000703 </v>
   </varray>
  </crystal>
  <varray name="positions" >
   <v>       0.94261439       0.93330857       0.40414197 </v>
   <v>       0.63477929       0.27060163       0.40544587 </v>
   <v>       0.50377658       0.00336546      -0.00556605 </v>
   <v>       0.00397143       0.00252544       0.00023094 </v>
   <v>       0.09841418       0.19923001       0.79314112 </v>
   <v>       0.06480458       0.04497972       0.59908851 </v>
   <v>       0.91304764       0.79821099       0.20390289 </v>
   <v>       0.81917747       0.59205996       0.39924515 </v>
   <v>       0.73320958       0.47096432       0.20118517 </v>
   <v>       0.66365641       0.34562124      -0.00709539 </v>
   <v>       0.13766446       0.27249228       0.40238040 </v>
   <v>       0.83985351       0.66376758       0.00357141 </v>
   <v>       0.91989827       0.85809610       0.79571950 </v>
   <v>       0.56844571       0.14263370       0.19455037 </v>
   <v>       0.41034464       0.79288081       0.20316995 </v>
   <v>       0.43261379       0.85013000       0.79862947 </v>
   <v>       0.31351666       0.61117307       0.42611634 </v>
   <v>       0.75403365       0.72232938       0.60129104 </v>
   <v>       0.45076979       0.94041022       0.40719794 </v>
   <v>       0.17965152       0.34233788      -0.00678100 </v>
   <v>       0.29758693       0.55092431       0.76676047 </v>
   <v>       0.17818548       0.38952913       0.59909209 </v>
   <v>       0.06856554       0.15197903       0.20669039 </v>
   <v>       0.78210462       0.51418537       0.80501168 </v>
   <v>       0.68265208       0.39708220       0.60833614 </v>
   <v>       0.60195627       0.20347999       0.79031163 </v>
   <v>       0.55893360       0.07287011       0.60753036 </v>
   <v>       0.34566146       0.65047021      -0.00266487 </v>
   <v>       0.23344383       0.47902797       0.19936650 </v>
  </varray>
 </structure>
</modeling>
