Nb - Mo - Ta - Ti - V SQS               
           1
    -3.160000   -3.160000   -3.160000
     1.580000    1.580000   -7.900000
     7.900000   -7.900000   -1.580000
   Nb   Mo   Ta   Ti   V 
   6   5   6   6   6
Direct configuration=     1
   0.96666667  0.93333333  0.40000000
   0.63333333  0.26666667  0.40000000
   0.50000000  0.00000000  0.00000000
   0.00000000  0.00000000  0.00000000
   0.10000000  0.20000000  0.80000000
   0.03333333  0.06666667  0.60000000
   0.90000000  0.80000000  0.20000000
   0.80000000  0.60000000  0.40000000
   0.73333333  0.46666667  0.20000000
   0.66666667  0.33333333  0.00000000
   0.13333333  0.26666667  0.40000000
   0.83333333  0.66666667  0.00000000
   0.93333333  0.86666667  0.80000000
   0.56666667  0.13333333  0.20000000
   0.40000000  0.80000000  0.20000000
   0.43333333  0.86666667  0.80000000
   0.30000000  0.60000000  0.40000000
   0.86666667  0.73333333  0.60000000
   0.46666667  0.93333333  0.40000000
   0.16666667  0.33333333  0.00000000
   0.26666667  0.53333333  0.80000000
   0.20000000  0.40000000  0.60000000
   0.06666667  0.13333333  0.20000000
   0.76666667  0.53333333  0.80000000
   0.70000000  0.40000000  0.60000000
   0.60000000  0.20000000  0.80000000
   0.53333333  0.06666667  0.60000000
   0.33333333  0.66666667  0.00000000
   0.23333333  0.46666667  0.20000000
Nb - Mo - Ta - Ti - V SQS               
           1
    -3.134685   -3.134823   -3.138397
     1.585916    1.569988   -7.867142
     7.869390   -7.852881   -1.586054
   Nb   Mo   Ta   Ti   V 
   6   5   6   6   6
Direct configuration=     2
   0.96068976  0.93397848  0.39890530
   0.63237656  0.26648425  0.40254636
   0.49839594  0.00235042 -0.00128448
   0.00053336 -0.00003067  0.00034164
   0.09708901  0.20525909  0.79708464
   0.03348322  0.06788651  0.59888719
   0.90365119  0.79672956  0.20244000
   0.80569472  0.59488575  0.39931489
   0.73217400  0.46713046  0.19908079
   0.66279412  0.33888946 -0.00133394
   0.13302385  0.27053835  0.40004217
   0.83457305  0.66322075  0.00082253
   0.92635728  0.86865110  0.80022435
   0.56473149  0.13512004  0.19719137
   0.40310338  0.79403401  0.19900112
   0.43841480  0.86142785  0.79731240
   0.30028788  0.60096698  0.40207777
   0.86205018  0.73242521  0.59955707
   0.46651364  0.93173830  0.40334170
   0.16930512  0.33483707  0.00072143
   0.27037300  0.53377225  0.79921308
   0.19780374  0.39437039  0.59967127
   0.06634095  0.13776761  0.20264253
   0.77086567  0.52824248  0.80202969
   0.69929404  0.40236378  0.60105713
   0.59929533  0.20233106  0.79831129
   0.53829120  0.07048067  0.60182775
   0.33512967  0.66235056 -0.00060884
   0.23069716  0.46846489  0.19958178
Nb - Mo - Ta - Ti - V SQS               
           1
    -3.115271   -3.115516   -3.121830
     1.590452    1.562310   -7.841944
     7.845916   -7.816746   -1.590697
   Nb   Mo   Ta   Ti   V 
   6   5   6   6   6
Direct configuration=     3
   0.95606958  0.93447890  0.39806118
   0.63163975  0.26633951  0.40450891
   0.49715704  0.00416267 -0.00227622
   0.00094595 -0.00005506  0.00060496
   0.09484102  0.20931390  0.79483376
   0.03359903  0.06882757  0.59802863
   0.90647272  0.79420635  0.20432297
   0.81009037  0.59094812  0.39879085
   0.73127737  0.46748951  0.19837202
   0.65980501  0.34317038 -0.00236628
   0.13278853  0.27351896  0.40007165
   0.83552875  0.66056608  0.00145911
   0.92096766  0.87018048  0.80039576
   0.56323440  0.13650117  0.19502546
   0.40549498  0.78944200  0.19823595
   0.44233409  0.85739810  0.79524519
   0.30051367  0.60170757  0.40367830
   0.85848067  0.73172827  0.59921646
   0.46639754  0.93050439  0.40591830
   0.17134670  0.33599263  0.00127623
   0.27323720  0.53411046  0.79860625
   0.19610030  0.39003771  0.59942233
   0.06609655  0.14117666  0.20467561
   0.77410835  0.52431841  0.80359787
   0.69875193  0.40418183  0.60187000
   0.59875110  0.20412886  0.79700803
   0.54212900  0.07341210  0.60323334
   0.33651312  0.65902838 -0.00107470
   0.22866096  0.46985077  0.19925809
Nb - Mo - Ta - Ti - V SQS               
           1
    -3.129303   -3.130620   -3.139096
     1.605381    1.570384   -7.893562
     7.897067   -7.863028   -1.606902
   Nb   Mo   Ta   Ti   V 
   6   5   6   6   6
Direct configuration=     4
   0.95226947  0.93490340  0.39765063
   0.63095976  0.26648355  0.40551808
   0.49685754  0.00475652 -0.00362270
   0.00115579  0.00040324  0.00083208
   0.09343172  0.21208979  0.79332837
   0.03532839  0.06874673  0.59723041
   0.90829031  0.79228171  0.20517654
   0.81341629  0.58817795  0.39857114
   0.73052039  0.46694846  0.19817957
   0.65737177  0.34665381 -0.00374079
   0.13279638  0.27511781  0.40011163
   0.83643074  0.65944813  0.00189004
   0.91766849  0.87142291  0.80028440
   0.56219071  0.13781829  0.19378079
   0.40729020  0.78670236  0.19780104
   0.44356888  0.85375966  0.79293624
   0.30167283  0.60232159  0.40630581
   0.85397633  0.73076701  0.59913705
   0.46556216  0.92885172  0.40870565
   0.17326231  0.33711215  0.00160704
   0.27664213  0.53484340  0.79732315
   0.19439430  0.38679635  0.59905039
   0.06563989  0.14405087  0.20630739
   0.77699025  0.52052000  0.80504476
   0.69657079  0.40668245  0.60311576
   0.59808416  0.20632470  0.79548740
   0.54598437  0.07601075  0.60479556
   0.33781872  0.65555266 -0.00166055
   0.22718824  0.47111871  0.19885312
Nb - Mo - Ta - Ti - V SQS               
           1
    -3.135072   -3.136829   -3.146193
     1.611518    1.573703   -7.914782
     7.918095   -7.882054   -1.613563
   Nb   Mo   Ta   Ti   V 
   6   5   6   6   6
Direct configuration=     5
   0.95071476  0.93507733  0.39748293
   0.63068170  0.26654207  0.40593037
   0.49673493  0.00499958 -0.00417290
   0.00124173  0.00059030  0.00092479
   0.09285534  0.21322415  0.79271290
   0.03603582  0.06871383  0.59690427
   0.90903377  0.79149519  0.20552555
   0.81477661  0.58704636  0.39848177
   0.73021059  0.46672765  0.19810106
   0.65637658  0.34807718 -0.00430289
   0.13279981  0.27577074  0.40012769
   0.83679966  0.65899131  0.00206626
   0.91631887  0.87193071  0.80023878
   0.56176375  0.13835676  0.19327208
   0.40802425  0.78558348  0.19762379
   0.44407329  0.85227449  0.79199350
   0.30214747  0.60257124  0.40737916
   0.85213336  0.73037497  0.59910490
   0.46522048  0.92817584  0.40984475
   0.17404623  0.33756901  0.00174195
   0.27803513  0.53514283  0.79679871
   0.19369585  0.38547294  0.59889903
   0.06545364  0.14522411  0.20697358
   0.77816897  0.51896792  0.80563647
   0.69567892  0.40770345  0.60362435
   0.59781142  0.20722210  0.79486577
   0.54756224  0.07707100  0.60543325
   0.33835233  0.65413330 -0.00189934
   0.22658584  0.47163684  0.19868748
Nb - Mo - Ta - Ti - V SQS               
           1
    -3.135585   -3.137982   -3.147297
     1.606982    1.573016   -7.911513
     7.911816   -7.881341   -1.610181
   Nb   Mo   Ta   Ti   V 
   6   5   6   6   6
Direct configuration=     6
   0.95020915  0.93501817  0.39767063
   0.63065083  0.26712342  0.40527085
   0.49773058  0.00383673 -0.00491229
   0.00092194  0.00111012  0.00097904
   0.09358965  0.21206237  0.79320079
   0.03796970  0.06790616  0.59681211
   0.90857047  0.79170107  0.20473066
   0.81488535  0.58751482  0.39855009
   0.72995076  0.46613934  0.19856837
   0.65652936  0.34787265 -0.00480248
   0.13298621  0.27479921  0.40017699
   0.83677188  0.66035055  0.00204925
   0.91680805  0.87217929  0.80006252
   0.56220833  0.13838371  0.19367939
   0.40822772  0.78621601  0.19796008
   0.44205455  0.85173170  0.79124836
   0.30327435  0.60271608  0.40888018
   0.84966184  0.72988168  0.59937132
   0.46427726  0.92742494  0.41070615
   0.17443877  0.33785131  0.00151033
   0.27951521  0.53572555  0.79575526
   0.19314896  0.38566493  0.59847089
   0.06503288  0.14556209  0.20705160
   0.77845874  0.51838382  0.80601386
   0.69328025  0.40891120  0.60434088
   0.59769457  0.20815755  0.79418872
   0.54900320  0.07735414  0.60601753
   0.33863636  0.65318536 -0.00222466
   0.22684640  0.47190269  0.19867358
Nb - Mo - Ta - Ti - V SQS               
           1
    -3.136950   -3.141050   -3.150235
     1.594906    1.571185   -7.902811
     7.895098   -7.879441   -1.601175
   Nb   Mo   Ta   Ti   V 
   6   5   6   6   6
Direct configuration=     7
   0.94886309  0.93486088  0.39817064
   0.63056887  0.26867121  0.40351439
   0.50038375  0.00073751 -0.00688274
   0.00006986  0.00249510  0.00112395
   0.09554519  0.20896792  0.79449963
   0.04311880  0.06575414  0.59656591
   0.90733818  0.79224838  0.20261339
   0.81517404  0.58876299  0.39873239
   0.72925921  0.46457270  0.19981283
   0.65693711  0.34732699 -0.00613343
   0.13348371  0.27221095  0.40030767
   0.83669601  0.66397177  0.00200482
   0.91811010  0.87284125  0.79959308
   0.56339107  0.13845610  0.19476434
   0.40876789  0.78790167  0.19885629
   0.43668284  0.85028459  0.78926332
   0.30627141  0.60310421  0.41287857
   0.84308322  0.72856803  0.60008093
   0.46176622  0.92542579  0.41300037
   0.17548363  0.33860302  0.00089346
   0.28345583  0.53727633  0.79297594
   0.19169358  0.38617580  0.59733060
   0.06391227  0.14646267  0.20725970
   0.77923031  0.51682824  0.80701874
   0.68689239  0.41213009  0.60625063
   0.59738325  0.21064873  0.79238581
   0.55283756  0.07810929  0.60757398
   0.33939430  0.65065938 -0.00309189
   0.22753964  0.47261093  0.19863668
Nb - Mo - Ta - Ti - V SQS               
           1
    -3.137524   -3.142340   -3.151470
     1.589830    1.570415   -7.899153
     7.888072   -7.878642   -1.597390
   Nb   Mo   Ta   Ti   V 
   6   5   6   6   6
Direct configuration=     8
   0.94829753  0.93479502  0.39838105
   0.63053468  0.26932160  0.40277574
   0.50150119 -0.00056838 -0.00771283
  -0.00028892  0.00307820  0.00118534
   0.09636746  0.20766615  0.79504522
   0.04528275  0.06484800  0.59646149
   0.90682173  0.79247743  0.20172269
   0.81529441  0.58928850  0.39880943
   0.72896889  0.46391408  0.20033607
   0.65710957  0.34709643 -0.00669363
   0.13369412  0.27112155  0.40036193
   0.83666199  0.66549603  0.00198712
   0.91865685  0.87311955  0.79939568
   0.56388703  0.13848724  0.19522083
   0.40899313  0.78861178  0.19923383
   0.43442905  0.84967431  0.78842791
   0.30752720  0.60327009  0.41456098
   0.84032069  0.72801569  0.60037946
   0.46071133  0.92458582  0.41396530
   0.17592240  0.33891901  0.00063406
   0.28511171  0.53792722  0.79180670
   0.19108281  0.38639014  0.59685100
   0.06344096  0.14684191  0.20734756
   0.77955462  0.51617407  0.80744112
   0.68420644  0.41348641  0.60705538
   0.59725220  0.21169619  0.79162787
   0.55444640  0.07842806  0.60822894
   0.33971472  0.64959554 -0.00345752
   0.22783037  0.47290902  0.19862132
Nb - Mo - Ta - Ti - V SQS               
           1
    -3.139081   -3.134477   -3.148178
     1.580875    1.571721   -7.886423
     7.873788   -7.853975   -1.582542
   Nb   Mo   Ta   Ti   V 
   6   5   6   6   6
Direct configuration=     9
   0.94702889  0.93482330  0.39848797
   0.63107203  0.26920562  0.40338804
   0.50097507 -0.00022008 -0.00793671
   0.00045220  0.00319001  0.00110143
   0.09783641  0.20596195  0.79512103
   0.04742778  0.06370737  0.59675407
   0.90717286  0.79340412  0.20171769
   0.81591041  0.58989912  0.39915925
   0.72863332  0.46547686  0.20019400
   0.65830464  0.34614242 -0.00662915
   0.13407786  0.27071758  0.40042268
   0.83678915  0.66475235  0.00195092
   0.91707641  0.87327416  0.79877404
   0.56374083  0.13720414  0.19521406
   0.40796499  0.78891069  0.20022843
   0.43480076  0.84896456  0.78781822
   0.30800235  0.60438652  0.41529690
   0.83618395  0.72738517  0.60080434
   0.46030508  0.92410928  0.41485926
   0.17582846  0.33939248 -0.00007324
   0.28628015  0.53891568  0.78956693
   0.18973900  0.38643448  0.59709511
   0.06390459  0.14671523  0.20698796
   0.77983127  0.51615797  0.80777844
   0.68124995  0.41452360  0.60776418
   0.59790051  0.21207255  0.79092017
   0.55618885  0.07853393  0.60805639
   0.34015039  0.64958088 -0.00371296
   0.22850516  0.47304474  0.19889055
Nb - Mo - Ta - Ti - V SQS               
           1
    -3.142358   -3.117919   -3.141247
     1.562020    1.574471   -7.859617
     7.843710   -7.802033   -1.551276
   Nb   Mo   Ta   Ti   V 
   6   5   6   6   6
Direct configuration=    10
   0.94435536  0.93488332  0.39871211
   0.63220723  0.26896168  0.40468108
   0.49986493  0.00051436 -0.00840949
   0.00201385  0.00342560  0.00092541
   0.10093428  0.20236733  0.79528057
   0.05195107  0.06130158  0.59737284
   0.90791217  0.79535858  0.20170886
   0.81720973  0.59118734  0.39989932
   0.72792416  0.46877290  0.19989581
   0.66082457  0.34413011 -0.00649283
   0.13488727  0.26986556  0.40055086
   0.83705762  0.66318375  0.00187365
   0.91374259  0.87359976  0.79746005
   0.56343370  0.13449788  0.19519782
   0.40580182  0.78954259  0.20232706
   0.43558230  0.84746676  0.78653070
   0.30900594  0.60674207  0.41685248
   0.82746709  0.72605659  0.60169513
   0.45945292  0.92310540  0.41674515
   0.17562712  0.34039021 -0.00156575
   0.28873283  0.54099745  0.78484178
   0.18690758  0.38652854  0.59760877
   0.06488043  0.14644749  0.20622929
   0.78041578  0.51612439  0.80849083
   0.67502055  0.41671263  0.60925811
   0.59926373  0.21286535  0.78942760
   0.55986065  0.07875669  0.60769449
   0.34106762  0.64954955 -0.00425165
   0.22992844  0.47333121  0.19945993
Nb - Mo - Ta - Ti - V SQS               
           1
    -3.140853   -3.125524   -3.144431
     1.570681    1.573208   -7.871930
     7.857526   -7.825892   -1.565638
   Nb   Mo   Ta   Ti   V 
   6   5   6   6   6
Direct configuration=    11
   0.94558550  0.93485530  0.39861014
   0.63168216  0.26907345  0.40408351
   0.50037708  0.00017602 -0.00819101
   0.00129549  0.00331725  0.00100563
   0.09950675  0.20402436  0.79520738
   0.04986704  0.06241049  0.59708602
   0.90757265  0.79445778  0.20171127
   0.81661076  0.59059324  0.39955602
   0.72825239  0.46725378  0.20003182
   0.65966369  0.34505777 -0.00655597
   0.13451415  0.27025827  0.40049174
   0.83693360  0.66390683  0.00191017
   0.91527969  0.87345017  0.79806852
   0.56357407  0.13574526  0.19520721
   0.40679369  0.78924992  0.20135888
   0.43522448  0.84815796  0.78712570
   0.30854193  0.60565550  0.41613212
   0.83147700  0.72666771  0.60128974
   0.45984116  0.92356694  0.41587548
   0.17572302  0.33993119 -0.00087711
   0.28761377  0.54004088  0.78702085
   0.18820985  0.38648464  0.59737318
   0.06443263  0.14657142  0.20657920
   0.78014537  0.51613950  0.80816157
   0.67788573  0.41570224  0.60857054
   0.59863944  0.21250092  0.79011549
   0.55817140  0.07865454  0.60785931
   0.34064646  0.64956438 -0.00400343
   0.22927236  0.47319895  0.19919601
Nb - Mo - Ta - Ti - V SQS               
           1
    -3.150911   -3.129272   -3.151341
     1.568965    1.579141   -7.886515
     7.867642   -7.829636   -1.559657
   Nb   Mo   Ta   Ti   V 
   6   5   6   6   6
Direct configuration=    12
   0.94463738  0.93504567  0.39879350
   0.63203585  0.26909104  0.40463415
   0.50003012  0.00054956 -0.00817839
   0.00188140  0.00316686  0.00084260
   0.10055782  0.20299636  0.79507750
   0.05131250  0.06152446  0.59728164
   0.90780021  0.79502101  0.20189135
   0.81711078  0.59088680  0.39985824
   0.72823157  0.46822361  0.19996807
   0.66045204  0.34437524 -0.00637779
   0.13494149  0.27023308  0.40058495
   0.83692867  0.66329322  0.00186452
   0.91408683  0.87319435  0.79769597
   0.56353134  0.13500049  0.19524118
   0.40618179  0.78954193  0.20187939
   0.43574928  0.84767197  0.78689485
   0.30867556  0.60636189  0.41667583
   0.82807540  0.72618351  0.60155012
   0.45970564  0.92353127  0.41641768
   0.17567086  0.34025076 -0.00150386
   0.28804307  0.54092361  0.78519648
   0.18694528  0.38658666  0.59768780
   0.06466932  0.14652387  0.20625467
   0.78055361  0.51615204  0.80827003
   0.67615361  0.41611220  0.60903577
   0.59923172  0.21256513  0.78970245
   0.55930537  0.07859260  0.60750143
   0.34097652  0.64976753 -0.00415331
   0.22985830  0.47329994  0.19941318
Nb - Mo - Ta - Ti - V SQS               
           1
    -3.161328   -3.133154   -3.158499
     1.567187    1.585286   -7.901620
     7.878121   -7.833514   -1.553462
   Nb   Mo   Ta   Ti   V 
   6   5   6   6   6
Direct configuration=    13
   0.94365777  0.93524263  0.39898295
   0.63240206  0.26910944  0.40520410
   0.49967150  0.00093575 -0.00816529
   0.00248671  0.00301126  0.00067406
   0.10164410  0.20193348  0.79494302
   0.05280673  0.06060848  0.59748422
   0.90803545  0.79560335  0.20207808
   0.81762781  0.59119040  0.40017132
   0.72820973  0.46922620  0.19990257
   0.66126713  0.34366966 -0.00619342
   0.13538322  0.27020704  0.40068157
   0.83692368  0.66265885  0.00181698
   0.91285371  0.87292980  0.79730983
   0.56348743  0.13423056  0.19527594
   0.40555003  0.78984410  0.20241790
   0.43629144  0.84716942  0.78665594
   0.30881417  0.60709239  0.41723888
   0.82456063  0.72568329  0.60181792
   0.45956630  0.92349464  0.41697868
   0.17561608  0.34058085 -0.00215230
   0.28848416  0.54183532  0.78330924
   0.18563885  0.38669235  0.59801290
   0.06491351  0.14647454  0.20591892
   0.78097561  0.51616503  0.80838244
   0.67436410  0.41653634  0.60951669
   0.59984324  0.21263129  0.78927531
   0.56047678  0.07852834  0.60713153
   0.34131735  0.64997746 -0.00430816
   0.23046405  0.47340440  0.19963819
Nb - Mo - Ta - Ti - V SQS               
           1
    -3.157978   -3.131906   -3.156197
     1.567759    1.583310   -7.896763
     7.874752   -7.832267   -1.555453
   Nb   Mo   Ta   Ti   V 
   6   5   6   6   6
Direct configuration=    14
   0.94397196  0.93517937  0.39892219
   0.63228435  0.26910346  0.40502096
   0.49978657  0.00081181 -0.00816952
   0.00229259  0.00306123  0.00072814
   0.10129560  0.20227462  0.79498625
   0.05232724  0.06090244  0.59741909
   0.90795996  0.79541644  0.20201797
   0.81746185  0.59109293  0.40007063
   0.72821684  0.46890446  0.19992345
   0.66100552  0.34389609 -0.00625264
   0.13524148  0.27021539  0.40065048
   0.83692525  0.66286244  0.00183235
   0.91324942  0.87301473  0.79743408
   0.56350144  0.13447764  0.19526490
   0.40575250  0.78974703  0.20224494
   0.43611758  0.84733075  0.78673270
   0.30876954  0.60685788  0.41705787
   0.82568799  0.72584371  0.60173244
   0.45961077  0.92350631  0.41679849
   0.17563394  0.34047501 -0.00194404
   0.28834350  0.54154302  0.78391529
   0.18605782  0.38665835  0.59790862
   0.06483531  0.14649042  0.20602675
   0.78084019  0.51616085  0.80834627
   0.67493800  0.41640011  0.60936237
   0.59964725  0.21261014  0.78941243
   0.56010115  0.07854904  0.60725021
   0.34120810  0.64991012 -0.00425850
   0.23026965  0.47337086  0.19956581
Nb - Mo - Ta - Ti - V SQS               
           1
    -3.158744   -3.132136   -3.157011
     1.566447    1.584127   -7.897801
     7.869846   -7.828154   -1.553689
   Nb   Mo   Ta   Ti   V 
   6   5   6   6   6
Direct configuration=    15
   0.94372817  0.93541151  0.39911450
   0.63233263  0.26939057  0.40511271
   0.50005833  0.00078026 -0.00803127
   0.00232056  0.00276010  0.00054638
   0.10152429  0.20213115  0.79478902
   0.05264630  0.06061155  0.59741530
   0.90791206  0.79536558  0.20218913
   0.81773126  0.59096584  0.40013633
   0.72843459  0.46882502  0.20005291
   0.66111260  0.34379442 -0.00612560
   0.13549338  0.27050779  0.40075954
   0.83666353  0.66297679  0.00185189
   0.91309698  0.87246213  0.79747223
   0.56373146  0.13464709  0.19538920
   0.40595835  0.78988739  0.20215279
   0.43616246  0.84726697  0.78699118
   0.30863069  0.60691928  0.41735567
   0.82378680  0.72566856  0.60172226
   0.45960417  0.92393454  0.41678859
   0.17575729  0.34056254 -0.00229304
   0.28812199  0.54210102  0.78312858
   0.18530447  0.38675161  0.59804563
   0.06461678  0.14666802  0.20595360
   0.78122561  0.51604918  0.80828356
   0.67493948  0.41601804  0.60949006
   0.59999244  0.21239546  0.78937215
   0.56047153  0.07832379  0.60697889
   0.34139672  0.65002815 -0.00429597
   0.23057841  0.47346233  0.19965377
Nb - Mo - Ta - Ti - V SQS               
           1
    -3.161043   -3.132828   -3.159452
     1.562512    1.586576   -7.900912
     7.855130   -7.815812   -1.548396
   Nb   Mo   Ta   Ti   V 
   6   5   6   6   6
Direct configuration=    16
   0.94299679  0.93610796  0.39969182
   0.63247733  0.27025185  0.40538824
   0.50087345  0.00068565 -0.00761628
   0.00240461  0.00185671  0.00000066
   0.10221033  0.20170066  0.79419696
   0.05360343  0.05973894  0.59740385
   0.90776839  0.79521308  0.20270287
   0.81853938  0.59058457  0.40033353
   0.72908773  0.46858676  0.20044151
   0.66143381  0.34348948 -0.00574431
   0.13624883  0.27138491  0.40108706
   0.83587849  0.66331985  0.00191055
   0.91263994  0.87080453  0.79758651
   0.56442131  0.13515539  0.19576241
   0.40657578  0.79030836  0.20187625
   0.43629707  0.84707575  0.78776707
   0.30821415  0.60710360  0.41824957
   0.81808431  0.72514337  0.60169145
   0.45958421  0.92521909  0.41675906
   0.17612730  0.34082495 -0.00334059
   0.28745746  0.54377455  0.78076729
   0.18304476  0.38703149  0.59845684
   0.06396124  0.14720074  0.20573405
   0.78238171  0.51571412  0.80809533
   0.67494406  0.41487200  0.60987321
   0.60102790  0.21175143  0.78925118
   0.56158261  0.07764796  0.60616441
   0.34196246  0.65038219 -0.00440840
   0.23150447  0.47373671  0.19991788
Nb - Mo - Ta - Ti - V SQS               
           1
    -3.165640   -3.134211   -3.164334
     1.554641    1.591474   -7.907136
     7.825698   -7.791128   -1.537809
   Nb   Mo   Ta   Ti   V 
   6   5   6   6   6
Direct configuration=    17
   0.94153407  0.93750105  0.40084887
   0.63276580  0.27197404  0.40594099
   0.50250277  0.00049663 -0.00678479
   0.00257352  0.00005004 -0.00109339
   0.10358221  0.20083933  0.79301058
   0.05551736  0.05799405  0.59738040
   0.90748115  0.79490863  0.20373198
   0.82015500  0.58982226  0.40072846
   0.73039337  0.46811054  0.20121999
   0.66207599  0.34288002 -0.00498058
   0.13775812  0.27313868  0.40174410
   0.83430895  0.66400599  0.00202819
   0.91172760  0.86749058  0.79781404
   0.56579976  0.13617181  0.19651066
   0.40780974  0.79114966  0.20132268
   0.43656602  0.84669401  0.78932140
   0.30738107  0.60747293  0.42004053
   0.80668584  0.72409463  0.60162814
   0.45954331  0.92778737  0.41670094
   0.17686707  0.34134868 -0.00543902
   0.28612860  0.54711883  0.77603779
   0.17852740  0.38759193  0.59928044
   0.06265051  0.14826583  0.20529451
   0.78469302  0.51504380  0.80771818
   0.67495398  0.41258096  0.61063991
   0.60309828  0.21046345  0.78900852
   0.56380439  0.07629581  0.60453231
   0.34309309  0.65108981 -0.00463323
   0.23335531  0.47428530  0.20044742
Nb - Mo - Ta - Ti - V SQS               
           1
    -3.164258   -3.133795   -3.162867
     1.557007    1.590002   -7.905265
     7.834545   -7.798548   -1.540991
   Nb   Mo   Ta   Ti   V 
   6   5   6   6   6
Direct configuration=    18
   0.94197373  0.93708219  0.40049961
   0.63267964  0.27145658  0.40577383
   0.50201357  0.00055332 -0.00703565
   0.00252227  0.00059304 -0.00076296
   0.10316995  0.20109846  0.79336856
   0.05494225  0.05851836  0.59738778
   0.90756743  0.79499982  0.20342166
   0.81966974  0.59005128  0.40060942
   0.73000129  0.46825350  0.20098521
   0.66188309  0.34306296 -0.00521083
   0.13730541  0.27261179  0.40154540
   0.83478041  0.66379973  0.00199263
   0.91200079  0.86848597  0.79774628
   0.56538617  0.13586640  0.19628463
   0.40743936  0.79089715  0.20148938
   0.43648533  0.84680833  0.78885264
   0.30763149  0.60736149  0.41950028
   0.81010821  0.72440890  0.60164819
   0.45955619  0.92701587  0.41671784
   0.17664485  0.34119191 -0.00480623
   0.28652793  0.54611525  0.77746362
   0.17988405  0.38742306  0.59903215
   0.06304429  0.14794589  0.20542691
   0.78399881  0.51524541  0.80783196
   0.67495054  0.41326900  0.61040921
   0.60247628  0.21085057  0.78908190
   0.56313677  0.07670254  0.60502480
   0.34275373  0.65087737 -0.00456565
   0.23279974  0.47412050  0.20028745
Nb - Mo - Ta - Ti - V SQS               
           1
    -3.164163   -3.136727   -3.164553
     1.556690    1.588815   -7.906558
     7.828122   -7.798118   -1.543279
   Nb   Mo   Ta   Ti   V 
   6   5   6   6   6
Direct configuration=    19
   0.94238349  0.93693754  0.40086092
   0.63281832  0.27200214  0.40580101
   0.50191325  0.00079796 -0.00694233
   0.00292801  0.00042172 -0.00080414
   0.10299450  0.20066800  0.79330348
   0.05550725  0.05780208  0.59758590
   0.90828313  0.79488967  0.20354775
   0.81934056  0.59030049  0.40055894
   0.73023050  0.46812572  0.20100849
   0.66200451  0.34313087 -0.00529969
   0.13754842  0.27272458  0.40160940
   0.83514387  0.66354355  0.00231353
   0.91312484  0.86753830  0.79741000
   0.56533291  0.13664631  0.19644384
   0.40742829  0.79094145  0.20176787
   0.43583457  0.84684108  0.78966723
   0.30756613  0.60783341  0.42016902
   0.80577502  0.72409338  0.60152860
   0.45910295  0.92808884  0.41604909
   0.17699597  0.34127048 -0.00524347
   0.28665801  0.54705949  0.77630299
   0.17907649  0.38799355  0.59914062
   0.06344614  0.14837795  0.20533344
   0.78433906  0.51498716  0.80760394
   0.67568089  0.41184108  0.61042922
   0.60288325  0.21024926  0.78920215
   0.56317147  0.07625124  0.60495821
   0.34271727  0.65088372 -0.00455859
   0.23310425  0.47442563  0.20025258
Nb - Mo - Ta - Ti - V SQS               
           1
    -3.163877   -3.145524   -3.169610
     1.555740    1.585253   -7.910438
     7.808851   -7.796827   -1.550142
   Nb   Mo   Ta   Ti   V 
   6   5   6   6   6
Direct configuration=    20
   0.94361132  0.93650364  0.40194509
   0.63323367  0.27363876  0.40588242
   0.50161195  0.00153183 -0.00666226
   0.00414496 -0.00009223 -0.00092796
   0.10246890  0.19937670  0.79310835
   0.05720151  0.05565334  0.59818031
   0.91042899  0.79455926  0.20392579
   0.81835341  0.59104807  0.40040759
   0.73091785  0.46774240  0.20107825
   0.66236879  0.34333458 -0.00556647
   0.13827685  0.27306294  0.40180135
   0.83623306  0.66277505  0.00327647
   0.91649717  0.86469542  0.79640025
   0.56517213  0.13898594  0.19692159
   0.40739427  0.79107433  0.20260373
   0.43388082  0.84693931  0.79211245
   0.30736786  0.60924910  0.42217608
   0.79278184  0.72314682  0.60117223
   0.45774491  0.93130757  0.41404206
   0.17805003  0.34150620 -0.00655596
   0.28705064  0.54989208  0.77281933
   0.17665412  0.38970492  0.59946654
   0.06465109  0.14967408  0.20505259
   0.78536020  0.51421245  0.80691941
   0.67787204  0.40755752  0.61048910
   0.60410375  0.20844544  0.78956291
   0.56327607  0.07489740  0.60475839
   0.34260789  0.65090277 -0.00453736
   0.23401723  0.47534099  0.20014771
Nb - Mo - Ta - Ti - V SQS               
           1
    -3.163304   -3.163118   -3.179724
     1.553840    1.578131   -7.918196
     7.770310   -7.794244   -1.563869
   Nb   Mo   Ta   Ti   V 
   6   5   6   6   6
Direct configuration=    21
   0.94605819  0.93563601  0.40411501
   0.63406021  0.27691152  0.40604443
   0.50100742  0.00299937 -0.00610126
   0.00657710 -0.00111996 -0.00117717
   0.10142225  0.19679444  0.79271861
   0.06058546  0.05135654  0.59936945
   0.91471331  0.79389861  0.20468046
   0.81638146  0.59254300  0.40010538
   0.73229092  0.46697588  0.20121727
   0.66309757  0.34374194 -0.00610122
   0.13973014  0.27373958  0.40218478
   0.83840425  0.66123831  0.00520387
   0.92324298  0.85901054  0.79437512
   0.56484461  0.14366454  0.19787775
   0.40732135  0.79134008  0.20427765
   0.42996452  0.84713577  0.79701157
   0.30695822  0.61208013  0.42619523
   0.76683392  0.72125362  0.60047406
   0.45503880  0.93774405  0.41002322
   0.18016239  0.34197755 -0.00918569
   0.28785018  0.55555635  0.76584144
   0.17181136  0.39312711  0.60012148
   0.06705732  0.15226598  0.20448833
   0.78740485  0.51266325  0.80554763
   0.68225485  0.39899169  0.61060791
   0.60654227  0.20483835  0.79028457
   0.56348826  0.07219009  0.60435857
   0.34238928  0.65094086 -0.00449474
   0.23583990  0.47717146  0.19993633
Nb - Mo - Ta - Ti - V SQS               
           1
    -3.163630   -3.153108   -3.173969
     1.554921    1.582183   -7.913782
     7.792239   -7.795714   -1.556059
   Nb   Mo   Ta   Ti   V 
   6   5   6   6   6
Direct configuration=    22
   0.94467597  0.93612945  0.40287860
   0.63359463  0.27504994  0.40595318
   0.50135358  0.00216463 -0.00642141
   0.00519527 -0.00053542 -0.00103359
   0.10201261  0.19826326  0.79293975
   0.05866527  0.05380051  0.59869251
   0.91228405  0.79427431  0.20425266
   0.81750079  0.59169271  0.40027676
   0.73151154  0.46741186  0.20113873
   0.66268266  0.34351023 -0.00579560
   0.13890732  0.27335468  0.40196714
   0.83717708  0.66211235  0.00410549
   0.91940350  0.86224405  0.79553379
   0.56503772  0.14100332  0.19733297
   0.40736837  0.79118890  0.20332273
   0.43220281  0.84702401  0.79421421
   0.30720618  0.61046978  0.42390270
   0.78155399  0.72233088  0.60085475
   0.45656711  0.93408306  0.41231528
   0.17895566  0.34170945 -0.00768402
   0.28737898  0.55233458  0.76982372
   0.17456453  0.39118062  0.59974529
   0.06569240  0.15079167  0.20481232
   0.78623881  0.51354443  0.80633125
   0.67976060  0.40386390  0.61054141
   0.60515767  0.20689003  0.78987381
   0.56336415  0.07373002  0.60458628
   0.34251350  0.65091919 -0.00451919
   0.23480658  0.47613026  0.20005848
Nb - Mo - Ta - Ti - V SQS               
           1
    -3.161896   -3.153363   -3.173390
     1.553954    1.577492   -7.907436
     7.784809   -7.790110   -1.558819
   Nb   Mo   Ta   Ti   V 
   6   5   6   6   6
Direct configuration=    23
   0.94471177  0.93581108  0.40321405
   0.63385786  0.27475619  0.40601277
   0.50174709  0.00231395 -0.00615550
   0.00518685 -0.00046931 -0.00072157