  30  30   0   0
  0.1638400E+02  0.5542563E-09  0.8313844E-09  0.1142629E-08  0.5000000E-15
  1.000000000000000E-004
  CAR 
 Nb - Mo - Ta - Ti - V SQS               
     11.24010037    -50.46953474  301      6.36419161      1.00000000
    -50.470  0.0000E+00  0.0000E+00
    -50.264  0.0000E+00  0.0000E+00
    -50.058  0.0000E+00  0.0000E+00
    -49.852  0.0000E+00  0.0000E+00
    -49.647  0.0000E+00  0.0000E+00
    -49.441 -0.1170E-32 -0.2406E-33
    -49.235 -0.3346E-25 -0.6882E-26
    -49.030 -0.1118E-18 -0.2299E-19
    -48.824 -0.4342E-13 -0.8931E-14
    -48.618 -0.2032E-08 -0.4180E-09
    -48.413 -0.1118E-04 -0.2299E-05
    -48.207 -0.7006E-02 -0.1443E-02
    -48.001 -0.4437E+00 -0.9272E-01
    -47.795  0.5740E-02 -0.9154E-01
    -47.590  0.2656E+02  0.5372E+01
    -47.384  0.3067E+02  0.1168E+02
    -47.178  0.2233E+01  0.1214E+02
    -46.973 -0.6571E+00  0.1200E+02
    -46.767 -0.2304E-01  0.1200E+02
    -46.561 -0.8196E-04  0.1200E+02
    -46.356 -0.3369E-07  0.1200E+02
    -46.150 -0.1626E-11  0.1200E+02
    -45.944  0.0000E+00  0.1200E+02
    -45.738  0.0000E+00  0.1200E+02
    -45.533  0.0000E+00  0.1200E+02
    -45.327  0.0000E+00  0.1200E+02
    -45.121  0.0000E+00  0.1200E+02
    -44.916  0.0000E+00  0.1200E+02
    -44.710  0.0000E+00  0.1200E+02
    -44.504  0.0000E+00  0.1200E+02
    -44.299  0.0000E+00  0.1200E+02
    -44.093  0.0000E+00  0.1200E+02
    -43.887  0.0000E+00  0.1200E+02
    -43.681  0.0000E+00  0.1200E+02
    -43.476  0.0000E+00  0.1200E+02
    -43.270  0.0000E+00  0.1200E+02
    -43.064  0.0000E+00  0.1200E+02
    -42.859  0.0000E+00  0.1200E+02
    -42.653  0.0000E+00  0.1200E+02
    -42.447  0.0000E+00  0.1200E+02
    -42.242  0.0000E+00  0.1200E+02
    -42.036  0.0000E+00  0.1200E+02
    -41.830  0.0000E+00  0.1200E+02
    -41.624  0.0000E+00  0.1200E+02
    -41.419  0.0000E+00  0.1200E+02
    -41.213  0.0000E+00  0.1200E+02
    -41.007  0.0000E+00  0.1200E+02
    -40.802  0.0000E+00  0.1200E+02
    -40.596  0.0000E+00  0.1200E+02
    -40.390  0.0000E+00  0.1200E+02
    -40.185  0.0000E+00  0.1200E+02
    -39.979  0.0000E+00  0.1200E+02
    -39.773  0.0000E+00  0.1200E+02
    -39.567  0.0000E+00  0.1200E+02
    -39.362  0.0000E+00  0.1200E+02
    -39.156  0.0000E+00  0.1200E+02
    -38.950  0.0000E+00  0.1200E+02
    -38.745  0.0000E+00  0.1200E+02
    -38.539  0.0000E+00  0.1200E+02
    -38.333  0.0000E+00  0.1200E+02
    -38.128  0.0000E+00  0.1200E+02
    -37.922  0.0000E+00  0.1200E+02
    -37.716  0.0000E+00  0.1200E+02
    -37.511  0.0000E+00  0.1200E+02
    -37.305  0.0000E+00  0.1200E+02
    -37.099  0.0000E+00  0.1200E+02
    -36.893  0.0000E+00  0.1200E+02
    -36.688  0.0000E+00  0.1200E+02
    -36.482  0.0000E+00  0.1200E+02
    -36.276  0.0000E+00  0.1200E+02
    -36.071  0.0000E+00  0.1200E+02
    -35.865  0.0000E+00  0.1200E+02
    -35.659  0.0000E+00  0.1200E+02
    -35.454  0.0000E+00  0.1200E+02
    -35.248  0.0000E+00  0.1200E+02
    -35.042  0.0000E+00  0.1200E+02
    -34.836  0.0000E+00  0.1200E+02
    -34.631  0.0000E+00  0.1200E+02
    -34.425  0.0000E+00  0.1200E+02
    -34.219  0.0000E+00  0.1200E+02
    -34.014  0.0000E+00  0.1200E+02
    -33.808  0.0000E+00  0.1200E+02
    -33.602  0.0000E+00  0.1200E+02
    -33.397  0.0000E+00  0.1200E+02
    -33.191  0.0000E+00  0.1200E+02
    -32.985  0.0000E+00  0.1200E+02
    -32.779  0.0000E+00  0.1200E+02
    -32.574  0.0000E+00  0.1200E+02
    -32.368  0.0000E+00  0.1200E+02
    -32.162  0.0000E+00  0.1200E+02
    -31.957  0.0000E+00  0.1200E+02
    -31.751  0.0000E+00  0.1200E+02
    -31.545  0.0000E+00  0.1200E+02
    -31.340  0.0000E+00  0.1200E+02
    -31.134  0.0000E+00  0.1200E+02
    -30.928  0.0000E+00  0.1200E+02
    -30.722  0.0000E+00  0.1200E+02
    -30.517  0.0000E+00  0.1200E+02
    -30.311  0.0000E+00  0.1200E+02
    -30.105  0.0000E+00  0.1200E+02
    -29.900  0.0000E+00  0.1200E+02
    -29.694  0.0000E+00  0.1200E+02
    -29.488  0.0000E+00  0.1200E+02
    -29.283  0.0000E+00  0.1200E+02
    -29.077  0.0000E+00  0.1200E+02
    -28.871  0.0000E+00  0.1200E+02
    -28.665  0.0000E+00  0.1200E+02
    -28.460  0.0000E+00  0.1200E+02
    -28.254  0.0000E+00  0.1200E+02
    -28.048  0.0000E+00  0.1200E+02
    -27.843  0.0000E+00  0.1200E+02
    -27.637  0.0000E+00  0.1200E+02
    -27.431  0.0000E+00  0.1200E+02
    -27.226  0.0000E+00  0.1200E+02
    -27.020  0.0000E+00  0.1200E+02
    -26.814  0.0000E+00  0.1200E+02
    -26.608  0.0000E+00  0.1200E+02
    -26.403  0.0000E+00  0.1200E+02
    -26.197  0.0000E+00  0.1200E+02
    -25.991 -0.2329E-28  0.1200E+02
    -25.786 -0.1537E-21  0.1200E+02
    -25.580 -0.1201E-15  0.1200E+02
    -25.374 -0.1067E-10  0.1200E+02
    -25.169 -0.1143E-06  0.1200E+02
    -24.963 -0.1443E-03  0.1200E+02
    -24.757 -0.2185E-01  0.1200E+02
    -24.551 -0.3378E+00  0.1193E+02
    -24.346  0.1890E+01  0.1231E+02
    -24.140  0.1334E+02  0.1506E+02
    -23.934  0.2024E+02  0.1922E+02
    -23.729  0.5197E+02  0.2991E+02
    -23.523  0.5522E+02  0.4127E+02
    -23.317  0.2308E+02  0.4602E+02
    -23.112  0.8770E+01  0.4782E+02
    -22.906  0.1081E+01  0.4804E+02
    -22.700 -0.1910E+00  0.4800E+02
    -22.495 -0.1861E-01  0.4800E+02
    -22.289 -0.1581E-03  0.4800E+02
    -22.083 -0.1452E-06  0.4800E+02
    -21.877 -0.1505E-10  0.4800E+02
    -21.672  0.0000E+00  0.4800E+02
    -21.466  0.0000E+00  0.4800E+02
    -21.260  0.0000E+00  0.4800E+02
    -21.055  0.0000E+00  0.4800E+02
    -20.849  0.0000E+00  0.4800E+02
    -20.643  0.0000E+00  0.4800E+02
    -20.438  0.0000E+00  0.4800E+02
    -20.232  0.0000E+00  0.4800E+02
    -20.026  0.0000E+00  0.4800E+02
    -19.820  0.0000E+00  0.4800E+02
    -19.615  0.0000E+00  0.4800E+02
    -19.409  0.0000E+00  0.4800E+02
    -19.203  0.0000E+00  0.4800E+02
    -18.998  0.0000E+00  0.4800E+02
    -18.792  0.0000E+00  0.4800E+02
    -18.586  0.0000E+00  0.4800E+02
    -18.381  0.0000E+00  0.4800E+02
    -18.175  0.0000E+00  0.4800E+02
    -17.969  0.0000E+00  0.4800E+02
    -17.763  0.0000E+00  0.4800E+02
    -17.558  0.0000E+00  0.4800E+02
    -17.352  0.0000E+00  0.4800E+02
    -17.146  0.0000E+00  0.4800E+02
    -16.941  0.0000E+00  0.4800E+02
    -16.735  0.0000E+00  0.4800E+02
    -16.529  0.0000E+00  0.4800E+02
    -16.324  0.0000E+00  0.4800E+02
    -16.118  0.0000E+00  0.4800E+02
    -15.912  0.0000E+00  0.4800E+02
    -15.706  0.0000E+00  0.4800E+02
    -15.501  0.0000E+00  0.4800E+02
    -15.295  0.0000E+00  0.4800E+02
    -15.089  0.0000E+00  0.4800E+02
    -14.884  0.0000E+00  0.4800E+02
    -14.678  0.0000E+00  0.4800E+02
    -14.472  0.0000E+00  0.4800E+02
    -14.267  0.0000E+00  0.4800E+02
    -14.061  0.0000E+00  0.4800E+02
    -13.855  0.0000E+00  0.4800E+02
    -13.649  0.0000E+00  0.4800E+02
    -13.444  0.0000E+00  0.4800E+02
    -13.238  0.0000E+00  0.4800E+02
    -13.032  0.0000E+00  0.4800E+02
    -12.827  0.0000E+00  0.4800E+02
    -12.621  0.0000E+00  0.4800E+02
    -12.415  0.0000E+00  0.4800E+02
    -12.210  0.0000E+00  0.4800E+02
    -12.004  0.0000E+00  0.4800E+02
    -11.798  0.0000E+00  0.4800E+02
    -11.592  0.0000E+00  0.4800E+02
    -11.387  0.0000E+00  0.4800E+02
    -11.181  0.0000E+00  0.4800E+02
    -10.975  0.0000E+00  0.4800E+02
    -10.770  0.0000E+00  0.4800E+02
    -10.564  0.0000E+00  0.4800E+02
    -10.358  0.0000E+00  0.4800E+02
    -10.153  0.0000E+00  0.4800E+02
     -9.947  0.0000E+00  0.4800E+02
     -9.741  0.0000E+00  0.4800E+02
     -9.535  0.0000E+00  0.4800E+02
     -9.330  0.0000E+00  0.4800E+02
     -9.124  0.0000E+00  0.4800E+02
     -8.918  0.0000E+00  0.4800E+02
     -8.713  0.0000E+00  0.4800E+02
     -8.507  0.0000E+00  0.4800E+02
     -8.301  0.0000E+00  0.4800E+02
     -8.096  0.0000E+00  0.4800E+02
     -7.890  0.0000E+00  0.4800E+02
     -7.684  0.0000E+00  0.4800E+02
     -7.478  0.0000E+00  0.4800E+02
     -7.273  0.0000E+00  0.4800E+02
     -7.067  0.0000E+00  0.4800E+02
     -6.861  0.0000E+00  0.4800E+02
     -6.656  0.0000E+00  0.4800E+02
     -6.450  0.0000E+00  0.4800E+02
     -6.244  0.0000E+00  0.4800E+02
     -6.039  0.0000E+00  0.4800E+02
     -5.833  0.0000E+00  0.4800E+02
     -5.627  0.0000E+00  0.4800E+02
     -5.422  0.0000E+00  0.4800E+02
     -5.216  0.0000E+00  0.4800E+02
     -5.010  0.0000E+00  0.4800E+02
     -4.804  0.0000E+00  0.4800E+02
     -4.599  0.0000E+00  0.4800E+02
     -4.393  0.0000E+00  0.4800E+02
     -4.187  0.0000E+00  0.4800E+02
     -3.982  0.0000E+00  0.4800E+02
     -3.776  0.0000E+00  0.4800E+02
     -3.570  0.0000E+00  0.4800E+02
     -3.365  0.0000E+00  0.4800E+02
     -3.159  0.0000E+00  0.4800E+02
     -2.953  0.0000E+00  0.4800E+02
     -2.747  0.0000E+00  0.4800E+02
     -2.542  0.0000E+00  0.4800E+02
     -2.336  0.0000E+00  0.4800E+02
     -2.130 -0.1035E-34  0.4800E+02
     -1.925 -0.2786E-27  0.4800E+02
     -1.719 -0.8871E-21  0.4800E+02
     -1.513 -0.3282E-15  0.4800E+02
     -1.308 -0.1462E-10  0.4800E+02
     -1.102 -0.7757E-07  0.4800E+02
     -0.896 -0.4844E-04  0.4800E+02
     -0.690 -0.3384E-02  0.4800E+02
     -0.485 -0.1319E-01  0.4800E+02
     -0.279  0.1976E+00  0.4804E+02
     -0.073  0.8249E+00  0.4821E+02
      0.132  0.1597E+01  0.4854E+02
      0.338  0.2009E+01  0.4895E+02
      0.544  0.1555E+01  0.4927E+02
      0.749  0.2209E+01  0.4972E+02
      0.955  0.3227E+01  0.5039E+02
      1.161  0.3624E+01  0.5113E+02
      1.367  0.2738E+01  0.5170E+02
      1.572  0.3717E+01  0.5246E+02
      1.778  0.4877E+01  0.5346E+02
      1.984  0.5160E+01  0.5452E+02
      2.189  0.6889E+01  0.5594E+02
      2.395  0.8936E+01  0.5778E+02
      2.601  0.1381E+02  0.6062E+02
      2.806  0.2071E+02  0.6488E+02
      3.012  0.2444E+02  0.6991E+02
      3.218  0.2930E+02  0.7593E+02
      3.424  0.3118E+02  0.8235E+02
      3.629  0.3151E+02  0.8883E+02
      3.835  0.3261E+02  0.9554E+02
      4.041  0.3238E+02  0.1022E+03
      4.246  0.2876E+02  0.1081E+03
      4.452  0.2285E+02  0.1128E+03
      4.658  0.2956E+02  0.1189E+03
      4.863  0.3932E+02  0.1270E+03
      5.069  0.4614E+02  0.1365E+03
      5.275  0.4727E+02  0.1462E+03
      5.481  0.4509E+02  0.1555E+03
      5.686  0.4225E+02  0.1642E+03
      5.892  0.4620E+02  0.1737E+03
      6.098  0.5172E+02  0.1843E+03
      6.303  0.5225E+02  0.1951E+03
      6.509  0.4609E+02  0.2045E+03
      6.715  0.3681E+02  0.2121E+03
      6.920  0.2367E+02  0.2170E+03
      7.126  0.1452E+02  0.2200E+03
      7.332  0.1324E+02  0.2227E+03
      7.538  0.1630E+02  0.2260E+03
      7.743  0.1927E+02  0.2300E+03
      7.949  0.2115E+02  0.2344E+03
      8.155  0.1753E+02  0.2380E+03
      8.360  0.8708E+01  0.2398E+03
      8.566  0.1424E+01  0.2400E+03
      8.772 -0.1964E+00  0.2400E+03
      8.977 -0.2024E-01  0.2400E+03
      9.183 -0.2050E-03  0.2400E+03
      9.389 -0.2650E-06  0.2400E+03
      9.595 -0.4318E-10  0.2400E+03
      9.800 -0.8636E-15  0.2400E+03
     10.006  0.0000E+00  0.2400E+03
     10.212  0.0000E+00  0.2400E+03
     10.417  0.0000E+00  0.2400E+03
     10.623  0.0000E+00  0.2400E+03
     10.829  0.0000E+00  0.2400E+03
     11.034  0.0000E+00  0.2400E+03
     11.240  0.0000E+00  0.2400E+03
