   30   30    1    1
  0.1638400E+02  0.5542563E-09  0.8313844E-09  0.1142629E-08  0.5000000E-15
  1.000000000000000E-004
  CAR 
 Nb - Mo - Ta - Ti - V SQS               
    198     63    120
 
  0.0000000E+00  0.0000000E+00  0.0000000E+00  0.8000000E-02
    1      -47.664551   1.000000
    2      -47.643903   1.000000
    3      -47.604842   1.000000
    4      -47.559716   1.000000
    5      -47.529970   1.000000
    6      -47.434556   1.000000
    7      -24.349107   1.000000
    8      -24.208153   1.000000
    9      -24.062800   1.000000
   10      -24.021764   1.000000
   11      -23.813846   1.000000
   12      -23.808500   1.000000
   13      -23.804472   1.000000
   14      -23.758239   1.000000
   15      -23.743065   1.000000
   16      -23.725199   1.000000
   17      -23.703878   1.000000
   18      -23.660237   1.000000
   19      -23.618544   1.000000
   20      -23.601048   1.000000
   21      -23.473151   1.000000
   22      -23.455797   1.000000
   23      -23.316918   1.000000
   24      -23.101165   1.000000
   25       -0.353571   1.000000
   26        0.921605   1.000000
   27        1.276926   1.000000
   28        2.088761   1.000000
   29        2.243837   1.000000
   30        2.315262   1.000000
   31        2.431821   1.000000
   32        2.562149   1.000000
   33        2.600034   1.000000
   34        2.687861   1.000000
   35        2.732326   1.000000
   36        2.807733   1.000000
   37        2.867312   1.000000
   38        2.913262   1.000000
   39        3.043389   1.000000
   40        3.079397   1.000000
   41        3.162999   1.000000
   42        3.270330   1.000000
   43        3.373680   1.000000
   44        3.413281   1.000000
   45        3.475204   1.000000
   46        3.526882   1.000000
   47        3.591384   1.000000
   48        3.607192   1.000000
   49        3.745468   1.000000
   50        3.789605   1.000000
   51        3.877101   1.000000
   52        3.937686   1.000000
   53        4.009892   1.000000
   54        4.046705   1.000000
   55        4.182992   1.000000
   56        4.248377   1.000000
   57        4.328962   1.000000
   58        4.371971   1.000000
   59        4.518987   1.000000
   60        4.553802   1.000000
   61        4.632900   1.000000
   62        4.678444   1.000000
   63        4.685648   1.000000
   64        4.773943   1.000000
   65        4.779061   1.000000
   66        4.870343   1.000000
   67        4.885418   1.000000
   68        4.968350   1.000000
   69        4.986927   1.000000
   70        5.036366   1.000000
   71        5.091447   1.000000
   72        5.118251   1.000000
   73        5.179672   1.000000
   74        5.225278   1.000000
   75        5.236451   1.000000
   76        5.250870   1.000000
   77        5.273202   1.000000
   78        5.388173   1.000000
   79        5.451109   1.000000
   80        5.537733   1.000000
   81        5.699647   1.000014
   82        5.748145   1.000059
   83        5.797379   1.000229
   84        5.833356   1.000566
   85        5.877264   1.001543
   86        5.938530   1.005168
   87        5.995529   1.012823
   88        6.021720   1.018012
   89        6.042336   1.022637
   90        6.051076   1.024659
   91        6.075953   1.030174
   92        6.113245   1.035325
   93        6.139777   1.033598
   94        6.196477   0.999268
   95        6.353598   0.544754
   96        6.381996   0.424995
   97        6.468491   0.118323
   98        6.476140   0.098871
   99        6.517886   0.018464
  100        6.605721  -0.035412
  101        6.661253  -0.028302
  102        6.700079  -0.019452
  103        6.781546  -0.005980
  104        6.793519  -0.004839
  105        6.801298  -0.004196
  106        6.898678  -0.000518
  107        7.132362  -0.000000
  108        7.280070  -0.000000
  109        7.308687  -0.000000
  110        7.392922  -0.000000
  111        7.785923  -0.000000
  112        7.943480  -0.000000
  113        8.081784  -0.000000
  114        8.171110  -0.000000
  115        8.207138  -0.000000
  116        8.234110  -0.000000
  117        8.252743  -0.000000
  118        8.283961  -0.000000
  119        8.369118  -0.000000
  120        8.393507  -0.000000
 
  0.2000000E+00  0.0000000E+00  0.7632783E-16  0.1600000E-01
    1      -47.662663   1.000000
    2      -47.638541   1.000000
    3      -47.602284   1.000000
    4      -47.558669   1.000000
    5      -47.529308   1.000000
    6      -47.445565   1.000000
    7      -24.260335   1.000000
    8      -24.195636   1.000000
    9      -24.056460   1.000000
   10      -24.015860   1.000000
   11      -23.815061   1.000000
   12      -23.810523   1.000000
   13      -23.799688   1.000000
   14      -23.759901   1.000000
   15      -23.741960   1.000000
   16      -23.729084   1.000000
   17      -23.705984   1.000000
   18      -23.662910   1.000000
   19      -23.628028   1.000000
   20      -23.603541   1.000000
   21      -23.478532   1.000000
   22      -23.460774   1.000000
   23      -23.318783   1.000000
   24      -23.219585   1.000000
   25       -0.047870   1.000000
   26        1.191465   1.000000
   27        1.535661   1.000000
   28        2.119936   1.000000
   29        2.453376   1.000000
   30        2.550017   1.000000
   31        2.598201   1.000000
   32        2.727737   1.000000
   33        2.754294   1.000000
   34        2.796484   1.000000
   35        2.926486   1.000000
   36        2.997762   1.000000
   37        3.046960   1.000000
   38        3.139654   1.000000
   39        3.183705   1.000000
   40        3.241643   1.000000
   41        3.287686   1.000000
   42        3.330083   1.000000
   43        3.398248   1.000000
   44        3.445256   1.000000
   45        3.572360   1.000000
   46        3.609509   1.000000
   47        3.676377   1.000000
   48        3.775804   1.000000
   49        3.821205   1.000000
   50        3.832182   1.000000
   51        3.951064   1.000000
   52        4.026721   1.000000
   53        4.060407   1.000000
   54        4.146183   1.000000
   55        4.202855   1.000000
   56        4.279965   1.000000
   57        4.352267   1.000000
   58        4.434702   1.000000
   59        4.552755   1.000000
   60        4.606528   1.000000
   61        4.666561   1.000000
   62        4.797532   1.000000
   63        4.812370   1.000000
   64        4.884430   1.000000
   65        4.917244   1.000000
   66        4.949040   1.000000
   67        4.996813   1.000000
   68        5.059045   1.000000
   69        5.075351   1.000000
   70        5.085675   1.000000
   71        5.157680   1.000000
   72        5.185869   1.000000
   73        5.246798   1.000000
   74        5.262952   1.000000
   75        5.344669   1.000000
   76        5.374903   1.000000
   77        5.392764   1.000000
   78        5.423876   1.000000
   79        5.466478   1.000000
   80        5.511030   1.000000
   81        5.520330   1.000000
   82        5.618508   1.000001
   83        5.668765   1.000005
   84        5.729856   1.000035
   85        5.774229   1.000123
   86        5.822520   1.000434
   87        5.850703   1.000852
   88        5.940570   1.005359
   89        6.030281   1.019892
   90        6.049591   1.024316
   91        6.085199   1.031955
   92        6.123425   1.035389
   93        6.149882   1.031047
   94        6.187353   1.008563
   95        6.278976   0.826840
   96        6.296887   0.767701
   97        6.349017   0.564005
   98        6.378920   0.437867
   99        6.445022   0.186983
  100        6.483828   0.080804
  101        6.509757   0.030786
  102        6.561204  -0.023507
  103        6.637532  -0.032917
  104        6.670390  -0.026251
  105        6.696784  -0.020188
  106        6.749308  -0.010092
  107        6.762956  -0.008155
  108        6.971119  -0.000077
  109        7.060597  -0.000005
  110        7.161368  -0.000000
  111        7.466530  -0.000000
  112        7.501022  -0.000000
  113        7.552701  -0.000000
  114        7.602481  -0.000000
  115        7.699974  -0.000000
  116        7.855987  -0.000000
  117        7.908445  -0.000000
  118        7.964729  -0.000000
  119        7.981816  -0.000000
  120        8.019258  -0.000000
 
  0.4000000E+00  0.0000000E+00  0.1526557E-15  0.1600000E-01
    1      -47.660494   1.000000
    2      -47.629974   1.000000
    3      -47.595672   1.000000
    4      -47.555507   1.000000
    5      -47.527072   1.000000
    6      -47.467489   1.000000
    7      -24.218508   1.000000
    8      -24.076230   1.000000
    9      -24.031485   1.000000
   10      -23.912403   1.000000
   11      -23.821673   1.000000
   12      -23.813375   1.000000
   13      -23.788107   1.000000
   14      -23.761172   1.000000
   15      -23.740968   1.000000
   16      -23.728760   1.000000
   17      -23.709920   1.000000
   18      -23.667605   1.000000
   19      -23.649728   1.000000
   20      -23.608213   1.000000
   21      -23.547234   1.000000
   22      -23.482591   1.000000
   23      -23.450355   1.000000
   24      -23.313605   1.000000
   25        0.774335   1.000000
   26        1.708164   1.000000
   27        2.037403   1.000000
   28        2.253236   1.000000
   29        2.333019   1.000000
   30        2.705609   1.000000
   31        2.759350   1.000000
   32        2.935953   1.000000
   33        3.042303   1.000000
   34        3.130741   1.000000
   35        3.192670   1.000000
   36        3.231205   1.000000
   37        3.315128   1.000000
   38        3.340436   1.000000
   39        3.434382   1.000000
   40        3.492926   1.000000
   41        3.556530   1.000000
   42        3.595094   1.000000
   43        3.610631   1.000000
   44        3.698582   1.000000
   45        3.802467   1.000000
   46        3.810147   1.000000
   47        3.872851   1.000000
   48        3.902321   1.000000
   49        4.007365   1.000000
   50        4.037010   1.000000
   51        4.167437   1.000000
   52        4.219284   1.000000
   53        4.278186   1.000000
   54        4.360326   1.000000
   55        4.427139   1.000000
   56        4.487984   1.000000
   57        4.559161   1.000000
   58        4.604052   1.000000
   59        4.632744   1.000000
   60        4.691099   1.000000
   61        4.724227   1.000000
   62        4.767063   1.000000
   63        4.822781   1.000000
   64        4.852989   1.000000
   65        4.883960   1.000000
   66        4.968556   1.000000
   67        4.990940   1.000000
   68        5.019853   1.000000
   69        5.059864   1.000000
   70        5.116862   1.000000
   71        5.170105   1.000000
   72        5.217833   1.000000
   73        5.254988   1.000000
   74        5.299248   1.000000
   75        5.348385   1.000000
   76        5.403195   1.000000
   77        5.457775   1.000000
   78        5.483782   1.000000
   79        5.496846   1.000000
   80        5.539179   1.000000
   81        5.629152   1.000001
   82        5.678450   1.000007
   83        5.710620   1.000019
   84        5.751643   1.000065
   85        5.799996   1.000245
   86        5.846142   1.000766
   87        5.900549   1.002509
   88        5.936662   1.004998
   89        5.978636   1.010025
   90        6.003548   1.014308
   91        6.032475   1.020385
   92        6.065821   1.028013
   93        6.102961   1.034546
   94        6.128334   1.035119
   95        6.134608   1.034450
   96        6.220531   0.966100
   97        6.259045   0.883902
   98        6.291821   0.785131
   99        6.336841   0.614541
  100        6.342658   0.590534
  101        6.388982   0.395993
  102        6.433771   0.224407
  103        6.445274   0.186175
  104        6.527458   0.005892
  105        6.531602   0.001071
  106        6.603318  -0.035322
  107        6.656915  -0.029239
  108        6.682448  -0.023469
  109        6.710115  -0.017276
  110        6.777042  -0.006460
  111        6.814488  -0.003267
  112        6.859971  -0.001272
  113        7.138824  -0.000000
  114        7.258669  -0.000000
  115        7.280449  -0.000000
  116        7.404458  -0.000000
  117        7.488577  -0.000000
  118        7.508832  -0.000000
  119        7.623182  -0.000000
  120        7.726063  -0.000000
 
  0.1387779E-16  0.2000000E+00 -0.2775558E-16  0.1600000E-01
    1      -47.664425   1.000000
    2      -47.643765   1.000000
    3      -47.604825   1.000000
    4      -47.559930   1.000000
    5      -47.530035   1.000000
    6      -47.434554   1.000000
    7      -24.349109   1.000000
    8      -24.207155   1.000000
    9      -24.059452   1.000000
   10      -24.020941   1.000000
   11      -23.813967   1.000000
   12      -23.808628   1.000000
   13      -23.804498   1.000000
   14      -23.758304   1.000000
   15      -23.743050   1.000000
   16      -23.725098   1.000000
   17      -23.703792   1.000000
   18      -23.660173   1.000000
   19      -23.618564   1.000000
   20      -23.601116   1.000000
   21      -23.475428   1.000000
   22      -23.459117   1.000000
   23      -23.317248   1.000000
   24      -23.101173   1.000000
   25       -0.225003   1.000000
   26        0.985392   1.000000
   27        1.395785   1.000000
   28        1.613391   1.000000
   29        2.198101   1.000000
   30        2.381569   1.000000
   31        2.457316   1.000000
   32        2.589574   1.000000
   33        2.598662   1.000000
   34        2.685852   1.000000
   35        2.772457   1.000000
   36        2.835248   1.000000
   37        2.881627   1.000000
   38        2.935106   1.000000
   39        3.006682   1.000000
   40        3.039252   1.000000
   41        3.170923   1.000000
   42        3.216694   1.000000
   43        3.334818   1.000000
   44        3.410978   1.000000
   45        3.497829   1.000000
   46        3.575425   1.000000
   47        3.597779   1.000000
   48        3.706591   1.000000
   49        3.733901   1.000000
   50        3.815764   1.000000
   51        3.885624   1.000000
   52        3.958755   1.000000
   53        3.985551   1.000000
   54        4.036818   1.000000
   55        4.111538   1.000000
   56        4.192429   1.000000
   57        4.291999   1.000000
   58        4.455402   1.000000
   59        4.538776   1.000000
   60        4.600101   1.000000
   61        4.641688   1.000000
   62        4.744493   1.000000
   63        4.778446   1.000000
   64        4.827477   1.000000
   65        4.872249   1.000000
   66        4.904813   1.000000
   67        4.959011   1.000000
   68        5.013850   1.000000
   69        5.032010   1.000000
   70        5.063290   1.000000
   71        5.115240   1.000000
   72        5.145447   1.000000
   73        5.182312   1.000000
   74        5.241015   1.000000
   75        5.283976   1.000000
   76        5.309250   1.000000
   77        5.357864   1.000000
   78        5.377025   1.000000
   79        5.488543   1.000000
   80        5.518257   1.000000
   81        5.707479   1.000018
   82        5.727600   1.000032
   83        5.796636   1.000225
   84        5.826929   1.000484
   85        5.862039   1.001103
   86        5.881142   1.001677
   87        5.915058   1.003342
   88        5.965676   1.008188
   89        6.003038   1.014211
   90        6.022904   1.018268
   91        6.057480   1.026134
   92        6.098791   1.034061
   93        6.136546   1.034164
   94        6.171263   1.021058
   95        6.225270   0.957977
   96        6.234470   0.940635
   97        6.300159   0.756163
   98        6.364702   0.497842
   99        6.416499   0.286839
  100        6.652697  -0.030120
  101        6.717024  -0.015846
  102        6.740307  -0.011532
  103        6.794785  -0.004729
  104        6.880000  -0.000808
  105        6.949563  -0.000140
  106        6.977167  -0.000065
  107        7.107358  -0.000001
  108        7.293920  -0.000000
  109        7.328711  -0.000000
  110        7.398934  -0.000000
  111        7.530470  -0.000000
  112        7.580644  -0.000000
  113        7.705067  -0.000000
  114        7.937663  -0.000000
  115        8.010981  -0.000000
  116        8.137118  -0.000000
  117        8.162629  -0.000000
  118        8.217604  -0.000000
  119        8.257539  -0.000000
  120        8.296971  -0.000000
 
  0.2000000E+00  0.2000000E+00 -0.1387779E-16  0.1600000E-01
    1      -47.662806   1.000000
    2      -47.638660   1.000000
    3      -47.602285   1.000000
    4      -47.558466   1.000000
    5      -47.529248   1.000000
    6      -47.445567   1.000000
    7      -24.260457   1.000000
    8      -24.196536   1.000000
    9      -24.059995   1.000000
   10      -24.016344   1.000000
   11      -23.815067   1.000000
   12      -23.810537   1.000000
   13      -23.799638   1.000000
   14      -23.759941   1.000000
   15      -23.741901   1.000000
   16      -23.729033   1.000000
   17      -23.705994   1.000000
   18      -23.662940   1.000000
   19      -23.627981   1.000000
   20      -23.603494   1.000000
   21      -23.476785   1.000000
   22      -23.457085   1.000000
   23      -23.318480   1.000000
   24      -23.219575   1.000000
   25       -0.043231   1.000000
   26        1.152597   1.000000
   27        1.564219   1.000000
   28        2.098299   1.000000
   29        2.409229   1.000000
   30        2.533594   1.000000
   31        2.556230   1.000000
   32        2.655984   1.000000
   33        2.704559   1.000000
   34        2.788029   1.000000
   35        2.847482   1.000000
   36        2.944952   1.000000
   37        3.043820   1.000000
   38        3.096918   1.000000
   39        3.154054   1.000000
   40        3.200491   1.000000
   41        3.257028   1.000000
   42        3.274650   1.000000
   43        3.475563   1.000000
   44        3.514937   1.000000
   45        3.567166   1.000000
   46        3.637733   1.000000
   47        3.700503   1.000000
   48        3.768606   1.000000
   49        3.870990   1.000000
   50        3.923120   1.000000
   51        3.948238   1.000000
   52        4.038783   1.000000
   53        4.121747   1.000000
   54        4.182408   1.000000
   55        4.242315   1.000000
   56        4.299338   1.000000
   57        4.402646   1.000000
   58        4.485745   1.000000
   59        4.561221   1.000000
   60        4.638632   1.000000
   61        4.691764   1.000000
   62        4.711255   1.000000
   63        4.799495   1.000000
   64        4.817423   1.000000
   65        4.853127   1.000000
   66        4.940144   1.000000
   67        4.970516   1.000000
   68        5.007310   1.000000
   69        5.049648   1.000000
   70        5.071816   1.000000
   71        5.106376   1.000000
   72        5.127131   1.000000
   73        5.152858   1.000000
   74        5.208753   1.000000
   75        5.238935   1.000000
   76        5.305803   1.000000
   77        5.381512   1.000000
   78        5.406401   1.000000
   79        5.479628   1.000000
   80        5.550812   1.000000
   81        5.602567   1.000001
   82        5.660557   1.000004
   83        5.728970   1.000034
   84        5.746081   1.000056
   85        5.790822   1.000193
   86        5.858101   1.001010
   87        5.904222   1.002701
   88        5.972201   1.009079
   89        5.991568   1.012126
   90        6.037466   1.021518
   91        6.068583   1.028619
   92        6.098177   1.033982
   93        6.132795   1.034683
   94        6.155039   1.029248
   95        6.250238   0.905986
   96        6.290333   0.790150
   97        6.349678   0.561235
   98        6.413840   0.296926
   99        6.476994   0.096788
  100        6.520679   0.014583
  101        6.564841  -0.025461
  102        6.618860  -0.035117
  103        6.672652  -0.025733
  104        6.716395  -0.015974
  105        6.743008  -0.011086
  106        6.794103  -0.004788
  107        6.852780  -0.001489
  108        6.904724  -0.000447
  109        6.991433  -0.000043
  110        7.035060  -0.000011
  111        7.116453  -0.000001
  112        7.456509  -0.000000
  113        7.793837  -0.000000
  114        7.897793  -0.000000
  115        7.969287  -0.000000
  116        8.001314  -0.000000
  117        8.149795  -0.000000
  118        8.212786  -0.000000
  119        8.250859  -0.000000
  120        8.327254  -0.000000
 
  0.4000000E+00  0.2000000E+00 -0.1387779E-16  0.1600000E-01
    1      -47.660767   1.000000
    2      -47.630163   1.000000
    3      -47.595617   1.000000
    4      -47.555174   1.000000
    5      -47.526998   1.000000
    6      -47.467492   1.000000
    7      -24.219794   1.000000
    8      -24.079475   1.000000
    9      -24.035337   1.000000
   10      -23.912377   1.000000
   11      -23.821678   1.000000
   12      -23.813359   1.000000
   13      -23.788037   1.000000
   14      -23.761179   1.000000
   15      -23.740939   1.000000
   16      -23.728684   1.000000
   17      -23.709962   1.000000
   18      -23.667664   1.000000
   19      -23.649636   1.000000
   20      -23.608166   1.000000
   21      -23.547209   1.000000
   22      -23.475553   1.000000
   23      -23.448282   1.000000
   24      -23.313190   1.000000
   25        0.680114   1.000000
   26        1.649935   1.000000
   27        2.001694   1.000000
   28        2.204543   1.000000
   29        2.340986   1.000000
   30        2.475744   1.000000
   31        2.790764   1.000000
   32        2.986691   1.000000
   33        3.070026   1.000000
   34        3.148895   1.000000
   35        3.226462   1.000000
   36        3.250814   1.000000
   37        3.333487   1.000000
   38        3.386055   1.000000
   39        3.398138   1.000000
   40        3.509606   1.000000
   41        3.580327   1.000000
   42        3.599200   1.000000
   43        3.682831   1.000000
   44        3.717485   1.000000
   45        3.759767   1.000000
   46        3.799222   1.000000
   47        3.872466   1.000000
   48        3.947477   1.000000
   49        4.006447   1.000000
   50        4.077831   1.000000
   51        4.124934   1.000000
   52        4.198647   1.000000
   53        4.255112   1.000000
   54        4.285104   1.000000
   55        4.348771   1.000000
   56        4.402818   1.000000
   57        4.455815   1.000000
   58        4.537915   1.000000
   59        4.604562   1.000000
   60        4.724237   1.000000
   61        4.749878   1.000000
   62        4.769142   1.000000
   63        4.832514   1.000000
   64        4.883016   1.000000
   65        4.919929   1.000000
   66        4.973277   1.000000
   67        5.003404   1.000000
   68        5.052262   1.000000
   69        5.087133   1.000000
   70        5.133634   1.000000
   71        5.184161   1.000000
   72        5.197466   1.000000
   73        5.236372   1.000000
   74        5.297007   1.000000
   75        5.329519   1.000000
   76        5.372941   1.000000
   77        5.396465   1.000000
   78        5.494055   1.000000
   79        5.533806   1.000000
   80        5.597004   1.000000
   81        5.616585   1.000001
   82        5.676590   1.000007
   83        5.722938   1.000028
   84        5.745922   1.000056
   85        5.769361   1.000108
   86        5.789375   1.000186
   87        5.871800   1.001370
   88        5.880815   1.001665
   89        5.931467   1.004549
   90        5.969686   1.008728
   91        5.996163   1.012937
   92        6.034140   1.020761
   93        6.055226   1.025617
   94        6.097452   1.033888
   95        6.121939   1.035429
   96        6.151519   1.030515
   97        6.194506   1.001420
   98        6.224361   0.959577
   99        6.244514   0.919291
  100        6.280461   0.822210
  101        6.322004   0.674180
  102        6.379936   0.433607
  103        6.419203   0.276702
  104        6.460069   0.141432
  105        6.503906   0.040626
  106        6.526050   0.007613
  107        6.648319  -0.030993
  108        6.752234  -0.009652
  109        6.797420  -0.004507
  110        6.881419  -0.000781
  111        6.952483  -0.000129
  112        7.289432  -0.000000
  113        7.407861  -0.000000
  114        7.469226  -0.000000
  115        7.547543  -0.000000
  116        7.661399  -0.000000
  117        7.724209  -0.000000
  118        7.784001  -0.000000
  119        7.849606  -0.000000
  120        7.888738  -0.000000
 
 -0.4000000E+00  0.2000000E+00  0.0000000E+00  0.1600000E-01
    1      -47.660489   1.000000
    2      -47.629973   1.000000
    3      -47.595671   1.000000
    4      -47.555513   1.000000
    5      -47.527072   1.000000
    6      -47.467489   1.000000
    7      -24.218491   1.000000
    8      -24.076212   1.000000
    9      -24.031459   1.000000
   10      -23.912407   1.000000
   11      -23.821798   1.000000
   12      -23.813350   1.000000
   13      -23.788130   1.000000
   14      -23.761192   1.000000
   15      -23.740856   1.000000
   16      -23.728746   1.000000
   17      -23.709884   1.000000
   18      -23.667602   1.000000
   19      -23.649719   1.000000
   20      -23.608214   1.000000
   21      -23.547226   1.000000
   22      -23.482636   1.000000
   23      -23.450393   1.000000
   24      -23.313613   1.000000
   25        1.035362   1.000000
   26        1.689458   1.000000
   27        1.813832   1.000000
   28        2.102463   1.000000
   29        2.381518   1.000000
   30        2.609075   1.000000
   31        2.698826   1.000000
   32        2.822273   1.000000
   33        3.053700   1.000000
   34        3.132277   1.000000
   35        3.213359   1.000000
   36        3.254418   1.000000
   37        3.297009   1.000000
   38        3.379390   1.000000
   39        3.418549   1.000000
   40        3.485867   1.000000
   41        3.533393   1.000000
   42        3.576712   1.000000
   43        3.649780   1.000000
   44        3.706767   1.000000
   45        3.775902   1.000000
   46        3.867337   1.000000
   47        3.910374   1.000000
   48        3.993522   1.000000
   49        4.068046   1.000000
   50        4.125028   1.000000
   51        4.148209   1.000000
   52        4.209594   1.000000
   53        4.263409   1.000000
   54        4.367484   1.000000
   55        4.451735   1.000000
   56        4.547778   1.000000
   57        4.602340   1.000000
   58        4.636291   1.000000
   59        4.646115   1.000000
   60        4.681033   1.000000
   61        4.698871   1.000000
   62        4.771964   1.000000
   63        4.784380   1.000000
   64        4.855212   1.000000
   65        4.887524   1.000000
   66        4.945351   1.000000
   67        5.000470   1.000000
   68        5.045322   1.000000
   69        5.068554   1.000000
   70        5.091436   1.000000
   71        5.098449   1.000000
   72        5.205886   1.000000
   73        5.235720   1.000000
   74        5.274169   1.000000
   75        5.342473   1.000000
   76        5.357557   1.000000
   77        5.405779   1.000000
   78        5.431843   1.000000
   79        5.527146   1.000000
   80        5.578199   1.000000
   81        5.590991   1.000000
   82        5.653354   1.000003
   83        5.673595   1.000006
   84        5.718709   1.000025
   85        5.826877   1.000483
   86        5.857672   1.001000
   87        5.904241   1.002702
   88        5.929566   1.004393
   89        5.977796   1.009898
   90        6.003471   1.014293
   91        6.060678   1.026862
   92        6.071513   1.029249
   93        6.105601   1.034805
   94        6.140382   1.033479
   95        6.176272   1.017670
   96        6.227761   0.953488
   97        6.257423   0.888118
   98        6.299949   0.756909
   99        6.324796   0.663164
  100        6.362419   0.507500
  101        6.396232   0.366334
  102        6.429353   0.239833
  103        6.469609   0.115391
  104        6.512300   0.026764
  105        6.525859   0.007850
  106        6.566265  -0.026170
  107        6.606239  -0.035425
  108        6.628215  -0.034231
  109        6.723226  -0.014618
  110        6.780093  -0.006132
  111        6.913109  -0.000362
  112        6.939825  -0.000182
  113        6.969863  -0.000080
  114        7.083795  -0.000002
  115        7.357485  -0.000000
  116        7.521548  -0.000000
  117        7.728414  -0.000000
  118        7.740486  -0.000000
  119        7.793980  -0.000000
  120        7.857833  -0.000000
 
 -0.2000000E+00  0.2000000E+00 -0.1457168E-15  0.1600000E-01
    1      -47.662421   1.000000
    2      -47.638341   1.000000
    3      -47.602281   1.000000
    4      -47.559017   1.000000
    5      -47.529405   1.000000
    6      -47.445561   1.000000
    7      -24.260149   1.000000
    8      -24.194202   1.000000
    9      -24.050640   1.000000
   10      -24.014794   1.000000
   11      -23.815288   1.000000
   12      -23.810547   1.000000
   13      -23.799802   1.000000
   14      -23.759947   1.000000
   15      -23.741921   1.000000
   16      -23.729003   1.000000
   17      -23.705863   1.000000
   18      -23.662818   1.000000
   19      -23.628090   1.000000
   20      -23.603618   1.000000
   21      -23.483279   1.000000
   22      -23.465283   1.000000
   23      -23.319274   1.000000
   24      -23.219594   1.000000
   25        0.187021   1.000000
   26        1.296055   1.000000
   27        1.543414   1.000000
   28        1.738147   1.000000
   29        2.291620   1.000000
   30        2.607668   1.000000
   31        2.695953   1.000000
   32        2.784467   1.000000
   33        2.808133   1.000000
   34        2.849794   1.000000
   35        2.987006   1.000000
   36        3.022749   1.000000
   37        3.038606   1.000000
   38        3.109254   1.000000
   39        3.131118   1.000000
   40        3.181042   1.000000
   41        3.235462   1.000000
   42        3.301380   1.000000
   43        3.385599   1.000000
   44        3.457488   1.000000
   45        3.528605   1.000000
   46        3.598072   1.000000
   47        3.670576   1.000000