       N       E                     dE             d eps       ncg     rms          rms(c)
DAV:   1    -0.766494148571E+03   -0.76649E+03   -0.71615E+02 26392   0.891E+01    0.236E+02
DAV:   2    -0.735285768124E+03    0.31208E+02   -0.96768E+03 27176   0.281E+02    0.409E+02
DAV:   3    -0.535133556457E+03    0.20015E+03   -0.27184E+03 25272   0.241E+02    0.135E+02
DAV:   4    -0.369905737168E+03    0.16523E+03   -0.27270E+03 27560   0.159E+02    0.104E+02
DAV:   5    -0.428490603925E+03   -0.58585E+02   -0.29406E+03 27792   0.293E+02    0.742E+01
DAV:   6    -0.410308070069E+03    0.18183E+02   -0.11970E+03 26400   0.196E+02    0.647E+01
DAV:   7    -0.368952392692E+03    0.41356E+02   -0.53023E+02 24176   0.138E+02    0.471E+01
DAV:   8    -0.339752979301E+03    0.29199E+02   -0.13115E+02 24936   0.441E+01    0.372E+01
DAV:   9    -0.328640572471E+03    0.11112E+02   -0.78447E+01 26072   0.319E+01    0.373E+01
DAV:  10    -0.324497582850E+03    0.41430E+01   -0.96699E+01 24720   0.529E+01    0.287E+01
DAV:  11    -0.323335719558E+03    0.11619E+01   -0.27879E+01 25512   0.213E+01    0.264E+01
DAV:  12    -0.320794712279E+03    0.25410E+01   -0.11600E+01 23648   0.140E+01    0.244E+01
DAV:  13    -0.320549247317E+03    0.24546E+00   -0.17221E+01 25288   0.173E+01    0.237E+01
DAV:  14    -0.319311292203E+03    0.12380E+01   -0.13824E+01 24368   0.163E+01    0.189E+01
DAV:  15    -0.319125197236E+03    0.18609E+00   -0.60156E+00 25592   0.104E+01    0.174E+01
DAV:  16    -0.319010679375E+03    0.11452E+00   -0.25912E+00 24504   0.674E+00    0.155E+01
DAV:  17    -0.319004233008E+03    0.64464E-02   -0.29019E+00 25728   0.711E+00    0.142E+01
DAV:  18    -0.318727969100E+03    0.27626E+00   -0.14665E+00 25296   0.498E+00    0.118E+01
DAV:  19    -0.318671446052E+03    0.56523E-01   -0.56344E-01 26160   0.269E+00    0.105E+01
DAV:  20    -0.318602228408E+03    0.69218E-01   -0.23745E-01 24848   0.213E+00    0.978E+00
DAV:  21    -0.318576116658E+03    0.26112E-01   -0.97505E-02 25224   0.108E+00    0.898E+00
DAV:  22    -0.318554859580E+03    0.21257E-01   -0.37215E-02 26128   0.695E-01    0.809E+00
DAV:  23    -0.318527120180E+03    0.27739E-01   -0.36224E-02 24528   0.702E-01    0.680E+00
DAV:  24    -0.318503496047E+03    0.23624E-01   -0.35693E-02 25992   0.656E-01    0.570E+00
DAV:  25    -0.318478946175E+03    0.24550E-01   -0.29334E-02 26400   0.568E-01    0.436E+00
DAV:  26    -0.318461584502E+03    0.17362E-01   -0.28736E-02 23936   0.599E-01    0.247E+00
DAV:  27    -0.318452062286E+03    0.95222E-02   -0.25051E-02 24968   0.554E-01    0.117E+00
DAV:  28    -0.318450381292E+03    0.16810E-02   -0.63086E-03 23736   0.253E-01    0.934E-01
DAV:  29    -0.318449236923E+03    0.11444E-02   -0.25460E-03 23136   0.188E-01    0.474E-01
DAV:  30    -0.318449270778E+03   -0.33855E-04   -0.10944E-03 20344   0.135E-01    0.700E-01
DAV:  31    -0.318448652869E+03    0.61791E-03   -0.17884E-03 21136   0.163E-01    0.111E-01
DAV:  32    -0.318448657658E+03   -0.47895E-05   -0.39270E-04 13744   0.895E-02
   1 F= -.31844866E+03 E0= -.31844479E+03  d E =-.115943E-01
