 vasp.5.4.4.18Apr17-6-g9f103f2a35 (build Aug 09 2018 16:20:53) complex          
  
 executed on             LinuxIFC date 2020.04.28  21:18:50
 running on   32 total cores
 distrk:  each k-point on   32 cores,    1 groups
 distr:  one band on NCORES_PER_BAND=   4 cores,    8 groups


--------------------------------------------------------------------------------------------------------


 INCAR:
 POTCAR:    PAW_PBE Nb_sv 25May2007               
 POTCAR:    PAW_PBE Mo 08Apr2002                  
 POTCAR:    PAW_PBE Ta 17Jan2003                  
 POTCAR:    PAW_PBE Ti 08Apr2002                  
 POTCAR:    PAW_PBE V 08Apr2002                   
 POTCAR:    PAW_PBE Nb_sv 25May2007               
   VRHFIN =Nb: 4p5s4d                                                           
   LEXCH  = PE                                                                  
   EATOM  =  1555.1913 eV,  114.3033 Ry                                         
                                                                                
   TITEL  = PAW_PBE Nb_sv 25May2007                                             
   LULTRA =        F    use ultrasoft PP ?                                      
   IUNSCR =        1    unscreen: 0-lin 1-nonlin 2-no                           
   RPACOR =    1.800    partial core radius                                     
   POMASS =   92.910; ZVAL   =   13.000    mass and valenz                      
   RCORE  =    2.400    outmost cutoff radius                                   
   RWIGS  =    2.400; RWIGS  =    1.270    wigner-seitz radius (au A)           
   ENMAX  =  293.235; ENMIN  =  219.927 eV                                      
   ICORE  =        3    local potential                                         
   LCOR   =        T    correct aug charges                                     
   LPAW   =        T    paw PP                                                  
   EAUG   =  455.659                                                            
   DEXC   =    0.000                                                            
   RMAX   =    2.456    core radius for proj-oper                               
   RAUG   =    1.300    factor for augmentation sphere                          
   RDEP   =    2.451    radius for radial grids                                 
   RDEPT  =    1.956    core radius for aug-charge                              
                                                                                
   Atomic configuration                                                         
   11 entries                                                                   
     n  l   j            E        occ.                                          
     1  0  0.50    -18805.2457   2.0000                                         
     2  0  0.50     -2630.2869   2.0000                                         
     2  1  1.50     -2348.4046   6.0000                                         
     3  0  0.50      -438.8757   2.0000                                         
     3  1  1.50      -346.7588   6.0000                                         
     3  2  2.50      -196.2560  10.0000                                         
     4  0  0.50       -58.3859   2.0000                                         
     5  0  0.50        -3.9816   1.0000                                         
     4  1  1.50       -34.5141   6.0000                                         
     4  2  2.50        -3.0408   4.0000                                         
     4  3  2.50        -1.3606   0.0000                                         
   Description                                                                  
     l       E           TYP  RCUT    TYP  RCUT                                 
     0    -58.3859094     23  2.200                                             
     0     -3.9816262     23  2.200                                             
     1    -34.5140738     23  2.200                                             
     1     13.6058260     23  2.200                                             
     2     -3.0408010     23  2.200                                             
     2     -0.1283038     23  2.200                                             
     3     -1.3605826     23  2.400                                             
  local pseudopotential read in
  partial core-charges read in
  partial kinetic energy density read in
  atomic valenz-charges read in
  non local Contribution for L=           0  read in
    real space projection operators read in
  non local Contribution for L=           0  read in
    real space projection operators read in
  non local Contribution for L=           1  read in
    real space projection operators read in
  non local Contribution for L=           1  read in
    real space projection operators read in
  non local Contribution for L=           2  read in
    real space projection operators read in
  non local Contribution for L=           2  read in
    real space projection operators read in
    PAW grid and wavefunctions read in
 
   number of l-projection  operators is LMAX  =           6
   number of lm-projection operators is LMMAX =          18
 
 POTCAR:    PAW_PBE Mo 08Apr2002                  
   VRHFIN =Mo: 4p5s4d                                                           
   LEXCH  = PE                                                                  
   EATOM  =   217.5176 eV,   15.9871 Ry                                         
                                                                                
   TITEL  = PAW_PBE Mo 08Apr2002                                                
   LULTRA =        F    use ultrasoft PP ?                                      
   IUNSCR =        1    unscreen: 0-lin 1-nonlin 2-no                           
   RPACOR =    2.200    partial core radius                                     
   POMASS =   95.940; ZVAL   =    6.000    mass and valenz                      
   RCORE  =    2.750    outmost cutoff radius                                   
   RWIGS  =    2.750; RWIGS  =    1.455    wigner-seitz radius (au A)           
   ENMAX  =  224.584; ENMIN  =  168.438 eV                                      
   RCLOC  =    2.111    cutoff for local pot                                    
   LCOR   =        T    correct aug charges                                     
   LPAW   =        T    paw PP                                                  
   EAUG   =  345.278                                                            
   DEXC   =    0.000                                                            
   RMAX   =    2.821    core radius for proj-oper                               
   RAUG   =    1.300    factor for augmentation sphere                          
   RDEP   =    2.815    radius for radial grids                                 
   RDEPT  =    2.211    core radius for aug-charge                              
                                                                                
   Atomic configuration                                                         
   12 entries                                                                   
     n  l   j            E        occ.                                          
     1  0  0.50    -19819.0341   2.0000                                         
     2  0  0.50     -2799.0127   2.0000                                         
     2  1  1.50     -2502.0276   6.0000                                         
     3  0  0.50      -476.4448   2.0000                                         
     3  1  1.50      -379.1496   6.0000                                         
     3  2  2.50      -220.9367  10.0000                                         
     4  0  0.50       -64.3378   2.0000                                         
     4  1  1.50       -38.4773   6.0000                                         
     4  2  2.50        -3.7535   5.0000                                         
     5  0  0.50        -4.0862   1.0000                                         
     5  1  0.50        -2.7701   0.0000                                         
     4  3  2.50        -1.3606   0.0000                                         
   Description                                                                  
     l       E           TYP  RCUT    TYP  RCUT                                 
     2     -3.7534765     23  2.500                                             
     2     -5.1140591     23  2.500                                             
     0     -4.0861560     23  2.600                                             
     0     13.6058260     23  2.600                                             
     1      5.4423304     23  2.750                                             
     1     27.2116520     23  2.750                                             
  local pseudopotential read in
  partial core-charges read in
  partial kinetic energy density read in
  atomic valenz-charges read in
  non local Contribution for L=           2  read in
    real space projection operators read in
  non local Contribution for L=           2  read in
    real space projection operators read in
  non local Contribution for L=           0  read in
    real space projection operators read in
  non local Contribution for L=           0  read in
    real space projection operators read in
  non local Contribution for L=           1  read in
    real space projection operators read in
  non local Contribution for L=           1  read in
    real space projection operators read in
    PAW grid and wavefunctions read in
 
   number of l-projection  operators is LMAX  =           6
   number of lm-projection operators is LMMAX =          18
 
 POTCAR:    PAW_PBE Ta 17Jan2003                  
   VRHFIN =Ta:  6s5d                                                            
   LEXCH  = PE                                                                  
   EATOM  =   130.6506 eV,    9.6025 Ry                                         
                                                                                
   TITEL  = PAW_PBE Ta 17Jan2003                                                
   LULTRA =        F    use ultrasoft PP ?                                      
   IUNSCR =        1    unscreen: 0-lin 1-nonlin 2-no                           
   RPACOR =    2.330    partial core radius                                     
   POMASS =  180.948; ZVAL   =    5.000    mass and valenz                      
   RCORE  =    2.900    outmost cutoff radius                                   
   RWIGS  =    2.840; RWIGS  =    1.503    wigner-seitz radius (au A)           
   ENMAX  =  223.667; ENMIN  =  167.750 eV                                      
   RCLOC  =    2.205    cutoff for local pot                                    
   LCOR   =        T    correct aug charges                                     
   LPAW   =        T    paw PP                                                  
   EAUG   =  332.075                                                            
   DEXC   =    0.000                                                            
   RMAX   =    2.970    core radius for proj-oper                               
   RAUG   =    1.300    factor for augmentation sphere                          
   RDEP   =    3.060    radius for radial grids                                 
   RDEPT  =    2.354    core radius for aug-charge                              
                                                                                
   Atomic configuration                                                         
   16 entries                                                                   
     n  l   j            E        occ.                                          
     1  0  0.50    -67341.2807   2.0000                                         
     2  0  0.50    -11566.9376   2.0000                                         
     2  1  1.50    -10134.1182   6.0000                                         
     3  0  0.50     -2648.5620   2.0000                                         
     3  1  1.50     -2222.6012   6.0000                                         
     3  2  2.50     -1726.3120  10.0000                                         
     4  0  0.50      -538.6961   2.0000                                         
     4  1  1.50      -399.0129   6.0000                                         
     4  2  2.50      -220.3959  10.0000                                         
     4  3  3.50       -23.0374  14.0000                                         
     5  0  0.50       -71.2901   2.0000                                         
     5  1  1.50       -37.8225   6.0000                                         
     5  2  2.50        -2.6455   4.0000                                         
     6  0  0.50        -4.9623   1.0000                                         
     6  1  1.50        -1.3606   0.0000                                         
     5  3  2.50        -1.3606   0.0000                                         
   Description                                                                  
     l       E           TYP  RCUT    TYP  RCUT                                 
     2     -2.6455043     23  2.500                                             
     2     -0.6258895     23  2.500                                             
     0     -4.9622780     23  2.500                                             
     0      4.7531321     23  2.500                                             
     1     -1.3605826     23  2.900                                             
     1     27.2116520     23  2.900                                             
  local pseudopotential read in
  partial core-charges read in
  partial kinetic energy density read in
  atomic valenz-charges read in
  non local Contribution for L=           2  read in
    real space projection operators read in
  non local Contribution for L=           2  read in
    real space projection operators read in
  non local Contribution for L=           0  read in
    real space projection operators read in
  non local Contribution for L=           0  read in
    real space projection operators read in
  non local Contribution for L=           1  read in
    real space projection operators read in
  non local Contribution for L=           1  read in
    real space projection operators read in
    PAW grid and wavefunctions read in
 
   number of l-projection  operators is LMAX  =           6
   number of lm-projection operators is LMMAX =          18
 
 POTCAR:    PAW_PBE Ti 08Apr2002                  
   VRHFIN =Ti: d3 s1                                                            
   LEXCH  = PE                                                                  
   EATOM  =    94.7928 eV,    6.9671 Ry                                         
                                                                                
   TITEL  = PAW_PBE Ti 08Apr2002                                                
   LULTRA =        F    use ultrasoft PP ?                                      
   IUNSCR =        1    unscreen: 0-lin 1-nonlin 2-no                           
   RPACOR =    2.200    partial core radius                                     
   POMASS =   47.880; ZVAL   =    4.000    mass and valenz                      
   RCORE  =    2.800    outmost cutoff radius                                   
   RWIGS  =    2.500; RWIGS  =    1.323    wigner-seitz radius (au A)           
   ENMAX  =  178.330; ENMIN  =  133.747 eV                                      
   RCLOC  =    2.215    cutoff for local pot                                    
   LCOR   =        T    correct aug charges                                     
   LPAW   =        T    paw PP                                                  
   EAUG   =  328.883                                                            
   DEXC   =    0.000                                                            
   RMAX   =    2.868    core radius for proj-oper                               
   RAUG   =    1.300    factor for augmentation sphere                          
   RDEP   =    2.885    radius for radial grids                                 
   RDEPT  =    2.320    core radius for aug-charge                              
                                                                                
   Atomic configuration                                                         
    9 entries                                                                   
     n  l   j            E        occ.                                          
     1  0  0.50     -4865.3608   2.0000                                         
     2  0  0.50      -533.1367   2.0000                                         
     2  1  1.50      -440.5031   6.0000                                         
     3  0  0.50       -59.3186   2.0000                                         
     3  1  1.50       -35.7012   6.0000                                         
     3  2  2.50        -1.9157   3.0000                                         
     4  0  0.50        -3.7291   1.0000                                         
     4  1  1.50        -4.0817   0.0000                                         
     4  3  2.50        -1.3606   0.0000                                         
   Description                                                                  
     l       E           TYP  RCUT    TYP  RCUT                                 
     2     -1.9156924     23  2.800                                             
     2     -0.4062961     23  2.800                                             
     0     -3.7290832     23  2.800                                             
     0     20.4087390     23  2.800                                             
     1     -5.4423304     23  2.800                                             
  local pseudopotential read in
  partial core-charges read in
  partial kinetic energy density read in
  atomic valenz-charges read in
  non local Contribution for L=           2  read in
    real space projection operators read in
  non local Contribution for L=           2  read in
    real space projection operators read in
  non local Contribution for L=           0  read in
    real space projection operators read in
  non local Contribution for L=           0  read in
    real space projection operators read in
  non local Contribution for L=           1  read in
    real space projection operators read in
    PAW grid and wavefunctions read in
 
   number of l-projection  operators is LMAX  =           5
   number of lm-projection operators is LMMAX =          15
 
 POTCAR:    PAW_PBE V 08Apr2002                   
   VRHFIN =V: p6 d4 s1                                                          
   LEXCH  = PE                                                                  
   EATOM  =   170.8679 eV,   12.5584 Ry                                         
                                                                                
   TITEL  = PAW_PBE V 08Apr2002                                                 
   LULTRA =        F    use ultrasoft PP ?                                      
   IUNSCR =        1    unscreen: 0-lin 1-nonlin 2-no                           
   RPACOR =    2.000    partial core radius                                     
   POMASS =   50.941; ZVAL   =    5.000    mass and valenz                      
   RCORE  =    2.700    outmost cutoff radius                                   
   RWIGS  =    2.500; RWIGS  =    1.323    wigner-seitz radius (au A)           
   ENMAX  =  192.543; ENMIN  =  144.408 eV                                      
   RCLOC  =    1.779    cutoff for local pot                                    
   LCOR   =        T    correct aug charges                                     
   LPAW   =        T    paw PP                                                  
   EAUG   =  358.662                                                            
   DEXC   =    0.000                                                            
   RMAX   =    2.768    core radius for proj-oper                               
   RAUG   =    1.300    factor for augmentation sphere                          
   RDEP   =    2.762    radius for radial grids                                 
   RDEPT  =    2.240    core radius for aug-charge                              
                                                                                
   Atomic configuration                                                         
    9 entries                                                                   
     n  l   j            E        occ.                                          
     1  0  0.50     -5360.7193   2.0000                                         
     2  0  0.50      -598.4546   2.0000                                         
     2  1  1.50      -499.0155   6.0000                                         
     3  0  0.50       -66.5711   2.0000                                         
     3  1  1.50       -40.5282   6.0000                                         
     3  2  2.50        -2.4291   4.0000                                         
     4  0  0.50        -3.8743   1.0000                                         
     4  1  0.50        -2.7212   0.0000                                         
     4  3  2.50        -1.3606   0.0000                                         
   Description                                                                  
     l       E           TYP  RCUT    TYP  RCUT                                 
     2     -2.4290901     23  2.700                                             
     2     -3.7896727     23  2.700                                             
     0     -3.8742752     23  2.700                                             
     0     27.2116520     23  2.700                                             
     1     -2.7211652     23  2.700                                             
     1     27.2116520     23  2.700                                             
  local pseudopotential read in
  partial core-charges read in
  partial kinetic energy density read in
  atomic valenz-charges read in
  non local Contribution for L=           2  read in
    real space projection operators read in
  non local Contribution for L=           2  read in
    real space projection operators read in
  non local Contribution for L=           0  read in
    real space projection operators read in
  non local Contribution for L=           0  read in
    real space projection operators read in
  non local Contribution for L=           1  read in
    real space projection operators read in
  non local Contribution for L=           1  read in
    real space projection operators read in
    PAW grid and wavefunctions read in
 
   number of l-projection  operators is LMAX  =           6
   number of lm-projection operators is LMMAX =          18
 
 Optimization of the real space projectors (new method)

 maximal supplied QI-value         = 15.68
 optimisation between [QCUT,QGAM] = [ 12.55, 25.10] = [ 44.09,176.36] Ry 
 Optimized for a Real-space Cutoff    1.56 Angstroem

   l    n(q)    QCUT    max X(q) W(low)/X(q) W(high)/X(q)  e(spline) 
   0     12    12.548    10.201    0.21E-04    0.36E-05    0.83E-07
   0     12    12.548     8.174    0.31E-04    0.62E-05    0.15E-06
   1     11    12.548     3.488    0.79E-05    0.23E-04    0.21E-06
   1     11    12.548     4.917    0.56E-04    0.13E-03    0.11E-05
   2     11    12.548   153.744    0.25E-03    0.10E-03    0.15E-05
   2     11    12.548   126.342    0.25E-03    0.10E-03    0.15E-05
 Optimization of the real space projectors (new method)

 maximal supplied QI-value         = 13.61
 optimisation between [QCUT,QGAM] = [ 12.52, 25.04] = [ 43.88,175.51] Ry 
 Optimized for a Real-space Cutoff    1.56 Angstroem

   l    n(q)    QCUT    max X(q) W(low)/X(q) W(high)/X(q)  e(spline) 
   2     11    12.518    80.908    0.42E-03    0.30E-03    0.14E-05
   2     11    12.518    79.000    0.42E-03    0.30E-03    0.14E-05
   0     12    12.518    52.066    0.58E-04    0.50E-04    0.55E-06
   0     12    12.518    24.514    0.48E-04    0.41E-04    0.46E-06
   1     11    12.518    16.033    0.62E-04    0.13E-03    0.37E-06
   1     11    12.518    11.179    0.47E-04    0.10E-03    0.31E-06
 Optimization of the real space projectors (new method)

 maximal supplied QI-value         = 12.85
 optimisation between [QCUT,QGAM] = [ 12.46, 25.06] = [ 43.51,175.83] Ry 
 Optimized for a Real-space Cutoff    1.56 Angstroem

   l    n(q)    QCUT    max X(q) W(low)/X(q) W(high)/X(q)  e(spline) 
   2     11    12.465    62.315    0.36E-03    0.20E-03    0.15E-05
   2     11    12.465    52.185    0.36E-03    0.20E-03    0.15E-05
   0     12    12.465   103.837    0.22E-04    0.37E-05    0.56E-06
   0     12    12.465    59.728    0.20E-04    0.34E-05    0.51E-06
   1     11    12.465    13.958    0.44E-03    0.81E-03    0.81E-05
   1     11    12.465     8.441    0.31E-03    0.56E-03    0.56E-05
 Optimization of the real space projectors (new method)

 maximal supplied QI-value         = 13.42
 optimisation between [QCUT,QGAM] = [ 12.48, 25.09] = [ 43.60,176.28] Ry 
 Optimized for a Real-space Cutoff    1.56 Angstroem

   l    n(q)    QCUT    max X(q) W(low)/X(q) W(high)/X(q)  e(spline) 
   2     11    12.478    49.363    0.45E-03    0.34E-03    0.89E-06
   2     11    12.478    47.669    0.44E-03    0.33E-03    0.87E-06
   0     12    12.478    26.374    0.17E-03    0.37E-04    0.21E-05
   0     12    12.478    11.549    0.13E-03    0.31E-04    0.17E-05
   1     11    12.478     9.492    0.91E-05    0.64E-04    0.34E-06
 Optimization of the real space projectors (new method)

 maximal supplied QI-value         = 13.98
 optimisation between [QCUT,QGAM] = [ 12.45, 25.03] = [ 43.38,175.46] Ry 
 Optimized for a Real-space Cutoff    1.56 Angstroem

   l    n(q)    QCUT    max X(q) W(low)/X(q) W(high)/X(q)  e(spline) 
   2     11    12.446    96.114    0.19E-03    0.47E-04    0.85E-06
   2     11    12.446    88.986    0.19E-03    0.46E-04    0.86E-06
   0     12    12.446    20.919    0.37E-04    0.64E-04    0.43E-06
   0     12    12.446     9.593    0.25E-04    0.48E-04    0.33E-06
   1     11    12.446    11.615    0.75E-04    0.30E-04    0.59E-06
   1     11    12.446     7.031    0.53E-04    0.23E-04    0.40E-06

 ----------------------------------------------------------------------------- 
|                                                                             |
|  ADVICE TO THIS USER RUNNING 'VASP/VAMP'   (HEAR YOUR MASTER'S VOICE ...):  |
|                                                                             |
|      You enforced a specific xc-type in the INCAR file,                     |
|      a different type was found on the POTCAR file                          |
|          I HOPE YOU KNOW, WHAT YOU ARE  DOING                               |
|                                                                             |
 ----------------------------------------------------------------------------- 

  PAW_PBE Nb_sv 25May2007               :
 energy of atom  1       EATOM=-1555.1913
 kinetic energy error for atom=    0.0037 (will be added to EATOM!!)
  PAW_PBE Mo 08Apr2002                  :
 energy of atom  2       EATOM= -217.5176
 kinetic energy error for atom=    0.0005 (will be added to EATOM!!)
  PAW_PBE Ta 17Jan2003                  :
 energy of atom  3       EATOM= -130.6506
 kinetic energy error for atom=    0.0004 (will be added to EATOM!!)
  PAW_PBE Ti 08Apr2002                  :
 energy of atom  4       EATOM=  -94.7928
 kinetic energy error for atom=    0.0001 (will be added to EATOM!!)
  PAW_PBE V 08Apr2002                   :
 energy of atom  5       EATOM= -170.8679
 kinetic energy error for atom=    0.0002 (will be added to EATOM!!)
 
 
 POSCAR: Nb - Mo - Ta - Ti - V SQS-30 BCC        
  positions in direct lattice
  No initial velocities read in
 exchange correlation table for  LEXCH =       14
   RHO(1)=    0.500       N(1)  =     2000
   RHO(2)=  100.500       N(2)  =     4000

 VTST: version 3.2, (02/03/18)

 CHAIN: initializing optimizer
 
 OPT: Using VASP Conjugate-Gradient optimizer
 CHAIN: Read ICHAIN            0
 
 POSCAR: Nb - Mo - Ta - Ti - V SQS-30 BCC        
  positions in direct lattice
  No initial velocities read in
 


--------------------------------------------------------------------------------------------------------


 ion  position               nearest neighbor table
   1  0.967  0.933  0.400-  18 2.77   7 2.77  24 2.77  20 2.77  20 2.77  19 2.77   6 2.77   2 2.77
                            16 3.20   8 3.20  15 3.20  11 3.20  12 3.20
   2  0.633  0.267  0.400-  18 2.77  26 2.77   9 2.77  12 2.77  12 2.77  28 2.77  15 2.77   1 2.77
                             8 3.20
   3  0.500  0.000  0.000-  13 2.77  21 2.77  17 2.77  15 2.77   4 2.77   4 2.77  27 2.77  16 2.77
                            10 3.20  14 3.20   7 3.20
   4  0.000  0.000  0.000-  10 2.77  29 2.77  24 2.77  14 2.77   3 2.77   3 2.77   7 2.77   5 2.77
                            15 3.20  13 3.20  17 3.20  16 3.20
   5  0.100  0.200  0.800-  25 2.77  17 2.77   6 2.77  21 2.77  23 2.77  27 2.77  27 2.77   4 2.77
                            14 3.20  10 3.20
   6  0.033  0.067  0.600-  26 2.77   5 2.77  14 2.77  28 2.77  28 2.77  12 2.77   1 2.77  11 2.77
                            17 3.20
   7  0.900  0.800  0.200-  30 2.77  15 2.77   1 2.77  13 2.77   8 2.77  16 2.77  16 2.77   4 2.77
                             9 3.20  20 3.20  24 3.20  29 3.20  18 3.20   3 3.20
   8  0.800  0.600  0.400-  20 2.77  12 2.77   9 2.77  19 2.77   7 2.77  18 2.77  18 2.77  26 2.77
                             1 3.20  30 3.20  11 3.20   2 3.20  16 3.20  23 3.20
   9  0.733  0.467  0.200-  16 2.77   8 2.77   2 2.77  30 2.77  30 2.77  13 2.77  10 2.77  24 2.77
                             7 3.20  18 3.20  12 3.20  29 3.20  15 3.20  21 3.20
  10  0.667  0.333  0.000-   4 2.77  27 2.77  21 2.77  21 2.77  25 2.77  15 2.77   9 2.77  29 2.77
                             3 3.20   5 3.20  22 3.20  24 3.20  13 3.20  30 3.20
  11  0.367  0.733  0.600-  26 2.77  18 2.77  22 2.77  19 2.77  19 2.77  20 2.77  17 2.77   6 2.77
                             8 3.20  23 3.20  25 3.20   1 3.20  28 3.20  14 3.20
  12  0.133  0.267  0.400-   8 2.77  23 2.77  30 2.77   2 2.77   2 2.77   6 2.77  24 2.77  20 2.77
                            18 3.20  26 3.20   9 3.20  28 3.20  15 3.20   1 3.20
  13  0.833  0.667  0.000-   3 2.77   7 2.77  29 2.77  29 2.77   9 2.77  14 2.77  25 2.77  21 2.77
                             4 3.20  16 3.20  30 3.20  17 3.20  10 3.20  22 3.20
  14  0.933  0.867  0.800-  27 2.77   4 2.77   6 2.77  17 2.77  13 2.77  17 2.77  19 2.77  22 2.77
                             3 3.20   5 3.20  28 3.20  29 3.20  11 3.20  25 3.20
  15  0.567  0.133  0.200-   7 2.77   3 2.77  24 2.77  20 2.77  10 2.77  24 2.77   2 2.77  30 2.77
                             4 3.20  16 3.20   1 3.20  21 3.20  12 3.20   9 3.20
  16  0.400  0.800  0.200-   9 2.77  24 2.77  20 2.77  29 2.77  18 2.77   7 2.77   7 2.77   3 2.77
                            30 3.20   1 3.20  15 3.20  13 3.20   8 3.20   4 3.20
  17  0.433  0.867  0.800-   5 2.77   3 2.77  28 2.77  14 2.77  29 2.77  14 2.77  11 2.77  25 2.77
                            27 3.20   4 3.20   6 3.20  13 3.20  19 3.20  22 3.20
  18  0.300  0.600  0.400-   1 2.77   2 2.77  30 2.77  11 2.77  16 2.77   8 2.77   8 2.77  23 2.77
                            20 3.20   9 3.20  12 3.20  19 3.20   7 3.20  26 3.20
  19  0.867  0.733  0.600-  23 2.77   8 2.77  25 2.77  11 2.77  11 2.77   1 2.77  14 2.77  28 2.77
                            18 3.20  17 3.20
  20  0.467  0.933  0.400-   8 2.77  16 2.77  15 2.77   1 2.77   1 2.77  11 2.77  28 2.77  12 2.77
                             7 3.20  18 3.20
  21  0.167  0.333  0.000-   3 2.77   5 2.77  10 2.77  10 2.77  22 2.77  24 2.77  30 2.77  13 2.77
                            15 3.20   9 3.20
  22  0.267  0.533  0.800-  27 2.77  23 2.77  11 2.77  25 2.77  25 2.77  21 2.77  29 2.77  14 2.77
                            10 3.20  13 3.20  17 3.20
  23  0.200  0.400  0.600-  28 2.77  19 2.77  22 2.77  12 2.77   5 2.77  26 2.77  26 2.77  18 2.77
                            11 3.20   8 3.20
  24  0.067  0.133  0.200-  16 2.77   4 2.77  15 2.77   1 2.77  15 2.77  21 2.77  12 2.77   9 2.77
                             7 3.20  10 3.20
  25  0.767  0.533  0.800-   5 2.77  26 2.77  19 2.77  22 2.77  22 2.77  10 2.77  13 2.77  17 2.77
                            11 3.20  14 3.20
  26  0.700  0.400  0.600-   6 2.77  11 2.77  25 2.77   2 2.77  27 2.77  23 2.77  23 2.77   8 2.77
                            12 3.20  18 3.20
  27  0.600  0.200  0.800-  22 2.77  14 2.77  28 2.77  10 2.77  26 2.77   5 2.77   5 2.77   3 2.77
                            17 3.20
  28  0.533  0.067  0.600-  23 2.77  27 2.77  17 2.77   6 2.77   6 2.77   2 2.77  20 2.77  19 2.77
                            14 3.20  12 3.20  11 3.20
  29  0.333  0.667  0.000-   4 2.77  16 2.77  13 2.77  13 2.77  30 2.77  17 2.77  22 2.77  10 2.77
                             7 3.20   9 3.20  14 3.20
  30  0.233  0.467  0.200-   7 2.77  18 2.77  12 2.77   9 2.77   9 2.77  29 2.77  21 2.77  15 2.77
                            16 3.20   8 3.20  13 3.20  10 3.20
 
  LATTYP: Found a triclinic cell.
 ALAT       =     5.5425625842
 B/A-ratio  =     2.8722813233
 C/A-ratio  =     2.0615528128
 COS(alpha) =     0.0140733444
 COS(beta)  =     0.0808452083
 COS(gamma) =     0.8703882798
  
  Lattice vectors:
  
 A1 = (   3.2000000000,   3.2000000000,   3.2000000000)
 A2 = (  11.2000000000,  11.2000000000,   1.6000000000)
 A3 = (  -8.0000000000,   8.0000000000,   1.6000000000)


Analysis of symmetry for initial positions (statically):
=====================================================================
 Subroutine PRICEL returns:
 Original cell was already a primitive cell.
 

 Routine SETGRP: Setting up the symmetry group for a 
 triclinic supercell.


 Subroutine GETGRP returns: Found  1 space group operations
 (whereof  1 operations were pure point group operations)
 out of a pool of  2 trial point group operations.


The static configuration has the point symmetry C_1 .


Analysis of symmetry for dynamics (positions and initial velocities):
=====================================================================
 Subroutine PRICEL returns:
 Original cell was already a primitive cell.
 

 Routine SETGRP: Setting up the symmetry group for a 
 triclinic supercell.


 Subroutine GETGRP returns: Found  1 space group operations
 (whereof  1 operations were pure point group operations)
 out of a pool of  2 trial point group operations.


The dynamic configuration has the point symmetry C_1 .


 Subroutine INISYM returns: Found  1 space group operations
 (whereof  1 operations are pure point group operations),
 and found     1 'primitive' translations

 
 
 KPOINTS: k-points                                

Automatic generation of k-mesh.
Space group operators:
 irot       det(A)        alpha          n_x          n_y          n_z        tau_x        tau_y        tau_z
    1     1.000000     0.000000     1.000000     0.000000     0.000000     0.000000     0.000000     0.000000
 
 Subroutine IBZKPT returns following result:
 ===========================================
 
 Found     63 irreducible k-points:
 
 Following reciprocal coordinates:
            Coordinates               Weight
  0.000000  0.000000  0.000000      1.000000
  0.200000  0.000000  0.000000      2.000000
  0.400000  0.000000  0.000000      2.000000
  0.000000  0.200000 -0.000000      2.000000
  0.200000  0.200000 -0.000000      2.000000
  0.400000  0.200000 -0.000000      2.000000
 -0.400000  0.200000  0.000000      2.000000
 -0.200000  0.200000 -0.000000      2.000000
  0.000000  0.400000 -0.000000      2.000000
  0.200000  0.400000  0.000000      2.000000
  0.400000  0.400000 -0.000000      2.000000
 -0.400000  0.400000 -0.000000      2.000000
 -0.200000  0.400000  0.000000      2.000000
  0.000000  0.000000  0.200000      2.000000
  0.200000  0.000000  0.200000      2.000000
  0.400000  0.000000  0.200000      2.000000
 -0.400000  0.000000  0.200000      2.000000
 -0.200000 -0.000000  0.200000      2.000000
  0.000000  0.200000  0.200000      2.000000
  0.200000  0.200000  0.200000      2.000000
  0.400000  0.200000  0.200000      2.000000
 -0.400000  0.200000  0.200000      2.000000
 -0.200000  0.200000  0.200000      2.000000
  0.000000  0.400000  0.200000      2.000000
  0.200000  0.400000  0.200000      2.000000
  0.400000  0.400000  0.200000      2.000000
 -0.400000  0.400000  0.200000      2.000000
 -0.200000  0.400000  0.200000      2.000000
  0.000000 -0.400000  0.200000      2.000000
  0.200000 -0.400000  0.200000      2.000000
  0.400000 -0.400000  0.200000      2.000000
 -0.400000 -0.400000  0.200000      2.000000
 -0.200000 -0.400000  0.200000      2.000000
  0.000000 -0.200000  0.200000      2.000000
  0.200000 -0.200000  0.200000      2.000000
  0.400000 -0.200000  0.200000      2.000000
 -0.400000 -0.200000  0.200000      2.000000
 -0.200000 -0.200000  0.200000      2.000000
  0.000000  0.000000  0.400000      2.000000
  0.200000  0.000000  0.400000      2.000000
  0.400000  0.000000  0.400000      2.000000
 -0.400000 -0.000000  0.400000      2.000000
 -0.200000  0.000000  0.400000      2.000000
  0.000000  0.200000  0.400000      2.000000
  0.200000  0.200000  0.400000      2.000000
  0.400000  0.200000  0.400000      2.000000
 -0.400000  0.200000  0.400000      2.000000
 -0.200000  0.200000  0.400000      2.000000
  0.000000  0.400000  0.400000      2.000000
  0.200000  0.400000  0.400000      2.000000
  0.400000  0.400000  0.400000      2.000000
 -0.400000  0.400000  0.400000      2.000000
 -0.200000  0.400000  0.400000      2.000000
  0.000000 -0.400000  0.400000      2.000000
  0.200000 -0.400000  0.400000      2.000000
  0.400000 -0.400000  0.400000      2.000000
 -0.400000 -0.400000  0.400000      2.000000
 -0.200000 -0.400000  0.400000      2.000000
 -0.000000 -0.200000  0.400000      2.000000
  0.200000 -0.200000  0.400000      2.000000
  0.400000 -0.200000  0.400000      2.000000
 -0.400000 -0.200000  0.400000      2.000000
 -0.200000 -0.200000  0.400000      2.000000
 
 Following cartesian coordinates:
            Coordinates               Weight
  0.000000  0.000000  0.000000      1.000000
 -0.086667 -0.080000 -0.033333      2.000000
 -0.173333 -0.160000 -0.066667      2.000000
  0.026667  0.040000 -0.066667      2.000000
 -0.060000 -0.040000 -0.100000      2.000000
 -0.146667 -0.120000 -0.133333      2.000000
  0.200000  0.200000  0.000000      2.000000
  0.113333  0.120000 -0.033333      2.000000
  0.053333  0.080000 -0.133333      2.000000
 -0.033333  0.000000 -0.166667      2.000000
 -0.120000 -0.080000 -0.200000      2.000000
  0.226667  0.240000 -0.066667      2.000000
  0.140000  0.160000 -0.100000      2.000000
  0.040000 -0.040000  0.000000      2.000000
 -0.046667 -0.120000 -0.033333      2.000000
 -0.133333 -0.200000 -0.066667      2.000000
  0.213333  0.120000  0.066667      2.000000
  0.126667  0.040000  0.033333      2.000000
  0.066667 -0.000000 -0.066667      2.000000
 -0.020000 -0.080000 -0.100000      2.000000
 -0.106667 -0.160000 -0.133333      2.000000
  0.240000  0.160000  0.000000      2.000000
  0.153333  0.080000 -0.033333      2.000000
  0.093333  0.040000 -0.133333      2.000000
  0.006667 -0.040000 -0.166667      2.000000
 -0.080000 -0.120000 -0.200000      2.000000
  0.266667  0.200000 -0.066667      2.000000
  0.180000  0.120000 -0.100000      2.000000
 -0.013333 -0.120000  0.133333      2.000000
 -0.100000 -0.200000  0.100000      2.000000
 -0.186667 -0.280000  0.066667      2.000000
  0.160000  0.040000  0.200000      2.000000
  0.073333 -0.040000  0.166667      2.000000
  0.013333 -0.080000  0.066667      2.000000
 -0.073333 -0.160000  0.033333      2.000000
 -0.160000 -0.240000  0.000000      2.000000
  0.186667  0.080000  0.133333      2.000000
  0.100000 -0.000000  0.100000      2.000000
  0.080000 -0.080000  0.000000      2.000000
 -0.006667 -0.160000 -0.033333      2.000000
 -0.093333 -0.240000 -0.066667      2.000000
  0.253333  0.080000  0.066667      2.000000
  0.166667 -0.000000  0.033333      2.000000
  0.106667 -0.040000 -0.066667      2.000000
  0.020000 -0.120000 -0.100000      2.000000
 -0.066667 -0.200000 -0.133333      2.000000
  0.280000  0.120000  0.000000      2.000000
  0.193333  0.040000 -0.033333      2.000000
  0.133333 -0.000000 -0.133333      2.000000
  0.046667 -0.080000 -0.166667      2.000000
 -0.040000 -0.160000 -0.200000      2.000000
  0.306667  0.160000 -0.066667      2.000000
  0.220000  0.080000 -0.100000      2.000000
  0.026667 -0.160000  0.133333      2.000000
 -0.060000 -0.240000  0.100000      2.000000
 -0.146667 -0.320000  0.066667      2.000000
  0.200000 -0.000000  0.200000      2.000000
  0.113333 -0.080000  0.166667      2.000000
  0.053333 -0.120000  0.066667      2.000000
 -0.033333 -0.200000  0.033333      2.000000
 -0.120000 -0.280000  0.000000      2.000000
  0.226667  0.040000  0.133333      2.000000
  0.140000 -0.040000  0.100000      2.000000
 


--------------------------------------------------------------------------------------------------------




 Dimension of arrays:
   k-points           NKPTS =     63   k-points in BZ     NKDIM =     63   number of bands    NBANDS=    120
   number of dos      NEDOS =    301   number of ions     NIONS =     30
   non local maximal  LDIM  =      6   non local SUM 2l+1 LMDIM =     18
   total plane-waves  NPLWV = 126000
   max r-space proj   IRMAX =   4128   max aug-charges    IRDMAX=  17902
   dimension x,y,z NGX =    36 NGY =   50 NGZ =   70
   dimension x,y,z NGXF=    72 NGYF=  100 NGZF=  140
   support grid    NGXF=    72 NGYF=  100 NGZF=  140
   ions per type =               6   6   6   6   6
   NGX,Y,Z   is equivalent  to a cutoff of  10.80, 10.00, 10.18 a.u.
   NGXF,Y,Z  is equivalent  to a cutoff of  21.60, 20.00, 20.37 a.u.

 SYSTEM =  Nb - Mo - Ta - Ti - V SQS               
 POSCAR =  Nb - Mo - Ta - Ti - V SQS-30 BCC        

 Startparameter for this run:
   NWRITE =      2    write-flag & timer
   PREC   = normal    normal or accurate (medium, high low for compatibility)
   ISTART =      1    job   : 0-new  1-cont  2-samecut
   ICHARG =      1    charge: 1-file 2-atom 10-const
   ISPIN  =      1    spin polarized calculation?
   LNONCOLLINEAR =      F non collinear calculations
   LSORBIT =      F    spin-orbit coupling
   INIWAV =      1    electr: 0-lowe 1-rand  2-diag
   LASPH  =      F    aspherical Exc in radial PAW
   METAGGA=      F    non-selfconsistent MetaGGA calc.

 Electronic Relaxation 1
   ENCUT  =  600.0 eV  44.10 Ry    6.64 a.u.  11.07 16.60 22.82*2*pi/ulx,y,z
   ENINI  =  600.0     initial cutoff
   ENAUG  =  455.7 eV  augmentation charge cutoff
   NELM   =    100;   NELMIN=  2; NELMDL=  0     # of ELM steps 
   EDIFF  = 0.1E-03   stopping-criterion for ELM
   LREAL  =      T    real-space projection
   NLSPLINE    = F    spline interpolate recip. space projectors
   LCOMPAT=      F    compatible to vasp.4.4
   GGA_COMPAT  = T    GGA compatible to vasp.4.4-vasp.4.6
   LMAXPAW     = -100 max onsite density
   LMAXMIX     =    2 max onsite mixed and CHGCAR
   VOSKOWN=      0    Vosko Wilk Nusair interpolation
   ROPT   =   -0.00050  -0.00050  -0.00050  -0.00050
   ROPT   =   -0.00050
 Ionic relaxation
   EDIFFG = 0.1E-02   stopping-criterion for IOM
   NSW    =      0    number of steps for IOM
   NBLOCK =      1;   KBLOCK =      1    inner block; outer block 
   IBRION =     -1    ionic relax: 0-MD 1-quasi-New 2-CG
   NFREE  =      1    steps in history (QN), initial steepest desc. (CG)
   ISIF   =      2    stress and relaxation
   IWAVPR =     10    prediction:  0-non 1-charg 2-wave 3-comb
   ISYM   =      2    0-nonsym 1-usesym 2-fastsym
   LCORR  =      T    Harris-Foulkes like correction to forces

   POTIM  = 0.5000    time-step for ionic-motion
   TEIN   =    0.0    initial temperature
   TEBEG  =    0.0;   TEEND  =   0.0 temperature during run
   SMASS  =  -3.00    Nose mass-parameter (am)
   estimated Nose-frequenzy (Omega)   =  0.10E-29 period in steps =****** mass=  -0.702E-27a.u.
   SCALEE = 1.0000    scale energy and forces
   NPACO  =    256;   APACO  = 16.0  distance and # of slots for P.C.
   PSTRESS=    0.0 pullay stress

  Mass of Ions in am
   POMASS =  92.91 95.94180.95 47.88 50.94
  Ionic Valenz
   ZVAL   =  13.00  6.00  5.00  4.00  5.00
  Atomic Wigner-Seitz radii
   RWIGS  =  -1.00 -1.00 -1.00 -1.00 -1.00
  virtual crystal weights 
   VCA    =   1.00  1.00  1.00  1.00  1.00
   NELECT =     198.0000    total number of electrons
   NUPDOWN=      -1.0000    fix difference up-down

 DOS related values:
   EMIN   =  10.00;   EMAX   =-10.00  energy-range for DOS
   EFERMI =   0.00
   ISMEAR =     1;   SIGMA  =   0.20  broadening in eV -4-tet -1-fermi 0-gaus

 Electronic relaxation 2 (details)
   IALGO  =     38    algorithm
   LDIAG  =      T    sub-space diagonalisation (order eigenvalues)
   LSUBROT=      F    optimize rotation matrix (better conditioning)
   TURBO    =      0    0=normal 1=particle mesh
   IRESTART =      0    0=no restart 2=restart with 2 vectors
   NREBOOT  =      0    no. of reboots
   NMIN     =      0    reboot dimension
   EREF     =   0.00    reference energy to select bands
   IMIX   =      4    mixing-type and parameters
     AMIX     =   0.40;   BMIX     =  1.00
     AMIX_MAG =   1.60;   BMIX_MAG =  1.00
     AMIN     =   0.10
     WC   =   100.;   INIMIX=   1;  MIXPRE=   1;  MAXMIX= -45

 Intra band minimization:
   WEIMIN = 0.0000     energy-eigenvalue tresh-hold
   EBREAK =  0.21E-06  absolut break condition
   DEPER  =   0.30     relativ break condition  

   TIME   =   0.40     timestep for ELM

  volume/ion in A,a.u.               =      16.38       110.56
  Fermi-wavevector in a.u.,A,eV,Ry     =   1.209065  2.284801 19.889502  1.461837
  Thomas-Fermi vector in A             =   2.344653
 
 Write flags
   LWAVE        =      T    write WAVECAR
   LDOWNSAMPLE  =      F    k-point downsampling of WAVECAR
   LCHARG       =      T    write CHGCAR
   LVTOT        =      F    write LOCPOT, total local potential
   LVHAR        =      F    write LOCPOT, Hartree potential only
   LELF         =      F    write electronic localiz. function (ELF)
   LORBIT       =      0    0 simple, 1 ext, 2 COOP (PROOUT), +10 PAW based schemes


 Dipole corrections
   LMONO  =      F    monopole corrections only (constant potential shift)
   LDIPOL =      F    correct potential (dipole corrections)
   IDIPOL =      0    1-x, 2-y, 3-z, 4-all directions 
   EPSILON=  1.0000000 bulk dielectric constant

 Exchange correlation treatment:
   GGA     =    PS    GGA type
   LEXCH   =    14    internal setting for exchange type
   VOSKOWN=      0    Vosko Wilk Nusair interpolation
   LHFCALC =     F    Hartree Fock is set to
   LHFONE  =     F    Hartree Fock one center treatment
   AEXX    =    0.0000 exact exchange contribution

 Linear response parameters
   LEPSILON=     F    determine dielectric tensor
   LRPA    =     F    only Hartree local field effects (RPA)
   LNABLA  =     F    use nabla operator in PAW spheres
   LVEL    =     F    velocity operator in full k-point grid
   LINTERFAST=   F  fast interpolation
   KINTER  =     0    interpolate to denser k-point grid
   CSHIFT  =0.1000    complex shift for real part using Kramers Kronig
   OMEGAMAX=  -1.0    maximum frequency
   DEG_THRESHOLD= 0.2000000E-02 threshold for treating states as degnerate
   RTIME   =   -0.100 relaxation time in fs
  (WPLASMAI=    0.000 imaginary part of plasma frequency in eV, 0.658/RTIME)
   DFIELD  = 0.0000000 0.0000000 0.0000000 field for delta impulse in time
 
 Orbital magnetization related:
   ORBITALMAG=     F  switch on orbital magnetization
   LCHIMAG   =     F  perturbation theory with respect to B field
   DQ        =  0.001000  dq finite difference perturbation B field
   LLRAUG    =     F  two centre corrections for induced B field



--------------------------------------------------------------------------------------------------------


 Static calculation
 charge density and potential will be updated during run
 non-spin polarized calculation
 Variant of blocked Davidson
 Davidson routine will perform the subspace rotation
 perform sub-space diagonalisation
    after iterative eigenvector-optimisation
 modified Broyden-mixing scheme, WC =      100.0
 initial mixing is a Kerker type mixing with AMIX =  0.4000 and BMIX =      1.0000
 Hartree-type preconditioning will be used
 using additional bands           21
 real space projection scheme for non local part
 use partial core corrections
 calculate Harris-corrections to forces 
   (improved forces if not selfconsistent)
 use gradient corrections 
 use of overlap-Matrix (Vanderbilt PP)
 Methfessel and Paxton  Order N= 1 SIGMA  =   0.20


--------------------------------------------------------------------------------------------------------


  energy-cutoff  :      600.00
  volume of cell :      491.52
      direct lattice vectors                 reciprocal lattice vectors
    -3.200000000 -3.200000000 -3.200000000    -0.135416667 -0.125000000 -0.052083333
     1.600000000  1.600000000 -8.000000000     0.041666667  0.062500000 -0.104166667
     8.000000000 -8.000000000 -1.600000000     0.062500000 -0.062500000  0.000000000

  length of vectors
     5.542562584  8.313843876 11.426285486     0.191508087  0.128425292  0.088388348


 
 old parameters found on file WAVECAR:
  energy-cutoff  :      600.00
  volume of cell :      491.52
      direct lattice vectors                 reciprocal lattice vectors
    -3.200000000 -3.200000000 -3.200000000    -0.135416667 -0.125000000 -0.052083333
     1.600000000  1.600000000 -8.000000000     0.041666667  0.062500000 -0.104166667
     8.000000000 -8.000000000 -1.600000000     0.062500000 -0.062500000  0.000000000

  length of vectors

 
 k-points in units of 2pi/SCALE and weight: k-points                                
   0.00000000  0.00000000  0.00000000       0.008
  -0.08666667 -0.08000000 -0.03333333       0.016
  -0.17333333 -0.16000000 -0.06666667       0.016
   0.02666667  0.04000000 -0.06666667       0.016
  -0.06000000 -0.04000000 -0.10000000       0.016
  -0.14666667 -0.12000000 -0.13333333       0.016
   0.20000000  0.20000000  0.00000000       0.016
   0.11333333  0.12000000 -0.03333333       0.016
   0.05333333  0.08000000 -0.13333333       0.016
  -0.03333333  0.00000000 -0.16666667       0.016
  -0.12000000 -0.08000000 -0.20000000       0.016
   0.22666667  0.24000000 -0.06666667       0.016
   0.14000000  0.16000000 -0.10000000       0.016
   0.04000000 -0.04000000  0.00000000       0.016
  -0.04666667 -0.12000000 -0.03333333       0.016
  -0.13333333 -0.20000000 -0.06666667       0.016
   0.21333333  0.12000000  0.06666667       0.016
   0.12666667  0.04000000  0.03333333       0.016
   0.06666667 -0.00000000 -0.06666667       0.016
  -0.02000000 -0.08000000 -0.10000000       0.016
  -0.10666667 -0.16000000 -0.13333333       0.016
   0.24000000  0.16000000  0.00000000       0.016
   0.15333333  0.08000000 -0.03333333       0.016
   0.09333333  0.04000000 -0.13333333       0.016
   0.00666667 -0.04000000 -0.16666667       0.016
  -0.08000000 -0.12000000 -0.20000000       0.016
   0.26666667  0.20000000 -0.06666667       0.016
   0.18000000  0.12000000 -0.10000000       0.016
  -0.01333333 -0.12000000  0.13333333       0.016
  -0.10000000 -0.20000000  0.10000000       0.016
  -0.18666667 -0.28000000  0.06666667       0.016
   0.16000000  0.04000000  0.20000000       0.016
   0.07333333 -0.04000000  0.16666667       0.016
   0.01333333 -0.08000000  0.06666667       0.016
  -0.07333333 -0.16000000  0.03333333       0.016
  -0.16000000 -0.24000000  0.00000000       0.016
   0.18666667  0.08000000  0.13333333       0.016
   0.10000000 -0.00000000  0.10000000       0.016
   0.08000000 -0.08000000  0.00000000       0.016
  -0.00666667 -0.16000000 -0.03333333       0.016
  -0.09333333 -0.24000000 -0.06666667       0.016
   0.25333333  0.08000000  0.06666667       0.016
   0.16666667 -0.00000000  0.03333333       0.016
   0.10666667 -0.04000000 -0.06666667       0.016
   0.02000000 -0.12000000 -0.10000000       0.016
  -0.06666667 -0.20000000 -0.13333333       0.016
   0.28000000  0.12000000  0.00000000       0.016
   0.19333333  0.04000000 -0.03333333       0.016
   0.13333333 -0.00000000 -0.13333333       0.016
   0.04666667 -0.08000000 -0.16666667       0.016
  -0.04000000 -0.16000000 -0.20000000       0.016
   0.30666667  0.16000000 -0.06666667       0.016
   0.22000000  0.08000000 -0.10000000       0.016
   0.02666667 -0.16000000  0.13333333       0.016
  -0.06000000 -0.24000000  0.10000000       0.016
  -0.14666667 -0.32000000  0.06666667       0.016
   0.20000000 -0.00000000  0.20000000       0.016
   0.11333333 -0.08000000  0.16666667       0.016
   0.05333333 -0.12000000  0.06666667       0.016
  -0.03333333 -0.20000000  0.03333333       0.016
  -0.12000000 -0.28000000  0.00000000       0.016
   0.22666667  0.04000000  0.13333333       0.016
   0.14000000 -0.04000000  0.10000000       0.016
 
 k-points in reciprocal lattice and weights: k-points                                
   0.00000000  0.00000000  0.00000000       0.008
   0.20000000  0.00000000  0.00000000       0.016
   0.40000000  0.00000000  0.00000000       0.016
   0.00000000  0.20000000 -0.00000000       0.016
   0.20000000  0.20000000 -0.00000000       0.016
   0.40000000  0.20000000 -0.00000000       0.016
  -0.40000000  0.20000000  0.00000000       0.016
  -0.20000000  0.20000000 -0.00000000       0.016
   0.00000000  0.40000000 -0.00000000       0.016
   0.20000000  0.40000000  0.00000000       0.016
   0.40000000  0.40000000 -0.00000000       0.016
  -0.40000000  0.40000000 -0.00000000       0.016
  -0.20000000  0.40000000  0.00000000       0.016
   0.00000000  0.00000000  0.20000000       0.016
   0.20000000  0.00000000  0.20000000       0.016
   0.40000000  0.00000000  0.20000000       0.016
  -0.40000000  0.00000000  0.20000000       0.016
  -0.20000000 -0.00000000  0.20000000       0.016
   0.00000000  0.20000000  0.20000000       0.016
   0.20000000  0.20000000  0.20000000       0.016
   0.40000000  0.20000000  0.20000000       0.016
  -0.40000000  0.20000000  0.20000000       0.016
  -0.20000000  0.20000000  0.20000000       0.016
   0.00000000  0.40000000  0.20000000       0.016
   0.20000000  0.40000000  0.20000000       0.016
   0.40000000  0.40000000  0.20000000       0.016
  -0.40000000  0.40000000  0.20000000       0.016
  -0.20000000  0.40000000  0.20000000       0.016
   0.00000000 -0.40000000  0.20000000       0.016
   0.20000000 -0.40000000  0.20000000       0.016
   0.40000000 -0.40000000  0.20000000       0.016
  -0.40000000 -0.40000000  0.20000000       0.016
  -0.20000000 -0.40000000  0.20000000       0.016
   0.00000000 -0.20000000  0.20000000       0.016
   0.20000000 -0.20000000  0.20000000       0.016
   0.40000000 -0.20000000  0.20000000       0.016
  -0.40000000 -0.20000000  0.20000000       0.016
  -0.20000000 -0.20000000  0.20000000       0.016
   0.00000000  0.00000000  0.40000000       0.016
   0.20000000  0.00000000  0.40000000       0.016
   0.40000000  0.00000000  0.40000000       0.016
  -0.40000000 -0.00000000  0.40000000       0.016
  -0.20000000  0.00000000  0.40000000       0.016
   0.00000000  0.20000000  0.40000000       0.016
   0.20000000  0.20000000  0.40000000       0.016
   0.40000000  0.20000000  0.40000000       0.016
  -0.40000000  0.20000000  0.40000000       0.016
  -0.20000000  0.20000000  0.40000000       0.016
   0.00000000  0.40000000  0.40000000       0.016
   0.20000000  0.40000000  0.40000000       0.016
   0.40000000  0.40000000  0.40000000       0.016
  -0.40000000  0.40000000  0.40000000       0.016
  -0.20000000  0.40000000  0.40000000       0.016
   0.00000000 -0.40000000  0.40000000       0.016
   0.20000000 -0.40000000  0.40000000       0.016
   0.40000000 -0.40000000  0.40000000       0.016
  -0.40000000 -0.40000000  0.40000000       0.016
  -0.20000000 -0.40000000  0.40000000       0.016
  -0.00000000 -0.20000000  0.40000000       0.016
   0.20000000 -0.20000000  0.40000000       0.016
   0.40000000 -0.20000000  0.40000000       0.016
  -0.40000000 -0.20000000  0.40000000       0.016
  -0.20000000 -0.20000000  0.40000000       0.016
 
 position of ions in fractional coordinates (direct lattice) 
   0.96666667  0.93333333  0.40000000
   0.63333333  0.26666667  0.40000000
   0.50000000  0.00000000  0.00000000
   0.00000000  0.00000000  0.00000000
   0.10000000  0.20000000  0.80000000
   0.03333333  0.06666667  0.60000000
   0.90000000  0.80000000  0.20000000
   0.80000000  0.60000000  0.40000000
   0.73333333  0.46666667  0.20000000
   0.66666667  0.33333333  0.00000000
   0.36666667  0.73333333  0.60000000
   0.13333333  0.26666667  0.40000000
   0.83333333  0.66666667  0.00000000
   0.93333333  0.86666667  0.80000000
   0.56666667  0.13333333  0.20000000
   0.40000000  0.80000000  0.20000000
   0.43333333  0.86666667  0.80000000
   0.30000000  0.60000000  0.40000000
   0.86666667  0.73333333  0.60000000
   0.46666667  0.93333333  0.40000000
   0.16666667  0.33333333  0.00000000
   0.26666667  0.53333333  0.80000000
   0.20000000  0.40000000  0.60000000
   0.06666667  0.13333333  0.20000000
   0.76666667  0.53333333  0.80000000
   0.70000000  0.40000000  0.60000000
   0.60000000  0.20000000  0.80000000
   0.53333333  0.06666667  0.60000000
   0.33333333  0.66666667  0.00000000
   0.23333333  0.46666667  0.20000000
 
 position of ions in cartesian coordinates  (Angst):
   1.59999998 -4.80000002-11.19999998
   1.60000002 -4.79999998 -4.80000002
  -1.60000000 -1.60000000 -1.60000000
   0.00000000  0.00000000  0.00000000
   6.40000000 -6.40000000 -3.20000000
   4.80000002 -4.79999998 -1.60000002
   0.00000000 -3.20000000 -9.60000000
   1.60000000 -4.80000000 -8.00000000
   0.00000002 -3.19999998 -6.40000002
  -1.60000002 -1.60000002 -4.79999998
   4.79999998 -4.80000002 -7.99999998
   3.20000002 -3.19999998 -3.20000002
  -1.59999998 -1.59999998 -8.00000002
   4.80000002 -7.99999998-11.20000002
  -0.00000002 -3.20000002 -3.19999998
   1.60000000 -1.60000000 -8.00000000
   6.40000002 -6.39999998 -9.60000002
   3.20000000 -3.20000000 -6.40000000
   3.19999998 -6.40000002 -9.59999998
   3.19999998 -3.20000002 -9.59999998
  -0.00000002 -0.00000002 -3.19999998
   6.39999998 -6.40000002 -6.39999998
   4.80000000 -4.80000000 -4.80000000
   1.59999998 -1.60000002 -1.59999998
   4.79999998 -8.00000002 -7.99999998
   3.20000000 -6.40000000 -6.40000000
   4.80000000 -8.00000000 -4.80000000
   3.20000002 -6.39999998 -3.20000002
   0.00000002  0.00000002 -6.40000002
   1.60000002 -1.59999998 -4.80000002
 


--------------------------------------------------------------------------------------------------------


 k-point  1 :   0.0000 0.0000 0.0000  plane waves:   16387
 k-point  2 :   0.2000 0.0000 0.0000  plane waves:   16402
 k-point  3 :   0.4000 0.0000 0.0000  plane waves:   16417
 k-point  4 :   0.0000 0.2000-0.0000  plane waves:   16388
 k-point  5 :   0.2000 0.2000-0.0000  plane waves:   16411
 k-point  6 :   0.4000 0.2000-0.0000  plane waves:   16431
 k-point  7 :  -0.4000 0.2000 0.0000  plane waves:   16397
 k-point  8 :  -0.2000 0.2000-0.0000  plane waves:   16390
 k-point  9 :   0.0000 0.4000-0.0000  plane waves:   16379
 k-point 10 :   0.2000 0.4000 0.0000  plane waves:   16397
 k-point 11 :   0.4000 0.4000-0.0000  plane waves:   16418
 k-point 12 :  -0.4000 0.4000-0.0000  plane waves:   16400
 k-point 13 :  -0.2000 0.4000 0.0000  plane waves:   16381
 k-point 14 :   0.0000 0.0000 0.2000  plane waves:   16397
 k-point 15 :   0.2000 0.0000 0.2000  plane waves:   16401
 k-point 16 :   0.4000 0.0000 0.2000  plane waves:   16371
 k-point 17 :  -0.4000 0.0000 0.2000  plane waves:   16419
 k-point 18 :  -0.2000-0.0000 0.2000  plane waves:   16409
 k-point 19 :   0.0000 0.2000 0.2000  plane waves:   16384
 k-point 20 :   0.2000 0.2000 0.2000  plane waves:   16414
 k-point 21 :   0.4000 0.2000 0.2000  plane waves:   16435
 k-point 22 :  -0.4000 0.2000 0.2000  plane waves:   16402
 k-point 23 :  -0.2000 0.2000 0.2000  plane waves:   16401
 k-point 24 :   0.0000 0.4000 0.2000  plane waves:   16373
 k-point 25 :   0.2000 0.4000 0.2000  plane waves:   16406
 k-point 26 :   0.4000 0.4000 0.2000  plane waves:   16415
 k-point 27 :  -0.4000 0.4000 0.2000  plane waves:   16398
 k-point 28 :  -0.2000 0.4000 0.2000  plane waves:   16388
 k-point 29 :   0.0000-0.4000 0.2000  plane waves:   16391
 k-point 30 :   0.2000-0.4000 0.2000  plane waves:   16382
 k-point 31 :   0.4000-0.4000 0.2000  plane waves:   16416
 k-point 32 :  -0.4000-0.4000 0.2000  plane waves:   16403
 k-point 33 :  -0.2000-0.4000 0.2000  plane waves:   16380
 k-point 34 :   0.0000-0.2000 0.2000  plane waves:   16371
 k-point 35 :   0.2000-0.2000 0.2000  plane waves:   16407
 k-point 36 :   0.4000-0.2000 0.2000  plane waves:   16389
 k-point 37 :  -0.4000-0.2000 0.2000  plane waves:   16428
 k-point 38 :  -0.2000-0.2000 0.2000  plane waves:   16397
 k-point 39 :   0.0000 0.0000 0.4000  plane waves:   16409
 k-point 40 :   0.2000 0.0000 0.4000  plane waves:   16431
 k-point 41 :   0.4000 0.0000 0.4000  plane waves:   16426
 k-point 42 :  -0.4000-0.0000 0.4000  plane waves:   16416
 k-point 43 :  -0.2000 0.0000 0.4000  plane waves:   16424
 k-point 44 :   0.0000 0.2000 0.4000  plane waves:   16375
 k-point 45 :   0.2000 0.2000 0.4000  plane waves:   16420
 k-point 46 :   0.4000 0.2000 0.4000  plane waves:   16427
 k-point 47 :  -0.4000 0.2000 0.4000  plane waves:   16425
 k-point 48 :  -0.2000 0.2000 0.4000  plane waves:   16388
 k-point 49 :   0.0000 0.4000 0.4000  plane waves:   16333
 k-point 50 :   0.2000 0.4000 0.4000  plane waves:   16400
 k-point 51 :   0.4000 0.4000 0.4000  plane waves:   16429
 k-point 52 :  -0.4000 0.4000 0.4000  plane waves:   16419
 k-point 53 :  -0.2000 0.4000 0.4000  plane waves:   16390
 k-point 54 :   0.0000-0.4000 0.4000  plane waves:   16375
 k-point 55 :   0.2000-0.4000 0.4000  plane waves:   16379
 k-point 56 :   0.4000-0.4000 0.4000  plane waves:   16411
 k-point 57 :  -0.4000-0.4000 0.4000  plane waves:   16383
 k-point 58 :  -0.2000-0.4000 0.4000  plane waves:   16393
 k-point 59 :  -0.0000-0.2000 0.4000  plane waves:   16388
 k-point 60 :   0.2000-0.2000 0.4000  plane waves:   16411
 k-point 61 :   0.4000-0.2000 0.4000  plane waves:   16411
 k-point 62 :  -0.4000-0.2000 0.4000  plane waves:   16427
 k-point 63 :  -0.2000-0.2000 0.4000  plane waves:   16401

 maximum and minimum number of plane-waves per node :      4150     4060

 maximum number of plane-waves:     16435
 maximum index in each direction: 
   IXMAX=   11   IYMAX=   17   IZMAX=   22
   IXMIN=  -11   IYMIN=  -17   IZMIN=  -23


 real space projection operators:
  total allocation   :      16161.94 KBytes
  max/ min on nodes  :       4041.26       4039.64


 parallel 3D FFT for wavefunctions:
    minimum data exchange during FFTs selected (reduces bandwidth)
 parallel 3D FFT for charge:
    minimum data exchange during FFTs selected (reduces bandwidth)


 total amount of memory used by VASP MPI-rank0   108536. kBytes
=======================================================================

   base      :      30000. kBytes
   nonlr-proj:       7067. kBytes
   fftplans  :       2330. kBytes
   grid      :       4665. kBytes
   one-center:        124. kBytes
   wavefun   :      64350. kBytes
 
     INWAV:  cpu time    6.7862: real time   10.1738
 Broyden mixing: mesh for mixing (old mesh)
   NGX = 23   NGY = 33   NGZ = 45
  (NGX  = 72   NGY  =100   NGZ  =140)
  gives a total of  34155 points

 initial charge density was supplied:
 number of electron     198.0000010 magnetization 
 keeping initial charge density in first step


--------------------------------------------------------------------------------------------------------


 Maximum index for non-local projection operator         1004
 Maximum index for augmentation-charges         1393 (set IRDMAX)


--------------------------------------------------------------------------------------------------------


 First call to EWALD:  gamma=   0.225
 Maximum number of real-space cells 4x 3x 2
 Maximum number of reciprocal cells 2x 3x 4

    FEWALD:  cpu time    0.0022: real time    0.0029


--------------------------------------- Iteration      1(   1)  ---------------------------------------


    POTLOK:  cpu time    0.0250: real time    0.0379
    SETDIJ:  cpu time    0.0056: real time    0.0056
     EDDAV:  cpu time   29.1981: real time   29.2382
       DOS:  cpu time    0.0038: real time    0.0038
    CHARGE:  cpu time    0.5872: real time    0.5877
    MIXING:  cpu time    0.0014: real time    0.0015
    --------------------------------------------
      LOOP:  cpu time   29.8211: real time   29.8748

 eigenvalue-minimisations  : 26392
 total energy-change (2. order) :-0.7664941E+03  (-0.7161513E+02)
 number of electron     198.0000013 magnetization 
 augmentation part       36.4094274 magnetization 

 Broyden mixing:
  rms(total) = 0.23600E+02    rms(broyden)= 0.23600E+02
  rms(prec ) = 0.28847E+02
  weight for this iteration     100.00

 Free energy of the ion-electron system (eV)
  ---------------------------------------------------
  alpha Z        PSCENC =      1184.50276941
  Ewald energy   TEWEN  =    -11390.27323190
  -Hartree energ DENC   =     -2690.69747101
  -exchange      EXHF   =         0.00000000
  -V(xc)+E(xc)   XCENC  =      -873.35485441
  PAW double counting   =     61400.72230136   -59923.89756337
  entropy T*S    EENTRO =         0.00379585
  eigenvalues    EBANDS =     -1479.40783103
  atomic energy  EATOM  =     13005.90793652
  Solvation  Ediel_sol  =         0.00000000
  ---------------------------------------------------
  free energy    TOTEN  =      -766.49414857 eV

  energy without entropy =     -766.49794442  energy(sigma->0) =     -766.49541385


--------------------------------------------------------------------------------------------------------




--------------------------------------- Iteration      1(   2)  ---------------------------------------


    POTLOK:  cpu time    0.0226: real time    0.0471
    SETDIJ:  cpu time    0.0051: real time    0.0117
     EDDAV:  cpu time   29.9709: real time   30.1259
       DOS:  cpu time    0.0039: real time    0.0039
    CHARGE:  cpu time    0.5735: real time    0.5740
    MIXING:  cpu time    0.0012: real time    0.0013
    --------------------------------------------
      LOOP:  cpu time   30.5773: real time   30.7639

 eigenvalue-minimisations  : 27176
 total energy-change (2. order) : 0.3120838E+02  (-0.9676768E+03)
 number of electron     197.9999995 magnetization 
 augmentation part       63.8682221 magnetization 

 Broyden mixing:
  rms(total) = 0.40886E+02    rms(broyden)= 0.40886E+02
  rms(prec ) = 0.44481E+02
  weight for this iteration     100.00

 eigenvalues of (default mixing * dielectric matrix)
  average eigenvalue GAMMA=   0.1296
  0.1296

 Free energy of the ion-electron system (eV)
  ---------------------------------------------------
  alpha Z        PSCENC =      1184.50276941
  Ewald energy   TEWEN  =    -11390.27323190
  -Hartree energ DENC   =     -3502.20892049
  -exchange      EXHF   =         0.00000000
  -V(xc)+E(xc)   XCENC  =      -867.71165454
  PAW double counting   =     37781.82745406   -36260.58450508
  entropy T*S    EENTRO =         0.00054630
  eigenvalues    EBANDS =      -686.74616241
  atomic energy  EATOM  =     13005.90793652
  Solvation  Ediel_sol  =         0.00000000
  ---------------------------------------------------
  free energy    TOTEN  =      -735.28576812 eV

  energy without entropy =     -735.28631442  energy(sigma->0) =     -735.28595022


--------------------------------------------------------------------------------------------------------




--------------------------------------- Iteration      1(   3)  ---------------------------------------


    POTLOK:  cpu time    0.0236: real time    0.0238
    SETDIJ:  cpu time    0.0053: real time    0.0053
     EDDAV:  cpu time   28.0701: real time   28.1202
       DOS:  cpu time    0.0040: real time    0.0040
    CHARGE:  cpu time    0.5717: real time    0.5722
    MIXING:  cpu time    0.0009: real time    0.0009
    --------------------------------------------
      LOOP:  cpu time   28.6756: real time   28.7265

 eigenvalue-minimisations  : 25272
 total energy-change (2. order) : 0.2001522E+03  (-0.2718440E+03)
 number of electron     198.0000014 magnetization 
 augmentation part       39.3312510 magnetization 

 Broyden mixing:
  rms(total) = 0.13481E+02    rms(broyden)= 0.13481E+02
  rms(prec ) = 0.18714E+02
  weight for this iteration     100.00

 eigenvalues of (default mixing * dielectric matrix)
  average eigenvalue GAMMA=   0.7539
  1.2521  0.2557

 Free energy of the ion-electron system (eV)
  ---------------------------------------------------
  alpha Z        PSCENC =      1184.50276941
  Ewald energy   TEWEN  =    -11390.27323190
  -Hartree energ DENC   =     -3301.27656139
  -exchange      EXHF   =         0.00000000
  -V(xc)+E(xc)   XCENC  =      -877.94199929
  PAW double counting   =     33758.86509879   -32268.35374760
  entropy T*S    EENTRO =        -0.00307987
  eigenvalues    EBANDS =      -646.56074113
  atomic energy  EATOM  =     13005.90793652
  Solvation  Ediel_sol  =         0.00000000
  ---------------------------------------------------
  free energy    TOTEN  =      -535.13355646 eV

  energy without entropy =     -535.13047658  energy(sigma->0) =     -535.13252983


--------------------------------------------------------------------------------------------------------




--------------------------------------- Iteration      1(   4)  ---------------------------------------


    POTLOK:  cpu time    0.0237: real time    0.0248
    SETDIJ:  cpu time    0.0052: real time    0.0052
     EDDAV:  cpu time   30.2774: real time   30.3186
       DOS:  cpu time    0.0038: real time    0.0038
    CHARGE:  cpu time    0.5733: real time    0.5737
    MIXING:  cpu time    0.0010: real time    0.0010
    --------------------------------------------
      LOOP:  cpu time   30.8844: real time   30.9271

 eigenvalue-minimisations  : 27560
 total energy-change (2. order) : 0.1652278E+03  (-0.2727012E+03)
 number of electron     198.0000007 magnetization 
 augmentation part       44.2333696 magnetization 

 Broyden mixing:
  rms(total) = 0.10447E+02    rms(broyden)= 0.10447E+02
  rms(prec ) = 0.14539E+02
  weight for this iteration     100.00

 eigenvalues of (default mixing * dielectric matrix)
  average eigenvalue GAMMA=   0.7587
  1.6249  0.3256  0.3256

 Free energy of the ion-electron system (eV)
  ---------------------------------------------------
  alpha Z        PSCENC =      1184.50276941
  Ewald energy   TEWEN  =    -11390.27323190
  -Hartree energ DENC   =     -2977.97790327
  -exchange      EXHF   =         0.00000000
  -V(xc)+E(xc)   XCENC  =      -889.34921331
  PAW double counting   =     27821.34638770   -26340.65194314
  entropy T*S    EENTRO =         0.00036067
  eigenvalues    EBANDS =      -783.41089984
  atomic energy  EATOM  =     13005.90793652
  Solvation  Ediel_sol  =         0.00000000
  ---------------------------------------------------
  free energy    TOTEN  =      -369.90573717 eV

  energy without entropy =     -369.90609783  energy(sigma->0) =     -369.90585739


--------------------------------------------------------------------------------------------------------




--------------------------------------- Iteration      1(   5)  ---------------------------------------


    POTLOK:  cpu time    0.0401: real time    0.0481
    SETDIJ:  cpu time    0.0104: real time    0.0104
     EDDAV:  cpu time   30.5478: real time   30.5890
       DOS:  cpu time    0.0037: real time    0.0037
    CHARGE:  cpu time    0.5731: real time    0.5736
    MIXING:  cpu time    0.0010: real time    0.0010
    --------------------------------------------
      LOOP:  cpu time   31.1761: real time   31.2258

 eigenvalue-minimisations  : 27792
 total energy-change (2. order) :-0.5858487E+02  (-0.2940589E+03)
 number of electron     198.0000013 magnetization 
 augmentation part       35.4383809 magnetization 

 Broyden mixing:
  rms(total) = 0.74209E+01    rms(broyden)= 0.74209E+01
  rms(prec ) = 0.11909E+02
  weight for this iteration     100.00

 eigenvalues of (default mixing * dielectric matrix)
  average eigenvalue GAMMA=   0.7697
  1.9532  0.4109  0.4109  0.3035

 Free energy of the ion-electron system (eV)
  ---------------------------------------------------
  alpha Z        PSCENC =      1184.50276941
  Ewald energy   TEWEN  =    -11390.27323190
  -Hartree energ DENC   =     -2861.31491142
  -exchange      EXHF   =         0.00000000
  -V(xc)+E(xc)   XCENC  =      -895.38472062
  PAW double counting   =     23757.74946780   -22301.59625684
  entropy T*S    EENTRO =         0.00442558
  eigenvalues    EBANDS =      -928.08608246
  atomic energy  EATOM  =     13005.90793652
  Solvation  Ediel_sol  =         0.00000000
  ---------------------------------------------------
  free energy    TOTEN  =      -428.49060392 eV

  energy without entropy =     -428.49502950  energy(sigma->0) =     -428.49207912


--------------------------------------------------------------------------------------------------------




--------------------------------------- Iteration      1(   6)  ---------------------------------------


    POTLOK:  cpu time    0.0244: real time    0.0275
    SETDIJ:  cpu time    0.0053: real time    0.0053
     EDDAV:  cpu time   29.1106: real time   29.1466
       DOS:  cpu time    0.0036: real time    0.0036
    CHARGE:  cpu time    0.5728: real time    0.5733
    MIXING:  cpu time    0.0011: real time    0.0011
    --------------------------------------------
      LOOP:  cpu time   29.7177: real time   29.7574

 eigenvalue-minimisations  : 26400
 total energy-change (2. order) : 0.1818253E+02  (-0.1196970E+03)
 number of electron     198.0000016 magnetization 
 augmentation part       33.9150883 magnetization 

 Broyden mixing:
  rms(total) = 0.64709E+01    rms(broyden)= 0.64709E+01
  rms(prec ) = 0.96231E+01
  weight for this iteration     100.00

 eigenvalues of (default mixing * dielectric matrix)
  average eigenvalue GAMMA=   0.7544
  2.2772  0.4112  0.4112  0.3362  0.3362

 Free energy of the ion-electron system (eV)
  ---------------------------------------------------
  alpha Z        PSCENC =      1184.50276941
  Ewald energy   TEWEN  =    -11390.27323190
  -Hartree energ DENC   =     -2887.68040067
  -exchange      EXHF   =         0.00000000
  -V(xc)+E(xc)   XCENC  =      -895.86137427
  PAW double counting   =     21131.59519134   -19682.25467988
  entropy T*S    EENTRO =         0.00188796
  eigenvalues    EBANDS =      -876.24616858
  atomic energy  EATOM  =     13005.90793652
  Solvation  Ediel_sol  =         0.00000000
  ---------------------------------------------------
  free energy    TOTEN  =      -410.30807007 eV

  energy without entropy =     -410.30995803  energy(sigma->0) =     -410.30869939


--------------------------------------------------------------------------------------------------------




--------------------------------------- Iteration      1(   7)  ---------------------------------------


    POTLOK:  cpu time    0.0354: real time    0.0424
    SETDIJ:  cpu time    0.0087: real time    0.0087
     EDDAV:  cpu time   27.1686: real time   27.2062
       DOS:  cpu time    0.0037: real time    0.0037
    CHARGE:  cpu time    0.5697: real time    0.5751
    MIXING:  cpu time    0.0011: real time    0.0011
    --------------------------------------------
      LOOP:  cpu time   27.7873: real time   27.8372

 eigenvalue-minimisations  : 24176
 total energy-change (2. order) : 0.4135568E+02  (-0.5302284E+02)
 number of electron     198.0000015 magnetization 
 augmentation part       30.7463181 magnetization 

 Broyden mixing:
  rms(total) = 0.47054E+01    rms(broyden)= 0.47054E+01
  rms(prec ) = 0.73312E+01
  weight for this iteration     100.00

 eigenvalues of (default mixing * dielectric matrix)
  average eigenvalue GAMMA=   0.7279
  2.4172  0.5129  0.5129  0.3318  0.3318  0.2610

 Free energy of the ion-electron system (eV)
  ---------------------------------------------------
  alpha Z        PSCENC =      1184.50276941
  Ewald energy   TEWEN  =    -11390.27323190
  -Hartree energ DENC   =     -2950.59802817
  -exchange      EXHF   =         0.00000000
  -V(xc)+E(xc)   XCENC  =      -893.87853067
  PAW double counting   =     19763.57645157   -18310.97991149
  entropy T*S    EENTRO =        -0.01204892
  eigenvalues    EBANDS =      -777.19779903
  atomic energy  EATOM  =     13005.90793652
  Solvation  Ediel_sol  =         0.00000000
  ---------------------------------------------------
  free energy    TOTEN  =      -368.95239269 eV

  energy without entropy =     -368.94034377  energy(sigma->0) =     -368.94837638


--------------------------------------------------------------------------------------------------------




--------------------------------------- Iteration      1(   8)  ---------------------------------------


    POTLOK:  cpu time    0.0228: real time    0.0239
    SETDIJ:  cpu time    0.0052: real time    0.0052
     EDDAV:  cpu time   27.7425: real time   27.7880
       DOS:  cpu time    0.0038: real time    0.0039
    CHARGE:  cpu time    0.5699: real time    0.5703
    MIXING:  cpu time    0.0012: real time    0.0012
    --------------------------------------------
      LOOP:  cpu time   28.3454: real time   28.3925

 eigenvalue-minimisations  : 24936
 total energy-change (2. order) : 0.2919941E+02  (-0.1311473E+02)
 number of electron     198.0000013 magnetization 
 augmentation part       29.7522058 magnetization 

 Broyden mixing:
  rms(total) = 0.37205E+01    rms(broyden)= 0.37205E+01
  rms(prec ) = 0.53185E+01
  weight for this iteration     100.00

 eigenvalues of (default mixing * dielectric matrix)
  average eigenvalue GAMMA=   0.7106
  2.5089  0.6053  0.6053  0.3646  0.3646  0.2627  0.2627

 Free energy of the ion-electron system (eV)
  ---------------------------------------------------
  alpha Z        PSCENC =      1184.50276941
  Ewald energy   TEWEN  =    -11390.27323190
  -Hartree energ DENC   =     -2977.64263726
  -exchange      EXHF   =         0.00000000
  -V(xc)+E(xc)   XCENC  =      -892.74315441
  PAW double counting   =     19547.14949550   -18087.30380611
  entropy T*S    EENTRO =        -0.00611996
  eigenvalues    EBANDS =      -729.34423109
  atomic energy  EATOM  =     13005.90793652
  Solvation  Ediel_sol  =         0.00000000
  ---------------------------------------------------
  free energy    TOTEN  =      -339.75297930 eV

  energy without entropy =     -339.74685934  energy(sigma->0) =     -339.75093931


--------------------------------------------------------------------------------------------------------




--------------------------------------- Iteration      1(   9)  ---------------------------------------


    POTLOK:  cpu time    0.0351: real time    0.0355
    SETDIJ:  cpu time    0.0090: real time    0.0090
     EDDAV:  cpu time   28.9648: real time   29.0101
       DOS:  cpu time    0.0039: real time    0.0039
    CHARGE:  cpu time    0.5707: real time    0.5712
[...]
    114       7.5935     -0.00000
    115       7.6524     -0.00000
    116       7.7076     -0.00000
    117       7.7707     -0.00000
    118       7.8442     -0.00000
    119       7.8753     -0.00000
    120       7.9251     -0.00000

 k-point    63 :      -0.2000   -0.2000    0.4000
  band No.  band energies     occupation 
      1     -47.6626      2.00000
      2     -47.6390      2.00000
      3     -47.6021      2.00000
      4     -47.5585      2.00000
      5     -47.5293      2.00000
      6     -47.4456      2.00000
      7     -24.2599      2.00000
      8     -24.1969      2.00000
      9     -24.0600      2.00000
     10     -24.0170      2.00000
     11     -23.8150      2.00000
     12     -23.8097      2.00000
     13     -23.7996      2.00000
     14     -23.7601      2.00000
     15     -23.7423      2.00000
     16     -23.7297      2.00000
     17     -23.7063      2.00000
     18     -23.6618      2.00000
     19     -23.6283      2.00000
     20     -23.6034      2.00000
     21     -23.4764      2.00000
     22     -23.4568      2.00000
     23     -23.3190      2.00000
     24     -23.2196      2.00000
     25       0.2078      2.00000
     26       0.4856      2.00000
     27       2.0535      2.00000
     28       2.2585      2.00000
     29       2.3387      2.00000
     30       2.4967      2.00000
     31       2.6081      2.00000
     32       2.6285      2.00000
     33       2.7670      2.00000
     34       2.8354      2.00000
     35       2.8797      2.00000
     36       2.9511      2.00000
     37       2.9996      2.00000
     38       3.0524      2.00000
     39       3.1203      2.00000
     40       3.2097      2.00000
     41       3.2409      2.00000
     42       3.2806      2.00000
     43       3.3663      2.00000
     44       3.4293      2.00000
     45       3.5468      2.00000
     46       3.5729      2.00000
     47       3.7627      2.00000
     48       3.8047      2.00000
     49       3.8895      2.00000
     50       3.9174      2.00000
     51       3.9669      2.00000
     52       4.0308      2.00000
     53       4.0566      2.00000
     54       4.1451      2.00000
     55       4.2052      2.00000
     56       4.2877      2.00000
     57       4.4277      2.00000
     58       4.5134      2.00000
     59       4.5898      2.00000
     60       4.6727      2.00000
     61       4.6962      2.00000
     62       4.7474      2.00000
     63       4.7628      2.00000
     64       4.8125      2.00000
     65       4.8700      2.00000
     66       4.9001      2.00000
     67       4.9489      2.00000
     68       5.0067      2.00000
     69       5.0502      2.00000
     70       5.0661      2.00000
     71       5.1736      2.00000
     72       5.2234      2.00000
     73       5.2558      2.00000
     74       5.2817      2.00000
     75       5.3674      2.00000
     76       5.4067      2.00000
     77       5.4405      2.00000
     78       5.4706      2.00000
     79       5.5290      2.00000
     80       5.5626      2.00000
     81       5.6324      2.00000
     82       5.6725      2.00001
     83       5.7257      2.00006
     84       5.7707      2.00022
     85       5.8072      2.00059
     86       5.8365      2.00122
     87       5.8962      2.00459
     88       5.9043      2.00541
     89       5.9539      2.01349
     90       5.9878      2.02297
     91       6.0106      2.03139
     92       6.0361      2.04241
     93       6.0922      2.06624
     94       6.1255      2.07060
     95       6.1423      2.06616
     96       6.1725      2.04052
     97       6.1960      1.99957
     98       6.2349      1.87975
     99       6.2539      1.79386
    100       6.3849      0.82607
    101       6.4422      0.39202
    102       6.5415     -0.01796
    103       6.5671     -0.05317
    104       6.6458     -0.06293
    105       6.6699     -0.05271
    106       6.7716     -0.01416
    107       6.8556     -0.00280
    108       6.9366     -0.00040
    109       7.2371     -0.00000
    110       7.3437     -0.00000
    111       7.3929     -0.00000
    112       7.4331     -0.00000
    113       7.5193     -0.00000
    114       7.9675     -0.00000
    115       8.0256     -0.00000
    116       8.0837     -0.00000
    117       8.1770     -0.00000
    118       8.2054     -0.00000
    119       8.2562     -0.00000
    120       8.3051     -0.00000


--------------------------------------------------------------------------------------------------------


 soft charge-density along one line, spin component           1
         0         1         2         3         4         5         6         7         8         9
 total charge-density along one line
 
 pseudopotential strength for first ion, spin component:           1
  5.530 -21.059   0.002   0.001  -0.000  -0.005  -0.002   0.001
-21.059   9.929   0.003   0.002  -0.001  -0.000  -0.000   0.000
  0.002   0.003 -10.608  -0.001   0.003   6.882   0.001  -0.004
  0.001   0.002  -0.001 -10.606  -0.006   0.001   6.880   0.006
 -0.000  -0.001   0.003  -0.006 -10.609  -0.004   0.006   6.883
 -0.005  -0.000   6.882   0.001  -0.004   7.384  -0.001   0.002
 -0.002  -0.000   0.001   6.880   0.006  -0.001   7.385  -0.004
  0.001   0.000  -0.004   0.006   6.883   0.002  -0.004   7.383
  0.002   0.001  -0.000  -0.000   0.002   0.001   0.000  -0.003
 -0.001  -0.000   0.001   0.002  -0.000  -0.001  -0.003   0.000
  0.001   0.000  -0.001   0.001   0.000   0.001  -0.001  -0.000
 -0.004  -0.002  -0.000  -0.000   0.001   0.000   0.001  -0.001
 -0.000  -0.000  -0.002   0.000  -0.000   0.002  -0.000   0.000
  0.003   0.001  -0.001  -0.000   0.002   0.001   0.001  -0.003
 -0.001  -0.000   0.001   0.003  -0.000  -0.002  -0.004   0.001
  0.001   0.001  -0.001   0.001   0.000   0.002  -0.002  -0.000
 -0.005  -0.002  -0.000  -0.001   0.001   0.001   0.001  -0.002
 -0.000  -0.000  -0.002   0.000  -0.000   0.003  -0.000   0.001
 total augmentation occupancy for first ion, spin component:           1
  1.996  -0.036  -0.000  -0.000   0.000  -0.000  -0.000   0.000   0.006  -0.004   0.001  -0.009  -0.001  -0.005   0.003  -0.001
 -0.036   1.528  -0.002  -0.002   0.003   0.002   0.000  -0.004   0.015  -0.023  -0.017  -0.037  -0.004  -0.006   0.009   0.007
 -0.000  -0.002   1.998   0.000  -0.000  -0.024  -0.001   0.001   0.007  -0.004  -0.000   0.006  -0.003  -0.004   0.002   0.001
 -0.000  -0.002   0.000   1.998  -0.000  -0.001  -0.025   0.001   0.004  -0.001   0.001   0.007   0.001  -0.003   0.001  -0.001
  0.000   0.003  -0.000  -0.000   1.998   0.001   0.001  -0.025  -0.006   0.005  -0.001  -0.001   0.000   0.003  -0.003   0.000
 -0.000   0.002  -0.024  -0.001   0.001   0.065   0.001  -0.001  -0.006   0.006  -0.000  -0.005   0.002   0.003  -0.002   0.000
 -0.000   0.000  -0.001  -0.025   0.001   0.001   0.065  -0.004  -0.000  -0.005  -0.003  -0.006   0.000   0.000   0.001   0.001
  0.000  -0.004   0.001   0.001  -0.025  -0.001  -0.004   0.065   0.003  -0.005   0.004  -0.001  -0.004  -0.001   0.002  -0.002
  0.006   0.015   0.007   0.004  -0.006  -0.006  -0.000   0.003   2.604  -0.248  -0.045  -0.019  -0.007  -0.979   0.110   0.017
 -0.004  -0.023  -0.004  -0.001   0.005   0.006  -0.005  -0.005  -0.248   2.627  -0.017   0.032   0.025   0.110  -0.983   0.007
  0.001  -0.017  -0.000   0.001  -0.001  -0.000  -0.003   0.004  -0.045  -0.017   2.389  -0.015   0.015   0.017   0.006  -0.981
 -0.009  -0.037   0.006   0.007  -0.001  -0.005  -0.006  -0.001  -0.019   0.032  -0.015   2.610  -0.031   0.006  -0.010   0.017
 -0.001  -0.004  -0.003   0.001   0.000   0.002   0.000  -0.004  -0.007   0.025   0.015  -0.031   2.400   0.002  -0.010  -0.008
 -0.005  -0.006  -0.004  -0.003   0.003   0.003   0.000  -0.001  -0.979   0.110   0.017   0.006   0.002   0.383  -0.048  -0.006
  0.003   0.009   0.002   0.001  -0.003  -0.002   0.001   0.002   0.110  -0.983   0.006  -0.010  -0.010  -0.048   0.384  -0.003
 -0.001   0.007   0.001  -0.001   0.000   0.000   0.001  -0.002   0.017   0.007  -0.981   0.017  -0.008  -0.006  -0.003   0.412
  0.008   0.037  -0.003  -0.004   0.001   0.002   0.003  -0.001   0.006  -0.010   0.017  -0.975   0.032  -0.002   0.004  -0.012
  0.001   0.005   0.003  -0.001   0.000  -0.001  -0.000   0.003   0.002  -0.011  -0.008   0.033  -0.986  -0.000   0.004   0.004


------------------------ aborting loop because EDIFF is reached ----------------------------------------


    CHARGE:  cpu time    0.5754: real time    0.5760
    FORLOC:  cpu time    0.0063: real time    0.0063
    FORNL :  cpu time    4.0075: real time    4.0113
    STRESS:  cpu time   12.0293: real time   12.0405
    FORCOR:  cpu time    0.0295: real time    0.0309
    FORHAR:  cpu time    0.0109: real time    0.0110
    MIXING:  cpu time    0.0034: real time    0.0034
    OFIELD:  cpu time    0.0001: real time    0.0001

  FORCE on cell =-STRESS in cart. coord.  units (eV):
  Direction    XX          YY          ZZ          XY          YZ          ZX
  --------------------------------------------------------------------------------------
  Alpha Z  1184.50277  1184.50277  1184.50277
  Ewald   -3756.86922 -3443.17791 -4190.25536  -127.51087   440.76364   304.93691
  Hartree  1049.96244  1294.84262   641.18023  -107.94226   397.62763   298.84817
  E(xc)    -885.19921  -884.95167  -885.09435    -0.06426    -0.05119    -0.38064
  Local    -380.84693  -940.02144   461.41863   235.40949  -838.39521  -602.00170
  n-local  -279.67041  -279.83311  -279.55072     0.46672     0.15004     1.26691
  augment   331.54459   331.51620   331.32539    -0.01413    -0.01114    -0.31565
  Kinetic  2716.75789  2716.46096  2716.17077    -1.38178    -0.15160    -1.88019
  Fock        0.00000     0.00000     0.00000     0.00000     0.00000     0.00000
  -------------------------------------------------------------------------------------
  Total     -19.81808   -20.66157   -20.30263    -1.03709    -0.06783     0.47381
  in kB     -64.59976   -67.34926   -66.17923    -3.38055    -0.22111     1.54444
  external pressure =      -66.04 kB  Pullay stress =        0.00 kB


 VOLUME and BASIS-vectors are now :
 -----------------------------------------------------------------------------
  energy-cutoff  :      600.00
  volume of cell :      491.52
      direct lattice vectors                 reciprocal lattice vectors
    -3.200000000 -3.200000000 -3.200000000    -0.135416667 -0.125000000 -0.052083333
     1.600000000  1.600000000 -8.000000000     0.041666667  0.062500000 -0.104166667
     8.000000000 -8.000000000 -1.600000000     0.062500000 -0.062500000  0.000000000

  length of vectors
     5.542562584  8.313843876 11.426285486     0.191508087  0.128425292  0.088388348


 FORCES acting on ions
    electron-ion (+dipol)            ewald-force                    non-local-force                 convergence-correction
 -----------------------------------------------------------------------------------------------
   0.148E+03 0.404E+02 -.190E+03   -.148E+03 -.397E+02 0.191E+03   0.354E+00 -.231E+00 -.110E+00   0.259E+00 -.681E-01 -.146E+00
   -.796E+02 -.185E+03 0.110E+03   0.795E+02 0.185E+03 -.109E+03   0.559E-01 -.402E-01 -.208E+00   0.285E+00 -.355E+00 0.411E-01
   -.244E+02 0.796E+02 -.270E+02   0.244E+02 -.795E+02 0.272E+02   0.108E+00 -.154E-02 -.262E+00   -.136E+00 0.182E+00 -.657E-01
   -.599E+02 0.103E+03 -.784E+02   0.603E+02 -.104E+03 0.786E+02   -.591E-01 0.212E-01 -.173E+00   -.107E+00 0.152E+00 -.353E-01
   -.226E+02 -.108E+03 0.248E+03   0.229E+02 0.108E+03 -.249E+03   0.633E-01 0.301E+00 -.247E+00   -.347E+00 0.220E+00 0.817E-01
   0.347E+01 0.755E+02 -.270E+02   -.420E+01 -.755E+02 0.269E+02   0.333E+00 0.672E-01 -.567E-02   0.141E+00 0.140E+00 -.194E+00
   0.115E+02 0.471E+02 -.908E+02   -.114E+02 -.474E+02 0.908E+02   -.110E+00 -.186E+00 0.151E+00   0.572E-01 -.608E-02 -.622E-01
   -.162E+02 0.596E+01 0.125E+02   0.157E+02 -.601E+01 -.122E+02   -.254E+00 -.543E-01 0.233E+00   0.105E+00 -.160E+00 0.538E-01
   0.393E+02 -.492E+02 0.419E+02   -.394E+02 0.496E+02 -.418E+02   -.541E-01 0.712E-02 -.110E+00   0.525E-01 -.111E+00 0.452E-01
   -.821E+02 -.625E+02 0.105E+03   0.821E+02 0.629E+02 -.106E+03   0.241E+00 0.598E-01 -.174E+00   -.807E-01 0.300E-03 0.898E-01
   0.314E+02 0.915E+02 -.697E+02   -.314E+02 -.916E+02 0.701E+02   -.114E+00 -.177E+00 -.186E+00   -.237E-01 -.139E-01 0.168E-01
   0.373E+02 -.502E+02 0.847E+02   -.375E+02 0.505E+02 -.851E+02   0.280E+00 -.245E-02 -.252E+00   0.120E+00 -.135E+00 0.184E-01
   0.541E+02 0.365E+02 -.785E+02   -.539E+02 -.366E+02 0.786E+02   0.301E-01 -.464E+00 0.394E+00   -.165E-01 0.504E-01 -.521E-01
   0.517E+02 0.222E+02 -.130E+03   -.513E+02 -.222E+02 0.130E+03   -.114E+00 0.248E+00 0.102E+00   -.257E-01 0.112E+00 -.674E-01
   -.373E+02 -.355E+02 0.124E+02   0.369E+02 0.359E+02 -.125E+02   0.554E-01 0.163E+00 -.836E-01   0.471E-01 -.629E-01 0.819E-02
   0.230E+00 0.594E+02 -.445E+02   -.684E+00 -.594E+02 0.449E+02   -.335E+00 -.147E+00 0.379E+00   0.571E-01 -.406E-02 -.448E-01
   0.986E+02 0.467E+02 -.962E+02   -.990E+02 -.468E+02 0.968E+02   -.384E+00 -.610E-01 0.928E-01   -.430E-01 0.109E+00 -.838E-01
   -.534E+01 0.528E+01 -.369E+01   0.547E+01 -.519E+01 0.325E+01   0.967E-01 -.261E+00 0.140E+00   0.834E-01 -.124E+00 0.455E-01
   -.163E+02 0.460E+02 -.634E+02   0.166E+02 -.458E+02 0.637E+02   -.143E+00 0.713E-01 0.191E+00   -.445E-02 0.796E-02 0.310E-02
   0.299E+02 0.917E+01 -.372E+02   -.294E+02 -.945E+01 0.373E+02   0.246E-01 -.177E+00 0.858E-01   0.741E-01 -.347E-01 -.525E-01
   -.535E+02 -.171E+02 0.928E+02   0.537E+02 0.168E+02 -.931E+02   -.190E+00 0.748E-01 -.947E-01   -.503E-01 0.386E-03 0.473E-01
   -.669E+01 -.841E+01 0.201E+02   0.670E+01 0.826E+01 -.203E+02   -.216E+00 0.649E-01 -.460E-01   -.110E+00 0.683E-01 0.386E-01
   -.270E+02 -.239E+02 0.752E+02   0.267E+02 0.239E+02 -.748E+02   0.915E-01 -.397E-01 0.303E-01   -.354E-01 -.255E-01 0.469E-01
   0.431E+01 -.526E+01 0.541E+02   -.394E+01 0.506E+01 -.547E+02   0.214E+00 0.106E+00 -.246E+00   0.408E-01 -.430E-01 0.905E-02
   -.223E+02 -.352E+02 0.461E+02   0.223E+02 0.347E+02 -.460E+02   0.199E+00 -.765E-02 0.384E+00   -.140E+00 0.106E+00 0.432E-01
   -.809E+02 -.337E+02 0.888E+02   0.816E+02 0.338E+02 -.894E+02   -.894E-01 0.800E-01 0.158E+00   -.316E-01 -.223E-01 0.775E-01
   -.190E+02 -.743E+02 0.593E+02   0.190E+02 0.744E+02 -.595E+02   0.947E-01 0.108E-01 -.233E-01   -.137E+00 0.112E+00 0.342E-01
   -.185E+02 0.270E+02 -.347E+02   0.187E+02 -.276E+02 0.345E+02   0.741E-02 0.948E-01 -.139E+00   0.368E-01 0.206E-01 -.832E-01
   0.469E+02 0.334E+02 -.850E+02   -.471E+02 -.336E+02 0.855E+02   -.590E-01 -.142E+00 0.169E+00   -.724E-02 0.701E-01 -.452E-01
   0.149E+02 -.411E+02 0.479E+01   -.148E+02 0.413E+02 -.489E+01   0.122E+00 0.489E-01 -.104E+00   0.509E-01 -.797E-01 0.407E-01
 -----------------------------------------------------------------------------------------------
   -.365E+00 0.472E+00 0.154E+00   0.817E-13 -.853E-13 -.959E-13   0.249E+00 -.574E+00 0.451E-01   0.116E+00 0.104E+00 -.191E+00
 
 
 POSITION                                       TOTAL-FORCE (eV/Angst)
 -----------------------------------------------------------------------------------
      1.60000     -4.80000    -11.20000         0.014392      0.441225      0.247999
      1.60000     -4.80000     -4.80000         0.278981     -0.093443     -0.002871
     -1.60000     -1.60000     -1.60000        -0.124748      0.330208     -0.175084
      0.00000      0.00000      0.00000         0.253039     -0.024332     -0.013122
      6.40000     -6.40000     -3.20000        -0.044526      0.635740     -0.463929
      4.80000     -4.80000     -1.60000        -0.258972      0.238850     -0.317672
      0.00000     -3.20000     -9.60000         0.015448     -0.523352      0.158633
      1.60000     -4.80000     -8.00000        -0.584836     -0.260412      0.582007
      0.00000     -3.20000     -6.40000        -0.138478      0.301454      0.032514
     -1.60000     -1.60000     -4.80000         0.174964      0.442529     -0.555480
      4.80000     -4.80000     -8.00000        -0.106944     -0.332655      0.249752
      3.20000     -3.20000     -3.20000         0.140740      0.180285     -0.612354
     -1.60000     -1.60000     -8.00000         0.149615     -0.449973      0.409525
      4.80000     -8.00000    -11.20000         0.256911      0.322663     -0.076599
     -0.00000     -3.20000     -3.20000        -0.285552      0.466921     -0.142635
      1.60000     -1.60000     -8.00000        -0.731102     -0.133510      0.761534
      6.40000     -6.40000     -9.60000        -0.809000     -0.104708      0.638047
      3.20000     -3.20000     -6.40000         0.311019     -0.299899     -0.257055
      3.20000     -6.40000     -9.60000         0.065613      0.231356      0.454596
      3.20000     -3.20000     -9.60000         0.535074     -0.498716      0.145253
     -0.00000     -0.00000     -3.20000        -0.026950     -0.171122     -0.386132
      6.40000     -6.40000     -6.40000        -0.318652     -0.015042     -0.286591
      4.80000     -4.80000     -4.80000        -0.248135     -0.049432      0.516980
      1.60000     -1.60000     -1.60000         0.622597     -0.138933     -0.821191
      4.80000     -8.00000     -8.00000         0.098994     -0.387477      0.541744
      3.20000     -6.40000     -6.40000         0.524391      0.156112     -0.397800
      4.80000     -8.00000     -4.80000         0.024841      0.210387     -0.166556
      3.20000     -6.40000     -3.20000         0.188624     -0.452814     -0.444883
      0.00000      0.00000     -6.40000        -0.233141     -0.234625      0.548370
      1.60000     -1.60000     -4.80000         0.255792      0.212717     -0.167002
 -----------------------------------------------------------------------------------
    total drift:                               -0.000211      0.001985      0.008133


--------------------------------------------------------------------------------------------------------



  FREE ENERGIE OF THE ION-ELECTRON SYSTEM (eV)
  ---------------------------------------------------
  free  energy   TOTEN  =      -318.44865766 eV

  energy  without entropy=     -318.43706331  energy(sigma->0) =     -318.44479288
 


--------------------------------------------------------------------------------------------------------


    POTLOK:  cpu time    0.0284: real time    0.0284


--------------------------------------------------------------------------------------------------------


 stress matrix after NEB project (eV)
    -19.81808     -1.03709      0.47381
     -1.03709    -20.66157     -0.06783
      0.47381     -0.06783    -20.30263
  FORCES: max atom, RMS     1.064081    0.622582
  FORCE total and by dimension    3.410021    0.821191
  Stress total and by dimension   35.134926   20.661574
 writing wavefunctions
     LOOP+:  cpu time  930.9622: real time  937.0408
    4ORBIT:  cpu time    0.0000: real time    0.0000

 total amount of memory used by VASP MPI-rank0   108536. kBytes
=======================================================================

   base      :      30000. kBytes
   nonlr-proj:       7067. kBytes
   fftplans  :       2330. kBytes
   grid      :       4665. kBytes
   one-center:        124. kBytes
   wavefun   :      64350. kBytes
 
  
  
 General timing and accounting informations for this job:
 ========================================================
  
                  Total CPU time used (sec):      941.777
                            User time (sec):      933.545
                          System time (sec):        8.232
                         Elapsed time (sec):      952.700
  
                   Maximum memory used (kb):      168152.
                   Average memory used (kb):           0.
  
                          Minor page faults:        65522
                          Major page faults:            0
                 Voluntary context switches:         2529
