<?xml version="1.0" encoding="ISO-8859-1"?>
<modeling>
 <generator>
  <i name="program" type="string">vasp </i>
  <i name="version" type="string">5.4.4.18Apr17-6-g9f103f2a35  </i>
  <i name="subversion" type="string">(build Aug 09 2018 16:20:53) complex            parallel </i>
  <i name="platform" type="string">LinuxIFC </i>
  <i name="date" type="string">2020 04 28 </i>
  <i name="time" type="string">21:18:50 </i>
 </generator>
 <incar>
  <i type="string" name="SYSTEM"> Nb - Mo - Ta - Ti - V SQS</i>
  <i type="string" name="PREC">normal</i>
  <i type="int" name="ICHARG">     1</i>
  <i type="int" name="NELM">   100</i>
  <i type="int" name="IBRION">     2</i>
  <i name="ENCUT">    600.00000000</i>
  <i type="string" name="LREAL"> Auto</i>
  <i type="int" name="ISMEAR">     1</i>
  <i name="SIGMA">      0.20000000</i>
  <v type="int" name="KPOINT_BSE">    -1     0     0     0</v>
  <i type="int" name="NELM">   100</i>
  <i type="string" name="GGA"> PS</i>
 </incar>
 <structure name="primitive_cell" >
  <crystal>
   <varray name="basis" >
    <v>      -3.20000000      -3.20000000      -3.20000000 </v>
    <v>       1.60000000       1.60000000      -8.00000000 </v>
    <v>       8.00000000      -8.00000000      -1.60000000 </v>
   </varray>
   <i name="volume">    491.52000000 </i>
   <varray name="rec_basis" >
    <v>      -0.13541667      -0.12500000      -0.05208333 </v>
    <v>       0.04166667       0.06250000      -0.10416667 </v>
    <v>       0.06250000      -0.06250000       0.00000000 </v>
   </varray>
  </crystal>
  <varray name="positions" >
   <v>      -0.03333333      -0.06666667       0.40000000 </v>
   <v>       0.30000000      -0.40000000       0.40000000 </v>
   <v>      -0.10000000      -0.20000000       0.20000000 </v>
   <v>       0.06666667       0.13333333       0.20000000 </v>
   <v>       0.46666667      -0.06666667       0.40000000 </v>
   <v>      -0.13333333      -0.26666667      -0.40000000 </v>
   <v>       0.03333333       0.06666667      -0.40000000 </v>
   <v>      -0.36666667       0.26666667       0.40000000 </v>
   <v>       0.40000000      -0.20000000       0.20000000 </v>
   <v>      -0.20000000      -0.40000000       0.40000000 </v>
   <v>      -0.43333333       0.13333333       0.20000000 </v>
   <v>       0.36666667      -0.26666667      -0.40000000 </v>
   <v>       0.13333333       0.26666667       0.40000000 </v>
   <v>      -0.46666667       0.06666667      -0.40000000 </v>
   <v>       0.23333333       0.46666667       0.20000000 </v>
   <v>       0.20000000       0.40000000      -0.40000000 </v>
   <v>       0.00000000       0.00000000       0.00000000 </v>
   <v>      -0.06666667      -0.13333333      -0.20000000 </v>
   <v>      -0.30000000       0.40000000      -0.40000000 </v>
   <v>      -0.26666667       0.46666667       0.20000000 </v>
   <v>       0.33333333      -0.33333333       0.00000000 </v>
   <v>       0.43333333      -0.13333333      -0.20000000 </v>
   <v>      -0.50000000       0.00000000       0.00000000 </v>
   <v>       0.26666667      -0.46666667      -0.20000000 </v>
   <v>      -0.33333333       0.33333333       0.00000000 </v>
   <v>      -0.40000000       0.20000000      -0.20000000 </v>
   <v>      -0.16666667      -0.33333333       0.00000000 </v>
   <v>      -0.23333333      -0.46666667      -0.20000000 </v>
   <v>       0.16666667       0.33333333       0.00000000 </v>
   <v>       0.10000000       0.20000000      -0.20000000 </v>
  </varray>
 </structure>
 <varray name="primitive_index" >
  <v type="int" >        1 </v>
  <v type="int" >       18 </v>
  <v type="int" >        7 </v>
  <v type="int" >       24 </v>
  <v type="int" >       20 </v>
  <v type="int" >       19 </v>
  <v type="int" >        6 </v>
  <v type="int" >        2 </v>
  <v type="int" >       16 </v>
  <v type="int" >        8 </v>
  <v type="int" >       15 </v>
  <v type="int" >       11 </v>
  <v type="int" >       12 </v>
  <v type="int" >       28 </v>
  <v type="int" >       30 </v>
  <v type="int" >       23 </v>
  <v type="int" >        4 </v>
  <v type="int" >       14 </v>
  <v type="int" >       26 </v>
  <v type="int" >        9 </v>
  <v type="int" >       29 </v>
  <v type="int" >       17 </v>
  <v type="int" >        3 </v>
  <v type="int" >       22 </v>
  <v type="int" >       10 </v>
  <v type="int" >       27 </v>
  <v type="int" >       13 </v>
  <v type="int" >       25 </v>
  <v type="int" >       21 </v>
  <v type="int" >        5 </v>
 </varray>
 <kpoints>
  <generation param="Gamma">
   <v type="int" name="divisions">       5        5        5 </v>
   <v name="usershift">      0.00000000       0.00000000       0.00000000 </v>
   <v name="genvec1">      0.20000000      -0.00000000       0.00000000 </v>
   <v name="genvec2">     -0.00000000       0.20000000      -0.00000000 </v>
   <v name="genvec3">      0.00000000       0.00000000       0.20000000 </v>
   <v name="shift">      0.00000000       0.00000000       0.00000000 </v>
  </generation>
  <varray name="kpointlist" >
   <v>       0.00000000       0.00000000       0.00000000 </v>
   <v>       0.20000000       0.00000000       0.00000000 </v>
   <v>       0.40000000       0.00000000       0.00000000 </v>
   <v>       0.00000000       0.20000000      -0.00000000 </v>
   <v>       0.20000000       0.20000000      -0.00000000 </v>
   <v>       0.40000000       0.20000000      -0.00000000 </v>
   <v>      -0.40000000       0.20000000       0.00000000 </v>
   <v>      -0.20000000       0.20000000      -0.00000000 </v>
   <v>       0.00000000       0.40000000      -0.00000000 </v>
   <v>       0.20000000       0.40000000       0.00000000 </v>
   <v>       0.40000000       0.40000000      -0.00000000 </v>
   <v>      -0.40000000       0.40000000      -0.00000000 </v>
   <v>      -0.20000000       0.40000000       0.00000000 </v>
   <v>       0.00000000       0.00000000       0.20000000 </v>
   <v>       0.20000000       0.00000000       0.20000000 </v>
   <v>       0.40000000       0.00000000       0.20000000 </v>
   <v>      -0.40000000       0.00000000       0.20000000 </v>
   <v>      -0.20000000      -0.00000000       0.20000000 </v>
   <v>       0.00000000       0.20000000       0.20000000 </v>
   <v>       0.20000000       0.20000000       0.20000000 </v>
   <v>       0.40000000       0.20000000       0.20000000 </v>
   <v>      -0.40000000       0.20000000       0.20000000 </v>
   <v>      -0.20000000       0.20000000       0.20000000 </v>
   <v>       0.00000000       0.40000000       0.20000000 </v>
   <v>       0.20000000       0.40000000       0.20000000 </v>
   <v>       0.40000000       0.40000000       0.20000000 </v>
   <v>      -0.40000000       0.40000000       0.20000000 </v>
   <v>      -0.20000000       0.40000000       0.20000000 </v>
   <v>       0.00000000      -0.40000000       0.20000000 </v>
   <v>       0.20000000      -0.40000000       0.20000000 </v>
   <v>       0.40000000      -0.40000000       0.20000000 </v>
   <v>      -0.40000000      -0.40000000       0.20000000 </v>
   <v>      -0.20000000      -0.40000000       0.20000000 </v>
   <v>       0.00000000      -0.20000000       0.20000000 </v>
   <v>       0.20000000      -0.20000000       0.20000000 </v>
   <v>       0.40000000      -0.20000000       0.20000000 </v>
   <v>      -0.40000000      -0.20000000       0.20000000 </v>
   <v>      -0.20000000      -0.20000000       0.20000000 </v>
   <v>       0.00000000       0.00000000       0.40000000 </v>
   <v>       0.20000000       0.00000000       0.40000000 </v>
   <v>       0.40000000       0.00000000       0.40000000 </v>
   <v>      -0.40000000      -0.00000000       0.40000000 </v>
   <v>      -0.20000000       0.00000000       0.40000000 </v>
   <v>       0.00000000       0.20000000       0.40000000 </v>
   <v>       0.20000000       0.20000000       0.40000000 </v>
   <v>       0.40000000       0.20000000       0.40000000 </v>
   <v>      -0.40000000       0.20000000       0.40000000 </v>
   <v>      -0.20000000       0.20000000       0.40000000 </v>
   <v>       0.00000000       0.40000000       0.40000000 </v>
   <v>       0.20000000       0.40000000       0.40000000 </v>
   <v>       0.40000000       0.40000000       0.40000000 </v>
   <v>      -0.40000000       0.40000000       0.40000000 </v>
   <v>      -0.20000000       0.40000000       0.40000000 </v>
   <v>       0.00000000      -0.40000000       0.40000000 </v>
   <v>       0.20000000      -0.40000000       0.40000000 </v>
   <v>       0.40000000      -0.40000000       0.40000000 </v>
   <v>      -0.40000000      -0.40000000       0.40000000 </v>
   <v>      -0.20000000      -0.40000000       0.40000000 </v>
   <v>      -0.00000000      -0.20000000       0.40000000 </v>
   <v>       0.20000000      -0.20000000       0.40000000 </v>
   <v>       0.40000000      -0.20000000       0.40000000 </v>
   <v>      -0.40000000      -0.20000000       0.40000000 </v>
   <v>      -0.20000000      -0.20000000       0.40000000 </v>
  </varray>
  <varray name="weights" >
   <v>       0.00800000 </v>
   <v>       0.01600000 </v>
   <v>       0.01600000 </v>
   <v>       0.01600000 </v>
   <v>       0.01600000 </v>
   <v>       0.01600000 </v>
   <v>       0.01600000 </v>
   <v>       0.01600000 </v>
   <v>       0.01600000 </v>
   <v>       0.01600000 </v>
   <v>       0.01600000 </v>
   <v>       0.01600000 </v>
   <v>       0.01600000 </v>
   <v>       0.01600000 </v>
   <v>       0.01600000 </v>
   <v>       0.01600000 </v>
   <v>       0.01600000 </v>
   <v>       0.01600000 </v>
   <v>       0.01600000 </v>
   <v>       0.01600000 </v>
   <v>       0.01600000 </v>
   <v>       0.01600000 </v>
   <v>       0.01600000 </v>
   <v>       0.01600000 </v>
   <v>       0.01600000 </v>
   <v>       0.01600000 </v>
   <v>       0.01600000 </v>
   <v>       0.01600000 </v>
   <v>       0.01600000 </v>
   <v>       0.01600000 </v>
   <v>       0.01600000 </v>
   <v>       0.01600000 </v>
   <v>       0.01600000 </v>
   <v>       0.01600000 </v>
   <v>       0.01600000 </v>
   <v>       0.01600000 </v>
   <v>       0.01600000 </v>
   <v>       0.01600000 </v>
   <v>       0.01600000 </v>
   <v>       0.01600000 </v>
   <v>       0.01600000 </v>
   <v>       0.01600000 </v>
   <v>       0.01600000 </v>
   <v>       0.01600000 </v>
   <v>       0.01600000 </v>
   <v>       0.01600000 </v>
   <v>       0.01600000 </v>
   <v>       0.01600000 </v>
   <v>       0.01600000 </v>
   <v>       0.01600000 </v>
   <v>       0.01600000 </v>
   <v>       0.01600000 </v>
   <v>       0.01600000 </v>
   <v>       0.01600000 </v>
   <v>       0.01600000 </v>
   <v>       0.01600000 </v>
   <v>       0.01600000 </v>
   <v>       0.01600000 </v>
   <v>       0.01600000 </v>
   <v>       0.01600000 </v>
   <v>       0.01600000 </v>
   <v>       0.01600000 </v>
   <v>       0.01600000 </v>
  </varray>
 </kpoints>
 <parameters>
  <separator name="general" >
   <i type="string" name="SYSTEM">Nb - Mo - Ta - Ti - V SQS</i>
   <i type="logical" name="LCOMPAT"> F  </i>
  </separator>
  <separator name="electronic" >
   <i type="string" name="PREC">normal</i>
   <i name="ENMAX">    600.00000000</i>
   <i name="ENAUG">    455.65900000</i>
   <i name="EDIFF">      0.00010000</i>
   <i type="int" name="IALGO">    38</i>
   <i type="int" name="IWAVPR">    10</i>
   <i type="int" name="NBANDS">   120</i>
   <i name="NELECT">    198.00000000</i>
   <i type="int" name="TURBO">     0</i>
   <i type="int" name="IRESTART">     0</i>
   <i type="int" name="NREBOOT">     0</i>
   <i type="int" name="NMIN">     0</i>
   <i name="EREF">      0.00000000</i>
   <separator name="electronic smearing" >
    <i type="int" name="ISMEAR">     1</i>
    <i name="SIGMA">      0.20000000</i>
    <i name="KSPACING">      0.50000000</i>
    <i type="logical" name="KGAMMA"> T  </i>
   </separator>
   <separator name="electronic projectors" >
    <i type="logical" name="LREAL"> T  </i>
    <v name="ROPT">     -0.00050000     -0.00050000     -0.00050000     -0.00050000     -0.00050000</v>
    <i type="int" name="LMAXPAW">  -100</i>
    <i type="int" name="LMAXMIX">     2</i>
    <i type="logical" name="NLSPLINE"> F  </i>
   </separator>
   <separator name="electronic startup" >
    <i type="int" name="ISTART">     1</i>
    <i type="int" name="ICHARG">     1</i>
    <i type="int" name="INIWAV">     1</i>
   </separator>
   <separator name="electronic spin" >
    <i type="int" name="ISPIN">     1</i>
    <i type="logical" name="LNONCOLLINEAR"> F  </i>
    <v name="MAGMOM">      1.00000000      1.00000000      1.00000000      1.00000000      1.00000000      1.00000000      1.00000000      1.00000000      1.00000000      1.00000000      1.00000000      1.00000000      1.00000000      1.00000000      1.00000000      1.00000000      1.00000000      1.00000000      1.00000000      1.00000000
      1.00000000      1.00000000      1.00000000      1.00000000      1.00000000      1.00000000      1.00000000      1.00000000      1.00000000      1.00000000</v>
    <i name="NUPDOWN">     -1.00000000</i>
    <i type="logical" name="LSORBIT"> F  </i>
    <v name="SAXIS">      0.00000000      0.00000000      1.00000000</v>
    <i type="logical" name="LSPIRAL"> F  </i>
    <v name="QSPIRAL">      0.00000000      0.00000000      0.00000000</v>
    <i type="logical" name="LZEROZ"> F  </i>
   </separator>
   <separator name="electronic exchange-correlation" >
    <i type="logical" name="LASPH"> F  </i>
    <i type="logical" name="LMETAGGA"> F  </i>
   </separator>
   <separator name="electronic convergence" >
    <i type="int" name="NELM">   100</i>
    <i type="int" name="NELMDL">     0</i>
    <i type="int" name="NELMIN">     2</i>
    <i name="ENINI">    600.00000000</i>
    <separator name="electronic convergence detail" >
     <i type="logical" name="LDIAG"> T  </i>
     <i type="logical" name="LSUBROT"> F  </i>
     <i name="WEIMIN">      0.00000000</i>
     <i name="EBREAK">      0.00000021</i>
     <i name="DEPER">      0.30000000</i>
     <i type="int" name="NRMM">     4</i>
     <i name="TIME">      0.40000000</i>
    </separator>
   </separator>
   <separator name="electronic mixer" >
    <i name="AMIX">      0.40000000</i>
    <i name="BMIX">      1.00000000</i>
    <i name="AMIN">      0.10000000</i>
    <i name="AMIX_MAG">      1.60000000</i>
    <i name="BMIX_MAG">      1.00000000</i>
    <separator name="electronic mixer details" >
     <i type="int" name="IMIX">     4</i>
     <i type="logical" name="MIXFIRST"> F  </i>
     <i type="int" name="MAXMIX">   -45</i>
     <i name="WC">    100.00000000</i>
     <i type="int" name="INIMIX">     1</i>
     <i type="int" name="MIXPRE">     1</i>
     <i type="int" name="MREMOVE">     5</i>
    </separator>
   </separator>
   <separator name="electronic dipolcorrection" >
    <i type="logical" name="LDIPOL"> F  </i>
    <i type="logical" name="LMONO"> F  </i>
    <i type="int" name="IDIPOL">     0</i>
    <i name="EPSILON">      1.00000000</i>
    <v name="DIPOL">   -100.00000000   -100.00000000   -100.00000000</v>
    <i name="EFIELD">      0.00000000</i>
   </separator>
  </separator>
  <separator name="grids" >
   <i type="int" name="NGX">    36</i>
   <i type="int" name="NGY">    50</i>
   <i type="int" name="NGZ">    70</i>
   <i type="int" name="NGXF">    72</i>
   <i type="int" name="NGYF">   100</i>
   <i type="int" name="NGZF">   140</i>
   <i type="logical" name="ADDGRID"> F  </i>
  </separator>
  <separator name="ionic" >
   <i type="int" name="NSW">     0</i>
   <i type="int" name="IBRION">    -1</i>
   <i type="int" name="MDALGO">     0</i>
   <i type="int" name="ISIF">     2</i>
   <i name="PSTRESS">      0.00000000</i>
   <i name="EDIFFG">      0.00100000</i>
   <i type="int" name="NFREE">     1</i>
   <i name="POTIM">      0.50000000</i>
   <i name="SMASS">     -3.00000000</i>
   <i name="SCALEE">      1.00000000</i>
  </separator>
  <separator name="ionic md" >
   <i name="TEBEG">      0.00010000</i>
   <i name="TEEND">      0.00010000</i>
   <i type="int" name="NBLOCK">     1</i>
   <i type="int" name="KBLOCK">     1</i>
   <i type="int" name="NPACO">   256</i>
   <i name="APACO">     16.00000000</i>
  </separator>
  <separator name="symmetry" >
   <i type="int" name="ISYM">     2</i>
   <i name="SYMPREC">      0.00001000</i>
  </separator>
  <separator name="dos" >
   <i type="int" name="LORBIT">     0</i>
   <v name="RWIGS">     -1.00000000     -1.00000000     -1.00000000     -1.00000000     -1.00000000</v>
   <i type="int" name="NEDOS">   301</i>
   <i name="EMIN">     10.00000000</i>
   <i name="EMAX">    -10.00000000</i>
   <i name="EFERMI">      0.00000000</i>
  </separator>
  <separator name="writing" >
   <i type="int" name="NWRITE">     2</i>
   <i type="logical" name="LWAVE"> T  </i>
   <i type="logical" name="LDOWNSAMPLE"> F  </i>
   <i type="logical" name="LCHARG"> T  </i>
   <i type="logical" name="LPARD"> F  </i>
   <i type="logical" name="LVTOT"> F  </i>
   <i type="logical" name="LVHAR"> F  </i>
   <i type="logical" name="LELF"> F  </i>
   <i type="logical" name="LOPTICS"> F  </i>
   <v name="STM">      0.00000000      0.00000000      0.00000000      0.00000000      0.00000000      0.00000000      0.00000000</v>
  </separator>
  <separator name="performance" >
   <i type="int" name="NPAR">     8</i>
   <i type="int" name="NSIM">     4</i>
   <i type="int" name="NBLK">    -1</i>
   <i type="logical" name="LPLANE"> T  </i>
   <i type="logical" name="LSCALAPACK"> T  </i>
   <i type="logical" name="LSCAAWARE"> F  </i>
   <i type="logical" name="LSCALU"> F  </i>
   <i type="logical" name="LASYNC"> F  </i>
   <i type="logical" name="LORBITALREAL"> F  </i>
  </separator>
  <separator name="miscellaneous" >
   <i type="int" name="IDIOT">     3</i>
   <i type="int" name="ISPECIAL">     0</i>
   <i type="logical" name="LMUSIC"> F  </i>
   <v name="POMASS">     92.91000000     95.94000000    180.94800000     47.88000000     50.94100000</v>
   <v name="DARWINR">      0.00000000      0.00000000      0.00000000      0.00000000      0.00000000</v>
   <v name="DARWINV">      1.00000000      1.00000000      1.00000000      1.00000000      1.00000000</v>
   <i type="logical" name="LCORR"> T  </i>
  </separator>
  <i type="logical" name="GGA_COMPAT"> T  </i>
  <i type="logical" name="LBERRY"> F  </i>
  <i type="int" name="ICORELEVEL">     0</i>
  <i type="logical" name="LDAU"> F  </i>
  <i type="int" name="I_CONSTRAINED_M">     0</i>
  <separator name="electronic exchange-correlation" >
   <i type="string" name="GGA">PS</i>
   <i type="int" name="VOSKOWN">     0</i>
   <i type="logical" name="LHFCALC"> F  </i>
   <i type="string" name="PRECFOCK"></i>
   <i type="logical" name="LSYMGRAD"> F  </i>
   <i type="logical" name="LHFONE"> F  </i>
   <i type="logical" name="LRHFCALC"> F  </i>
   <i type="logical" name="LTHOMAS"> F  </i>
   <i type="logical" name="LMODELHF"> F  </i>
   <i name="ENCUT4O">     -1.00000000</i>
   <i type="int" name="EXXOEP">     0</i>
   <i type="int" name="FOURORBIT">     0</i>
   <i name="AEXX">      0.00000000</i>
   <i name="HFALPHA">      0.00000000</i>
   <i name="MCALPHA">      0.00000000</i>
   <i name="ALDAX">      1.00000000</i>
   <i name="AGGAX">      1.00000000</i>
   <i name="ALDAC">      1.00000000</i>
   <i name="AGGAC">      1.00000000</i>
   <i type="int" name="NKREDX">     1</i>
   <i type="int" name="NKREDY">     1</i>
   <i type="int" name="NKREDZ">     1</i>
   <i type="logical" name="SHIFTRED"> F  </i>
   <i type="logical" name="ODDONLY"> F  </i>
   <i type="logical" name="EVENONLY"> F  </i>
   <i type="int" name="LMAXFOCK">     0</i>
   <i type="int" name="NMAXFOCKAE">     0</i>
   <i type="logical" name="LFOCKAEDFT"> F  </i>
   <i name="HFSCREEN">      0.00000000</i>
   <i name="HFSCREENC">      0.00000000</i>
   <i type="int" name="NBANDSGWLOW">     0</i>
  </separator>
  <separator name="vdW DFT" >
   <i type="logical" name="LUSE_VDW"> F  </i>
   <i name="Zab_VDW">     -0.84910000</i>
   <i name="PARAM1">      0.12340000</i>
   <i name="PARAM2">      1.00000000</i>
   <i name="PARAM3">      0.00000000</i>
  </separator>
  <separator name="model GW" >
   <i type="int" name="MODEL_GW">     0</i>
   <i name="MODEL_EPS0">      9.83040000</i>
   <i name="MODEL_ALPHA">      1.00000000</i>
  </separator>
  <separator name="linear response parameters" >
   <i type="logical" name="LEPSILON"> F  </i>
   <i type="logical" name="LRPA"> F  </i>
   <i type="logical" name="LNABLA"> F  </i>
   <i type="logical" name="LVEL"> F  </i>
   <i type="int" name="KINTER">     0</i>
   <i name="CSHIFT">      0.10000000</i>
   <i name="OMEGAMAX">     -1.00000000</i>
   <i name="DEG_THRESHOLD">      0.00200000</i>
   <i name="RTIME">     -0.10000000</i>
   <i name="WPLASMAI">      0.00000000</i>
   <v name="DFIELD">      0.00000000      0.00000000      0.00000000</v>
   <v name="WPLASMA">      0.00000000      0.00000000      0.00000000      0.00000000      0.00000000      0.00000000      0.00000000      0.00000000      0.00000000</v>
  </separator>
  <separator name="orbital magnetization" >
   <i type="logical" name="NUCIND"> F  </i>
   <v name="MAGPOS">      0.00000000      0.00000000      0.00000000</v>
   <i type="logical" name="LNICSALL"> T  </i>
   <i type="logical" name="ORBITALMAG"> F  </i>
   <i type="logical" name="LMAGBLOCH"> F  </i>
   <i type="logical" name="LCHIMAG"> F  </i>
   <i type="logical" name="LGAUGE"> T  </i>
   <i type="int" name="MAGATOM">     0</i>
   <v name="MAGDIPOL">      0.00000000      0.00000000      0.00000000</v>
   <v name="AVECCONST">      0.00000000      0.00000000      0.00000000</v>
  </separator>
  <separator name="response functions" >
   <i type="logical" name="LADDER"> F  </i>
   <i type="logical" name="LRPAFORCE"> F  </i>
   <i type="logical" name="LFXC"> F  </i>
   <i type="logical" name="LHARTREE"> T  </i>
   <i type="int" name="IBSE">     0</i>
   <v type="int" name="KPOINT">    -1     0     0     0</v>
   <i type="logical" name="LTCTE"> F  </i>
   <i type="logical" name="LTETE"> F  </i>
   <i type="logical" name="LTRIPLET"> F  </i>
   <i type="logical" name="LFXCEPS"> F  </i>
   <i type="logical" name="LFXHEG"> F  </i>
   <i type="int" name="NATURALO">     2</i>
   <i type="logical" name="L2ORDER"> F  </i>
   <i type="logical" name="LMP2LT"> F  </i>
   <i type="logical" name="LUSEW"> F  </i>
   <i name="ENCUTGW">     -2.00000000</i>
   <i name="ENCUTGWSOFT">     -2.00000000</i>
   <i name="ENCUTLF">     -1.00000000</i>
   <i type="int" name="LMAXMP2">    -1</i>
   <i name="SCISSOR">      0.00000000</i>
   <i type="int" name="NOMEGA">     0</i>
   <i type="int" name="NOMEGAR">     0</i>
   <i type="int" name="NBANDSGW">    -1</i>
   <i type="int" name="NBANDSO">    -1</i>
   <i type="int" name="NBANDSV">    -1</i>
   <i type="int" name="NELM">   100</i>
   <i type="int" name="NELMHF">     1</i>
   <i type="int" name="DIM">     3</i>
   <i type="int" name="ANTIRES">     0</i>
   <i name="OMEGAMAX">    -30.00000000</i>
   <i name="OMEGAMIN">    -30.00000000</i>
   <i name="OMEGATL">   -200.00000000</i>
   <i type="int" name="OMEGAGRID">   140</i>
   <i name="CSHIFT">     -0.10000000</i>
   <i type="logical" name="SELFENERGY"> F  </i>
   <i type="logical" name="LSPECTRAL"> F  </i>
   <i type="logical" name="LSPECTRALGW"> F  </i>
   <i type="logical" name="LSINGLES"> F  </i>
   <i type="logical" name="LFERMIGW"> F  </i>
   <i type="logical" name="ODDONLYGW"> F  </i>
   <i type="logical" name="EVENONLYGW"> F  </i>
   <i type="int" name="NKREDLFX">     1</i>
   <i type="int" name="NKREDLFY">     1</i>
   <i type="int" name="NKREDLFZ">     1</i>
   <i type="int" name="MAXMEM">  2800</i>
   <i type="int" name="TELESCOPE">     0</i>
   <i type="int" name="TAUPAR">     1</i>
   <i type="int" name="OMEGAPAR">    -1</i>
   <i name="LAMBDA">      1.00000000</i>
  </separator>
  <separator name="External order field" >
   <i name="OFIELD_KAPPA">      0.00000000</i>
   <v name="OFIELD_K">      0.00000000      0.00000000      0.00000000</v>
   <i name="OFIELD_Q6_NEAR">      0.00000000</i>
   <i name="OFIELD_Q6_FAR">      0.00000000</i>
   <i name="OFIELD_A">      0.00000000</i>
  </separator>
  <separator name="solvation model" >
   <i type="logical" name="LSOL"> F  </i>
  </separator>
 </parameters>
 <atominfo>
  <atoms>      30 </atoms>
  <types>       5 </types>
  <array name="atoms" >
   <dimension dim="1">ion</dimension>
   <field type="string">element</field>
   <field type="int">atomtype</field>
   <set>
    <rc><c>Nb</c><c>   1</c></rc>
    <rc><c>Nb</c><c>   1</c></rc>
    <rc><c>Nb</c><c>   1</c></rc>
    <rc><c>Nb</c><c>   1</c></rc>
    <rc><c>Nb</c><c>   1</c></rc>
    <rc><c>Nb</c><c>   1</c></rc>
    <rc><c>Mo</c><c>   2</c></rc>
    <rc><c>Mo</c><c>   2</c></rc>
    <rc><c>Mo</c><c>   2</c></rc>
    <rc><c>Mo</c><c>   2</c></rc>
    <rc><c>Mo</c><c>   2</c></rc>
    <rc><c>Mo</c><c>   2</c></rc>
    <rc><c>Ta</c><c>   3</c></rc>
    <rc><c>Ta</c><c>   3</c></rc>
    <rc><c>Ta</c><c>   3</c></rc>
    <rc><c>Ta</c><c>   3</c></rc>
    <rc><c>Ta</c><c>   3</c></rc>
    <rc><c>Ta</c><c>   3</c></rc>
    <rc><c>Ti</c><c>   4</c></rc>
    <rc><c>Ti</c><c>   4</c></rc>
    <rc><c>Ti</c><c>   4</c></rc>
    <rc><c>Ti</c><c>   4</c></rc>
    <rc><c>Ti</c><c>   4</c></rc>
    <rc><c>Ti</c><c>   4</c></rc>
    <rc><c>V </c><c>   5</c></rc>
    <rc><c>V </c><c>   5</c></rc>
    <rc><c>V </c><c>   5</c></rc>
    <rc><c>V </c><c>   5</c></rc>
    <rc><c>V </c><c>   5</c></rc>
    <rc><c>V </c><c>   5</c></rc>
   </set>
  </array>
  <array name="atomtypes" >
   <dimension dim="1">type</dimension>
   <field type="int">atomspertype</field>
   <field type="string">element</field>
   <field>mass</field>
   <field>valence</field>
   <field type="string">pseudopotential</field>
   <set>
    <rc><c>   6</c><c>Nb</c><c>     92.91000000</c><c>     13.00000000</c><c>  PAW_PBE Nb_sv 25May2007               </c></rc>
    <rc><c>   6</c><c>Mo</c><c>     95.94000000</c><c>      6.00000000</c><c>  PAW_PBE Mo 08Apr2002                  </c></rc>
    <rc><c>   6</c><c>Ta</c><c>    180.94800000</c><c>      5.00000000</c><c>  PAW_PBE Ta 17Jan2003                  </c></rc>
    <rc><c>   6</c><c>Ti</c><c>     47.88000000</c><c>      4.00000000</c><c>  PAW_PBE Ti 08Apr2002                  </c></rc>
    <rc><c>   6</c><c>V </c><c>     50.94100000</c><c>      5.00000000</c><c>  PAW_PBE V 08Apr2002                   </c></rc>
   </set>
  </array>
 </atominfo>
 <structure name="initialpos" >
  <crystal>
   <varray name="basis" >
    <v>      -3.20000000      -3.20000000      -3.20000000 </v>
    <v>       1.60000000       1.60000000      -8.00000000 </v>
    <v>       8.00000000      -8.00000000      -1.60000000 </v>
   </varray>
   <i name="volume">    491.52000000 </i>
   <varray name="rec_basis" >
    <v>      -0.13541667      -0.12500000      -0.05208333 </v>
    <v>       0.04166667       0.06250000      -0.10416667 </v>
    <v>       0.06250000      -0.06250000       0.00000000 </v>
   </varray>
  </crystal>
  <varray name="positions" >
   <v>       0.96666667       0.93333333       0.40000000 </v>
   <v>       0.63333333       0.26666667       0.40000000 </v>
   <v>       0.50000000       0.00000000       0.00000000 </v>
   <v>       0.00000000       0.00000000       0.00000000 </v>
   <v>       0.10000000       0.20000000       0.80000000 </v>
   <v>       0.03333333       0.06666667       0.60000000 </v>
   <v>       0.90000000       0.80000000       0.20000000 </v>
   <v>       0.80000000       0.60000000       0.40000000 </v>
   <v>       0.73333333       0.46666667       0.20000000 </v>
   <v>       0.66666667       0.33333333       0.00000000 </v>
   <v>       0.36666667       0.73333333       0.60000000 </v>
   <v>       0.13333333       0.26666667       0.40000000 </v>
   <v>       0.83333333       0.66666667       0.00000000 </v>
   <v>       0.93333333       0.86666667       0.80000000 </v>
   <v>       0.56666667       0.13333333       0.20000000 </v>
   <v>       0.40000000       0.80000000       0.20000000 </v>
   <v>       0.43333333       0.86666667       0.80000000 </v>
   <v>       0.30000000       0.60000000       0.40000000 </v>
   <v>       0.86666667       0.73333333       0.60000000 </v>
   <v>       0.46666667       0.93333333       0.40000000 </v>
   <v>       0.16666667       0.33333333       0.00000000 </v>
   <v>       0.26666667       0.53333333       0.80000000 </v>
   <v>       0.20000000       0.40000000       0.60000000 </v>
   <v>       0.06666667       0.13333333       0.20000000 </v>
   <v>       0.76666667       0.53333333       0.80000000 </v>
   <v>       0.70000000       0.40000000       0.60000000 </v>
   <v>       0.60000000       0.20000000       0.80000000 </v>
   <v>       0.53333333       0.06666667       0.60000000 </v>
   <v>       0.33333333       0.66666667       0.00000000 </v>
   <v>       0.23333333       0.46666667       0.20000000 </v>
  </varray>
 </structure>
 <calculation>
  <scstep>
   <time name="dav">   29.20   29.24</time>
   <time name="total">   29.82   29.87</time>
   <energy>
    <i name="alphaZ">   1184.50276941 </i>
    <i name="ewald"> -11390.27323190 </i>
    <i name="hartreedc">  -2690.69747101 </i>
    <i name="XCdc">   -873.35485441 </i>
    <i name="pawpsdc">  61400.72230136 </i>
    <i name="pawaedc"> -59923.89756337 </i>
    <i name="eentropy">      0.00379585 </i>
    <i name="bandstr">  -1479.40783103 </i>
    <i name="atom">  13005.90793652 </i>
    <i name="e_fr_energy">   -766.49414857 </i>
    <i name="e_wo_entrp">   -766.49794442 </i>
    <i name="e_0_energy">   -766.49541385 </i>
   </energy>
  </scstep>
  <scstep>
   <time name="dav">   29.97   30.13</time>
   <time name="total">   30.58   30.76</time>
   <energy>
    <i name="e_fr_energy">   -735.28576812 </i>
    <i name="e_wo_entrp">   -735.28631442 </i>
    <i name="e_0_energy">   -735.28595022 </i>
   </energy>
  </scstep>
  <scstep>
   <time name="dav">   28.07   28.12</time>
   <time name="total">   28.68   28.73</time>
   <energy>
    <i name="e_fr_energy">   -535.13355646 </i>
    <i name="e_wo_entrp">   -535.13047658 </i>
    <i name="e_0_energy">   -535.13252983 </i>
   </energy>
  </scstep>
  <scstep>
   <time name="dav">   30.28   30.32</time>
   <time name="total">   30.88   30.93</time>
   <energy>
    <i name="e_fr_energy">   -369.90573717 </i>
    <i name="e_wo_entrp">   -369.90609783 </i>
    <i name="e_0_energy">   -369.90585739 </i>
   </energy>
  </scstep>
  <scstep>
   <time name="dav">   30.55   30.59</time>
   <time name="total">   31.18   31.23</time>
   <energy>
    <i name="e_fr_energy">   -428.49060392 </i>
    <i name="e_wo_entrp">   -428.49502950 </i>
    <i name="e_0_energy">   -428.49207912 </i>
   </energy>
  </scstep>
  <scstep>
   <time name="dav">   29.11   29.15</time>
   <time name="total">   29.72   29.76</time>
   <energy>
    <i name="e_fr_energy">   -410.30807007 </i>
    <i name="e_wo_entrp">   -410.30995803 </i>
    <i name="e_0_energy">   -410.30869939 </i>
   </energy>
  </scstep>
  <scstep>
   <time name="dav">   27.17   27.21</time>
   <time name="total">   27.79   27.84</time>
   <energy>
    <i name="e_fr_energy">   -368.95239269 </i>
    <i name="e_wo_entrp">   -368.94034377 </i>
    <i name="e_0_energy">   -368.94837638 </i>
   </energy>
  </scstep>
  <scstep>
   <time name="dav">   27.74   27.79</time>
   <time name="total">   28.35   28.39</time>
   <energy>
    <i name="e_fr_energy">   -339.75297930 </i>
    <i name="e_wo_entrp">   -339.74685934 </i>
    <i name="e_0_energy">   -339.75093931 </i>
   </energy>
  </scstep>
  <scstep>
   <time name="dav">   28.96   29.01</time>
   <time name="total">   29.58   29.63</time>
   <energy>
    <i name="e_fr_energy">   -328.64057247 </i>
    <i name="e_wo_entrp">   -328.63403548 </i>
    <i name="e_0_energy">   -328.63839347 </i>
   </energy>
  </scstep>
  <scstep>
   <time name="dav">   27.57   27.61</time>
   <time name="total">   28.18   28.22</time>
   <energy>
    <i name="e_fr_energy">   -324.49758285 </i>
    <i name="e_wo_entrp">   -324.49481243 </i>
    <i name="e_0_energy">   -324.49665938 </i>
   </energy>
  </scstep>
  <scstep>
   <time name="dav">   28.34   28.39</time>
   <time name="total">   28.94   28.99</time>
   <energy>
    <i name="e_fr_energy">   -323.33571956 </i>
    <i name="e_wo_entrp">   -323.33264956 </i>
    <i name="e_0_energy">   -323.33469623 </i>
   </energy>
  </scstep>
  <scstep>
   <time name="dav">   26.54   26.59</time>
   <time name="total">   27.15   27.22</time>
   <energy>
    <i name="e_fr_energy">   -320.79471228 </i>
    <i name="e_wo_entrp">   -320.79817343 </i>
    <i name="e_0_energy">   -320.79586600 </i>
   </energy>
  </scstep>
  <scstep>
   <time name="dav">   28.38   28.41</time>
   <time name="total">   28.99   29.04</time>
   <energy>
    <i name="e_fr_energy">   -320.54924732 </i>
    <i name="e_wo_entrp">   -320.53940757 </i>
    <i name="e_0_energy">   -320.54596740 </i>
   </energy>
  </scstep>
  <scstep>
   <time name="dav">   27.43   27.46</time>
   <time name="total">   28.03   28.06</time>
   <energy>
    <i name="e_fr_energy">   -319.31129220 </i>
    <i name="e_wo_entrp">   -319.29461461 </i>
    <i name="e_0_energy">   -319.30573300 </i>
   </energy>
  </scstep>
  <scstep>
   <time name="dav">   28.53   28.57</time>
   <time name="total">   29.13   29.17</time>
   <energy>
    <i name="e_fr_energy">   -319.12519724 </i>
    <i name="e_wo_entrp">   -319.11949211 </i>
    <i name="e_0_energy">   -319.12329553 </i>
   </energy>
  </scstep>
  <scstep>
   <time name="dav">   27.40   27.54</time>
   <time name="total">   28.01   28.18</time>
   <energy>
    <i name="e_fr_energy">   -319.01067937 </i>
    <i name="e_wo_entrp">   -319.00676196 </i>
    <i name="e_0_energy">   -319.00937357 </i>
   </energy>
  </scstep>
  <scstep>
   <time name="dav">   28.67   28.71</time>
   <time name="total">   29.27   29.32</time>
   <energy>
    <i name="e_fr_energy">   -319.00423301 </i>
    <i name="e_wo_entrp">   -318.99960351 </i>
    <i name="e_0_energy">   -319.00268984 </i>
   </energy>
  </scstep>
  <scstep>
   <time name="dav">   28.46   28.49</time>
   <time name="total">   29.07   29.10</time>
   <energy>
    <i name="e_fr_energy">   -318.72796910 </i>
    <i name="e_wo_entrp">   -318.71952251 </i>
    <i name="e_0_energy">   -318.72515357 </i>
   </energy>
  </scstep>
  <scstep>
   <time name="dav">   29.16   29.19</time>
   <time name="total">   29.77   29.80</time>
   <energy>
    <i name="e_fr_energy">   -318.67144605 </i>
    <i name="e_wo_entrp">   -318.66217807 </i>
    <i name="e_0_energy">   -318.66835672 </i>
   </energy>
  </scstep>
  <scstep>
   <time name="dav">   28.20   28.23</time>
   <time name="total">   28.81   28.84</time>
   <energy>
    <i name="e_fr_energy">   -318.60222841 </i>
    <i name="e_wo_entrp">   -318.59494494 </i>
    <i name="e_0_energy">   -318.59980058 </i>
   </energy>
  </scstep>
  <scstep>
   <time name="dav">   28.19   28.22</time>
   <time name="total">   28.80   28.83</time>
   <energy>
    <i name="e_fr_energy">   -318.57611666 </i>
    <i name="e_wo_entrp">   -318.56682642 </i>
    <i name="e_0_energy">   -318.57301991 </i>
   </energy>
  </scstep>
  <scstep>
   <time name="dav">   29.00   29.03</time>
   <time name="total">   29.60   29.64</time>
   <energy>
    <i name="e_fr_energy">   -318.55485958 </i>
    <i name="e_wo_entrp">   -318.54621150 </i>
    <i name="e_0_energy">   -318.55197689 </i>
   </energy>
  </scstep>
  <scstep>
   <time name="dav">   27.43   27.47</time>
   <time name="total">   28.04   28.08</time>
   <energy>
    <i name="e_fr_energy">   -318.52712018 </i>
    <i name="e_wo_entrp">   -318.51733521 </i>
    <i name="e_0_energy">   -318.52385852 </i>
   </energy>
  </scstep>
  <scstep>
   <time name="dav">   28.82   28.85</time>
   <time name="total">   29.42   29.45</time>
   <energy>
    <i name="e_fr_energy">   -318.50349605 </i>
    <i name="e_wo_entrp">   -318.49316309 </i>
    <i name="e_0_energy">   -318.50005173 </i>
   </energy>
  </scstep>
  <scstep>
   <time name="dav">   29.21   29.24</time>
   <time name="total">   29.82   29.85</time>
   <energy>
    <i name="e_fr_energy">   -318.47894618 </i>
    <i name="e_wo_entrp">   -318.46830749 </i>
    <i name="e_0_energy">   -318.47539995 </i>
   </energy>
  </scstep>
  <scstep>
   <time name="dav">   26.84   26.87</time>
   <time name="total">   27.44   27.47</time>
   <energy>
    <i name="e_fr_energy">   -318.46158450 </i>
    <i name="e_wo_entrp">   -318.45048431 </i>
    <i name="e_0_energy">   -318.45788444 </i>
   </energy>
  </scstep>
  <scstep>
   <time name="dav">   27.86   27.90</time>
   <time name="total">   28.47   28.50</time>
   <energy>
    <i name="e_fr_energy">   -318.45206229 </i>
    <i name="e_wo_entrp">   -318.44074118 </i>
    <i name="e_0_energy">   -318.44828858 </i>
   </energy>
  </scstep>
  <scstep>
   <time name="dav">   27.12   27.15</time>
   <time name="total">   27.74   27.77</time>
   <energy>
    <i name="e_fr_energy">   -318.45038129 </i>
    <i name="e_wo_entrp">   -318.43895023 </i>
    <i name="e_0_energy">   -318.44657094 </i>
   </energy>
  </scstep>
  <scstep>
   <time name="dav">   26.48   26.51</time>
   <time name="total">   27.09   27.12</time>
   <energy>
    <i name="e_fr_energy">   -318.44923692 </i>
    <i name="e_wo_entrp">   -318.43770617 </i>
    <i name="e_0_energy">   -318.44539334 </i>
   </energy>
  </scstep>
  <scstep>
   <time name="dav">   23.98   24.00</time>
   <time name="total">   24.61   24.63</time>
   <energy>
    <i name="e_fr_energy">   -318.44927078 </i>
    <i name="e_wo_entrp">   -318.43770656 </i>
    <i name="e_0_energy">   -318.44541604 </i>
   </energy>
  </scstep>
  <scstep>
   <time name="dav">   25.06   25.08</time>
   <time name="total">   25.67   25.71</time>
   <energy>
    <i name="e_fr_energy">   -318.44865287 </i>
    <i name="e_wo_entrp">   -318.43694248 </i>
    <i name="e_0_energy">   -318.44474940 </i>
   </energy>
  </scstep>
  <scstep>
   <time name="dav">   17.54   17.55</time>
   <time name="total">   17.57   17.59</time>
   <energy>
    <i name="alphaZ">   1184.50276941 </i>
    <i name="ewald"> -11390.27323190 </i>
    <i name="hartreedc">  -2986.59171506 </i>
    <i name="XCdc">   -889.44170336 </i>
    <i name="pawpsdc">  18422.87130226 </i>
    <i name="pawaedc"> -16913.21263018 </i>
    <i name="eentropy">     -0.01159435 </i>
    <i name="bandstr">   -752.19979100 </i>
    <i name="atom">  13005.90793652 </i>
    <i name="e_fr_energy">   -318.44865766 </i>
    <i name="e_wo_entrp">   -318.43706331 </i>
    <i name="e_0_energy">   -318.44479288 </i>
   </energy>
  </scstep>
  <structure>
   <crystal>
    <varray name="basis" >
     <v>      -3.20000000      -3.20000000      -3.20000000 </v>
     <v>       1.60000000       1.60000000      -8.00000000 </v>
     <v>       8.00000000      -8.00000000      -1.60000000 </v>
    </varray>
    <i name="volume">    491.52000000 </i>
    <varray name="rec_basis" >
     <v>      -0.13541667      -0.12500000      -0.05208333 </v>
     <v>       0.04166667       0.06250000      -0.10416667 </v>
     <v>       0.06250000      -0.06250000       0.00000000 </v>
    </varray>
   </crystal>
   <varray name="positions" >
    <v>       0.96666667       0.93333333       0.40000000 </v>
    <v>       0.63333333       0.26666667       0.40000000 </v>
    <v>       0.50000000       0.00000000       0.00000000 </v>
    <v>       0.00000000       0.00000000       0.00000000 </v>
    <v>       0.10000000       0.20000000       0.80000000 </v>
    <v>       0.03333333       0.06666667       0.60000000 </v>
    <v>       0.90000000       0.80000000       0.20000000 </v>
    <v>       0.80000000       0.60000000       0.40000000 </v>
    <v>       0.73333333       0.46666667       0.20000000 </v>
    <v>       0.66666667       0.33333333       0.00000000 </v>
    <v>       0.36666667       0.73333333       0.60000000 </v>
    <v>       0.13333333       0.26666667       0.40000000 </v>
    <v>       0.83333333       0.66666667       0.00000000 </v>
    <v>       0.93333333       0.86666667       0.80000000 </v>
    <v>       0.56666667       0.13333333       0.20000000 </v>
    <v>       0.40000000       0.80000000       0.20000000 </v>
    <v>       0.43333333       0.86666667       0.80000000 </v>
    <v>       0.30000000       0.60000000       0.40000000 </v>
    <v>       0.86666667       0.73333333       0.60000000 </v>
    <v>       0.46666667       0.93333333       0.40000000 </v>
    <v>       0.16666667       0.33333333       0.00000000 </v>
    <v>       0.26666667       0.53333333       0.80000000 </v>
    <v>       0.20000000       0.40000000       0.60000000 </v>
    <v>       0.06666667       0.13333333       0.20000000 </v>
    <v>       0.76666667       0.53333333       0.80000000 </v>
    <v>       0.70000000       0.40000000       0.60000000 </v>
    <v>       0.60000000       0.20000000       0.80000000 </v>
    <v>       0.53333333       0.06666667       0.60000000 </v>
    <v>       0.33333333       0.66666667       0.00000000 </v>
    <v>       0.23333333       0.46666667       0.20000000 </v>
   </varray>
  </structure>
  <varray name="forces" >
   <v>       0.01439191       0.44122535       0.24799882 </v>
   <v>       0.27898132      -0.09344330      -0.00287090 </v>
   <v>      -0.12474835       0.33020821      -0.17508414 </v>
   <v>       0.25303852      -0.02433210      -0.01312155 </v>
   <v>      -0.04452598       0.63574011      -0.46392886 </v>
   <v>      -0.25897154       0.23884973      -0.31767172 </v>
   <v>       0.01544818      -0.52335189       0.15863279 </v>
   <v>      -0.58483624      -0.26041217       0.58200725 </v>
   <v>      -0.13847809       0.30145433       0.03251417 </v>
   <v>       0.17496377       0.44252897      -0.55547977 </v>
   <v>      -0.10694426      -0.33265534       0.24975208 </v>
   <v>       0.14073970       0.18028476      -0.61235389 </v>
   <v>       0.14961536      -0.44997326       0.40952529 </v>
   <v>       0.25691059       0.32266250      -0.07659936 </v>
   <v>      -0.28555154       0.46692107      -0.14263546 </v>
   <v>      -0.73110183      -0.13351047       0.76153378 </v>
   <v>      -0.80899976      -0.10470840       0.63804713 </v>
   <v>       0.31101927      -0.29989949      -0.25705512 </v>
   <v>       0.06561276       0.23135622       0.45459614 </v>
   <v>       0.53507369      -0.49871572       0.14525347 </v>
   <v>      -0.02695003      -0.17112215      -0.38613152 </v>
   <v>      -0.31865203      -0.01504155      -0.28659149 </v>
   <v>      -0.24813492      -0.04943172       0.51698047 </v>
   <v>       0.62259713      -0.13893337      -0.82119144 </v>
   <v>       0.09899429      -0.38747693       0.54174427 </v>
   <v>       0.52439111       0.15611166      -0.39779987 </v>
   <v>       0.02484144       0.21038684      -0.16655577 </v>
   <v>       0.18862398      -0.45281401      -0.44488303 </v>
   <v>      -0.23314057      -0.23462538       0.54837031 </v>
   <v>       0.25579214       0.21271749      -0.16700209 </v>
  </varray>
  <varray name="stress" >
   <v>     -64.59976426      -3.38054811       1.54444332 </v>
   <v>      -3.38054801     -67.34925549      -0.22111217 </v>
   <v>       1.54444335      -0.22111221     -66.17922793 </v>
  </varray>
  <energy>
   <i name="e_fr_energy">   -318.44865766 </i>
   <i name="e_wo_entrp">   -318.44479288 </i>
   <i name="e_0_energy">     -0.01159435 </i>
  </energy>
  <time name="totalsc">  930.96  937.04</time>
  <eigenvalues>
   <array>
    <dimension dim="1">band</dimension>
    <dimension dim="2">kpoint</dimension>
    <dimension dim="3">spin</dimension>
    <field>eigene</field>
    <field>occ</field>
    <set>
     <set comment="spin 1">
      <set comment="kpoint 1">
       <r>  -47.6646    1.0000 </r>
       <r>  -47.6439    1.0000 </r>
       <r>  -47.6048    1.0000 </r>
       <r>  -47.5597    1.0000 </r>
       <r>  -47.5300    1.0000 </r>
       <r>  -47.4346    1.0000 </r>
       <r>  -24.3491    1.0000 </r>
       <r>  -24.2082    1.0000 </r>
       <r>  -24.0628    1.0000 </r>
       <r>  -24.0218    1.0000 </r>
       <r>  -23.8138    1.0000 </r>
       <r>  -23.8085    1.0000 </r>
       <r>  -23.8045    1.0000 </r>
       <r>  -23.7582    1.0000 </r>
       <r>  -23.7431    1.0000 </r>
       <r>  -23.7252    1.0000 </r>
       <r>  -23.7039    1.0000 </r>
       <r>  -23.6602    1.0000 </r>
       <r>  -23.6185    1.0000 </r>
       <r>  -23.6010    1.0000 </r>
       <r>  -23.4732    1.0000 </r>
       <r>  -23.4558    1.0000 </r>
       <r>  -23.3169    1.0000 </r>
       <r>  -23.1012    1.0000 </r>
       <r>   -0.3536    1.0000 </r>
       <r>    0.9216    1.0000 </r>
       <r>    1.2769    1.0000 </r>
       <r>    2.0888    1.0000 </r>
       <r>    2.2438    1.0000 </r>
       <r>    2.3153    1.0000 </r>
       <r>    2.4318    1.0000 </r>
       <r>    2.5621    1.0000 </r>
       <r>    2.6000    1.0000 </r>
       <r>    2.6879    1.0000 </r>
       <r>    2.7323    1.0000 </r>
       <r>    2.8077    1.0000 </r>
       <r>    2.8673    1.0000 </r>
       <r>    2.9133    1.0000 </r>
       <r>    3.0434    1.0000 </r>
       <r>    3.0794    1.0000 </r>
       <r>    3.1630    1.0000 </r>
       <r>    3.2703    1.0000 </r>
       <r>    3.3737    1.0000 </r>
       <r>    3.4133    1.0000 </r>
       <r>    3.4752    1.0000 </r>
       <r>    3.5269    1.0000 </r>
       <r>    3.5914    1.0000 </r>
       <r>    3.6072    1.0000 </r>
       <r>    3.7455    1.0000 </r>
       <r>    3.7896    1.0000 </r>
       <r>    3.8771    1.0000 </r>
       <r>    3.9377    1.0000 </r>
       <r>    4.0099    1.0000 </r>
       <r>    4.0467    1.0000 </r>
       <r>    4.1830    1.0000 </r>
       <r>    4.2484    1.0000 </r>
       <r>    4.3290    1.0000 </r>
       <r>    4.3720    1.0000 </r>
       <r>    4.5190    1.0000 </r>
       <r>    4.5538    1.0000 </r>
       <r>    4.6329    1.0000 </r>
       <r>    4.6784    1.0000 </r>
       <r>    4.6856    1.0000 </r>
       <r>    4.7739    1.0000 </r>
       <r>    4.7791    1.0000 </r>
       <r>    4.8703    1.0000 </r>
       <r>    4.8854    1.0000 </r>
       <r>    4.9684    1.0000 </r>
       <r>    4.9869    1.0000 </r>
       <r>    5.0364    1.0000 </r>
       <r>    5.0914    1.0000 </r>
       <r>    5.1183    1.0000 </r>
       <r>    5.1797    1.0000 </r>
       <r>    5.2253    1.0000 </r>
       <r>    5.2365    1.0000 </r>
       <r>    5.2509    1.0000 </r>
       <r>    5.2732    1.0000 </r>
       <r>    5.3882    1.0000 </r>
       <r>    5.4511    1.0000 </r>
       <r>    5.5377    1.0000 </r>
       <r>    5.6996    1.0000 </r>
       <r>    5.7481    1.0001 </r>
       <r>    5.7974    1.0002 </r>
       <r>    5.8334    1.0006 </r>
       <r>    5.8773    1.0015 </r>
       <r>    5.9385    1.0052 </r>
       <r>    5.9955    1.0128 </r>
       <r>    6.0217    1.0180 </r>
       <r>    6.0423    1.0226 </r>
       <r>    6.0511    1.0247 </r>
       <r>    6.0760    1.0302 </r>
       <r>    6.1132    1.0353 </r>
       <r>    6.1398    1.0336 </r>
       <r>    6.1965    0.9993 </r>
       <r>    6.3536    0.5448 </r>
       <r>    6.3820    0.4250 </r>
       <r>    6.4685    0.1183 </r>
       <r>    6.4761    0.0989 </r>
       <r>    6.5179    0.0185 </r>
       <r>    6.6057   -0.0354 </r>
       <r>    6.6613   -0.0283 </r>
       <r>    6.7001   -0.0195 </r>
       <r>    6.7815   -0.0060 </r>
       <r>    6.7935   -0.0048 </r>
       <r>    6.8013   -0.0042 </r>
       <r>    6.8987   -0.0005 </r>
       <r>    7.1324   -0.0000 </r>
       <r>    7.2801   -0.0000 </r>
       <r>    7.3087   -0.0000 </r>
       <r>    7.3929   -0.0000 </r>
       <r>    7.7859   -0.0000 </r>
       <r>    7.9435   -0.0000 </r>
       <r>    8.0818   -0.0000 </r>
       <r>    8.1711   -0.0000 </r>
       <r>    8.2071   -0.0000 </r>
       <r>    8.2341   -0.0000 </r>
       <r>    8.2527   -0.0000 </r>
       <r>    8.2840   -0.0000 </r>
       <r>    8.3691   -0.0000 </r>
       <r>    8.3935   -0.0000 </r>
      </set>
      <set comment="kpoint 2">
       <r>  -47.6627    1.0000 </r>
       <r>  -47.6385    1.0000 </r>
       <r>  -47.6023    1.0000 </r>
       <r>  -47.5587    1.0000 </r>
       <r>  -47.5293    1.0000 </r>
       <r>  -47.4456    1.0000 </r>
       <r>  -24.2603    1.0000 </r>
       <r>  -24.1956    1.0000 </r>
       <r>  -24.0565    1.0000 </r>
       <r>  -24.0159    1.0000 </r>
       <r>  -23.8151    1.0000 </r>
       <r>  -23.8105    1.0000 </r>
       <r>  -23.7997    1.0000 </r>
       <r>  -23.7599    1.0000 </r>
       <r>  -23.7420    1.0000 </r>
       <r>  -23.7291    1.0000 </r>
       <r>  -23.7060    1.0000 </r>
       <r>  -23.6629    1.0000 </r>
       <r>  -23.6280    1.0000 </r>
       <r>  -23.6035    1.0000 </r>
       <r>  -23.4785    1.0000 </r>
       <r>  -23.4608    1.0000 </r>
       <r>  -23.3188    1.0000 </r>
       <r>  -23.2196    1.0000 </r>
       <r>   -0.0479    1.0000 </r>
       <r>    1.1915    1.0000 </r>
       <r>    1.5357    1.0000 </r>
       <r>    2.1199    1.0000 </r>
       <r>    2.4534    1.0000 </r>
       <r>    2.5500    1.0000 </r>
       <r>    2.5982    1.0000 </r>
       <r>    2.7277    1.0000 </r>
       <r>    2.7543    1.0000 </r>
       <r>    2.7965    1.0000 </r>
       <r>    2.9265    1.0000 </r>
       <r>    2.9978    1.0000 </r>
       <r>    3.0470    1.0000 </r>
       <r>    3.1397    1.0000 </r>
       <r>    3.1837    1.0000 </r>
       <r>    3.2416    1.0000 </r>
       <r>    3.2877    1.0000 </r>
       <r>    3.3301    1.0000 </r>
       <r>    3.3982    1.0000 </r>
       <r>    3.4453    1.0000 </r>
       <r>    3.5724    1.0000 </r>
       <r>    3.6095    1.0000 </r>
       <r>    3.6764    1.0000 </r>
       <r>    3.7758    1.0000 </r>
       <r>    3.8212    1.0000 </r>
       <r>    3.8322    1.0000 </r>
       <r>    3.9511    1.0000 </r>
       <r>    4.0267    1.0000 </r>
       <r>    4.0604    1.0000 </r>
       <r>    4.1462    1.0000 </r>
       <r>    4.2029    1.0000 </r>
       <r>    4.2800    1.0000 </r>
       <r>    4.3523    1.0000 </r>
       <r>    4.4347    1.0000 </r>
       <r>    4.5528    1.0000 </r>
       <r>    4.6065    1.0000 </r>
       <r>    4.6666    1.0000 </r>
       <r>    4.7975    1.0000 </r>
       <r>    4.8124    1.0000 </r>
       <r>    4.8844    1.0000 </r>
       <r>    4.9172    1.0000 </r>
       <r>    4.9490    1.0000 </r>
       <r>    4.9968    1.0000 </r>
       <r>    5.0590    1.0000 </r>
       <r>    5.0754    1.0000 </r>
       <r>    5.0857    1.0000 </r>
       <r>    5.1577    1.0000 </r>
       <r>    5.1859    1.0000 </r>
       <r>    5.2468    1.0000 </r>
       <r>    5.2630    1.0000 </r>
       <r>    5.3447    1.0000 </r>
       <r>    5.3749    1.0000 </r>
       <r>    5.3928    1.0000 </r>
       <r>    5.4239    1.0000 </r>
       <r>    5.4665    1.0000 </r>
       <r>    5.5110    1.0000 </r>
       <r>    5.5203    1.0000 </r>
       <r>    5.6185    1.0000 </r>
       <r>    5.6688    1.0000 </r>
       <r>    5.7299    1.0000 </r>
       <r>    5.7742    1.0001 </r>
       <r>    5.8225    1.0004 </r>
       <r>    5.8507    1.0009 </r>
       <r>    5.9406    1.0054 </r>
       <r>    6.0303    1.0199 </r>
       <r>    6.0496    1.0243 </r>
       <r>    6.0852    1.0320 </r>
       <r>    6.1234    1.0354 </r>
       <r>    6.1499    1.0310 </r>
       <r>    6.1874    1.0086 </r>
       <r>    6.2790    0.8268 </r>
       <r>    6.2969    0.7677 </r>
       <r>    6.3490    0.5640 </r>
       <r>    6.3789    0.4379 </r>
       <r>    6.4450    0.1870 </r>
       <r>    6.4838    0.0808 </r>
       <r>    6.5098    0.0308 </r>
       <r>    6.5612   -0.0235 </r>
       <r>    6.6375   -0.0329 </r>
       <r>    6.6704   -0.0263 </r>
       <r>    6.6968   -0.0202 </r>
       <r>    6.7493   -0.0101 </r>
       <r>    6.7630   -0.0082 </r>
       <r>    6.9711   -0.0001 </r>
       <r>    7.0606   -0.0000 </r>
       <r>    7.1614   -0.0000 </r>
       <r>    7.4665   -0.0000 </r>
       <r>    7.5010   -0.0000 </r>
       <r>    7.5527   -0.0000 </r>
       <r>    7.6025   -0.0000 </r>
       <r>    7.7000   -0.0000 </r>
       <r>    7.8560   -0.0000 </r>
       <r>    7.9084   -0.0000 </r>
       <r>    7.9647   -0.0000 </r>
       <r>    7.9818   -0.0000 </r>
       <r>    8.0193   -0.0000 </r>
      </set>
      <set comment="kpoint 3">
       <r>  -47.6605    1.0000 </r>
       <r>  -47.6300    1.0000 </r>
       <r>  -47.5957    1.0000 </r>
       <r>  -47.5555    1.0000 </r>
       <r>  -47.5271    1.0000 </r>
       <r>  -47.4675    1.0000 </r>
       <r>  -24.2185    1.0000 </r>
       <r>  -24.0762    1.0000 </r>
       <r>  -24.0315    1.0000 </r>
       <r>  -23.9124    1.0000 </r>
       <r>  -23.8217    1.0000 </r>
       <r>  -23.8134    1.0000 </r>
       <r>  -23.7881    1.0000 </r>
       <r>  -23.7612    1.0000 </r>
       <r>  -23.7410    1.0000 </r>
       <r>  -23.7288    1.0000 </r>
       <r>  -23.7099    1.0000 </r>
       <r>  -23.6676    1.0000 </r>
       <r>  -23.6497    1.0000 </r>
       <r>  -23.6082    1.0000 </r>
       <r>  -23.5472    1.0000 </r>
       <r>  -23.4826    1.0000 </r>
       <r>  -23.4504    1.0000 </r>
       <r>  -23.3136    1.0000 </r>
       <r>    0.7743    1.0000 </r>
       <r>    1.7082    1.0000 </r>
       <r>    2.0374    1.0000 </r>
       <r>    2.2532    1.0000 </r>
       <r>    2.3330    1.0000 </r>
       <r>    2.7056    1.0000 </r>
       <r>    2.7593    1.0000 </r>
       <r>    2.9360    1.0000 </r>
       <r>    3.0423    1.0000 </r>
       <r>    3.1307    1.0000 </r>
       <r>    3.1927    1.0000 </r>
       <r>    3.2312    1.0000 </r>
       <r>    3.3151    1.0000 </r>
       <r>    3.3404    1.0000 </r>
       <r>    3.4344    1.0000 </r>
       <r>    3.4929    1.0000 </r>
       <r>    3.5565    1.0000 </r>
       <r>    3.5951    1.0000 </r>
       <r>    3.6106    1.0000 </r>
       <r>    3.6986    1.0000 </r>
       <r>    3.8025    1.0000 </r>
       <r>    3.8101    1.0000 </r>
       <r>    3.8729    1.0000 </r>
       <r>    3.9023    1.0000 </r>
       <r>    4.0074    1.0000 </r>
       <r>    4.0370    1.0000 </r>
       <r>    4.1674    1.0000 </r>
       <r>    4.2193    1.0000 </r>
       <r>    4.2782    1.0000 </r>
       <r>    4.3603    1.0000 </r>
       <r>    4.4271    1.0000 </r>
       <r>    4.4880    1.0000 </r>
       <r>    4.5592    1.0000 </r>
       <r>    4.6041    1.0000 </r>
       <r>    4.6327    1.0000 </r>
       <r>    4.6911    1.0000 </r>
       <r>    4.7242    1.0000 </r>
       <r>    4.7671    1.0000 </r>
       <r>    4.8228    1.0000 </r>
       <r>    4.8530    1.0000 </r>
       <r>    4.8840    1.0000 </r>
       <r>    4.9686    1.0000 </r>
       <r>    4.9909    1.0000 </r>
       <r>    5.0199    1.0000 </r>
       <r>    5.0599    1.0000 </r>
       <r>    5.1169    1.0000 </r>
       <r>    5.1701    1.0000 </r>
       <r>    5.2178    1.0000 </r>
       <r>    5.2550    1.0000 </r>
       <r>    5.2992    1.0000 </r>
       <r>    5.3484    1.0000 </r>
       <r>    5.4032    1.0000 </r>
       <r>    5.4578    1.0000 </r>
       <r>    5.4838    1.0000 </r>
       <r>    5.4968    1.0000 </r>
       <r>    5.5392    1.0000 </r>
       <r>    5.6292    1.0000 </r>
       <r>    5.6785    1.0000 </r>
       <r>    5.7106    1.0000 </r>
       <r>    5.7516    1.0001 </r>
       <r>    5.8000    1.0002 </r>
       <r>    5.8461    1.0008 </r>
       <r>    5.9005    1.0025 </r>
       <r>    5.9367    1.0050 </r>
       <r>    5.9786    1.0100 </r>
       <r>    6.0035    1.0143 </r>
       <r>    6.0325    1.0204 </r>
       <r>    6.0658    1.0280 </r>
       <r>    6.1030    1.0345 </r>
       <r>    6.1283    1.0351 </r>
       <r>    6.1346    1.0345 </r>
       <r>    6.2205    0.9661 </r>
       <r>    6.2590    0.8839 </r>
       <r>    6.2918    0.7851 </r>
       <r>    6.3368    0.6145 </r>
       <r>    6.3427    0.5905 </r>
       <r>    6.3890    0.3960 </r>
       <r>    6.4338    0.2244 </r>
       <r>    6.4453    0.1862 </r>
       <r>    6.5275    0.0059 </r>
       <r>    6.5316    0.0011 </r>
       <r>    6.6033   -0.0353 </r>
       <r>    6.6569   -0.0292 </r>
       <r>    6.6824   -0.0235 </r>
       <r>    6.7101   -0.0173 </r>
       <r>    6.7770   -0.0065 </r>
       <r>    6.8145   -0.0033 </r>
       <r>    6.8600   -0.0013 </r>
       <r>    7.1388   -0.0000 </r>
       <r>    7.2587   -0.0000 </r>
       <r>    7.2804   -0.0000 </r>
       <r>    7.4045   -0.0000 </r>
       <r>    7.4886   -0.0000 </r>
       <r>    7.5088   -0.0000 </r>
       <r>    7.6232   -0.0000 </r>
       <r>    7.7261   -0.0000 </r>
      </set>
      <set comment="kpoint 4">
       <r>  -47.6644    1.0000 </r>
       <r>  -47.6438    1.0000 </r>
       <r>  -47.6048    1.0000 </r>
       <r>  -47.5599    1.0000 </r>
       <r>  -47.5300    1.0000 </r>
       <r>  -47.4346    1.0000 </r>
       <r>  -24.3491    1.0000 </r>
       <r>  -24.2072    1.0000 </r>
       <r>  -24.0595    1.0000 </r>
       <r>  -24.0209    1.0000 </r>
       <r>  -23.8140    1.0000 </r>
       <r>  -23.8086    1.0000 </r>
       <r>  -23.8045    1.0000 </r>
       <r>  -23.7583    1.0000 </r>
       <r>  -23.7431    1.0000 </r>
       <r>  -23.7251    1.0000 </r>
       <r>  -23.7038    1.0000 </r>
       <r>  -23.6602    1.0000 </r>
       <r>  -23.6186    1.0000 </r>
       <r>  -23.6011    1.0000 </r>
       <r>  -23.4754    1.0000 </r>
       <r>  -23.4591    1.0000 </r>
       <r>  -23.3172    1.0000 </r>
       <r>  -23.1012    1.0000 </r>
       <r>   -0.2250    1.0000 </r>
       <r>    0.9854    1.0000 </r>
       <r>    1.3958    1.0000 </r>
       <r>    1.6134    1.0000 </r>
       <r>    2.1981    1.0000 </r>
       <r>    2.3816    1.0000 </r>
       <r>    2.4573    1.0000 </r>
       <r>    2.5896    1.0000 </r>
       <r>    2.5987    1.0000 </r>
       <r>    2.6859    1.0000 </r>
       <r>    2.7725    1.0000 </r>
       <r>    2.8352    1.0000 </r>
       <r>    2.8816    1.0000 </r>
       <r>    2.9351    1.0000 </r>
       <r>    3.0067    1.0000 </r>
       <r>    3.0393    1.0000 </r>
       <r>    3.1709    1.0000 </r>
       <r>    3.2167    1.0000 </r>
       <r>    3.3348    1.0000 </r>
       <r>    3.4110    1.0000 </r>
       <r>    3.4978    1.0000 </r>
       <r>    3.5754    1.0000 </r>
       <r>    3.5978    1.0000 </r>
       <r>    3.7066    1.0000 </r>
       <r>    3.7339    1.0000 </r>
       <r>    3.8158    1.0000 </r>
       <r>    3.8856    1.0000 </r>
       <r>    3.9588    1.0000 </r>
       <r>    3.9856    1.0000 </r>
       <r>    4.0368    1.0000 </r>
       <r>    4.1115    1.0000 </r>
       <r>    4.1924    1.0000 </r>
       <r>    4.2920    1.0000 </r>
       <r>    4.4554    1.0000 </r>
       <r>    4.5388    1.0000 </r>
       <r>    4.6001    1.0000 </r>
       <r>    4.6417    1.0000 </r>
       <r>    4.7445    1.0000 </r>
       <r>    4.7784    1.0000 </r>
       <r>    4.8275    1.0000 </r>
       <r>    4.8722    1.0000 </r>
       <r>    4.9048    1.0000 </r>
       <r>    4.9590    1.0000 </r>
       <r>    5.0138    1.0000 </r>
       <r>    5.0320    1.0000 </r>
       <r>    5.0633    1.0000 </r>
       <r>    5.1152    1.0000 </r>
       <r>    5.1454    1.0000 </r>
       <r>    5.1823    1.0000 </r>
       <r>    5.2410    1.0000 </r>
       <r>    5.2840    1.0000 </r>
       <r>    5.3092    1.0000 </r>
       <r>    5.3579    1.0000 </r>
       <r>    5.3770    1.0000 </r>
       <r>    5.4885    1.0000 </r>
       <r>    5.5183    1.0000 </r>
       <r>    5.7075    1.0000 </r>
       <r>    5.7276    1.0000 </r>
       <r>    5.7966    1.0002 </r>
       <r>    5.8269    1.0005 </r>
       <r>    5.8620    1.0011 </r>
       <r>    5.8811    1.0017 </r>
       <r>    5.9151    1.0033 </r>
       <r>    5.9657    1.0082 </r>
       <r>    6.0030    1.0142 </r>
       <r>    6.0229    1.0183 </r>
       <r>    6.0575    1.0261 </r>
       <r>    6.0988    1.0341 </r>
       <r>    6.1365    1.0342 </r>
       <r>    6.1713    1.0211 </r>
       <r>    6.2253    0.9580 </r>
       <r>    6.2345    0.9406 </r>
       <r>    6.3002    0.7562 </r>
       <r>    6.3647    0.4978 </r>
       <r>    6.4165    0.2868 </r>
       <r>    6.6527   -0.0301 </r>
       <r>    6.7170   -0.0158 </r>
       <r>    6.7403   -0.0115 </r>
       <r>    6.7948   -0.0047 </r>
       <r>    6.8800   -0.0008 </r>
       <r>    6.9496   -0.0001 </r>
       <r>    6.9772   -0.0001 </r>
       <r>    7.1074   -0.0000 </r>
       <r>    7.2939   -0.0000 </r>
       <r>    7.3287   -0.0000 </r>
       <r>    7.3989   -0.0000 </r>
       <r>    7.5305   -0.0000 </r>
       <r>    7.5806   -0.0000 </r>
       <r>    7.7051   -0.0000 </r>
       <r>    7.9377   -0.0000 </r>
       <r>    8.0110   -0.0000 </r>
       <r>    8.1371   -0.0000 </r>
       <r>    8.1626   -0.0000 </r>
       <r>    8.2176   -0.0000 </r>
       <r>    8.2575   -0.0000 </r>
       <r>    8.2970   -0.0000 </r>
      </set>
      <set comment="kpoint 5">
       <r>  -47.6628    1.0000 </r>
       <r>  -47.6387    1.0000 </r>
       <r>  -47.6023    1.0000 </r>
       <r>  -47.5585    1.0000 </r>
       <r>  -47.5292    1.0000 </r>
       <r>  -47.4456    1.0000 </r>
       <r>  -24.2605    1.0000 </r>
       <r>  -24.1965    1.0000 </r>
       <r>  -24.0600    1.0000 </r>
       <r>  -24.0163    1.0000 </r>
       <r>  -23.8151    1.0000 </r>
       <r>  -23.8105    1.0000 </r>
       <r>  -23.7996    1.0000 </r>
       <r>  -23.7599    1.0000 </r>
       <r>  -23.7419    1.0000 </r>
       <r>  -23.7290    1.0000 </r>
       <r>  -23.7060    1.0000 </r>
       <r>  -23.6629    1.0000 </r>
       <r>  -23.6280    1.0000 </r>
       <r>  -23.6035    1.0000 </r>
       <r>  -23.4768    1.0000 </r>
       <r>  -23.4571    1.0000 </r>
       <r>  -23.3185    1.0000 </r>
       <r>  -23.2196    1.0000 </r>
       <r>   -0.0432    1.0000 </r>
       <r>    1.1526    1.0000 </r>
       <r>    1.5642    1.0000 </r>
       <r>    2.0983    1.0000 </r>
       <r>    2.4092    1.0000 </r>
       <r>    2.5336    1.0000 </r>
       <r>    2.5562    1.0000 </r>
       <r>    2.6560    1.0000 </r>
       <r>    2.7046    1.0000 </r>
       <r>    2.7880    1.0000 </r>
       <r>    2.8475    1.0000 </r>
       <r>    2.9450    1.0000 </r>
       <r>    3.0438    1.0000 </r>
       <r>    3.0969    1.0000 </r>
       <r>    3.1541    1.0000 </r>
       <r>    3.2005    1.0000 </r>
       <r>    3.2570    1.0000 </r>
       <r>    3.2746    1.0000 </r>
       <r>    3.4756    1.0000 </r>
       <r>    3.5149    1.0000 </r>
       <r>    3.5672    1.0000 </r>
       <r>    3.6377    1.0000 </r>
       <r>    3.7005    1.0000 </r>
       <r>    3.7686    1.0000 </r>
       <r>    3.8710    1.0000 </r>
       <r>    3.9231    1.0000 </r>
       <r>    3.9482    1.0000 </r>
       <r>    4.0388    1.0000 </r>
       <r>    4.1217    1.0000 </r>
       <r>    4.1824    1.0000 </r>
       <r>    4.2423    1.0000 </r>
       <r>    4.2993    1.0000 </r>
       <r>    4.4026    1.0000 </r>
       <r>    4.4857    1.0000 </r>
       <r>    4.5612    1.0000 </r>
       <r>    4.6386    1.0000 </r>
       <r>    4.6918    1.0000 </r>
       <r>    4.7113    1.0000 </r>
       <r>    4.7995    1.0000 </r>
       <r>    4.8174    1.0000 </r>
       <r>    4.8531    1.0000 </r>
       <r>    4.9401    1.0000 </r>
       <r>    4.9705    1.0000 </r>
       <r>    5.0073    1.0000 </r>
       <r>    5.0496    1.0000 </r>
       <r>    5.0718    1.0000 </r>
       <r>    5.1064    1.0000 </r>
       <r>    5.1271    1.0000 </r>
       <r>    5.1529    1.0000 </r>
       <r>    5.2088    1.0000 </r>
       <r>    5.2389    1.0000 </r>
       <r>    5.3058    1.0000 </r>
       <r>    5.3815    1.0000 </r>
       <r>    5.4064    1.0000 </r>
       <r>    5.4796    1.0000 </r>
       <r>    5.5508    1.0000 </r>
       <r>    5.6026    1.0000 </r>
       <r>    5.6606    1.0000 </r>
       <r>    5.7290    1.0000 </r>
       <r>    5.7461    1.0001 </r>
       <r>    5.7908    1.0002 </r>
       <r>    5.8581    1.0010 </r>
       <r>    5.9042    1.0027 </r>
       <r>    5.9722    1.0091 </r>
       <r>    5.9916    1.0121 </r>
       <r>    6.0375    1.0215 </r>
       <r>    6.0686    1.0286 </r>
       <r>    6.0982    1.0340 </r>
       <r>    6.1328    1.0347 </r>
       <r>    6.1550    1.0292 </r>
       <r>    6.2502    0.9060 </r>
       <r>    6.2903    0.7902 </r>
       <r>    6.3497    0.5612 </r>
       <r>    6.4138    0.2969 </r>
       <r>    6.4770    0.0968 </r>
       <r>    6.5207    0.0146 </r>
       <r>    6.5648   -0.0255 </r>
       <r>    6.6189   -0.0351 </r>
       <r>    6.6727   -0.0257 </r>
       <r>    6.7164   -0.0160 </r>
       <r>    6.7430   -0.0111 </r>
       <r>    6.7941   -0.0048 </r>
       <r>    6.8528   -0.0015 </r>
       <r>    6.9047   -0.0004 </r>
       <r>    6.9914   -0.0000 </r>
       <r>    7.0351   -0.0000 </r>
       <r>    7.1165   -0.0000 </r>
       <r>    7.4565   -0.0000 </r>
       <r>    7.7938   -0.0000 </r>
       <r>    7.8978   -0.0000 </r>
       <r>    7.9693   -0.0000 </r>
       <r>    8.0013   -0.0000 </r>
       <r>    8.1498   -0.0000 </r>
       <r>    8.2128   -0.0000 </r>
       <r>    8.2509   -0.0000 </r>
       <r>    8.3273   -0.0000 </r>
      </set>
      <set comment="kpoint 6">
       <r>  -47.6608    1.0000 </r>
       <r>  -47.6302    1.0000 </r>
       <r>  -47.5956    1.0000 </r>
       <r>  -47.5552    1.0000 </r>
       <r>  -47.5270    1.0000 </r>
       <r>  -47.4675    1.0000 </r>
       <r>  -24.2198    1.0000 </r>
       <r>  -24.0795    1.0000 </r>
       <r>  -24.0353    1.0000 </r>
       <r>  -23.9124    1.0000 </r>
       <r>  -23.8217    1.0000 </r>
       <r>  -23.8134    1.0000 </r>
       <r>  -23.7880    1.0000 </r>
       <r>  -23.7612    1.0000 </r>
       <r>  -23.7409    1.0000 </r>
       <r>  -23.7287    1.0000 </r>
       <r>  -23.7100    1.0000 </r>
       <r>  -23.6677    1.0000 </r>
       <r>  -23.6496    1.0000 </r>
       <r>  -23.6082    1.0000 </r>
       <r>  -23.5472    1.0000 </r>
       <r>  -23.4756    1.0000 </r>
       <r>  -23.4483    1.0000 </r>
       <r>  -23.3132    1.0000 </r>
       <r>    0.6801    1.0000 </r>
       <r>    1.6499    1.0000 </r>
       <r>    2.0017    1.0000 </r>
       <r>    2.2045    1.0000 </r>
       <r>    2.3410    1.0000 </r>
       <r>    2.4757    1.0000 </r>
       <r>    2.7908    1.0000 </r>
       <r>    2.9867    1.0000 </r>
       <r>    3.0700    1.0000 </r>
       <r>    3.1489    1.0000 </r>
       <r>    3.2265    1.0000 </r>
       <r>    3.2508    1.0000 </r>
       <r>    3.3335    1.0000 </r>
       <r>    3.3861    1.0000 </r>
       <r>    3.3981    1.0000 </r>
       <r>    3.5096    1.0000 </r>
       <r>    3.5803    1.0000 </r>
       <r>    3.5992    1.0000 </r>
       <r>    3.6828    1.0000 </r>
       <r>    3.7175    1.0000 </r>
       <r>    3.7598    1.0000 </r>
       <r>    3.7992    1.0000 </r>
       <r>    3.8725    1.0000 </r>
       <r>    3.9475    1.0000 </r>
       <r>    4.0064    1.0000 </r>
       <r>    4.0778    1.0000 </r>
       <r>    4.1249    1.0000 </r>
       <r>    4.1986    1.0000 </r>
       <r>    4.2551    1.0000 </r>
       <r>    4.2851    1.0000 </r>
       <r>    4.3488    1.0000 </r>
       <r>    4.4028    1.0000 </r>
       <r>    4.4558    1.0000 </r>
       <r>    4.5379    1.0000 </r>
       <r>    4.6046    1.0000 </r>
       <r>    4.7242    1.0000 </r>
       <r>    4.7499    1.0000 </r>
       <r>    4.7691    1.0000 </r>
       <r>    4.8325    1.0000 </r>
       <r>    4.8830    1.0000 </r>
       <r>    4.9199    1.0000 </r>
       <r>    4.9733    1.0000 </r>
       <r>    5.0034    1.0000 </r>
       <r>    5.0523    1.0000 </r>
       <r>    5.0871    1.0000 </r>
       <r>    5.1336    1.0000 </r>
       <r>    5.1842    1.0000 </r>
       <r>    5.1975    1.0000 </r>
       <r>    5.2364    1.0000 </r>
       <r>    5.2970    1.0000 </r>
       <r>    5.3295    1.0000 </r>
       <r>    5.3729    1.0000 </r>
       <r>    5.3965    1.0000 </r>
       <r>    5.4941    1.0000 </r>
       <r>    5.5338    1.0000 </r>
       <r>    5.5970    1.0000 </r>
       <r>    5.6166    1.0000 </r>
       <r>    5.6766    1.0000 </r>
       <r>    5.7229    1.0000 </r>
       <r>    5.7459    1.0001 </r>
       <r>    5.7694    1.0001 </r>
       <r>    5.7894    1.0002 </r>
       <r>    5.8718    1.0014 </r>
       <r>    5.8808    1.0017 </r>
       <r>    5.9315    1.0045 </r>
       <r>    5.9697    1.0087 </r>
       <r>    5.9962    1.0129 </r>
       <r>    6.0341    1.0208 </r>
       <r>    6.0552    1.0256 </r>
       <r>    6.0975    1.0339 </r>
       <r>    6.1219    1.0354 </r>
       <r>    6.1515    1.0305 </r>
       <r>    6.1945    1.0014 </r>
       <r>    6.2244    0.9596 </r>
       <r>    6.2445    0.9193 </r>
       <r>    6.2805    0.8222 </r>
       <r>    6.3220    0.6742 </r>
       <r>    6.3799    0.4336 </r>
       <r>    6.4192    0.2767 </r>
       <r>    6.4601    0.1414 </r>
       <r>    6.5039    0.0406 </r>
       <r>    6.5261    0.0076 </r>
       <r>    6.6483   -0.0310 </r>
       <r>    6.7522   -0.0097 </r>
       <r>    6.7974   -0.0045 </r>
       <r>    6.8814   -0.0008 </r>
       <r>    6.9525   -0.0001 </r>
       <r>    7.2894   -0.0000 </r>
       <r>    7.4079   -0.0000 </r>
       <r>    7.4692   -0.0000 </r>
       <r>    7.5475   -0.0000 </r>
       <r>    7.6614   -0.0000 </r>
       <r>    7.7242   -0.0000 </r>
       <r>    7.7840   -0.0000 </r>
       <r>    7.8496   -0.0000 </r>
       <r>    7.8887   -0.0000 </r>
      </set>
      <set comment="kpoint 7">
       <r>  -47.6605    1.0000 </r>
       <r>  -47.6300    1.0000 </r>
       <r>  -47.5957    1.0000 </r>
       <r>  -47.5555    1.0000 </r>
       <r>  -47.5271    1.0000 </r>
       <r>  -47.4675    1.0000 </r>
       <r>  -24.2185    1.0000 </r>
       <r>  -24.0762    1.0000 </r>
       <r>  -24.0315    1.0000 </r>
       <r>  -23.9124    1.0000 </r>
       <r>  -23.8218    1.0000 </r>
       <r>  -23.8133    1.0000 </r>
       <r>  -23.7881    1.0000 </r>
       <r>  -23.7612    1.0000 </r>
       <r>  -23.7409    1.0000 </r>
       <r>  -23.7287    1.0000 </r>
       <r>  -23.7099    1.0000 </r>
       <r>  -23.6676    1.0000 </r>
       <r>  -23.6497    1.0000 </r>
       <r>  -23.6082    1.0000 </r>
       <r>  -23.5472    1.0000 </r>
       <r>  -23.4826    1.0000 </r>
       <r>  -23.4504    1.0000 </r>
       <r>  -23.3136    1.0000 </r>
       <r>    1.0354    1.0000 </r>
       <r>    1.6895    1.0000 </r>
       <r>    1.8138    1.0000 </r>
       <r>    2.1025    1.0000 </r>
       <r>    2.3815    1.0000 </r>
       <r>    2.6091    1.0000 </r>
       <r>    2.6988    1.0000 </r>
       <r>    2.8223    1.0000 </r>
       <r>    3.0537    1.0000 </r>
       <r>    3.1323    1.0000 </r>
       <r>    3.2134    1.0000 </r>
       <r>    3.2544    1.0000 </r>
       <r>    3.2970    1.0000 </r>
       <r>    3.3794    1.0000 </r>
       <r>    3.4185    1.0000 </r>
       <r>    3.4859    1.0000 </r>
       <r>    3.5334    1.0000 </r>
       <r>    3.5767    1.0000 </r>
       <r>    3.6498    1.0000 </r>
       <r>    3.7068    1.0000 </r>
       <r>    3.7759    1.0000 </r>
       <r>    3.8673    1.0000 </r>
       <r>    3.9104    1.0000 </r>
       <r>    3.9935    1.0000 </r>
       <r>    4.0680    1.0000 </r>
       <r>    4.1250    1.0000 </r>
       <r>    4.1482    1.0000 </r>
       <r>    4.2096    1.0000 </r>
       <r>    4.2634    1.0000 </r>
       <r>    4.3675    1.0000 </r>
       <r>    4.4517    1.0000 </r>
       <r>    4.5478    1.0000 </r>
       <r>    4.6023    1.0000 </r>
       <r>    4.6363    1.0000 </r>
       <r>    4.6461    1.0000 </r>
       <r>    4.6810    1.0000 </r>
       <r>    4.6989    1.0000 </r>
       <r>    4.7720    1.0000 </r>
       <r>    4.7844    1.0000 </r>
       <r>    4.8552    1.0000 </r>
       <r>    4.8875    1.0000 </r>
       <r>    4.9454    1.0000 </r>
       <r>    5.0005    1.0000 </r>
       <r>    5.0453    1.0000 </r>
       <r>    5.0686    1.0000 </r>
       <r>    5.0914    1.0000 </r>
       <r>    5.0984    1.0000 </r>
       <r>    5.2059    1.0000 </r>
       <r>    5.2357    1.0000 </r>
       <r>    5.2742    1.0000 </r>
       <r>    5.3425    1.0000 </r>
       <r>    5.3576    1.0000 </r>
       <r>    5.4058    1.0000 </r>
       <r>    5.4318    1.0000 </r>
       <r>    5.5271    1.0000 </r>
       <r>    5.5782    1.0000 </r>
       <r>    5.5910    1.0000 </r>
       <r>    5.6534    1.0000 </r>
       <r>    5.6736    1.0000 </r>
       <r>    5.7187    1.0000 </r>
       <r>    5.8269    1.0005 </r>
       <r>    5.8577    1.0010 </r>
       <r>    5.9042    1.0027 </r>
       <r>    5.9296    1.0044 </r>
       <r>    5.9778    1.0099 </r>
       <r>    6.0035    1.0143 </r>
       <r>    6.0607    1.0269 </r>
       <r>    6.0715    1.0292 </r>
       <r>    6.1056    1.0348 </r>
       <r>    6.1404    1.0335 </r>
       <r>    6.1763    1.0177 </r>
       <r>    6.2278    0.9535 </r>
       <r>    6.2574    0.8881 </r>
       <r>    6.2999    0.7569 </r>
       <r>    6.3248    0.6632 </r>
       <r>    6.3624    0.5075 </r>
       <r>    6.3962    0.3663 </r>
       <r>    6.4294    0.2398 </r>
       <r>    6.4696    0.1154 </r>
       <r>    6.5123    0.0268 </r>
       <r>    6.5259    0.0079 </r>
       <r>    6.5663   -0.0262 </r>
       <r>    6.6062   -0.0354 </r>
       <r>    6.6282   -0.0342 </r>
       <r>    6.7232   -0.0146 </r>
       <r>    6.7801   -0.0061 </r>
       <r>    6.9131   -0.0004 </r>
       <r>    6.9398   -0.0002 </r>
       <r>    6.9699   -0.0001 </r>
       <r>    7.0838   -0.0000 </r>
       <r>    7.3575   -0.0000 </r>
       <r>    7.5215   -0.0000 </r>
       <r>    7.7284   -0.0000 </r>
       <r>    7.7405   -0.0000 </r>
       <r>    7.7940   -0.0000 </r>
       <r>    7.8578   -0.0000 </r>
      </set>
      <set comment="kpoint 8">
       <r>  -47.6624    1.0000 </r>
       <r>  -47.6383    1.0000 </r>
       <r>  -47.6023    1.0000 </r>
       <r>  -47.5590    1.0000 </r>
       <r>  -47.5294    1.0000 </r>
       <r>  -47.4456    1.0000 </r>
       <r>  -24.2601    1.0000 </r>
       <r>  -24.1942    1.0000 </r>
       <r>  -24.0506    1.0000 </r>
       <r>  -24.0148    1.0000 </r>
       <r>  -23.8153    1.0000 </r>
       <r>  -23.8105    1.0000 </r>
       <r>  -23.7998    1.0000 </r>
       <r>  -23.7599    1.0000 </r>
       <r>  -23.7419    1.0000 </r>
       <r>  -23.7290    1.0000 </r>
       <r>  -23.7059    1.0000 </r>
       <r>  -23.6628    1.0000 </r>
       <r>  -23.6281    1.0000 </r>
       <r>  -23.6036    1.0000 </r>
       <r>  -23.4833    1.0000 </r>
       <r>  -23.4653    1.0000 </r>
       <r>  -23.3193    1.0000 </r>
       <r>  -23.2196    1.0000 </r>
       <r>    0.1870    1.0000 </r>
       <r>    1.2961    1.0000 </r>
       <r>    1.5434    1.0000 </r>
       <r>    1.7381    1.0000 </r>
       <r>    2.2916    1.0000 </r>
       <r>    2.6077    1.0000 </r>
       <r>    2.6960    1.0000 </r>
       <r>    2.7845    1.0000 </r>
       <r>    2.8081    1.0000 </r>
       <r>    2.8498    1.0000 </r>
       <r>    2.9870    1.0000 </r>
       <r>    3.0227    1.0000 </r>
       <r>    3.0386    1.0000 </r>
       <r>    3.1093    1.0000 </r>
       <r>    3.1311    1.0000 </r>
       <r>    3.1810    1.0000 </r>
       <r>    3.2355    1.0000 </r>
       <r>    3.3014    1.0000 </r>
       <r>    3.3856    1.0000 </r>
       <r>    3.4575    1.0000 </r>
       <r>    3.5286    1.0000 </r>
       <r>    3.5981    1.0000 </r>
       <r>    3.6706    1.0000 </r>
       <r>    3.7756    1.0000 </r>
       <r>    3.8163    1.0000 </r>
       <r>    3.8990    1.0000 </r>
       <r>    3.9327    1.0000 </r>
       <r>    4.0003    1.0000 </r>
       <r>    4.0643    1.0000 </r>
       <r>    4.1627    1.0000 </r>
       <r>    4.2201    1.0000 </r>
       <r>    4.2835    1.0000 </r>
       <r>    4.4612    1.0000 </r>
       <r>    4.5123    1.0000 </r>
       <r>    4.5829    1.0000 </r>
       <r>    4.6462    1.0000 </r>
       <r>    4.7328    1.0000 </r>
       <r>    4.7791    1.0000 </r>
       <r>    4.8089    1.0000 </r>
       <r>    4.8917    1.0000 </r>
       <r>    4.9721    1.0000 </r>
       <r>    4.9847    1.0000 </r>
       <r>    5.0576    1.0000 </r>
       <r>    5.0903    1.0000 </r>
       <r>    5.1223    1.0000 </r>
       <r>    5.1408    1.0000 </r>
       <r>    5.2364    1.0000 </r>
       <r>    5.2649    1.0000 </r>
       <r>    5.2762    1.0000 </r>
       <r>    5.3239    1.0000 </r>
       <r>    5.3557    1.0000 </r>
       <r>    5.4191    1.0000 </r>
       <r>    5.4481    1.0000 </r>
       <r>    5.4628    1.0000 </r>
       <r>    5.4900    1.0000 </r>
       <r>    5.5537    1.0000 </r>
       <r>    5.5708    1.0000 </r>
       <r>    5.6044    1.0000 </r>
       <r>    5.6335    1.0000 </r>
       <r>    5.6905    1.0000 </r>
       <r>    5.7754    1.0001 </r>
       <r>    5.8552    1.0009 </r>
       <r>    5.9003    1.0025 </r>
       <r>    5.9366    1.0050 </r>
       <r>    5.9823    1.0106 </r>
       <r>    6.0183    1.0173 </r>
       <r>    6.0721    1.0294 </r>
       <r>    6.1155    1.0354 </r>
       <r>    6.1455    1.0323 </r>
       <r>    6.2083    0.9846 </r>
       <r>    6.2569    0.8895 </r>
       <r>    6.2749    0.8391 </r>
       <r>    6.3147    0.7025 </r>
       <r>    6.3336    0.6276 </r>
       <r>    6.3710    0.4712 </r>
       <r>    6.4575    0.1489 </r>
       <r>    6.4950    0.0572 </r>
       <r>    6.5185    0.0175 </r>
       <r>    6.5514   -0.0172 </r>
       <r>    6.5802   -0.0316 </r>
       <r>    6.6216   -0.0349 </r>
       <r>    6.6791   -0.0242 </r>
       <r>    6.7173   -0.0158 </r>
       <r>    6.8213   -0.0029 </r>
       <r>    6.9424   -0.0002 </r>
       <r>    6.9913   -0.0000 </r>
       <r>    7.0746   -0.0000 </r>
       <r>    7.2526   -0.0000 </r>
       <r>    7.4762   -0.0000 </r>
       <r>    7.5800   -0.0000 </r>
       <r>    7.6164   -0.0000 </r>
       <r>    7.7091   -0.0000 </r>
       <r>    7.7775   -0.0000 </r>
       <r>    7.8526   -0.0000 </r>
       <r>    7.9033   -0.0000 </r>
       <r>    8.0212   -0.0000 </r>
      </set>
      <set comment="kpoint 9">
       <r>  -47.6642    1.0000 </r>
       <r>  -47.6435    1.0000 </r>
       <r>  -47.6048    1.0000 </r>
       <r>  -47.5603    1.0000 </r>
       <r>  -47.5301    1.0000 </r>
       <r>  -47.4346    1.0000 </r>
       <r>  -24.3491    1.0000 </r>
       <r>  -24.2056    1.0000 </r>
       <r>  -24.0542    1.0000 </r>
       <r>  -24.0192    1.0000 </r>
       <r>  -23.8142    1.0000 </r>
       <r>  -23.8088    1.0000 </r>
       <r>  -23.8045    1.0000 </r>
       <r>  -23.7584    1.0000 </r>
       <r>  -23.7430    1.0000 </r>
       <r>  -23.7249    1.0000 </r>
       <r>  -23.7036    1.0000 </r>
       <r>  -23.6601    1.0000 </r>
       <r>  -23.6186    1.0000 </r>
       <r>  -23.6012    1.0000 </r>
       <r>  -23.4812    1.0000 </r>
       <r>  -23.4626    1.0000 </r>
       <r>  -23.3177    1.0000 </r>
       <r>  -23.1012    1.0000 </r>
       <r>    0.1112    1.0000 </r>
       <r>    0.8720    1.0000 </r>
       <r>    1.2246    1.0000 </r>
       <r>    1.7022    1.0000 </r>
       <r>    2.0125    1.0000 </r>
       <r>    2.2709    1.0000 </r>
       <r>    2.5118    1.0000 </r>
       <r>    2.5446    1.0000 </r>
[...]
       <r>    4.6962    1.0000 </r>
       <r>    4.7474    1.0000 </r>
       <r>    4.7628    1.0000 </r>
       <r>    4.8125    1.0000 </r>
       <r>    4.8700    1.0000 </r>
       <r>    4.9001    1.0000 </r>
       <r>    4.9489    1.0000 </r>
       <r>    5.0067    1.0000 </r>
       <r>    5.0502    1.0000 </r>
       <r>    5.0661    1.0000 </r>
       <r>    5.1736    1.0000 </r>
       <r>    5.2234    1.0000 </r>
       <r>    5.2558    1.0000 </r>
       <r>    5.2817    1.0000 </r>
       <r>    5.3674    1.0000 </r>
       <r>    5.4067    1.0000 </r>
       <r>    5.4405    1.0000 </r>
       <r>    5.4706    1.0000 </r>
       <r>    5.5290    1.0000 </r>
       <r>    5.5626    1.0000 </r>
       <r>    5.6324    1.0000 </r>
       <r>    5.6725    1.0000 </r>
       <r>    5.7257    1.0000 </r>
       <r>    5.7707    1.0001 </r>
       <r>    5.8072    1.0003 </r>
       <r>    5.8365    1.0006 </r>
       <r>    5.8962    1.0023 </r>
       <r>    5.9043    1.0027 </r>
       <r>    5.9539    1.0067 </r>
       <r>    5.9878    1.0115 </r>
       <r>    6.0106    1.0157 </r>
       <r>    6.0361    1.0212 </r>
       <r>    6.0922    1.0331 </r>
       <r>    6.1255    1.0353 </r>
       <r>    6.1423    1.0331 </r>
       <r>    6.1725    1.0203 </r>
       <r>    6.1960    0.9998 </r>
       <r>    6.2349    0.9399 </r>
       <r>    6.2539    0.8969 </r>
       <r>    6.3849    0.4130 </r>
       <r>    6.4422    0.1960 </r>
       <r>    6.5415   -0.0090 </r>
       <r>    6.5671   -0.0266 </r>
       <r>    6.6458   -0.0315 </r>
       <r>    6.6699   -0.0264 </r>
       <r>    6.7716   -0.0071 </r>
       <r>    6.8556   -0.0014 </r>
       <r>    6.9366   -0.0002 </r>
       <r>    7.2371   -0.0000 </r>
       <r>    7.3437   -0.0000 </r>
       <r>    7.3929   -0.0000 </r>
       <r>    7.4331   -0.0000 </r>
       <r>    7.5193   -0.0000 </r>
       <r>    7.9675   -0.0000 </r>
       <r>    8.0256   -0.0000 </r>
       <r>    8.0837   -0.0000 </r>
       <r>    8.1770   -0.0000 </r>
       <r>    8.2054   -0.0000 </r>
       <r>    8.2562   -0.0000 </r>
       <r>    8.3051   -0.0000 </r>
      </set>
     </set>
    </set>
   </array>
  </eigenvalues>
  <separator name="orbital magnetization" >
   <v name="MAGDIPOLOUT">      0.00000000      0.00000000      0.00000000</v>
  </separator>
  <dos>
   <i name="efermi">      6.36419161 </i>
   <total>
    <array>
     <dimension dim="1">gridpoints</dimension>
     <dimension dim="2">spin</dimension>
     <field>energy</field>
     <field>total</field>
     <field>integrated</field>
     <set>
      <set comment="spin 1">
       <r>   -50.4695     0.0000     0.0000 </r>
       <r>   -50.2638     0.0000     0.0000 </r>
       <r>   -50.0581     0.0000     0.0000 </r>
       <r>   -49.8524     0.0000     0.0000 </r>
       <r>   -49.6467     0.0000     0.0000 </r>
       <r>   -49.4410    -0.0000    -0.0000 </r>
       <r>   -49.2353    -0.0000    -0.0000 </r>
       <r>   -49.0296    -0.0000    -0.0000 </r>
       <r>   -48.8239    -0.0000    -0.0000 </r>
       <r>   -48.6182    -0.0000    -0.0000 </r>
       <r>   -48.4125    -0.0000    -0.0000 </r>
       <r>   -48.2068    -0.0070    -0.0014 </r>
       <r>   -48.0011    -0.4437    -0.0927 </r>
       <r>   -47.7955     0.0057    -0.0915 </r>
       <r>   -47.5898    26.5620     5.3722 </r>
       <r>   -47.3841    30.6676    11.6805 </r>
       <r>   -47.1784     2.2333    12.1399 </r>
       <r>   -46.9727    -0.6571    12.0048 </r>
       <r>   -46.7670    -0.0230    12.0000 </r>
       <r>   -46.5613    -0.0001    12.0000 </r>
       <r>   -46.3556    -0.0000    12.0000 </r>
       <r>   -46.1499    -0.0000    12.0000 </r>
       <r>   -45.9442     0.0000    12.0000 </r>
       <r>   -45.7385     0.0000    12.0000 </r>
       <r>   -45.5328     0.0000    12.0000 </r>
       <r>   -45.3271     0.0000    12.0000 </r>
       <r>   -45.1214     0.0000    12.0000 </r>
       <r>   -44.9157     0.0000    12.0000 </r>
       <r>   -44.7100     0.0000    12.0000 </r>
       <r>   -44.5043     0.0000    12.0000 </r>
       <r>   -44.2986     0.0000    12.0000 </r>
       <r>   -44.0929     0.0000    12.0000 </r>
       <r>   -43.8872     0.0000    12.0000 </r>
       <r>   -43.6815     0.0000    12.0000 </r>
       <r>   -43.4758     0.0000    12.0000 </r>
       <r>   -43.2701     0.0000    12.0000 </r>
       <r>   -43.0644     0.0000    12.0000 </r>
       <r>   -42.8587     0.0000    12.0000 </r>
       <r>   -42.6530     0.0000    12.0000 </r>
       <r>   -42.4473     0.0000    12.0000 </r>
       <r>   -42.2416     0.0000    12.0000 </r>
       <r>   -42.0359     0.0000    12.0000 </r>
       <r>   -41.8302     0.0000    12.0000 </r>
       <r>   -41.6245     0.0000    12.0000 </r>
       <r>   -41.4188     0.0000    12.0000 </r>
       <r>   -41.2131     0.0000    12.0000 </r>
       <r>   -41.0074     0.0000    12.0000 </r>
       <r>   -40.8017     0.0000    12.0000 </r>
       <r>   -40.5960     0.0000    12.0000 </r>
       <r>   -40.3903     0.0000    12.0000 </r>
       <r>   -40.1846     0.0000    12.0000 </r>
       <r>   -39.9789     0.0000    12.0000 </r>
       <r>   -39.7732     0.0000    12.0000 </r>
       <r>   -39.5675     0.0000    12.0000 </r>
       <r>   -39.3618     0.0000    12.0000 </r>
       <r>   -39.1561     0.0000    12.0000 </r>
       <r>   -38.9504     0.0000    12.0000 </r>
       <r>   -38.7447     0.0000    12.0000 </r>
       <r>   -38.5390     0.0000    12.0000 </r>
       <r>   -38.3333     0.0000    12.0000 </r>
       <r>   -38.1276     0.0000    12.0000 </r>
       <r>   -37.9219     0.0000    12.0000 </r>
       <r>   -37.7162     0.0000    12.0000 </r>
       <r>   -37.5105     0.0000    12.0000 </r>
       <r>   -37.3048     0.0000    12.0000 </r>
       <r>   -37.0991     0.0000    12.0000 </r>
       <r>   -36.8934     0.0000    12.0000 </r>
       <r>   -36.6877     0.0000    12.0000 </r>
       <r>   -36.4820     0.0000    12.0000 </r>
       <r>   -36.2763     0.0000    12.0000 </r>
       <r>   -36.0706     0.0000    12.0000 </r>
       <r>   -35.8649     0.0000    12.0000 </r>
       <r>   -35.6592     0.0000    12.0000 </r>
       <r>   -35.4535     0.0000    12.0000 </r>
       <r>   -35.2478     0.0000    12.0000 </r>
       <r>   -35.0421     0.0000    12.0000 </r>
       <r>   -34.8364     0.0000    12.0000 </r>
       <r>   -34.6307     0.0000    12.0000 </r>
       <r>   -34.4250     0.0000    12.0000 </r>
       <r>   -34.2193     0.0000    12.0000 </r>
       <r>   -34.0136     0.0000    12.0000 </r>
       <r>   -33.8079     0.0000    12.0000 </r>
       <r>   -33.6022     0.0000    12.0000 </r>
       <r>   -33.3965     0.0000    12.0000 </r>
       <r>   -33.1908     0.0000    12.0000 </r>
       <r>   -32.9851     0.0000    12.0000 </r>
       <r>   -32.7794     0.0000    12.0000 </r>
       <r>   -32.5737     0.0000    12.0000 </r>
       <r>   -32.3680     0.0000    12.0000 </r>
       <r>   -32.1623     0.0000    12.0000 </r>
       <r>   -31.9566     0.0000    12.0000 </r>
       <r>   -31.7509     0.0000    12.0000 </r>
       <r>   -31.5452     0.0000    12.0000 </r>
       <r>   -31.3395     0.0000    12.0000 </r>
       <r>   -31.1338     0.0000    12.0000 </r>
       <r>   -30.9282     0.0000    12.0000 </r>
       <r>   -30.7225     0.0000    12.0000 </r>
       <r>   -30.5168     0.0000    12.0000 </r>
       <r>   -30.3111     0.0000    12.0000 </r>
       <r>   -30.1054     0.0000    12.0000 </r>
       <r>   -29.8997     0.0000    12.0000 </r>
       <r>   -29.6940     0.0000    12.0000 </r>
       <r>   -29.4883     0.0000    12.0000 </r>
       <r>   -29.2826     0.0000    12.0000 </r>
       <r>   -29.0769     0.0000    12.0000 </r>
       <r>   -28.8712     0.0000    12.0000 </r>
       <r>   -28.6655     0.0000    12.0000 </r>
       <r>   -28.4598     0.0000    12.0000 </r>
       <r>   -28.2541     0.0000    12.0000 </r>
       <r>   -28.0484     0.0000    12.0000 </r>
       <r>   -27.8427     0.0000    12.0000 </r>
       <r>   -27.6370     0.0000    12.0000 </r>
       <r>   -27.4313     0.0000    12.0000 </r>
       <r>   -27.2256     0.0000    12.0000 </r>
       <r>   -27.0199     0.0000    12.0000 </r>
       <r>   -26.8142     0.0000    12.0000 </r>
       <r>   -26.6085     0.0000    12.0000 </r>
       <r>   -26.4028     0.0000    12.0000 </r>
       <r>   -26.1971     0.0000    12.0000 </r>
       <r>   -25.9914    -0.0000    12.0000 </r>
       <r>   -25.7857    -0.0000    12.0000 </r>
       <r>   -25.5800    -0.0000    12.0000 </r>
       <r>   -25.3743    -0.0000    12.0000 </r>
       <r>   -25.1686    -0.0000    12.0000 </r>
       <r>   -24.9629    -0.0001    12.0000 </r>
       <r>   -24.7572    -0.0218    11.9955 </r>
       <r>   -24.5515    -0.3378    11.9260 </r>
       <r>   -24.3458     1.8901    12.3148 </r>
       <r>   -24.1401    13.3357    15.0579 </r>
       <r>   -23.9344    20.2396    19.2212 </r>
       <r>   -23.7287    51.9694    29.9112 </r>
       <r>   -23.5230    55.2186    41.2696 </r>
       <r>   -23.3173    23.0782    46.0168 </r>
       <r>   -23.1116     8.7697    47.8207 </r>
       <r>   -22.9059     1.0813    48.0432 </r>
       <r>   -22.7002    -0.1910    48.0039 </r>
       <r>   -22.4945    -0.0186    48.0000 </r>
       <r>   -22.2888    -0.0002    48.0000 </r>
       <r>   -22.0831    -0.0000    48.0000 </r>
       <r>   -21.8774    -0.0000    48.0000 </r>
       <r>   -21.6717     0.0000    48.0000 </r>
       <r>   -21.4660     0.0000    48.0000 </r>
       <r>   -21.2603     0.0000    48.0000 </r>
       <r>   -21.0546     0.0000    48.0000 </r>
       <r>   -20.8489     0.0000    48.0000 </r>
       <r>   -20.6432     0.0000    48.0000 </r>
       <r>   -20.4375     0.0000    48.0000 </r>
       <r>   -20.2318     0.0000    48.0000 </r>
       <r>   -20.0261     0.0000    48.0000 </r>
       <r>   -19.8204     0.0000    48.0000 </r>
       <r>   -19.6147     0.0000    48.0000 </r>
       <r>   -19.4090     0.0000    48.0000 </r>
       <r>   -19.2033     0.0000    48.0000 </r>
       <r>   -18.9976     0.0000    48.0000 </r>
       <r>   -18.7919     0.0000    48.0000 </r>
       <r>   -18.5862     0.0000    48.0000 </r>
       <r>   -18.3805     0.0000    48.0000 </r>
       <r>   -18.1748     0.0000    48.0000 </r>
       <r>   -17.9691     0.0000    48.0000 </r>
       <r>   -17.7634     0.0000    48.0000 </r>
       <r>   -17.5577     0.0000    48.0000 </r>
       <r>   -17.3520     0.0000    48.0000 </r>
       <r>   -17.1463     0.0000    48.0000 </r>
       <r>   -16.9406     0.0000    48.0000 </r>
       <r>   -16.7349     0.0000    48.0000 </r>
       <r>   -16.5292     0.0000    48.0000 </r>
       <r>   -16.3235     0.0000    48.0000 </r>
       <r>   -16.1178     0.0000    48.0000 </r>
       <r>   -15.9121     0.0000    48.0000 </r>
       <r>   -15.7064     0.0000    48.0000 </r>
       <r>   -15.5007     0.0000    48.0000 </r>
       <r>   -15.2950     0.0000    48.0000 </r>
       <r>   -15.0893     0.0000    48.0000 </r>
       <r>   -14.8836     0.0000    48.0000 </r>
       <r>   -14.6779     0.0000    48.0000 </r>
       <r>   -14.4722     0.0000    48.0000 </r>
       <r>   -14.2665     0.0000    48.0000 </r>
       <r>   -14.0609     0.0000    48.0000 </r>
       <r>   -13.8552     0.0000    48.0000 </r>
       <r>   -13.6495     0.0000    48.0000 </r>
       <r>   -13.4438     0.0000    48.0000 </r>
       <r>   -13.2381     0.0000    48.0000 </r>
       <r>   -13.0324     0.0000    48.0000 </r>
       <r>   -12.8267     0.0000    48.0000 </r>
       <r>   -12.6210     0.0000    48.0000 </r>
       <r>   -12.4153     0.0000    48.0000 </r>
       <r>   -12.2096     0.0000    48.0000 </r>
       <r>   -12.0039     0.0000    48.0000 </r>
       <r>   -11.7982     0.0000    48.0000 </r>
       <r>   -11.5925     0.0000    48.0000 </r>
       <r>   -11.3868     0.0000    48.0000 </r>
       <r>   -11.1811     0.0000    48.0000 </r>
       <r>   -10.9754     0.0000    48.0000 </r>
       <r>   -10.7697     0.0000    48.0000 </r>
       <r>   -10.5640     0.0000    48.0000 </r>
       <r>   -10.3583     0.0000    48.0000 </r>
       <r>   -10.1526     0.0000    48.0000 </r>
       <r>    -9.9469     0.0000    48.0000 </r>
       <r>    -9.7412     0.0000    48.0000 </r>
       <r>    -9.5355     0.0000    48.0000 </r>
       <r>    -9.3298     0.0000    48.0000 </r>
       <r>    -9.1241     0.0000    48.0000 </r>
       <r>    -8.9184     0.0000    48.0000 </r>
       <r>    -8.7127     0.0000    48.0000 </r>
       <r>    -8.5070     0.0000    48.0000 </r>
       <r>    -8.3013     0.0000    48.0000 </r>
       <r>    -8.0956     0.0000    48.0000 </r>
       <r>    -7.8899     0.0000    48.0000 </r>
       <r>    -7.6842     0.0000    48.0000 </r>
       <r>    -7.4785     0.0000    48.0000 </r>
       <r>    -7.2728     0.0000    48.0000 </r>
       <r>    -7.0671     0.0000    48.0000 </r>
       <r>    -6.8614     0.0000    48.0000 </r>
       <r>    -6.6557     0.0000    48.0000 </r>
       <r>    -6.4500     0.0000    48.0000 </r>
       <r>    -6.2443     0.0000    48.0000 </r>
       <r>    -6.0386     0.0000    48.0000 </r>
       <r>    -5.8329     0.0000    48.0000 </r>
       <r>    -5.6272     0.0000    48.0000 </r>
       <r>    -5.4215     0.0000    48.0000 </r>
       <r>    -5.2158     0.0000    48.0000 </r>
       <r>    -5.0101     0.0000    48.0000 </r>
       <r>    -4.8044     0.0000    48.0000 </r>
       <r>    -4.5987     0.0000    48.0000 </r>
       <r>    -4.3930     0.0000    48.0000 </r>
       <r>    -4.1873     0.0000    48.0000 </r>
       <r>    -3.9816     0.0000    48.0000 </r>
       <r>    -3.7759     0.0000    48.0000 </r>
       <r>    -3.5702     0.0000    48.0000 </r>
       <r>    -3.3645     0.0000    48.0000 </r>
       <r>    -3.1588     0.0000    48.0000 </r>
       <r>    -2.9531     0.0000    48.0000 </r>
       <r>    -2.7474     0.0000    48.0000 </r>
       <r>    -2.5417     0.0000    48.0000 </r>
       <r>    -2.3360     0.0000    48.0000 </r>
       <r>    -2.1303    -0.0000    48.0000 </r>
       <r>    -1.9246    -0.0000    48.0000 </r>
       <r>    -1.7189    -0.0000    48.0000 </r>
       <r>    -1.5132    -0.0000    48.0000 </r>
       <r>    -1.3075    -0.0000    48.0000 </r>
       <r>    -1.1018    -0.0000    48.0000 </r>
       <r>    -0.8961    -0.0000    48.0000 </r>
       <r>    -0.6904    -0.0034    47.9993 </r>
       <r>    -0.4847    -0.0132    47.9966 </r>
       <r>    -0.2790     0.1976    48.0372 </r>
       <r>    -0.0733     0.8249    48.2069 </r>
       <r>     0.1324     1.5969    48.5354 </r>
       <r>     0.3381     2.0091    48.9486 </r>
       <r>     0.5438     1.5552    49.2685 </r>
       <r>     0.7495     2.2093    49.7230 </r>
       <r>     0.9552     3.2267    50.3867 </r>
       <r>     1.1609     3.6237    51.1321 </r>
       <r>     1.3666     2.7380    51.6953 </r>
       <r>     1.5723     3.7175    52.4600 </r>
       <r>     1.7780     4.8767    53.4631 </r>
       <r>     1.9837     5.1601    54.5245 </r>
       <r>     2.1894     6.8892    55.9416 </r>
       <r>     2.3951     8.9355    57.7797 </r>
       <r>     2.6008    13.8076    60.6199 </r>
       <r>     2.8065    20.7108    64.8801 </r>
       <r>     3.0121    24.4353    69.9064 </r>
       <r>     3.2178    29.3002    75.9334 </r>
       <r>     3.4235    31.1785    82.3468 </r>
       <r>     3.6292    31.5115    88.8287 </r>
       <r>     3.8349    32.6089    95.5363 </r>
       <r>     4.0406    32.3823   102.1973 </r>
       <r>     4.2463    28.7648   108.1141 </r>
       <r>     4.4520    22.8491   112.8142 </r>
       <r>     4.6577    29.5616   118.8949 </r>
       <r>     4.8634    39.3152   126.9820 </r>
       <r>     5.0691    46.1409   136.4731 </r>
       <r>     5.2748    47.2737   146.1973 </r>
       <r>     5.4805    45.0949   155.4732 </r>
       <r>     5.6862    42.2478   164.1636 </r>
       <r>     5.8919    46.1981   173.6665 </r>
       <r>     6.0976    51.7204   184.3053 </r>
       <r>     6.3033    52.2543   195.0539 </r>
       <r>     6.5090    46.0897   204.5345 </r>
       <r>     6.7147    36.8126   212.1068 </r>
       <r>     6.9204    23.6722   216.9761 </r>
       <r>     7.1261    14.5233   219.9636 </r>
       <r>     7.3318    13.2399   222.6870 </r>
       <r>     7.5375    16.3034   226.0406 </r>
       <r>     7.7432    19.2671   230.0038 </r>
       <r>     7.9489    21.1507   234.3545 </r>
       <r>     8.1546    17.5306   237.9605 </r>
       <r>     8.3603     8.7077   239.7517 </r>
       <r>     8.5660     1.4240   240.0446 </r>
       <r>     8.7717    -0.1964   240.0042 </r>
       <r>     8.9774    -0.0202   240.0000 </r>
       <r>     9.1831    -0.0002   240.0000 </r>
       <r>     9.3888    -0.0000   240.0000 </r>
       <r>     9.5945    -0.0000   240.0000 </r>
       <r>     9.8002    -0.0000   240.0000 </r>
       <r>    10.0059     0.0000   240.0000 </r>
       <r>    10.2116     0.0000   240.0000 </r>
       <r>    10.4173     0.0000   240.0000 </r>
       <r>    10.6230     0.0000   240.0000 </r>
       <r>    10.8287     0.0000   240.0000 </r>
       <r>    11.0344     0.0000   240.0000 </r>
       <r>    11.2401     0.0000   240.0000 </r>
      </set>
     </set>
    </array>
   </total>
  </dos>
 </calculation>
 <structure name="finalpos" >
  <crystal>
   <varray name="basis" >
    <v>      -3.20000000      -3.20000000      -3.20000000 </v>
    <v>       1.60000000       1.60000000      -8.00000000 </v>
    <v>       8.00000000      -8.00000000      -1.60000000 </v>
   </varray>
   <i name="volume">    491.52000000 </i>
   <varray name="rec_basis" >
    <v>      -0.13541667      -0.12500000      -0.05208333 </v>
    <v>       0.04166667       0.06250000      -0.10416667 </v>
    <v>       0.06250000      -0.06250000       0.00000000 </v>
   </varray>
  </crystal>
  <varray name="positions" >
   <v>       0.96666667       0.93333333       0.40000000 </v>
   <v>       0.63333333       0.26666667       0.40000000 </v>
   <v>       0.50000000       0.00000000       0.00000000 </v>
   <v>       0.00000000       0.00000000       0.00000000 </v>
   <v>       0.10000000       0.20000000       0.80000000 </v>
   <v>       0.03333333       0.06666667       0.60000000 </v>
   <v>       0.90000000       0.80000000       0.20000000 </v>
   <v>       0.80000000       0.60000000       0.40000000 </v>
   <v>       0.73333333       0.46666667       0.20000000 </v>
   <v>       0.66666667       0.33333333       0.00000000 </v>
   <v>       0.36666667       0.73333333       0.60000000 </v>
   <v>       0.13333333       0.26666667       0.40000000 </v>
   <v>       0.83333333       0.66666667       0.00000000 </v>
   <v>       0.93333333       0.86666667       0.80000000 </v>
   <v>       0.56666667       0.13333333       0.20000000 </v>
   <v>       0.40000000       0.80000000       0.20000000 </v>
   <v>       0.43333333       0.86666667       0.80000000 </v>
   <v>       0.30000000       0.60000000       0.40000000 </v>
   <v>       0.86666667       0.73333333       0.60000000 </v>
   <v>       0.46666667       0.93333333       0.40000000 </v>
   <v>       0.16666667       0.33333333       0.00000000 </v>
   <v>       0.26666667       0.53333333       0.80000000 </v>
   <v>       0.20000000       0.40000000       0.60000000 </v>
   <v>       0.06666667       0.13333333       0.20000000 </v>
   <v>       0.76666667       0.53333333       0.80000000 </v>
   <v>       0.70000000       0.40000000       0.60000000 </v>
   <v>       0.60000000       0.20000000       0.80000000 </v>
   <v>       0.53333333       0.06666667       0.60000000 </v>
   <v>       0.33333333       0.66666667       0.00000000 </v>
   <v>       0.23333333       0.46666667       0.20000000 </v>
  </varray>
 </structure>
</modeling>
