  30  30   0   0
  0.1684913E+02  0.5594524E-09  0.8391786E-09  0.1153341E-08  0.5000000E-15
  1.000000000000000E-004
  CAR 
 Nb - Mo - Ta - Ti - V SQS               
     10.92835192    -50.79144658  301      6.09781387      1.00000000
    -50.791  0.0000E+00  0.0000E+00
    -50.586  0.0000E+00  0.0000E+00
    -50.380  0.0000E+00  0.0000E+00
    -50.174  0.0000E+00  0.0000E+00
    -49.969  0.0000E+00  0.0000E+00
    -49.763 -0.1212E-32 -0.2493E-33
    -49.557 -0.3518E-25 -0.7238E-26
    -49.351 -0.1180E-18 -0.2427E-19
    -49.146 -0.4587E-13 -0.9437E-14
    -48.940 -0.2162E-08 -0.4448E-09
    -48.734 -0.1194E-04 -0.2457E-05
    -48.528 -0.7510E-02 -0.1548E-02
    -48.323 -0.4744E+00 -0.9915E-01
    -48.117  0.1129E+00 -0.7591E-01
    -47.911  0.2800E+02  0.5685E+01
    -47.705  0.2974E+02  0.1180E+02
    -47.500  0.1577E+01  0.1213E+02
    -47.294 -0.5971E+00  0.1200E+02
    -47.088 -0.1853E-01  0.1200E+02
    -46.883 -0.5952E-04  0.1200E+02
    -46.677 -0.2199E-07  0.1200E+02
    -46.471 -0.9502E-12  0.1200E+02
    -46.265  0.0000E+00  0.1200E+02
    -46.060  0.0000E+00  0.1200E+02
    -45.854  0.0000E+00  0.1200E+02
    -45.648  0.0000E+00  0.1200E+02
    -45.442  0.0000E+00  0.1200E+02
    -45.237  0.0000E+00  0.1200E+02
    -45.031  0.0000E+00  0.1200E+02
    -44.825  0.0000E+00  0.1200E+02
    -44.619  0.0000E+00  0.1200E+02
    -44.414  0.0000E+00  0.1200E+02
    -44.208  0.0000E+00  0.1200E+02
    -44.002  0.0000E+00  0.1200E+02
    -43.797  0.0000E+00  0.1200E+02
    -43.591  0.0000E+00  0.1200E+02
    -43.385  0.0000E+00  0.1200E+02
    -43.179  0.0000E+00  0.1200E+02
    -42.974  0.0000E+00  0.1200E+02
    -42.768  0.0000E+00  0.1200E+02
    -42.562  0.0000E+00  0.1200E+02
    -42.356  0.0000E+00  0.1200E+02
    -42.151  0.0000E+00  0.1200E+02
    -41.945  0.0000E+00  0.1200E+02
    -41.739  0.0000E+00  0.1200E+02
    -41.533  0.0000E+00  0.1200E+02
    -41.328  0.0000E+00  0.1200E+02
    -41.122  0.0000E+00  0.1200E+02
    -40.916  0.0000E+00  0.1200E+02
    -40.711  0.0000E+00  0.1200E+02
    -40.505  0.0000E+00  0.1200E+02
    -40.299  0.0000E+00  0.1200E+02
    -40.093  0.0000E+00  0.1200E+02
    -39.888  0.0000E+00  0.1200E+02
    -39.682  0.0000E+00  0.1200E+02
    -39.476  0.0000E+00  0.1200E+02
    -39.270  0.0000E+00  0.1200E+02
    -39.065  0.0000E+00  0.1200E+02
    -38.859  0.0000E+00  0.1200E+02
    -38.653  0.0000E+00  0.1200E+02
    -38.447  0.0000E+00  0.1200E+02
    -38.242  0.0000E+00  0.1200E+02
    -38.036  0.0000E+00  0.1200E+02
    -37.830  0.0000E+00  0.1200E+02
    -37.625  0.0000E+00  0.1200E+02
    -37.419  0.0000E+00  0.1200E+02
    -37.213  0.0000E+00  0.1200E+02
    -37.007  0.0000E+00  0.1200E+02
    -36.802  0.0000E+00  0.1200E+02
    -36.596  0.0000E+00  0.1200E+02
    -36.390  0.0000E+00  0.1200E+02
    -36.184  0.0000E+00  0.1200E+02
    -35.979  0.0000E+00  0.1200E+02
    -35.773  0.0000E+00  0.1200E+02
    -35.567  0.0000E+00  0.1200E+02
    -35.361  0.0000E+00  0.1200E+02
    -35.156  0.0000E+00  0.1200E+02
    -34.950  0.0000E+00  0.1200E+02
    -34.744  0.0000E+00  0.1200E+02
    -34.539  0.0000E+00  0.1200E+02
    -34.333  0.0000E+00  0.1200E+02
    -34.127  0.0000E+00  0.1200E+02
    -33.921  0.0000E+00  0.1200E+02
    -33.716  0.0000E+00  0.1200E+02
    -33.510  0.0000E+00  0.1200E+02
    -33.304  0.0000E+00  0.1200E+02
    -33.098  0.0000E+00  0.1200E+02
    -32.893  0.0000E+00  0.1200E+02
    -32.687  0.0000E+00  0.1200E+02
    -32.481  0.0000E+00  0.1200E+02
    -32.276  0.0000E+00  0.1200E+02
    -32.070  0.0000E+00  0.1200E+02
    -31.864  0.0000E+00  0.1200E+02
    -31.658  0.0000E+00  0.1200E+02
    -31.453  0.0000E+00  0.1200E+02
    -31.247  0.0000E+00  0.1200E+02
    -31.041  0.0000E+00  0.1200E+02
    -30.835  0.0000E+00  0.1200E+02
    -30.630  0.0000E+00  0.1200E+02
    -30.424  0.0000E+00  0.1200E+02
    -30.218  0.0000E+00  0.1200E+02
    -30.012  0.0000E+00  0.1200E+02
    -29.807  0.0000E+00  0.1200E+02
    -29.601  0.0000E+00  0.1200E+02
    -29.395  0.0000E+00  0.1200E+02
    -29.190  0.0000E+00  0.1200E+02
    -28.984  0.0000E+00  0.1200E+02
    -28.778  0.0000E+00  0.1200E+02
    -28.572  0.0000E+00  0.1200E+02
    -28.367  0.0000E+00  0.1200E+02
    -28.161  0.0000E+00  0.1200E+02
    -27.955  0.0000E+00  0.1200E+02
    -27.749  0.0000E+00  0.1200E+02
    -27.544  0.0000E+00  0.1200E+02
    -27.338  0.0000E+00  0.1200E+02
    -27.132  0.0000E+00  0.1200E+02
    -26.926  0.0000E+00  0.1200E+02
    -26.721  0.0000E+00  0.1200E+02
    -26.515  0.0000E+00  0.1200E+02
    -26.309 -0.1598E-30  0.1200E+02
    -26.104 -0.1970E-23  0.1200E+02
    -25.898 -0.2883E-17  0.1200E+02
    -25.692 -0.4833E-12  0.1200E+02
    -25.486 -0.9798E-08  0.1200E+02
    -25.281 -0.2366E-04  0.1200E+02
    -25.075 -0.6946E-02  0.1200E+02
    -24.869 -0.2323E+00  0.1195E+02
    -24.663  0.3844E+00  0.1203E+02
    -24.458  0.1092E+02  0.1428E+02
    -24.252  0.2131E+02  0.1866E+02
    -24.046  0.5271E+02  0.2951E+02
    -23.840  0.5832E+02  0.4151E+02
    -23.635  0.2386E+02  0.4642E+02
    -23.429  0.7413E+01  0.4794E+02
    -23.223  0.4733E+00  0.4804E+02
    -23.018 -0.1725E+00  0.4800E+02
    -22.812 -0.9360E-02  0.4800E+02
    -22.606 -0.5044E-04  0.4800E+02
    -22.400 -0.3019E-07  0.4800E+02
    -22.195 -0.2060E-11  0.4800E+02
    -21.989  0.0000E+00  0.4800E+02
    -21.783  0.0000E+00  0.4800E+02
    -21.577  0.0000E+00  0.4800E+02
    -21.372  0.0000E+00  0.4800E+02
    -21.166  0.0000E+00  0.4800E+02
    -20.960  0.0000E+00  0.4800E+02
    -20.754  0.0000E+00  0.4800E+02
    -20.549  0.0000E+00  0.4800E+02
    -20.343  0.0000E+00  0.4800E+02
    -20.137  0.0000E+00  0.4800E+02
    -19.932  0.0000E+00  0.4800E+02
    -19.726  0.0000E+00  0.4800E+02
    -19.520  0.0000E+00  0.4800E+02
    -19.314  0.0000E+00  0.4800E+02
    -19.109  0.0000E+00  0.4800E+02
    -18.903  0.0000E+00  0.4800E+02
    -18.697  0.0000E+00  0.4800E+02
    -18.491  0.0000E+00  0.4800E+02
    -18.286  0.0000E+00  0.4800E+02
    -18.080  0.0000E+00  0.4800E+02
    -17.874  0.0000E+00  0.4800E+02
    -17.668  0.0000E+00  0.4800E+02
    -17.463  0.0000E+00  0.4800E+02
    -17.257  0.0000E+00  0.4800E+02
    -17.051  0.0000E+00  0.4800E+02
    -16.846  0.0000E+00  0.4800E+02
    -16.640  0.0000E+00  0.4800E+02
    -16.434  0.0000E+00  0.4800E+02
    -16.228  0.0000E+00  0.4800E+02
    -16.023  0.0000E+00  0.4800E+02
    -15.817  0.0000E+00  0.4800E+02
    -15.611  0.0000E+00  0.4800E+02
    -15.405  0.0000E+00  0.4800E+02
    -15.200  0.0000E+00  0.4800E+02
    -14.994  0.0000E+00  0.4800E+02
    -14.788  0.0000E+00  0.4800E+02
    -14.582  0.0000E+00  0.4800E+02
    -14.377  0.0000E+00  0.4800E+02
    -14.171  0.0000E+00  0.4800E+02
    -13.965  0.0000E+00  0.4800E+02
    -13.760  0.0000E+00  0.4800E+02
    -13.554  0.0000E+00  0.4800E+02
    -13.348  0.0000E+00  0.4800E+02
    -13.142  0.0000E+00  0.4800E+02
    -12.937  0.0000E+00  0.4800E+02
    -12.731  0.0000E+00  0.4800E+02
    -12.525  0.0000E+00  0.4800E+02
    -12.319  0.0000E+00  0.4800E+02
    -12.114  0.0000E+00  0.4800E+02
    -11.908  0.0000E+00  0.4800E+02
    -11.702  0.0000E+00  0.4800E+02
    -11.497  0.0000E+00  0.4800E+02
    -11.291  0.0000E+00  0.4800E+02
    -11.085  0.0000E+00  0.4800E+02
    -10.879  0.0000E+00  0.4800E+02
    -10.674  0.0000E+00  0.4800E+02
    -10.468  0.0000E+00  0.4800E+02
    -10.262  0.0000E+00  0.4800E+02
    -10.056  0.0000E+00  0.4800E+02
     -9.851  0.0000E+00  0.4800E+02
     -9.645  0.0000E+00  0.4800E+02
     -9.439  0.0000E+00  0.4800E+02
     -9.233  0.0000E+00  0.4800E+02
     -9.028  0.0000E+00  0.4800E+02
     -8.822  0.0000E+00  0.4800E+02
     -8.616  0.0000E+00  0.4800E+02
     -8.411  0.0000E+00  0.4800E+02
     -8.205  0.0000E+00  0.4800E+02
     -7.999  0.0000E+00  0.4800E+02
     -7.793  0.0000E+00  0.4800E+02
     -7.588  0.0000E+00  0.4800E+02
     -7.382  0.0000E+00  0.4800E+02
     -7.176  0.0000E+00  0.4800E+02
     -6.970  0.0000E+00  0.4800E+02
     -6.765  0.0000E+00  0.4800E+02
     -6.559  0.0000E+00  0.4800E+02
     -6.353  0.0000E+00  0.4800E+02
     -6.147  0.0000E+00  0.4800E+02
     -5.942  0.0000E+00  0.4800E+02
     -5.736  0.0000E+00  0.4800E+02
     -5.530  0.0000E+00  0.4800E+02
     -5.325  0.0000E+00  0.4800E+02
     -5.119  0.0000E+00  0.4800E+02
     -4.913  0.0000E+00  0.4800E+02
     -4.707  0.0000E+00  0.4800E+02
     -4.502  0.0000E+00  0.4800E+02
     -4.296  0.0000E+00  0.4800E+02
     -4.090  0.0000E+00  0.4800E+02
     -3.884  0.0000E+00  0.4800E+02
     -3.679  0.0000E+00  0.4800E+02
     -3.473  0.0000E+00  0.4800E+02
     -3.267  0.0000E+00  0.4800E+02
     -3.061  0.0000E+00  0.4800E+02
     -2.856  0.0000E+00  0.4800E+02
     -2.650  0.0000E+00  0.4800E+02
     -2.444  0.0000E+00  0.4800E+02
     -2.239 -0.8278E-32  0.4800E+02
     -2.033 -0.9978E-25  0.4800E+02
     -1.827 -0.1434E-18  0.4800E+02
     -1.621 -0.2377E-13  0.4800E+02
     -1.416 -0.4794E-09  0.4800E+02
     -1.210 -0.1146E-05  0.4800E+02
     -1.004 -0.3202E-03  0.4800E+02
     -0.798 -0.9338E-02  0.4800E+02
     -0.593  0.1634E-01  0.4800E+02
     -0.387  0.4146E+00  0.4809E+02
     -0.181  0.1179E+01  0.4833E+02
      0.025  0.1951E+01  0.4873E+02
      0.230  0.1826E+01  0.4911E+02
      0.436  0.1764E+01  0.4947E+02
      0.642  0.2848E+01  0.5006E+02
      0.847  0.3611E+01  0.5080E+02
      1.053  0.3297E+01  0.5148E+02
      1.259  0.2879E+01  0.5207E+02
      1.465  0.4789E+01  0.5305E+02
      1.670  0.4851E+01  0.5405E+02
      1.876  0.5972E+01  0.5528E+02
      2.082  0.7700E+01  0.5686E+02
      2.288  0.9300E+01  0.5878E+02
      2.493  0.1564E+02  0.6200E+02
      2.699  0.2235E+02  0.6659E+02
      2.905  0.2616E+02  0.7198E+02
      3.111  0.3035E+02  0.7822E+02
      3.316  0.3131E+02  0.8466E+02
      3.522  0.3264E+02  0.9138E+02
      3.728  0.3361E+02  0.9829E+02
      3.933  0.3177E+02  0.1048E+03
      4.139  0.2614E+02  0.1102E+03
      4.345  0.2400E+02  0.1151E+03
      4.551  0.3563E+02  0.1225E+03
      4.756  0.4448E+02  0.1316E+03
      4.962  0.4907E+02  0.1417E+03
      5.168  0.4824E+02  0.1516E+03
      5.374  0.4485E+02  0.1609E+03
      5.579  0.4671E+02  0.1705E+03
      5.785  0.5231E+02  0.1812E+03
      5.991  0.5504E+02  0.1926E+03
      6.197  0.4892E+02  0.2026E+03
      6.402  0.4048E+02  0.2110E+03
      6.608  0.2706E+02  0.2165E+03
      6.814  0.1599E+02  0.2198E+03
      7.019  0.1344E+02  0.2226E+03
      7.225  0.1612E+02  0.2259E+03
      7.431  0.1940E+02  0.2299E+03
      7.637  0.2184E+02  0.2344E+03
      7.842  0.1809E+02  0.2381E+03
      8.048  0.8364E+01  0.2398E+03
      8.254  0.1052E+01  0.2400E+03
      8.460 -0.1867E+00  0.2400E+03
      8.665 -0.1526E-01  0.2400E+03
      8.871 -0.1478E-03  0.2400E+03
      9.077 -0.1967E-06  0.2400E+03
      9.282 -0.3374E-10  0.2400E+03
      9.488 -0.6907E-15  0.2400E+03
      9.694  0.0000E+00  0.2400E+03
      9.900  0.0000E+00  0.2400E+03
     10.105  0.0000E+00  0.2400E+03
     10.311  0.0000E+00  0.2400E+03
     10.517  0.0000E+00  0.2400E+03
     10.723  0.0000E+00  0.2400E+03
     10.928  0.0000E+00  0.2400E+03
