   30   30    1    1
  0.1684913E+02  0.5594524E-09  0.8391786E-09  0.1153341E-08  0.5000000E-15
  1.000000000000000E-004
  CAR 
 Nb - Mo - Ta - Ti - V SQS               
    198     63    120
 
  0.0000000E+00  0.0000000E+00  0.0000000E+00  0.8000000E-02
    1      -47.986001   1.000000
    2      -47.966990   1.000000
    3      -47.932961   1.000000
    4      -47.891918   1.000000
    5      -47.864828   1.000000
    6      -47.767420   1.000000
    7      -24.606958   1.000000
    8      -24.480716   1.000000
    9      -24.347596   1.000000
   10      -24.310866   1.000000
   11      -24.121305   1.000000
   12      -24.114834   1.000000
   13      -24.110805   1.000000
   14      -24.068995   1.000000
   15      -24.054729   1.000000
   16      -24.038568   1.000000
   17      -24.021341   1.000000
   18      -23.979665   1.000000
   19      -23.931074   1.000000
   20      -23.917552   1.000000
   21      -23.806315   1.000000
   22      -23.789724   1.000000
   23      -23.661128   1.000000
   24      -23.457543   1.000000
   25       -0.539078   1.000000
   26        0.706367   1.000000
   27        1.057901   1.000000
   28        1.882500   1.000000
   29        2.058544   1.000000
   30        2.126820   1.000000
   31        2.259276   1.000000
   32        2.394787   1.000000
   33        2.424024   1.000000
   34        2.504335   1.000000
   35        2.556403   1.000000
   36        2.639814   1.000000
   37        2.703050   1.000000
   38        2.732691   1.000000
   39        2.870239   1.000000
   40        2.939601   1.000000
   41        2.997873   1.000000
   42        3.123814   1.000000
   43        3.220887   1.000000
   44        3.249927   1.000000
   45        3.293796   1.000000
   46        3.357428   1.000000
   47        3.429238   1.000000
   48        3.450590   1.000000
   49        3.551751   1.000000
   50        3.611020   1.000000
   51        3.688655   1.000000
   52        3.761467   1.000000
   53        3.822065   1.000000
   54        3.857056   1.000000
   55        3.995703   1.000000
   56        4.050648   1.000000
   57        4.127619   1.000000
   58        4.164243   1.000000
   59        4.330775   1.000000
   60        4.364667   1.000000
   61        4.439331   1.000000
   62        4.483986   1.000000
   63        4.491606   1.000000
   64        4.571904   1.000000
   65        4.577325   1.000000
   66        4.665182   1.000000
   67        4.682340   1.000000
   68        4.760555   1.000000
   69        4.783446   1.000000
   70        4.827214   1.000000
   71        4.878012   1.000000
   72        4.903487   1.000000
   73        4.966003   1.000000
   74        5.009546   1.000000
   75        5.022934   1.000000
   76        5.032870   1.000000
   77        5.060154   1.000000
   78        5.165384   1.000000
   79        5.228276   1.000000
   80        5.311163   1.000000
   81        5.448808   1.000022
   82        5.510275   1.000132
   83        5.559514   1.000472
   84        5.590929   1.000992
   85        5.624545   1.002060
   86        5.685955   1.006570
   87        5.743992   1.015647
   88        5.764117   1.019940
   89        5.783863   1.024466
   90        5.797242   1.027524
   91        5.806644   1.029567
   92        5.857628   1.035368
   93        5.883731   1.030976
   94        5.929858   0.999536
   95        6.078752   0.580252
   96        6.115539   0.425325
   97        6.180757   0.180266
   98        6.210108   0.098025
   99        6.231201   0.052205
  100        6.308844  -0.029944
  101        6.359830  -0.034461
  102        6.396248  -0.027999
  103        6.500036  -0.007711
  104        6.508878  -0.006659
  105        6.524207  -0.005101
  106        6.590431  -0.001363
  107        6.806848  -0.000003
  108        6.949351  -0.000000
  109        6.969313  -0.000000
  110        7.051812  -0.000000
  111        7.475271  -0.000000
  112        7.628074  -0.000000
  113        7.756272  -0.000000
  114        7.827639  -0.000000
  115        7.867917  -0.000000
  116        7.907570  -0.000000
  117        7.924706  -0.000000
  118        7.954936  -0.000000
  119        8.025058  -0.000000
  120        8.048670  -0.000000
 
  0.2000000E+00  0.1387779E-16  0.1040834E-16  0.1600000E-01
    1      -47.984588   1.000000
    2      -47.962545   1.000000
    3      -47.930672   1.000000
    4      -47.890957   1.000000
    5      -47.864220   1.000000
    6      -47.776729   1.000000
    7      -24.526283   1.000000
    8      -24.468141   1.000000
    9      -24.341845   1.000000
   10      -24.305461   1.000000
   11      -24.123417   1.000000
   12      -24.116540   1.000000
   13      -24.105612   1.000000
   14      -24.070432   1.000000
   15      -24.053638   1.000000
   16      -24.041647   1.000000
   17      -24.023142   1.000000
   18      -23.981639   1.000000
   19      -23.939574   1.000000
   20      -23.919628   1.000000
   21      -23.811073   1.000000
   22      -23.793998   1.000000
   23      -23.662661   1.000000
   24      -23.566178   1.000000
   25       -0.242410   1.000000
   26        0.968404   1.000000
   27        1.309783   1.000000
   28        1.896575   1.000000
   29        2.259550   1.000000
   30        2.357565   1.000000
   31        2.416311   1.000000
   32        2.552407   1.000000
   33        2.581138   1.000000
   34        2.618138   1.000000
   35        2.739573   1.000000
   36        2.810377   1.000000
   37        2.865548   1.000000
   38        2.948733   1.000000
   39        3.019603   1.000000
   40        3.072004   1.000000
   41        3.116595   1.000000
   42        3.126400   1.000000
   43        3.226048   1.000000
   44        3.278460   1.000000
   45        3.394102   1.000000
   46        3.430338   1.000000
   47        3.502968   1.000000
   48        3.595223   1.000000
   49        3.626818   1.000000
   50        3.655636   1.000000
   51        3.758540   1.000000
   52        3.832225   1.000000
   53        3.874658   1.000000
   54        3.950987   1.000000
   55        4.011412   1.000000
   56        4.088444   1.000000
   57        4.156505   1.000000
   58        4.239685   1.000000
   59        4.358942   1.000000
   60        4.410069   1.000000
   61        4.468408   1.000000
   62        4.597331   1.000000
   63        4.607112   1.000000
   64        4.682106   1.000000
   65        4.715510   1.000000
   66        4.742148   1.000000
   67        4.786300   1.000000
   68        4.852222   1.000000
   69        4.864110   1.000000
   70        4.873506   1.000000
   71        4.946784   1.000000
   72        4.973382   1.000000
   73        5.030122   1.000000
   74        5.042162   1.000000
   75        5.125637   1.000000
   76        5.152498   1.000000
   77        5.168992   1.000000
   78        5.196361   1.000000
   79        5.235390   1.000000
   80        5.284239   1.000000
   81        5.286696   1.000000
   82        5.384010   1.000003
   83        5.429565   1.000012
   84        5.489989   1.000075
   85        5.518906   1.000166
   86        5.565033   1.000540
   87        5.592009   1.001016
   88        5.682024   1.006143
   89        5.766144   1.020396
   90        5.794311   1.026864
   91        5.824383   1.032903
   92        5.861460   1.035156
   93        5.896747   1.025672
   94        5.930169   0.999190
   95        6.024306   0.788970
   96        6.041581   0.727835
   97        6.075758   0.592701
   98        6.116070   0.423106
   99        6.175685   0.196559
  100        6.208105   0.102961
  101        6.237666   0.040384
  102        6.290730  -0.021050
  103        6.346485  -0.035406
  104        6.384595  -0.030469
  105        6.408334  -0.025259
  106        6.457163  -0.014557
  107        6.488462  -0.009271
  108        6.676400  -0.000168
  109        6.743047  -0.000025
  110        6.845666  -0.000001
  111        7.132648  -0.000000
  112        7.199375  -0.000000
  113        7.248591  -0.000000
  114        7.302537  -0.000000
  115        7.398742  -0.000000
  116        7.547461  -0.000000
  117        7.600004  -0.000000
  118        7.654005  -0.000000
  119        7.671130  -0.000000
  120        7.711920  -0.000000
 
  0.4000000E+00  0.2775558E-16  0.2081668E-16  0.1600000E-01
    1      -47.982902   1.000000
    2      -47.955718   1.000000
    3      -47.925090   1.000000
    4      -47.888295   1.000000
    5      -47.862375   1.000000
    6      -47.794675   1.000000
    7      -24.490449   1.000000
    8      -24.359978   1.000000
    9      -24.319405   1.000000
   10      -24.206208   1.000000
   11      -24.128757   1.000000
   12      -24.119262   1.000000
   13      -24.095577   1.000000
   14      -24.071691   1.000000
   15      -24.052479   1.000000
   16      -24.041395   1.000000
   17      -24.026461   1.000000
   18      -23.984567   1.000000
   19      -23.958720   1.000000
   20      -23.923403   1.000000
   21      -23.868115   1.000000
   22      -23.813181   1.000000
   23      -23.783630   1.000000
   24      -23.658053   1.000000
   25        0.559128   1.000000
   26        1.477227   1.000000
   27        1.801896   1.000000
   28        2.017206   1.000000
   29        2.097451   1.000000
   30        2.480097   1.000000
   31        2.532080   1.000000
   32        2.706383   1.000000
   33        2.816429   1.000000
   34        2.917696   1.000000
   35        3.008952   1.000000
   36        3.033579   1.000000
   37        3.135162   1.000000
   38        3.165822   1.000000
   39        3.263618   1.000000
   40        3.315631   1.000000
   41        3.365025   1.000000
   42        3.401452   1.000000
   43        3.433029   1.000000
   44        3.510908   1.000000
   45        3.604636   1.000000
   46        3.628063   1.000000
   47        3.680605   1.000000
   48        3.706846   1.000000
   49        3.815885   1.000000
   50        3.845759   1.000000
   51        3.973094   1.000000
   52        4.023295   1.000000
   53        4.081399   1.000000
   54        4.162541   1.000000
   55        4.237600   1.000000
   56        4.289287   1.000000
   57        4.359684   1.000000
   58        4.399820   1.000000
   59        4.427300   1.000000
   60        4.480772   1.000000
   61        4.517357   1.000000
   62        4.557822   1.000000
   63        4.607853   1.000000
   64        4.640080   1.000000
   65        4.665063   1.000000
   66        4.752547   1.000000
   67        4.772400   1.000000
   68        4.800791   1.000000
   69        4.841542   1.000000
   70        4.890967   1.000000
   71        4.947006   1.000000
   72        4.989989   1.000000
   73        5.024610   1.000000
   74        5.068981   1.000000
   75        5.125003   1.000000
   76        5.172775   1.000000
   77        5.227916   1.000000
   78        5.253035   1.000000
   79        5.270916   1.000000
   80        5.305447   1.000000
   81        5.389695   1.000003
   82        5.443362   1.000019
   83        5.474121   1.000047
   84        5.514531   1.000148
   85        5.557739   1.000452
   86        5.604885   1.001354
   87        5.649677   1.003407
   88        5.684892   1.006452
   89        5.730398   1.013047
   90        5.750962   1.017080
   91        5.779541   1.023465
   92        5.806735   1.029587
   93        5.845827   1.035276
   94        5.868683   1.034387
   95        5.876904   1.032852
   96        5.954838   0.964961
   97        5.992708   0.883796
   98        6.032548   0.760535
   99        6.075685   0.593004
  100        6.088787   0.538153
  101        6.131572   0.359388
  102        6.174399   0.200780
  103        6.187874   0.158408
  104        6.265320   0.000964
  105        6.272186  -0.006217
  106        6.338288  -0.035378
  107        6.392244  -0.028874
  108        6.415470  -0.023608
  109        6.445284  -0.016951
  110        6.508762  -0.006672
  111        6.544260  -0.003519
  112        6.588506  -0.001422
  113        6.860949  -0.000000
  114        6.978589  -0.000000
  115        7.000032  -0.000000
  116        7.114663  -0.000000
  117        7.196909  -0.000000
  118        7.217431  -0.000000
  119        7.326415  -0.000000
  120        7.419843  -0.000000
 
  0.1387779E-16  0.2000000E+00 -0.6938894E-17  0.1600000E-01
    1      -47.985888   1.000000
    2      -47.966884   1.000000
    3      -47.932961   1.000000
    4      -47.892087   1.000000
    5      -47.864878   1.000000
    6      -47.767419   1.000000
    7      -24.606958   1.000000
    8      -24.479882   1.000000
    9      -24.344750   1.000000
   10      -24.310134   1.000000
   11      -24.121418   1.000000
   12      -24.114911   1.000000
   13      -24.110831   1.000000
   14      -24.069030   1.000000
   15      -24.054708   1.000000
   16      -24.038475   1.000000
   17      -24.021276   1.000000
   18      -23.979607   1.000000
   19      -23.931086   1.000000
   20      -23.917600   1.000000
   21      -23.808036   1.000000
   22      -23.792717   1.000000
   23      -23.661418   1.000000
   24      -23.457543   1.000000
   25       -0.414429   1.000000
   26        0.768471   1.000000
   27        1.173867   1.000000
   28        1.389795   1.000000
   29        1.990426   1.000000
   30        2.206477   1.000000
   31        2.283327   1.000000
   32        2.428304   1.000000
   33        2.446916   1.000000
   34        2.527335   1.000000
   35        2.597635   1.000000
   36        2.670464   1.000000
   37        2.715817   1.000000
   38        2.783147   1.000000
   39        2.867344   1.000000
   40        2.897652   1.000000
   41        2.972122   1.000000
   42        3.052509   1.000000
   43        3.171953   1.000000
   44        3.251027   1.000000
   45        3.328506   1.000000
   46        3.387753   1.000000
   47        3.426794   1.000000
   48        3.532679   1.000000
   49        3.551429   1.000000
   50        3.626901   1.000000
   51        3.694151   1.000000
   52        3.769238   1.000000
   53        3.798375   1.000000
   54        3.841706   1.000000
   55        3.915962   1.000000
   56        3.994659   1.000000
   57        4.100498   1.000000
   58        4.262747   1.000000
   59        4.348255   1.000000
   60        4.406704   1.000000
   61        4.449354   1.000000
   62        4.544689   1.000000
   63        4.577655   1.000000
   64        4.626413   1.000000
   65        4.666929   1.000000
   66        4.700644   1.000000
   67        4.749257   1.000000
   68        4.806030   1.000000
   69        4.818954   1.000000
   70        4.851739   1.000000
   71        4.900849   1.000000
   72        4.932289   1.000000
   73        4.966857   1.000000
   74        5.022848   1.000000
   75        5.066961   1.000000
   76        5.087850   1.000000
   77        5.135955   1.000000
   78        5.150907   1.000000
   79        5.261492   1.000000
   80        5.286705   1.000000
   81        5.459039   1.000030
   82        5.479645   1.000056
   83        5.539974   1.000289
   84        5.572626   1.000648
   85        5.604433   1.001341
   86        5.632899   1.002445
   87        5.664053   1.004463
   88        5.714587   1.010383
   89        5.744975   1.015845
   90        5.770154   1.021305
   91        5.800743   1.028299
   92        5.847621   1.035356
   93        5.883243   1.031129
   94        5.914888   1.013850
   95        5.967068   0.942670
   96        5.978870   0.917630
   97        6.039196   0.736615
   98        6.106881   0.461676
   99        6.157801   0.258388
  100        6.357436  -0.034709
  101        6.443972  -0.017226
  102        6.464273  -0.013221
  103        6.501273  -0.007557
  104        6.603069  -0.001029
  105        6.632696  -0.000513
  106        6.656281  -0.000284
  107        6.781055  -0.000008
  108        6.958647  -0.000000
  109        7.025248  -0.000000
  110        7.070331  -0.000000
  111        7.205754  -0.000000
  112        7.256659  -0.000000
  113        7.359383  -0.000000
  114        7.621251  -0.000000
  115        7.692923  -0.000000
  116        7.815499  -0.000000
  117        7.839359  -0.000000
  118        7.891183  -0.000000
  119        7.939655  -0.000000
  120        7.972076  -0.000000
 
  0.2000000E+00  0.2000000E+00 -0.6938894E-16  0.1600000E-01
    1      -47.984712   1.000000
    2      -47.962637   1.000000
    3      -47.930660   1.000000
    4      -47.890797   1.000000
    5      -47.864175   1.000000
    6      -47.776731   1.000000
    7      -24.526401   1.000000
    8      -24.468878   1.000000
    9      -24.344858   1.000000
   10      -24.305881   1.000000
   11      -24.123416   1.000000
   12      -24.116559   1.000000
   13      -24.105572   1.000000
   14      -24.070462   1.000000
   15      -24.053592   1.000000
   16      -24.041604   1.000000
   17      -24.023161   1.000000
   18      -23.981662   1.000000
   19      -23.939536   1.000000
   20      -23.919593   1.000000
   21      -23.809745   1.000000
   22      -23.790747   1.000000
   23      -23.662389   1.000000
   24      -23.566171   1.000000
   25       -0.237895   1.000000
   26        0.930573   1.000000
   27        1.338367   1.000000
   28        1.876550   1.000000
   29        2.227920   1.000000
   30        2.331039   1.000000
   31        2.379374   1.000000
   32        2.482482   1.000000
   33        2.525195   1.000000
   34        2.603208   1.000000
   35        2.664217   1.000000
   36        2.753010   1.000000
   37        2.855934   1.000000
   38        2.902088   1.000000
   39        2.973841   1.000000
   40        3.016915   1.000000
   41        3.103148   1.000000
   42        3.123163   1.000000
   43        3.304739   1.000000
   44        3.347181   1.000000
   45        3.393073   1.000000
   46        3.459918   1.000000
   47        3.534370   1.000000
   48        3.588266   1.000000
   49        3.679893   1.000000
   50        3.733092   1.000000
   51        3.755874   1.000000
   52        3.843791   1.000000
   53        3.936013   1.000000
   54        3.992447   1.000000
   55        4.047440   1.000000
   56        4.108284   1.000000
   57        4.200717   1.000000
   58        4.288358   1.000000
   59        4.368354   1.000000
   60        4.441538   1.000000
   61        4.494879   1.000000
   62        4.511184   1.000000
   63        4.596613   1.000000
   64        4.613469   1.000000
   65        4.648296   1.000000
   66        4.734169   1.000000
   67        4.762283   1.000000
   68        4.796207   1.000000
   69        4.840504   1.000000
   70        4.858726   1.000000
   71        4.892786   1.000000
   72        4.915086   1.000000
   73        4.937605   1.000000
   74        4.990338   1.000000
   75        5.023324   1.000000
   76        5.089543   1.000000
   77        5.156190   1.000000
   78        5.183248   1.000000
   79        5.247694   1.000000
   80        5.324996   1.000000
   81        5.373072   1.000002
   82        5.426405   1.000011
   83        5.492427   1.000080
   84        5.511521   1.000136
   85        5.547073   1.000346
   86        5.618794   1.001827
   87        5.664148   1.004471
   88        5.712778   1.010104
   89        5.738390   1.014543
   90        5.783338   1.024344
   91        5.813189   1.030897
   92        5.843914   1.035168
   93        5.875658   1.033133
   94        5.896810   1.025640
   95        5.990675   0.889069
   96        6.015096   0.819022
   97        6.088894   0.537704
   98        6.126805   0.378745
   99        6.205088   0.110584
  100        6.240606   0.035347
  101        6.288376  -0.019512
  102        6.328022  -0.034534
  103        6.378019  -0.031735
  104        6.426652  -0.021037
  105        6.465335  -0.013028
  106        6.482053  -0.010226
  107        6.542874  -0.003613
  108        6.593063  -0.001287
  109        6.672979  -0.000184
  110        6.749640  -0.000020
  111        6.830255  -0.000001
  112        7.112783  -0.000000
  113        7.486991  -0.000000
  114        7.586798  -0.000000
  115        7.655191  -0.000000
  116        7.686689  -0.000000
  117        7.825800  -0.000000
  118        7.887617  -0.000000
  119        7.925457  -0.000000
  120        8.003674  -0.000000
 
  0.4000000E+00  0.2000000E+00 -0.1387779E-16  0.1600000E-01
    1      -47.983133   1.000000
    2      -47.955863   1.000000
    3      -47.925032   1.000000
    4      -47.888035   1.000000
    5      -47.862317   1.000000
    6      -47.794678   1.000000
    7      -24.491518   1.000000
    8      -24.362740   1.000000
    9      -24.322690   1.000000
   10      -24.206189   1.000000
   11      -24.128743   1.000000
   12      -24.119262   1.000000
   13      -24.095522   1.000000
   14      -24.071702   1.000000
   15      -24.052458   1.000000
   16      -24.041337   1.000000
   17      -24.026493   1.000000
   18      -23.984623   1.000000
   19      -23.958638   1.000000
   20      -23.923362   1.000000
   21      -23.868091   1.000000
   22      -23.807334   1.000000
   23      -23.781804   1.000000
   24      -23.657682   1.000000
   25        0.466775   1.000000
   26        1.421792   1.000000
   27        1.772989   1.000000
   28        1.978254   1.000000
   29        2.121502   1.000000
   30        2.255158   1.000000
   31        2.586313   1.000000
   32        2.777036   1.000000
   33        2.836972   1.000000
   34        2.936720   1.000000
   35        3.006365   1.000000
   36        3.057475   1.000000
   37        3.137016   1.000000
   38        3.171072   1.000000
   39        3.198663   1.000000
   40        3.322583   1.000000
   41        3.396867   1.000000
   42        3.426736   1.000000
   43        3.497738   1.000000
   44        3.528108   1.000000
   45        3.580473   1.000000
   46        3.621416   1.000000
   47        3.690497   1.000000
   48        3.766033   1.000000
   49        3.814909   1.000000
   50        3.885015   1.000000
   51        3.931688   1.000000
   52        4.005167   1.000000
   53        4.065302   1.000000
   54        4.093709   1.000000
   55        4.152610   1.000000
   56        4.208423   1.000000
   57        4.258221   1.000000
   58        4.337655   1.000000
   59        4.399960   1.000000
   60        4.517990   1.000000
   61        4.541454   1.000000
   62        4.561043   1.000000
   63        4.622080   1.000000
   64        4.669484   1.000000
   65        4.707666   1.000000
   66        4.757716   1.000000
   67        4.792732   1.000000
   68        4.834280   1.000000
   69        4.872457   1.000000
   70        4.915241   1.000000
   71        4.962123   1.000000
   72        4.979093   1.000000
   73        5.014190   1.000000
   74        5.079318   1.000000
   75        5.107625   1.000000
   76        5.150043   1.000000
   77        5.169950   1.000000
   78        5.267618   1.000000
   79        5.309510   1.000000
   80        5.362930   1.000001
   81        5.385026   1.000003
   82        5.433260   1.000014
   83        5.483305   1.000062
   84        5.499871   1.000099
   85        5.525612   1.000199
   86        5.544789   1.000327
   87        5.617923   1.001793
   88        5.630089   1.002310
   89        5.680287   1.005962
   90        5.720323   1.011303
   91        5.745014   1.015853
   92        5.772389   1.021816
   93        5.798584   1.027823
   94        5.844830   1.035222
   95        5.862794   1.035052
   96        5.895835   1.026124
   97        5.930948   0.998316
   98        5.961674   0.952954
   99        5.976765   0.922354
  100        6.017142   0.812510
  101        6.060541   0.654717
  102        6.111368   0.442792
  103        6.149175   0.290417
  104        6.191468   0.147824
  105        6.233754   0.047413
  106        6.260224   0.006933
  107        6.380342  -0.031301
  108        6.481921  -0.010247
  109        6.528035  -0.004761
  110        6.607487  -0.000930
  111        6.676477  -0.000167
  112        7.001732  -0.000000
  113        7.115674  -0.000000
  114        7.175267  -0.000000
  115        7.248486  -0.000000
  116        7.357697  -0.000000
  117        7.418973  -0.000000
  118        7.477499  -0.000000
  119        7.544269  -0.000000
  120        7.587788  -0.000000
 
 -0.4000000E+00  0.2000000E+00  0.1110223E-15  0.1600000E-01
    1      -47.982898   1.000000
    2      -47.955717   1.000000
    3      -47.925090   1.000000
    4      -47.888300   1.000000
    5      -47.862376   1.000000
    6      -47.794675   1.000000
    7      -24.490432   1.000000
    8      -24.359968   1.000000
    9      -24.319383   1.000000
   10      -24.206209   1.000000
   11      -24.128857   1.000000
   12      -24.119252   1.000000
   13      -24.095598   1.000000
   14      -24.071703   1.000000
   15      -24.052392   1.000000
   16      -24.041382   1.000000
   17      -24.026439   1.000000
   18      -23.984558   1.000000
   19      -23.958713   1.000000
   20      -23.923403   1.000000
   21      -23.868111   1.000000
   22      -23.813214   1.000000
   23      -23.783663   1.000000
   24      -23.658061   1.000000
   25        0.815625   1.000000
   26        1.455922   1.000000
   27        1.579802   1.000000
   28        1.865365   1.000000
   29        2.150206   1.000000
   30        2.375191   1.000000
   31        2.460024   1.000000
   32        2.599469   1.000000
   33        2.824046   1.000000
   34        2.939349   1.000000
   35        3.027264   1.000000
   36        3.096253   1.000000
   37        3.132629   1.000000
   38        3.200526   1.000000
   39        3.237430   1.000000
   40        3.293688   1.000000
   41        3.352880   1.000000
   42        3.391776   1.000000
   43        3.467994   1.000000
   44        3.530862   1.000000
   45        3.590638   1.000000
   46        3.675374   1.000000
   47        3.719839   1.000000
   48        3.790978   1.000000
   49        3.870603   1.000000
   50        3.922984   1.000000
   51        3.948132   1.000000
   52        4.011380   1.000000
   53        4.056118   1.000000
   54        4.156092   1.000000
   55        4.237546   1.000000
   56        4.346272   1.000000
   57        4.400445   1.000000
   58        4.434218   1.000000
   59        4.445489   1.000000
   60        4.473288   1.000000
   61        4.495349   1.000000
   62        4.557299   1.000000
   63        4.571552   1.000000
   64        4.646692   1.000000
   65        4.668800   1.000000
   66        4.726333   1.000000
   67        4.784799   1.000000
   68        4.829684   1.000000
   69        4.841695   1.000000
   70        4.869675   1.000000
   71        4.883910   1.000000
   72        4.983734   1.000000
   73        5.016566   1.000000
   74        5.044798   1.000000
   75        5.111764   1.000000
   76        5.133991   1.000000
   77        5.174005   1.000000
   78        5.199550   1.000000
   79        5.298795   1.000000
   80        5.347442   1.000001
   81        5.359467   1.000001
   82        5.421320   1.000009
   83        5.431588   1.000013
   84        5.476500   1.000051
   85        5.587189   1.000910
   86        5.614951   1.001684
   87        5.657354   1.003942
   88        5.678709   1.005801
   89        5.726542   1.012361
   90        5.744465   1.015742
   91        5.801182   1.028396
   92        5.813704   1.030997
   93        5.851187   1.035447
   94        5.887419   1.029714
   95        5.917677   1.011516
   96        5.965634   0.945475
   97        5.996987   0.872360
   98        6.022416   0.795290
   99        6.060112   0.656431
  100        6.103650   0.475319
  101        6.140221   0.324958
  102        6.174361   0.200904
  103        6.223776   0.067056
  104        6.259757   0.007508
  105        6.271280  -0.005324
  106        6.304213  -0.028137
  107        6.344817  -0.035442
  108        6.366343  -0.033643
  109        6.453662  -0.015242
  110        6.510458  -0.006483
  111        6.638966  -0.000440
  112        6.662789  -0.000240
  113        6.694535  -0.000102
  114        6.804151  -0.000004
  115        7.075406  -0.000000
  116        7.230135  -0.000000
  117        7.423900  -0.000000
  118        7.436156  -0.000000
  119        7.487928  -0.000000
  120        7.520209  -0.000000
 
 -0.2000000E+00  0.2000000E+00 -0.1040834E-15  0.1600000E-01
    1      -47.984378   1.000000
    2      -47.962389   1.000000
    3      -47.930690   1.000000
    4      -47.891230   1.000000
    5      -47.864295   1.000000
    6      -47.776727   1.000000
    7      -24.526100   1.000000
    8      -24.466959   1.000000
    9      -24.336896   1.000000
   10      -24.304544   1.000000
   11      -24.123605   1.000000
   12      -24.116559   1.000000
   13      -24.105699   1.000000
   14      -24.070453   1.000000
   15      -24.053595   1.000000
   16      -24.041572   1.000000
   17      -24.023063   1.000000
   18      -23.981560   1.000000
   19      -23.939625   1.000000
   20      -23.919688   1.000000
   21      -23.814600   1.000000
   22      -23.798255   1.000000
   23      -23.663097   1.000000
   24      -23.566183   1.000000
   25       -0.014218   1.000000
   26        1.070614   1.000000
   27        1.314407   1.000000
   28        1.509879   1.000000
   29        2.061378   1.000000
   30        2.415880   1.000000
   31        2.514033   1.000000
   32        2.605027   1.000000
   33        2.649579   1.000000
   34        2.693948   1.000000
   35        2.821049   1.000000
   36        2.845270   1.000000
   37        2.858982   1.000000
   38        2.941775   1.000000
   39        2.961733   1.000000
   40        3.022277   1.000000
   41        3.065866   1.000000
   42        3.128493   1.000000
   43        3.201098   1.000000
   44        3.269230   1.000000
   45        3.345917   1.000000
   46        3.405036   1.000000
   47        3.486594   1.000000