       N       E                     dE             d eps       ncg     rms          rms(c)
DAV:   1    -0.441996239670E+03   -0.44200E+03   -0.10572E+02 22232   0.276E+01    0.826E+01
DAV:   2    -0.503428550023E+03   -0.61432E+02   -0.38027E+03 27216   0.158E+02    0.186E+02
DAV:   3    -0.372087619960E+03    0.13134E+03   -0.21044E+03 27416   0.256E+02    0.676E+01
DAV:   4    -0.331201080827E+03    0.40887E+02   -0.60774E+02 26688   0.847E+01    0.538E+01
DAV:   5    -0.326836345110E+03    0.43647E+01   -0.21526E+02 25448   0.572E+01    0.446E+01
DAV:   6    -0.330707841909E+03   -0.38715E+01   -0.14082E+02 25776   0.470E+01    0.427E+01
DAV:   7    -0.325720248939E+03    0.49876E+01   -0.16773E+02 27808   0.659E+01    0.314E+01
DAV:   8    -0.322380604405E+03    0.33396E+01   -0.77160E+01 25568   0.417E+01    0.234E+01
DAV:   9    -0.321481442725E+03    0.89916E+00   -0.45512E+01 26096   0.272E+01    0.231E+01
DAV:  10    -0.319618783524E+03    0.18627E+01   -0.36174E+01 24144   0.285E+01    0.185E+01
DAV:  11    -0.318404645656E+03    0.12141E+01   -0.76444E+00 25592   0.118E+01    0.143E+01
DAV:  12    -0.318326880750E+03    0.77765E-01   -0.34999E+00 24560   0.798E+00    0.136E+01
DAV:  13    -0.318066394316E+03    0.26049E+00   -0.23245E+00 24784   0.646E+00    0.117E+01
DAV:  14    -0.317926829981E+03    0.13956E+00   -0.15039E+00 27144   0.468E+00    0.990E+00
DAV:  15    -0.317861341263E+03    0.65489E-01   -0.72763E-01 27200   0.317E+00    0.860E+00
DAV:  16    -0.317824290635E+03    0.37051E-01   -0.59331E-01 25256   0.332E+00    0.742E+00
DAV:  17    -0.317784906005E+03    0.39385E-01   -0.42086E-01 25512   0.250E+00    0.603E+00
DAV:  18    -0.317755234570E+03    0.29671E-01   -0.57097E-01 26304   0.287E+00    0.533E+00
DAV:  19    -0.317725500402E+03    0.29734E-01   -0.14869E-01 25560   0.150E+00    0.436E+00
DAV:  20    -0.317708330374E+03    0.17170E-01   -0.63385E-02 24920   0.986E-01    0.339E+00
DAV:  21    -0.317693766793E+03    0.14564E-01   -0.81910E-02 26472   0.949E-01    0.219E+00
DAV:  22    -0.317683107109E+03    0.10660E-01   -0.69559E-02 25800   0.908E-01    0.144E+00
DAV:  23    -0.317679634033E+03    0.34731E-02   -0.26392E-02 25080   0.495E-01    0.895E-01
DAV:  24    -0.317678145412E+03    0.14886E-02   -0.12886E-02 23496   0.340E-01    0.260E-01
DAV:  25    -0.317678147352E+03   -0.19400E-05   -0.83572E-03 24744   0.298E-01    0.438E-01
DAV:  26    -0.317677768495E+03    0.37886E-03   -0.42635E-03 23600   0.219E-01    0.148E-01
DAV:  27    -0.317677691071E+03    0.77425E-04   -0.14104E-03 21240   0.135E-01    0.849E-02
DAV:  28    -0.317677667937E+03    0.23133E-04   -0.47609E-04 15096   0.770E-02
   1 F= -.31767767E+03 E0= -.31767443E+03  d E =-.970399E-02
