 vasp.5.4.4.18Apr17-6-g9f103f2a35 (build Aug 09 2018 16:20:53) complex          
  
 executed on             LinuxIFC date 2020.04.28  21:33:05
 running on   32 total cores
 distrk:  each k-point on   32 cores,    1 groups
 distr:  one band on NCORES_PER_BAND=   4 cores,    8 groups


--------------------------------------------------------------------------------------------------------


 INCAR:
 POTCAR:    PAW_PBE Nb_sv 25May2007               
 POTCAR:    PAW_PBE Mo 08Apr2002                  
 POTCAR:    PAW_PBE Ta 17Jan2003                  
 POTCAR:    PAW_PBE Ti 08Apr2002                  
 POTCAR:    PAW_PBE V 08Apr2002                   
 POTCAR:    PAW_PBE Nb_sv 25May2007               
   VRHFIN =Nb: 4p5s4d                                                           
   LEXCH  = PE                                                                  
   EATOM  =  1555.1913 eV,  114.3033 Ry                                         
                                                                                
   TITEL  = PAW_PBE Nb_sv 25May2007                                             
   LULTRA =        F    use ultrasoft PP ?                                      
   IUNSCR =        1    unscreen: 0-lin 1-nonlin 2-no                           
   RPACOR =    1.800    partial core radius                                     
   POMASS =   92.910; ZVAL   =   13.000    mass and valenz                      
   RCORE  =    2.400    outmost cutoff radius                                   
   RWIGS  =    2.400; RWIGS  =    1.270    wigner-seitz radius (au A)           
   ENMAX  =  293.235; ENMIN  =  219.927 eV                                      
   ICORE  =        3    local potential                                         
   LCOR   =        T    correct aug charges                                     
   LPAW   =        T    paw PP                                                  
   EAUG   =  455.659                                                            
   DEXC   =    0.000                                                            
   RMAX   =    2.456    core radius for proj-oper                               
   RAUG   =    1.300    factor for augmentation sphere                          
   RDEP   =    2.451    radius for radial grids                                 
   RDEPT  =    1.956    core radius for aug-charge                              
                                                                                
   Atomic configuration                                                         
   11 entries                                                                   
     n  l   j            E        occ.                                          
     1  0  0.50    -18805.2457   2.0000                                         
     2  0  0.50     -2630.2869   2.0000                                         
     2  1  1.50     -2348.4046   6.0000                                         
     3  0  0.50      -438.8757   2.0000                                         
     3  1  1.50      -346.7588   6.0000                                         
     3  2  2.50      -196.2560  10.0000                                         
     4  0  0.50       -58.3859   2.0000                                         
     5  0  0.50        -3.9816   1.0000                                         
     4  1  1.50       -34.5141   6.0000                                         
     4  2  2.50        -3.0408   4.0000                                         
     4  3  2.50        -1.3606   0.0000                                         
   Description                                                                  
     l       E           TYP  RCUT    TYP  RCUT                                 
     0    -58.3859094     23  2.200                                             
     0     -3.9816262     23  2.200                                             
     1    -34.5140738     23  2.200                                             
     1     13.6058260     23  2.200                                             
     2     -3.0408010     23  2.200                                             
     2     -0.1283038     23  2.200                                             
     3     -1.3605826     23  2.400                                             
  local pseudopotential read in
  partial core-charges read in
  partial kinetic energy density read in
  atomic valenz-charges read in
  non local Contribution for L=           0  read in
    real space projection operators read in
  non local Contribution for L=           0  read in
    real space projection operators read in
  non local Contribution for L=           1  read in
    real space projection operators read in
  non local Contribution for L=           1  read in
    real space projection operators read in
  non local Contribution for L=           2  read in
    real space projection operators read in
  non local Contribution for L=           2  read in
    real space projection operators read in
    PAW grid and wavefunctions read in
 
   number of l-projection  operators is LMAX  =           6
   number of lm-projection operators is LMMAX =          18
 
 POTCAR:    PAW_PBE Mo 08Apr2002                  
   VRHFIN =Mo: 4p5s4d                                                           
   LEXCH  = PE                                                                  
   EATOM  =   217.5176 eV,   15.9871 Ry                                         
                                                                                
   TITEL  = PAW_PBE Mo 08Apr2002                                                
   LULTRA =        F    use ultrasoft PP ?                                      
   IUNSCR =        1    unscreen: 0-lin 1-nonlin 2-no                           
   RPACOR =    2.200    partial core radius                                     
   POMASS =   95.940; ZVAL   =    6.000    mass and valenz                      
   RCORE  =    2.750    outmost cutoff radius                                   
   RWIGS  =    2.750; RWIGS  =    1.455    wigner-seitz radius (au A)           
   ENMAX  =  224.584; ENMIN  =  168.438 eV                                      
   RCLOC  =    2.111    cutoff for local pot                                    
   LCOR   =        T    correct aug charges                                     
   LPAW   =        T    paw PP                                                  
   EAUG   =  345.278                                                            
   DEXC   =    0.000                                                            
   RMAX   =    2.821    core radius for proj-oper                               
   RAUG   =    1.300    factor for augmentation sphere                          
   RDEP   =    2.815    radius for radial grids                                 
   RDEPT  =    2.211    core radius for aug-charge                              
                                                                                
   Atomic configuration                                                         
   12 entries                                                                   
     n  l   j            E        occ.                                          
     1  0  0.50    -19819.0341   2.0000                                         
     2  0  0.50     -2799.0127   2.0000                                         
     2  1  1.50     -2502.0276   6.0000                                         
     3  0  0.50      -476.4448   2.0000                                         
     3  1  1.50      -379.1496   6.0000                                         
     3  2  2.50      -220.9367  10.0000                                         
     4  0  0.50       -64.3378   2.0000                                         
     4  1  1.50       -38.4773   6.0000                                         
     4  2  2.50        -3.7535   5.0000                                         
     5  0  0.50        -4.0862   1.0000                                         
     5  1  0.50        -2.7701   0.0000                                         
     4  3  2.50        -1.3606   0.0000                                         
   Description                                                                  
     l       E           TYP  RCUT    TYP  RCUT                                 
     2     -3.7534765     23  2.500                                             
     2     -5.1140591     23  2.500                                             
     0     -4.0861560     23  2.600                                             
     0     13.6058260     23  2.600                                             
     1      5.4423304     23  2.750                                             
     1     27.2116520     23  2.750                                             
  local pseudopotential read in
  partial core-charges read in
  partial kinetic energy density read in
  atomic valenz-charges read in
  non local Contribution for L=           2  read in
    real space projection operators read in
  non local Contribution for L=           2  read in
    real space projection operators read in
  non local Contribution for L=           0  read in
    real space projection operators read in
  non local Contribution for L=           0  read in
    real space projection operators read in
  non local Contribution for L=           1  read in
    real space projection operators read in
  non local Contribution for L=           1  read in
    real space projection operators read in
    PAW grid and wavefunctions read in
 
   number of l-projection  operators is LMAX  =           6
   number of lm-projection operators is LMMAX =          18
 
 POTCAR:    PAW_PBE Ta 17Jan2003                  
   VRHFIN =Ta:  6s5d                                                            
   LEXCH  = PE                                                                  
   EATOM  =   130.6506 eV,    9.6025 Ry                                         
                                                                                
   TITEL  = PAW_PBE Ta 17Jan2003                                                
   LULTRA =        F    use ultrasoft PP ?                                      
   IUNSCR =        1    unscreen: 0-lin 1-nonlin 2-no                           
   RPACOR =    2.330    partial core radius                                     
   POMASS =  180.948; ZVAL   =    5.000    mass and valenz                      
   RCORE  =    2.900    outmost cutoff radius                                   
   RWIGS  =    2.840; RWIGS  =    1.503    wigner-seitz radius (au A)           
   ENMAX  =  223.667; ENMIN  =  167.750 eV                                      
   RCLOC  =    2.205    cutoff for local pot                                    
   LCOR   =        T    correct aug charges                                     
   LPAW   =        T    paw PP                                                  
   EAUG   =  332.075                                                            
   DEXC   =    0.000                                                            
   RMAX   =    2.970    core radius for proj-oper                               
   RAUG   =    1.300    factor for augmentation sphere                          
   RDEP   =    3.060    radius for radial grids                                 
   RDEPT  =    2.354    core radius for aug-charge                              
                                                                                
   Atomic configuration                                                         
   16 entries                                                                   
     n  l   j            E        occ.                                          
     1  0  0.50    -67341.2807   2.0000                                         
     2  0  0.50    -11566.9376   2.0000                                         
     2  1  1.50    -10134.1182   6.0000                                         
     3  0  0.50     -2648.5620   2.0000                                         
     3  1  1.50     -2222.6012   6.0000                                         
     3  2  2.50     -1726.3120  10.0000                                         
     4  0  0.50      -538.6961   2.0000                                         
     4  1  1.50      -399.0129   6.0000                                         
     4  2  2.50      -220.3959  10.0000                                         
     4  3  3.50       -23.0374  14.0000                                         
     5  0  0.50       -71.2901   2.0000                                         
     5  1  1.50       -37.8225   6.0000                                         
     5  2  2.50        -2.6455   4.0000                                         
     6  0  0.50        -4.9623   1.0000                                         
     6  1  1.50        -1.3606   0.0000                                         
     5  3  2.50        -1.3606   0.0000                                         
   Description                                                                  
     l       E           TYP  RCUT    TYP  RCUT                                 
     2     -2.6455043     23  2.500                                             
     2     -0.6258895     23  2.500                                             
     0     -4.9622780     23  2.500                                             
     0      4.7531321     23  2.500                                             
     1     -1.3605826     23  2.900                                             
     1     27.2116520     23  2.900                                             
  local pseudopotential read in
  partial core-charges read in
  partial kinetic energy density read in
  atomic valenz-charges read in
  non local Contribution for L=           2  read in
    real space projection operators read in
  non local Contribution for L=           2  read in
    real space projection operators read in
  non local Contribution for L=           0  read in
    real space projection operators read in
  non local Contribution for L=           0  read in
    real space projection operators read in
  non local Contribution for L=           1  read in
    real space projection operators read in
  non local Contribution for L=           1  read in
    real space projection operators read in
    PAW grid and wavefunctions read in
 
   number of l-projection  operators is LMAX  =           6
   number of lm-projection operators is LMMAX =          18
 
 POTCAR:    PAW_PBE Ti 08Apr2002                  
   VRHFIN =Ti: d3 s1                                                            
   LEXCH  = PE                                                                  
   EATOM  =    94.7928 eV,    6.9671 Ry                                         
                                                                                
   TITEL  = PAW_PBE Ti 08Apr2002                                                
   LULTRA =        F    use ultrasoft PP ?                                      
   IUNSCR =        1    unscreen: 0-lin 1-nonlin 2-no                           
   RPACOR =    2.200    partial core radius                                     
   POMASS =   47.880; ZVAL   =    4.000    mass and valenz                      
   RCORE  =    2.800    outmost cutoff radius                                   
   RWIGS  =    2.500; RWIGS  =    1.323    wigner-seitz radius (au A)           
   ENMAX  =  178.330; ENMIN  =  133.747 eV                                      
   RCLOC  =    2.215    cutoff for local pot                                    
   LCOR   =        T    correct aug charges                                     
   LPAW   =        T    paw PP                                                  
   EAUG   =  328.883                                                            
   DEXC   =    0.000                                                            
   RMAX   =    2.868    core radius for proj-oper                               
   RAUG   =    1.300    factor for augmentation sphere                          
   RDEP   =    2.885    radius for radial grids                                 
   RDEPT  =    2.320    core radius for aug-charge                              
                                                                                
   Atomic configuration                                                         
    9 entries                                                                   
     n  l   j            E        occ.                                          
     1  0  0.50     -4865.3608   2.0000                                         
     2  0  0.50      -533.1367   2.0000                                         
     2  1  1.50      -440.5031   6.0000                                         
     3  0  0.50       -59.3186   2.0000                                         
     3  1  1.50       -35.7012   6.0000                                         
     3  2  2.50        -1.9157   3.0000                                         
     4  0  0.50        -3.7291   1.0000                                         
     4  1  1.50        -4.0817   0.0000                                         
     4  3  2.50        -1.3606   0.0000                                         
   Description                                                                  
     l       E           TYP  RCUT    TYP  RCUT                                 
     2     -1.9156924     23  2.800                                             
     2     -0.4062961     23  2.800                                             
     0     -3.7290832     23  2.800                                             
     0     20.4087390     23  2.800                                             
     1     -5.4423304     23  2.800                                             
  local pseudopotential read in
  partial core-charges read in
  partial kinetic energy density read in
  atomic valenz-charges read in
  non local Contribution for L=           2  read in
    real space projection operators read in
  non local Contribution for L=           2  read in
    real space projection operators read in
  non local Contribution for L=           0  read in
    real space projection operators read in
  non local Contribution for L=           0  read in
    real space projection operators read in
  non local Contribution for L=           1  read in
    real space projection operators read in
    PAW grid and wavefunctions read in
 
   number of l-projection  operators is LMAX  =           5
   number of lm-projection operators is LMMAX =          15
 
 POTCAR:    PAW_PBE V 08Apr2002                   
   VRHFIN =V: p6 d4 s1                                                          
   LEXCH  = PE                                                                  
   EATOM  =   170.8679 eV,   12.5584 Ry                                         
                                                                                
   TITEL  = PAW_PBE V 08Apr2002                                                 
   LULTRA =        F    use ultrasoft PP ?                                      
   IUNSCR =        1    unscreen: 0-lin 1-nonlin 2-no                           
   RPACOR =    2.000    partial core radius                                     
   POMASS =   50.941; ZVAL   =    5.000    mass and valenz                      
   RCORE  =    2.700    outmost cutoff radius                                   
   RWIGS  =    2.500; RWIGS  =    1.323    wigner-seitz radius (au A)           
   ENMAX  =  192.543; ENMIN  =  144.408 eV                                      
   RCLOC  =    1.779    cutoff for local pot                                    
   LCOR   =        T    correct aug charges                                     
   LPAW   =        T    paw PP                                                  
   EAUG   =  358.662                                                            
   DEXC   =    0.000                                                            
   RMAX   =    2.768    core radius for proj-oper                               
   RAUG   =    1.300    factor for augmentation sphere                          
   RDEP   =    2.762    radius for radial grids                                 
   RDEPT  =    2.240    core radius for aug-charge                              
                                                                                
   Atomic configuration                                                         
    9 entries                                                                   
     n  l   j            E        occ.                                          
     1  0  0.50     -5360.7193   2.0000                                         
     2  0  0.50      -598.4546   2.0000                                         
     2  1  1.50      -499.0155   6.0000                                         
     3  0  0.50       -66.5711   2.0000                                         
     3  1  1.50       -40.5282   6.0000                                         
     3  2  2.50        -2.4291   4.0000                                         
     4  0  0.50        -3.8743   1.0000                                         
     4  1  0.50        -2.7212   0.0000                                         
     4  3  2.50        -1.3606   0.0000                                         
   Description                                                                  
     l       E           TYP  RCUT    TYP  RCUT                                 
     2     -2.4290901     23  2.700                                             
     2     -3.7896727     23  2.700                                             
     0     -3.8742752     23  2.700                                             
     0     27.2116520     23  2.700                                             
     1     -2.7211652     23  2.700                                             
     1     27.2116520     23  2.700                                             
  local pseudopotential read in
  partial core-charges read in
  partial kinetic energy density read in
  atomic valenz-charges read in
  non local Contribution for L=           2  read in
    real space projection operators read in
  non local Contribution for L=           2  read in
    real space projection operators read in
  non local Contribution for L=           0  read in
    real space projection operators read in
  non local Contribution for L=           0  read in
    real space projection operators read in
  non local Contribution for L=           1  read in
    real space projection operators read in
  non local Contribution for L=           1  read in
    real space projection operators read in
    PAW grid and wavefunctions read in
 
   number of l-projection  operators is LMAX  =           6
   number of lm-projection operators is LMMAX =          18
 
 Optimization of the real space projectors (new method)

 maximal supplied QI-value         = 15.68
 optimisation between [QCUT,QGAM] = [ 12.55, 25.10] = [ 44.09,176.36] Ry 
 Optimized for a Real-space Cutoff    1.56 Angstroem

   l    n(q)    QCUT    max X(q) W(low)/X(q) W(high)/X(q)  e(spline) 
   0     12    12.548    10.201    0.21E-04    0.36E-05    0.83E-07
   0     12    12.548     8.174    0.31E-04    0.62E-05    0.15E-06
   1     11    12.548     3.488    0.79E-05    0.23E-04    0.21E-06
   1     11    12.548     4.917    0.56E-04    0.13E-03    0.11E-05
   2     11    12.548   153.744    0.25E-03    0.10E-03    0.15E-05
   2     11    12.548   126.342    0.25E-03    0.10E-03    0.15E-05
 Optimization of the real space projectors (new method)

 maximal supplied QI-value         = 13.61
 optimisation between [QCUT,QGAM] = [ 12.52, 25.04] = [ 43.88,175.51] Ry 
 Optimized for a Real-space Cutoff    1.56 Angstroem

   l    n(q)    QCUT    max X(q) W(low)/X(q) W(high)/X(q)  e(spline) 
   2     11    12.518    80.908    0.42E-03    0.30E-03    0.14E-05
   2     11    12.518    79.000    0.42E-03    0.30E-03    0.14E-05
   0     12    12.518    52.066    0.58E-04    0.50E-04    0.55E-06
   0     12    12.518    24.514    0.48E-04    0.41E-04    0.46E-06
   1     11    12.518    16.033    0.62E-04    0.13E-03    0.37E-06
   1     11    12.518    11.179    0.47E-04    0.10E-03    0.31E-06
 Optimization of the real space projectors (new method)

 maximal supplied QI-value         = 12.85
 optimisation between [QCUT,QGAM] = [ 12.46, 25.06] = [ 43.51,175.83] Ry 
 Optimized for a Real-space Cutoff    1.56 Angstroem

   l    n(q)    QCUT    max X(q) W(low)/X(q) W(high)/X(q)  e(spline) 
   2     11    12.465    62.315    0.36E-03    0.20E-03    0.15E-05
   2     11    12.465    52.185    0.36E-03    0.20E-03    0.15E-05
   0     12    12.465   103.837    0.22E-04    0.37E-05    0.56E-06
   0     12    12.465    59.728    0.20E-04    0.34E-05    0.51E-06
   1     11    12.465    13.958    0.44E-03    0.81E-03    0.81E-05
   1     11    12.465     8.441    0.31E-03    0.56E-03    0.56E-05
 Optimization of the real space projectors (new method)

 maximal supplied QI-value         = 13.42
 optimisation between [QCUT,QGAM] = [ 12.48, 25.09] = [ 43.60,176.28] Ry 
 Optimized for a Real-space Cutoff    1.56 Angstroem

   l    n(q)    QCUT    max X(q) W(low)/X(q) W(high)/X(q)  e(spline) 
   2     11    12.478    49.363    0.45E-03    0.34E-03    0.89E-06
   2     11    12.478    47.669    0.44E-03    0.33E-03    0.87E-06
   0     12    12.478    26.374    0.17E-03    0.37E-04    0.21E-05
   0     12    12.478    11.549    0.13E-03    0.31E-04    0.17E-05
   1     11    12.478     9.492    0.91E-05    0.64E-04    0.34E-06
 Optimization of the real space projectors (new method)

 maximal supplied QI-value         = 13.98
 optimisation between [QCUT,QGAM] = [ 12.45, 25.03] = [ 43.38,175.46] Ry 
 Optimized for a Real-space Cutoff    1.56 Angstroem

   l    n(q)    QCUT    max X(q) W(low)/X(q) W(high)/X(q)  e(spline) 
   2     11    12.446    96.114    0.19E-03    0.47E-04    0.85E-06
   2     11    12.446    88.986    0.19E-03    0.46E-04    0.86E-06
   0     12    12.446    20.919    0.37E-04    0.64E-04    0.43E-06
   0     12    12.446     9.593    0.25E-04    0.48E-04    0.33E-06
   1     11    12.446    11.615    0.75E-04    0.30E-04    0.59E-06
   1     11    12.446     7.031    0.53E-04    0.23E-04    0.40E-06

 ----------------------------------------------------------------------------- 
|                                                                             |
|  ADVICE TO THIS USER RUNNING 'VASP/VAMP'   (HEAR YOUR MASTER'S VOICE ...):  |
|                                                                             |
|      You enforced a specific xc-type in the INCAR file,                     |
|      a different type was found on the POTCAR file                          |
|          I HOPE YOU KNOW, WHAT YOU ARE  DOING                               |
|                                                                             |
 ----------------------------------------------------------------------------- 

  PAW_PBE Nb_sv 25May2007               :
 energy of atom  1       EATOM=-1555.1913
 kinetic energy error for atom=    0.0037 (will be added to EATOM!!)
  PAW_PBE Mo 08Apr2002                  :
 energy of atom  2       EATOM= -217.5176
 kinetic energy error for atom=    0.0005 (will be added to EATOM!!)
  PAW_PBE Ta 17Jan2003                  :
 energy of atom  3       EATOM= -130.6506
 kinetic energy error for atom=    0.0004 (will be added to EATOM!!)
  PAW_PBE Ti 08Apr2002                  :
 energy of atom  4       EATOM=  -94.7928
 kinetic energy error for atom=    0.0001 (will be added to EATOM!!)
  PAW_PBE V 08Apr2002                   :
 energy of atom  5       EATOM= -170.8679
 kinetic energy error for atom=    0.0002 (will be added to EATOM!!)
 
 
 POSCAR: Nb - Mo - Ta - Ti - V SQS-30 BCC        
  positions in direct lattice
  No initial velocities read in
 exchange correlation table for  LEXCH =       14
   RHO(1)=    0.500       N(1)  =     2000
   RHO(2)=  100.500       N(2)  =     4000

 VTST: version 3.2, (02/03/18)

 CHAIN: initializing optimizer
 
 OPT: Using VASP Conjugate-Gradient optimizer
 CHAIN: Read ICHAIN            0
 
 POSCAR: Nb - Mo - Ta - Ti - V SQS-30 BCC        
  positions in direct lattice
  No initial velocities read in
 


--------------------------------------------------------------------------------------------------------


 ion  position               nearest neighbor table
   1  0.967  0.933  0.400-  18 2.80   7 2.80  24 2.80  20 2.80  20 2.80  19 2.80   6 2.80   2 2.80
                            16 3.23   8 3.23  15 3.23  11 3.23  12 3.23
   2  0.633  0.267  0.400-  18 2.80  26 2.80   9 2.80  12 2.80  12 2.80  28 2.80  15 2.80   1 2.80
                             8 3.23
   3  0.500  0.000  0.000-  13 2.80  21 2.80  17 2.80  15 2.80   4 2.80   4 2.80  27 2.80  16 2.80
                            10 3.23  14 3.23   7 3.23
   4  0.000  0.000  0.000-  10 2.80  29 2.80  24 2.80  14 2.80   3 2.80   3 2.80   7 2.80   5 2.80
                            15 3.23  13 3.23  17 3.23  16 3.23
   5  0.100  0.200  0.800-  25 2.80  17 2.80   6 2.80  21 2.80  23 2.80  27 2.80  27 2.80   4 2.80
                            10 3.23  14 3.23
   6  0.033  0.067  0.600-  26 2.80   5 2.80  14 2.80  28 2.80  28 2.80  12 2.80   1 2.80  11 2.80
                            17 3.23
   7  0.900  0.800  0.200-  30 2.80  15 2.80   1 2.80  13 2.80   8 2.80  16 2.80  16 2.80   4 2.80
                             9 3.23  20 3.23  24 3.23  29 3.23  18 3.23   3 3.23
   8  0.800  0.600  0.400-  20 2.80  12 2.80   9 2.80  19 2.80   7 2.80  18 2.80  18 2.80  26 2.80
                            30 3.23   1 3.23  11 3.23   2 3.23  16 3.23  23 3.23
   9  0.733  0.467  0.200-  16 2.80   8 2.80   2 2.80  30 2.80  30 2.80  13 2.80  10 2.80  24 2.80
                             7 3.23  18 3.23  12 3.23  29 3.23  15 3.23  21 3.23
  10  0.667  0.333  0.000-   4 2.80  27 2.80  21 2.80  21 2.80  25 2.80  15 2.80   9 2.80  29 2.80
                             3 3.23   5 3.23  22 3.23  24 3.23  13 3.23  30 3.23
  11  0.367  0.733  0.600-  26 2.80  18 2.80  22 2.80  19 2.80  19 2.80  20 2.80  17 2.80   6 2.80
                             8 3.23  23 3.23  25 3.23   1 3.23  28 3.23  14 3.23
  12  0.133  0.267  0.400-   8 2.80  23 2.80  30 2.80   2 2.80   2 2.80   6 2.80  24 2.80  20 2.80
                            18 3.23  26 3.23   9 3.23  28 3.23  15 3.23   1 3.23
  13  0.833  0.667  0.000-   3 2.80   7 2.80  29 2.80  29 2.80   9 2.80  14 2.80  25 2.80  21 2.80
                             4 3.23  16 3.23  30 3.23  17 3.23  10 3.23  22 3.23
  14  0.933  0.867  0.800-  27 2.80   4 2.80   6 2.80  17 2.80  13 2.80  17 2.80  19 2.80  22 2.80
                             3 3.23   5 3.23  28 3.23  29 3.23  11 3.23  25 3.23
  15  0.567  0.133  0.200-   7 2.80   3 2.80  24 2.80  20 2.80  10 2.80  24 2.80   2 2.80  30 2.80
                             4 3.23  16 3.23   1 3.23  21 3.23  12 3.23   9 3.23
  16  0.400  0.800  0.200-   9 2.80  24 2.80  20 2.80  29 2.80  18 2.80   7 2.80   7 2.80   3 2.80
                            30 3.23   1 3.23  13 3.23  15 3.23   8 3.23   4 3.23
  17  0.433  0.867  0.800-   5 2.80   3 2.80  28 2.80  14 2.80  29 2.80  14 2.80  11 2.80  25 2.80
                            27 3.23   4 3.23   6 3.23  13 3.23  19 3.23  22 3.23
  18  0.300  0.600  0.400-   1 2.80   2 2.80  30 2.80  11 2.80  16 2.80   8 2.80   8 2.80  23 2.80
                             9 3.23  20 3.23  12 3.23  19 3.23   7 3.23  26 3.23
  19  0.867  0.733  0.600-  23 2.80   8 2.80  25 2.80  11 2.80  11 2.80   1 2.80  14 2.80  28 2.80
                            18 3.23  17 3.23
  20  0.467  0.933  0.400-   8 2.80  16 2.80  15 2.80   1 2.80   1 2.80  11 2.80  28 2.80  12 2.80
                             7 3.23  18 3.23
  21  0.167  0.333  0.000-   3 2.80   5 2.80  10 2.80  10 2.80  22 2.80  24 2.80  30 2.80  13 2.80
                            15 3.23   9 3.23
  22  0.267  0.533  0.800-  27 2.80  23 2.80  11 2.80  25 2.80  25 2.80  21 2.80  29 2.80  14 2.80
                            10 3.23  13 3.23  17 3.23
  23  0.200  0.400  0.600-  28 2.80  19 2.80  22 2.80  12 2.80   5 2.80  26 2.80  26 2.80  18 2.80
                            11 3.23   8 3.23
  24  0.067  0.133  0.200-  16 2.80   4 2.80  15 2.80   1 2.80  15 2.80  21 2.80  12 2.80   9 2.80
                             7 3.23  10 3.23
  25  0.767  0.533  0.800-   5 2.80  26 2.80  19 2.80  22 2.80  22 2.80  10 2.80  13 2.80  17 2.80
                            11 3.23  14 3.23
  26  0.700  0.400  0.600-   6 2.80  11 2.80  25 2.80   2 2.80  27 2.80  23 2.80  23 2.80   8 2.80
                            12 3.23  18 3.23
  27  0.600  0.200  0.800-  22 2.80  14 2.80  28 2.80  10 2.80  26 2.80   5 2.80   5 2.80   3 2.80
                            17 3.23
  28  0.533  0.067  0.600-  23 2.80  27 2.80  17 2.80   6 2.80   6 2.80   2 2.80  20 2.80  19 2.80
                            14 3.23  12 3.23  11 3.23
  29  0.333  0.667  0.000-   4 2.80  16 2.80  13 2.80  13 2.80  30 2.80  17 2.80  22 2.80  10 2.80
                             7 3.23   9 3.23  14 3.23
  30  0.233  0.467  0.200-   7 2.80  18 2.80  12 2.80   9 2.80   9 2.80  29 2.80  21 2.80  15 2.80
                            16 3.23   8 3.23  13 3.23  10 3.23
 
  LATTYP: Found a triclinic cell.
 ALAT       =     5.5945241084
 B/A-ratio  =     2.8722813233
 C/A-ratio  =     2.0615528128
 COS(alpha) =     0.0140733444
 COS(beta)  =     0.0808452083
 COS(gamma) =     0.8703882798
  
  Lattice vectors:
  
 A1 = (   3.2300000000,   3.2300000000,   3.2300000000)
 A2 = (  11.3050000000,  11.3050000000,   1.6150000000)
 A3 = (  -8.0750000000,   8.0750000000,   1.6150000000)


Analysis of symmetry for initial positions (statically):
=====================================================================
 Subroutine PRICEL returns:
 Original cell was already a primitive cell.
 

 Routine SETGRP: Setting up the symmetry group for a 
 triclinic supercell.


 Subroutine GETGRP returns: Found  1 space group operations
 (whereof  1 operations were pure point group operations)
 out of a pool of  2 trial point group operations.


The static configuration has the point symmetry C_1 .


Analysis of symmetry for dynamics (positions and initial velocities):
=====================================================================
 Subroutine PRICEL returns:
 Original cell was already a primitive cell.
 

 Routine SETGRP: Setting up the symmetry group for a 
 triclinic supercell.


 Subroutine GETGRP returns: Found  1 space group operations
 (whereof  1 operations were pure point group operations)
 out of a pool of  2 trial point group operations.


The dynamic configuration has the point symmetry C_1 .


 Subroutine INISYM returns: Found  1 space group operations
 (whereof  1 operations are pure point group operations),
 and found     1 'primitive' translations

 
 
 KPOINTS: k-points                                

Automatic generation of k-mesh.
Space group operators:
 irot       det(A)        alpha          n_x          n_y          n_z        tau_x        tau_y        tau_z
    1     1.000000     0.000000     1.000000     0.000000     0.000000     0.000000     0.000000     0.000000
 
 Subroutine IBZKPT returns following result:
 ===========================================
 
 Found     63 irreducible k-points:
 
 Following reciprocal coordinates:
            Coordinates               Weight
  0.000000  0.000000  0.000000      1.000000
  0.200000  0.000000  0.000000      2.000000
  0.400000  0.000000  0.000000      2.000000
  0.000000  0.200000 -0.000000      2.000000
  0.200000  0.200000 -0.000000      2.000000
  0.400000  0.200000 -0.000000      2.000000
 -0.400000  0.200000  0.000000      2.000000
 -0.200000  0.200000 -0.000000      2.000000
  0.000000  0.400000 -0.000000      2.000000
  0.200000  0.400000 -0.000000      2.000000
  0.400000  0.400000 -0.000000      2.000000
 -0.400000  0.400000 -0.000000      2.000000
 -0.200000  0.400000 -0.000000      2.000000
  0.000000  0.000000  0.200000      2.000000
  0.200000  0.000000  0.200000      2.000000
  0.400000  0.000000  0.200000      2.000000
 -0.400000  0.000000  0.200000      2.000000
 -0.200000  0.000000  0.200000      2.000000
 -0.000000  0.200000  0.200000      2.000000
  0.200000  0.200000  0.200000      2.000000
  0.400000  0.200000  0.200000      2.000000
 -0.400000  0.200000  0.200000      2.000000
 -0.200000  0.200000  0.200000      2.000000
  0.000000  0.400000  0.200000      2.000000
  0.200000  0.400000  0.200000      2.000000
  0.400000  0.400000  0.200000      2.000000
 -0.400000  0.400000  0.200000      2.000000
 -0.200000  0.400000  0.200000      2.000000
  0.000000 -0.400000  0.200000      2.000000
  0.200000 -0.400000  0.200000      2.000000
  0.400000 -0.400000  0.200000      2.000000
 -0.400000 -0.400000  0.200000      2.000000
 -0.200000 -0.400000  0.200000      2.000000
 -0.000000 -0.200000  0.200000      2.000000
  0.200000 -0.200000  0.200000      2.000000
  0.400000 -0.200000  0.200000      2.000000
 -0.400000 -0.200000  0.200000      2.000000
 -0.200000 -0.200000  0.200000      2.000000
  0.000000  0.000000  0.400000      2.000000
  0.200000  0.000000  0.400000      2.000000
  0.400000  0.000000  0.400000      2.000000
 -0.400000  0.000000  0.400000      2.000000
 -0.200000  0.000000  0.400000      2.000000
  0.000000  0.200000  0.400000      2.000000
  0.200000  0.200000  0.400000      2.000000
  0.400000  0.200000  0.400000      2.000000
 -0.400000  0.200000  0.400000      2.000000
 -0.200000  0.200000  0.400000      2.000000
 -0.000000  0.400000  0.400000      2.000000
  0.200000  0.400000  0.400000      2.000000
  0.400000  0.400000  0.400000      2.000000
 -0.400000  0.400000  0.400000      2.000000
 -0.200000  0.400000  0.400000      2.000000
 -0.000000 -0.400000  0.400000      2.000000
  0.200000 -0.400000  0.400000      2.000000
  0.400000 -0.400000  0.400000      2.000000
 -0.400000 -0.400000  0.400000      2.000000
 -0.200000 -0.400000  0.400000      2.000000
  0.000000 -0.200000  0.400000      2.000000
  0.200000 -0.200000  0.400000      2.000000
  0.400000 -0.200000  0.400000      2.000000
 -0.400000 -0.200000  0.400000      2.000000
 -0.200000 -0.200000  0.400000      2.000000
 
 Following cartesian coordinates:
            Coordinates               Weight
  0.000000  0.000000  0.000000      1.000000
 -0.086667 -0.080000 -0.033333      2.000000
 -0.173333 -0.160000 -0.066667      2.000000
  0.026667  0.040000 -0.066667      2.000000
 -0.060000 -0.040000 -0.100000      2.000000
 -0.146667 -0.120000 -0.133333      2.000000
  0.200000  0.200000  0.000000      2.000000
  0.113333  0.120000 -0.033333      2.000000
  0.053333  0.080000 -0.133333      2.000000
 -0.033333  0.000000 -0.166667      2.000000
 -0.120000 -0.080000 -0.200000      2.000000
  0.226667  0.240000 -0.066667      2.000000
  0.140000  0.160000 -0.100000      2.000000
  0.040000 -0.040000  0.000000      2.000000
 -0.046667 -0.120000 -0.033333      2.000000
 -0.133333 -0.200000 -0.066667      2.000000
  0.213333  0.120000  0.066667      2.000000
  0.126667  0.040000  0.033333      2.000000
  0.066667  0.000000 -0.066667      2.000000
 -0.020000 -0.080000 -0.100000      2.000000
 -0.106667 -0.160000 -0.133333      2.000000
  0.240000  0.160000  0.000000      2.000000
  0.153333  0.080000 -0.033333      2.000000
  0.093333  0.040000 -0.133333      2.000000
  0.006667 -0.040000 -0.166667      2.000000
 -0.080000 -0.120000 -0.200000      2.000000
  0.266667  0.200000 -0.066667      2.000000
  0.180000  0.120000 -0.100000      2.000000
 -0.013333 -0.120000  0.133333      2.000000
 -0.100000 -0.200000  0.100000      2.000000
 -0.186667 -0.280000  0.066667      2.000000
  0.160000  0.040000  0.200000      2.000000
  0.073333 -0.040000  0.166667      2.000000
  0.013333 -0.080000  0.066667      2.000000
 -0.073333 -0.160000  0.033333      2.000000
 -0.160000 -0.240000  0.000000      2.000000
  0.186667  0.080000  0.133333      2.000000
  0.100000 -0.000000  0.100000      2.000000
  0.080000 -0.080000  0.000000      2.000000
 -0.006667 -0.160000 -0.033333      2.000000
 -0.093333 -0.240000 -0.066667      2.000000
  0.253333  0.080000  0.066667      2.000000
  0.166667 -0.000000  0.033333      2.000000
  0.106667 -0.040000 -0.066667      2.000000
  0.020000 -0.120000 -0.100000      2.000000
 -0.066667 -0.200000 -0.133333      2.000000
  0.280000  0.120000  0.000000      2.000000
  0.193333  0.040000 -0.033333      2.000000
  0.133333  0.000000 -0.133333      2.000000
  0.046667 -0.080000 -0.166667      2.000000
 -0.040000 -0.160000 -0.200000      2.000000
  0.306667  0.160000 -0.066667      2.000000
  0.220000  0.080000 -0.100000      2.000000
  0.026667 -0.160000  0.133333      2.000000
 -0.060000 -0.240000  0.100000      2.000000
 -0.146667 -0.320000  0.066667      2.000000
  0.200000 -0.000000  0.200000      2.000000
  0.113333 -0.080000  0.166667      2.000000
  0.053333 -0.120000  0.066667      2.000000
 -0.033333 -0.200000  0.033333      2.000000
 -0.120000 -0.280000  0.000000      2.000000
  0.226667  0.040000  0.133333      2.000000
  0.140000 -0.040000  0.100000      2.000000
 


--------------------------------------------------------------------------------------------------------




 Dimension of arrays:
   k-points           NKPTS =     63   k-points in BZ     NKDIM =     63   number of bands    NBANDS=    120
   number of dos      NEDOS =    301   number of ions     NIONS =     30
   non local maximal  LDIM  =      6   non local SUM 2l+1 LMDIM =     18
   total plane-waves  NPLWV = 126000
   max r-space proj   IRMAX =   4016   max aug-charges    IRDMAX=  17413
   dimension x,y,z NGX =    36 NGY =   50 NGZ =   70
   dimension x,y,z NGXF=    72 NGYF=  100 NGZF=  140
   support grid    NGXF=    72 NGYF=  100 NGZF=  140
   ions per type =               6   6   6   6   6
   NGX,Y,Z   is equivalent  to a cutoff of  10.70,  9.91, 10.09 a.u.
   NGXF,Y,Z  is equivalent  to a cutoff of  21.40, 19.81, 20.18 a.u.

 SYSTEM =  Nb - Mo - Ta - Ti - V SQS               
 POSCAR =  Nb - Mo - Ta - Ti - V SQS-30 BCC        

 Startparameter for this run:
   NWRITE =      2    write-flag & timer
   PREC   = normal    normal or accurate (medium, high low for compatibility)
   ISTART =      1    job   : 0-new  1-cont  2-samecut
   ICHARG =      1    charge: 1-file 2-atom 10-const
   ISPIN  =      1    spin polarized calculation?
   LNONCOLLINEAR =      F non collinear calculations
   LSORBIT =      F    spin-orbit coupling
   INIWAV =      1    electr: 0-lowe 1-rand  2-diag
   LASPH  =      F    aspherical Exc in radial PAW
   METAGGA=      F    non-selfconsistent MetaGGA calc.

 Electronic Relaxation 1
   ENCUT  =  600.0 eV  44.10 Ry    6.64 a.u.  11.17 16.76 23.04*2*pi/ulx,y,z
   ENINI  =  600.0     initial cutoff
   ENAUG  =  455.7 eV  augmentation charge cutoff
   NELM   =    100;   NELMIN=  2; NELMDL=  0     # of ELM steps 
   EDIFF  = 0.1E-03   stopping-criterion for ELM
   LREAL  =      T    real-space projection
   NLSPLINE    = F    spline interpolate recip. space projectors
   LCOMPAT=      F    compatible to vasp.4.4
   GGA_COMPAT  = T    GGA compatible to vasp.4.4-vasp.4.6
   LMAXPAW     = -100 max onsite density
   LMAXMIX     =    2 max onsite mixed and CHGCAR
   VOSKOWN=      0    Vosko Wilk Nusair interpolation
   ROPT   =   -0.00050  -0.00050  -0.00050  -0.00050
   ROPT   =   -0.00050
 Ionic relaxation
   EDIFFG = 0.1E-02   stopping-criterion for IOM
   NSW    =      0    number of steps for IOM
   NBLOCK =      1;   KBLOCK =      1    inner block; outer block 
   IBRION =     -1    ionic relax: 0-MD 1-quasi-New 2-CG
   NFREE  =      1    steps in history (QN), initial steepest desc. (CG)
   ISIF   =      2    stress and relaxation
   IWAVPR =     10    prediction:  0-non 1-charg 2-wave 3-comb
   ISYM   =      2    0-nonsym 1-usesym 2-fastsym
   LCORR  =      T    Harris-Foulkes like correction to forces

   POTIM  = 0.5000    time-step for ionic-motion
   TEIN   =    0.0    initial temperature
   TEBEG  =    0.0;   TEEND  =   0.0 temperature during run
   SMASS  =  -3.00    Nose mass-parameter (am)
   estimated Nose-frequenzy (Omega)   =  0.10E-29 period in steps =****** mass=  -0.715E-27a.u.
   SCALEE = 1.0000    scale energy and forces
   NPACO  =    256;   APACO  = 16.0  distance and # of slots for P.C.
   PSTRESS=    0.0 pullay stress

  Mass of Ions in am
   POMASS =  92.91 95.94180.95 47.88 50.94
  Ionic Valenz
   ZVAL   =  13.00  6.00  5.00  4.00  5.00
  Atomic Wigner-Seitz radii
   RWIGS  =  -1.00 -1.00 -1.00 -1.00 -1.00
  virtual crystal weights 
   VCA    =   1.00  1.00  1.00  1.00  1.00
   NELECT =     198.0000    total number of electrons
   NUPDOWN=      -1.0000    fix difference up-down

 DOS related values:
   EMIN   =  10.00;   EMAX   =-10.00  energy-range for DOS
   EFERMI =   0.00
   ISMEAR =     1;   SIGMA  =   0.20  broadening in eV -4-tet -1-fermi 0-gaus

 Electronic relaxation 2 (details)
   IALGO  =     38    algorithm
   LDIAG  =      T    sub-space diagonalisation (order eigenvalues)
   LSUBROT=      F    optimize rotation matrix (better conditioning)
   TURBO    =      0    0=normal 1=particle mesh
   IRESTART =      0    0=no restart 2=restart with 2 vectors
   NREBOOT  =      0    no. of reboots
   NMIN     =      0    reboot dimension
   EREF     =   0.00    reference energy to select bands
   IMIX   =      4    mixing-type and parameters
     AMIX     =   0.40;   BMIX     =  1.00
     AMIX_MAG =   1.60;   BMIX_MAG =  1.00
     AMIN     =   0.10
     WC   =   100.;   INIMIX=   1;  MIXPRE=   1;  MAXMIX= -45

 Intra band minimization:
   WEIMIN = 0.0000     energy-eigenvalue tresh-hold
   EBREAK =  0.21E-06  absolut break condition
   DEPER  =   0.30     relativ break condition  

   TIME   =   0.40     timestep for ELM

  volume/ion in A,a.u.               =      16.85       113.70
  Fermi-wavevector in a.u.,A,eV,Ry     =   1.197835  2.263580 19.521753  1.434808
  Thomas-Fermi vector in A             =   2.333739
 
 Write flags
   LWAVE        =      T    write WAVECAR
   LDOWNSAMPLE  =      F    k-point downsampling of WAVECAR
   LCHARG       =      T    write CHGCAR
   LVTOT        =      F    write LOCPOT, total local potential
   LVHAR        =      F    write LOCPOT, Hartree potential only
   LELF         =      F    write electronic localiz. function (ELF)
   LORBIT       =      0    0 simple, 1 ext, 2 COOP (PROOUT), +10 PAW based schemes


 Dipole corrections
   LMONO  =      F    monopole corrections only (constant potential shift)
   LDIPOL =      F    correct potential (dipole corrections)
   IDIPOL =      0    1-x, 2-y, 3-z, 4-all directions 
   EPSILON=  1.0000000 bulk dielectric constant

 Exchange correlation treatment:
   GGA     =    PS    GGA type
   LEXCH   =    14    internal setting for exchange type
   VOSKOWN=      0    Vosko Wilk Nusair interpolation
   LHFCALC =     F    Hartree Fock is set to
   LHFONE  =     F    Hartree Fock one center treatment
   AEXX    =    0.0000 exact exchange contribution

 Linear response parameters
   LEPSILON=     F    determine dielectric tensor
   LRPA    =     F    only Hartree local field effects (RPA)
   LNABLA  =     F    use nabla operator in PAW spheres
   LVEL    =     F    velocity operator in full k-point grid
   LINTERFAST=   F  fast interpolation
   KINTER  =     0    interpolate to denser k-point grid
   CSHIFT  =0.1000    complex shift for real part using Kramers Kronig
   OMEGAMAX=  -1.0    maximum frequency
   DEG_THRESHOLD= 0.2000000E-02 threshold for treating states as degnerate
   RTIME   =   -0.100 relaxation time in fs
  (WPLASMAI=    0.000 imaginary part of plasma frequency in eV, 0.658/RTIME)
   DFIELD  = 0.0000000 0.0000000 0.0000000 field for delta impulse in time
 
 Orbital magnetization related:
   ORBITALMAG=     F  switch on orbital magnetization
   LCHIMAG   =     F  perturbation theory with respect to B field
   DQ        =  0.001000  dq finite difference perturbation B field
   LLRAUG    =     F  two centre corrections for induced B field



--------------------------------------------------------------------------------------------------------


 Static calculation
 charge density and potential will be updated during run
 non-spin polarized calculation
 Variant of blocked Davidson
 Davidson routine will perform the subspace rotation
 perform sub-space diagonalisation
    after iterative eigenvector-optimisation
 modified Broyden-mixing scheme, WC =      100.0
 initial mixing is a Kerker type mixing with AMIX =  0.4000 and BMIX =      1.0000
 Hartree-type preconditioning will be used
 using additional bands           21
 real space projection scheme for non local part
 use partial core corrections
 calculate Harris-corrections to forces 
   (improved forces if not selfconsistent)
 use gradient corrections 
 use of overlap-Matrix (Vanderbilt PP)
 Methfessel and Paxton  Order N= 1 SIGMA  =   0.20


--------------------------------------------------------------------------------------------------------


  energy-cutoff  :      600.00
  volume of cell :      505.47
      direct lattice vectors                 reciprocal lattice vectors
    -3.230000000 -3.230000000 -3.230000000    -0.134158927 -0.123839009 -0.051599587
     1.615000000  1.615000000 -8.075000000     0.041279670  0.061919505 -0.103199174
     8.075000000 -8.075000000 -1.615000000     0.061919505 -0.061919505  0.000000000

  length of vectors
     5.594524108  8.391786163 11.533406912     0.189729374  0.127232487  0.087567403


 
 old parameters found on file WAVECAR:
  energy-cutoff  :      600.00
  volume of cell :      505.47
      direct lattice vectors                 reciprocal lattice vectors
    -3.230000000 -3.230000000 -3.230000000    -0.134158927 -0.123839009 -0.051599587
     1.615000000  1.615000000 -8.075000000     0.041279670  0.061919505 -0.103199174
     8.075000000 -8.075000000 -1.615000000     0.061919505 -0.061919505  0.000000000

  length of vectors

 
 k-points in units of 2pi/SCALE and weight: k-points                                
   0.00000000  0.00000000  0.00000000       0.008
  -0.08666667 -0.08000000 -0.03333333       0.016
  -0.17333333 -0.16000000 -0.06666667       0.016
   0.02666667  0.04000000 -0.06666667       0.016
  -0.06000000 -0.04000000 -0.10000000       0.016
  -0.14666667 -0.12000000 -0.13333333       0.016
   0.20000000  0.20000000  0.00000000       0.016
   0.11333333  0.12000000 -0.03333333       0.016
   0.05333333  0.08000000 -0.13333333       0.016
  -0.03333333  0.00000000 -0.16666667       0.016
  -0.12000000 -0.08000000 -0.20000000       0.016
   0.22666667  0.24000000 -0.06666667       0.016
   0.14000000  0.16000000 -0.10000000       0.016
   0.04000000 -0.04000000  0.00000000       0.016
  -0.04666667 -0.12000000 -0.03333333       0.016
  -0.13333333 -0.20000000 -0.06666667       0.016
   0.21333333  0.12000000  0.06666667       0.016
   0.12666667  0.04000000  0.03333333       0.016
   0.06666667  0.00000000 -0.06666667       0.016
  -0.02000000 -0.08000000 -0.10000000       0.016
  -0.10666667 -0.16000000 -0.13333333       0.016
   0.24000000  0.16000000  0.00000000       0.016
   0.15333333  0.08000000 -0.03333333       0.016
   0.09333333  0.04000000 -0.13333333       0.016
   0.00666667 -0.04000000 -0.16666667       0.016
  -0.08000000 -0.12000000 -0.20000000       0.016
   0.26666667  0.20000000 -0.06666667       0.016
   0.18000000  0.12000000 -0.10000000       0.016
  -0.01333333 -0.12000000  0.13333333       0.016
  -0.10000000 -0.20000000  0.10000000       0.016
  -0.18666667 -0.28000000  0.06666667       0.016
   0.16000000  0.04000000  0.20000000       0.016
   0.07333333 -0.04000000  0.16666667       0.016
   0.01333333 -0.08000000  0.06666667       0.016
  -0.07333333 -0.16000000  0.03333333       0.016
  -0.16000000 -0.24000000  0.00000000       0.016
   0.18666667  0.08000000  0.13333333       0.016
   0.10000000 -0.00000000  0.10000000       0.016
   0.08000000 -0.08000000  0.00000000       0.016
  -0.00666667 -0.16000000 -0.03333333       0.016
  -0.09333333 -0.24000000 -0.06666667       0.016
   0.25333333  0.08000000  0.06666667       0.016
   0.16666667 -0.00000000  0.03333333       0.016
   0.10666667 -0.04000000 -0.06666667       0.016
   0.02000000 -0.12000000 -0.10000000       0.016
  -0.06666667 -0.20000000 -0.13333333       0.016
   0.28000000  0.12000000  0.00000000       0.016
   0.19333333  0.04000000 -0.03333333       0.016
   0.13333333  0.00000000 -0.13333333       0.016
   0.04666667 -0.08000000 -0.16666667       0.016
  -0.04000000 -0.16000000 -0.20000000       0.016
   0.30666667  0.16000000 -0.06666667       0.016
   0.22000000  0.08000000 -0.10000000       0.016
   0.02666667 -0.16000000  0.13333333       0.016
  -0.06000000 -0.24000000  0.10000000       0.016
  -0.14666667 -0.32000000  0.06666667       0.016
   0.20000000 -0.00000000  0.20000000       0.016
   0.11333333 -0.08000000  0.16666667       0.016
   0.05333333 -0.12000000  0.06666667       0.016
  -0.03333333 -0.20000000  0.03333333       0.016
  -0.12000000 -0.28000000  0.00000000       0.016
   0.22666667  0.04000000  0.13333333       0.016
   0.14000000 -0.04000000  0.10000000       0.016
 
 k-points in reciprocal lattice and weights: k-points                                
   0.00000000  0.00000000  0.00000000       0.008
   0.20000000  0.00000000  0.00000000       0.016
   0.40000000  0.00000000  0.00000000       0.016
   0.00000000  0.20000000 -0.00000000       0.016
   0.20000000  0.20000000 -0.00000000       0.016
   0.40000000  0.20000000 -0.00000000       0.016
  -0.40000000  0.20000000  0.00000000       0.016
  -0.20000000  0.20000000 -0.00000000       0.016
   0.00000000  0.40000000 -0.00000000       0.016
   0.20000000  0.40000000 -0.00000000       0.016
   0.40000000  0.40000000 -0.00000000       0.016
  -0.40000000  0.40000000 -0.00000000       0.016
  -0.20000000  0.40000000 -0.00000000       0.016
   0.00000000  0.00000000  0.20000000       0.016
   0.20000000  0.00000000  0.20000000       0.016
   0.40000000  0.00000000  0.20000000       0.016
  -0.40000000  0.00000000  0.20000000       0.016
  -0.20000000  0.00000000  0.20000000       0.016
  -0.00000000  0.20000000  0.20000000       0.016
   0.20000000  0.20000000  0.20000000       0.016
   0.40000000  0.20000000  0.20000000       0.016
  -0.40000000  0.20000000  0.20000000       0.016
  -0.20000000  0.20000000  0.20000000       0.016
   0.00000000  0.40000000  0.20000000       0.016
   0.20000000  0.40000000  0.20000000       0.016
   0.40000000  0.40000000  0.20000000       0.016
  -0.40000000  0.40000000  0.20000000       0.016
  -0.20000000  0.40000000  0.20000000       0.016
   0.00000000 -0.40000000  0.20000000       0.016
   0.20000000 -0.40000000  0.20000000       0.016
   0.40000000 -0.40000000  0.20000000       0.016
  -0.40000000 -0.40000000  0.20000000       0.016
  -0.20000000 -0.40000000  0.20000000       0.016
  -0.00000000 -0.20000000  0.20000000       0.016
   0.20000000 -0.20000000  0.20000000       0.016
   0.40000000 -0.20000000  0.20000000       0.016
  -0.40000000 -0.20000000  0.20000000       0.016
  -0.20000000 -0.20000000  0.20000000       0.016
   0.00000000  0.00000000  0.40000000       0.016
   0.20000000  0.00000000  0.40000000       0.016
   0.40000000  0.00000000  0.40000000       0.016
  -0.40000000  0.00000000  0.40000000       0.016
  -0.20000000  0.00000000  0.40000000       0.016
   0.00000000  0.20000000  0.40000000       0.016
   0.20000000  0.20000000  0.40000000       0.016
   0.40000000  0.20000000  0.40000000       0.016
  -0.40000000  0.20000000  0.40000000       0.016
  -0.20000000  0.20000000  0.40000000       0.016
  -0.00000000  0.40000000  0.40000000       0.016
   0.20000000  0.40000000  0.40000000       0.016
   0.40000000  0.40000000  0.40000000       0.016
  -0.40000000  0.40000000  0.40000000       0.016
  -0.20000000  0.40000000  0.40000000       0.016
  -0.00000000 -0.40000000  0.40000000       0.016
   0.20000000 -0.40000000  0.40000000       0.016
   0.40000000 -0.40000000  0.40000000       0.016
  -0.40000000 -0.40000000  0.40000000       0.016
  -0.20000000 -0.40000000  0.40000000       0.016
   0.00000000 -0.20000000  0.40000000       0.016
   0.20000000 -0.20000000  0.40000000       0.016
   0.40000000 -0.20000000  0.40000000       0.016
  -0.40000000 -0.20000000  0.40000000       0.016
  -0.20000000 -0.20000000  0.40000000       0.016
 
 position of ions in fractional coordinates (direct lattice) 
   0.96666667  0.93333333  0.40000000
   0.63333333  0.26666667  0.40000000
   0.50000000  0.00000000  0.00000000
   0.00000000  0.00000000  0.00000000
   0.10000000  0.20000000  0.80000000
   0.03333333  0.06666667  0.60000000
   0.90000000  0.80000000  0.20000000
   0.80000000  0.60000000  0.40000000
   0.73333333  0.46666667  0.20000000
   0.66666667  0.33333333  0.00000000
   0.36666667  0.73333333  0.60000000
   0.13333333  0.26666667  0.40000000
   0.83333333  0.66666667  0.00000000
   0.93333333  0.86666667  0.80000000
   0.56666667  0.13333333  0.20000000
   0.40000000  0.80000000  0.20000000
   0.43333333  0.86666667  0.80000000
   0.30000000  0.60000000  0.40000000
   0.86666667  0.73333333  0.60000000
   0.46666667  0.93333333  0.40000000
   0.16666667  0.33333333  0.00000000
   0.26666667  0.53333333  0.80000000
   0.20000000  0.40000000  0.60000000
   0.06666667  0.13333333  0.20000000
   0.76666667  0.53333333  0.80000000
   0.70000000  0.40000000  0.60000000
   0.60000000  0.20000000  0.80000000
   0.53333333  0.06666667  0.60000000
   0.33333333  0.66666667  0.00000000
   0.23333333  0.46666667  0.20000000
 
 position of ions in cartesian coordinates  (Angst):
   1.61499998 -4.84500002-11.30499998
   1.61500002 -4.84499998 -4.84500002
  -1.61500000 -1.61500000 -1.61500000
   0.00000000  0.00000000  0.00000000
   6.46000000 -6.46000000 -3.23000000
   4.84500002 -4.84499998 -1.61500002
   0.00000000 -3.23000000 -9.69000000
   1.61500000 -4.84500000 -8.07500000
   0.00000002 -3.22999998 -6.46000002
  -1.61500002 -1.61500002 -4.84499998
   4.84499998 -4.84500002 -8.07499998
   3.23000002 -3.22999998 -3.23000002
  -1.61499998 -1.61499998 -8.07500002
   4.84500002 -8.07499998-11.30500002
  -0.00000002 -3.23000002 -3.22999998
   1.61500000 -1.61500000 -8.07500000
   6.46000002 -6.45999998 -9.69000002
   3.23000000 -3.23000000 -6.46000000
   3.22999998 -6.46000002 -9.68999998
   3.22999998 -3.23000002 -9.68999998
  -0.00000002 -0.00000002 -3.22999998
   6.45999998 -6.46000002 -6.45999998
   4.84500000 -4.84500000 -4.84500000
   1.61499998 -1.61500002 -1.61499998
   4.84499998 -8.07500002 -8.07499998
   3.23000000 -6.46000000 -6.46000000
   4.84500000 -8.07500000 -4.84500000
   3.23000002 -6.45999998 -3.23000002
   0.00000002  0.00000002 -6.46000002
   1.61500002 -1.61499998 -4.84500002
 


--------------------------------------------------------------------------------------------------------


 k-point  1 :   0.0000 0.0000 0.0000  plane waves:   16889
 k-point  2 :   0.2000 0.0000 0.0000  plane waves:   16861
 k-point  3 :   0.4000 0.0000 0.0000  plane waves:   16874
 k-point  4 :   0.0000 0.2000-0.0000  plane waves:   16846
 k-point  5 :   0.2000 0.2000-0.0000  plane waves:   16866
 k-point  6 :   0.4000 0.2000-0.0000  plane waves:   16864
 k-point  7 :  -0.4000 0.2000 0.0000  plane waves:   16865
 k-point  8 :  -0.2000 0.2000-0.0000  plane waves:   16844
 k-point  9 :   0.0000 0.4000-0.0000  plane waves:   16864
 k-point 10 :   0.2000 0.4000-0.0000  plane waves:   16856
 k-point 11 :   0.4000 0.4000-0.0000  plane waves:   16868
 k-point 12 :  -0.4000 0.4000-0.0000  plane waves:   16868
 k-point 13 :  -0.2000 0.4000-0.0000  plane waves:   16844
 k-point 14 :   0.0000 0.0000 0.2000  plane waves:   16846
 k-point 15 :   0.2000 0.0000 0.2000  plane waves:   16863
 k-point 16 :   0.4000 0.0000 0.2000  plane waves:   16869
 k-point 17 :  -0.4000 0.0000 0.2000  plane waves:   16875
 k-point 18 :  -0.2000 0.0000 0.2000  plane waves:   16878
 k-point 19 :  -0.0000 0.2000 0.2000  plane waves:   16868
 k-point 20 :   0.2000 0.2000 0.2000  plane waves:   16871
 k-point 21 :   0.4000 0.2000 0.2000  plane waves:   16876
 k-point 22 :  -0.4000 0.2000 0.2000  plane waves:   16883
 k-point 23 :  -0.2000 0.2000 0.2000  plane waves:   16871
 k-point 24 :   0.0000 0.4000 0.2000  plane waves:   16883
 k-point 25 :   0.2000 0.4000 0.2000  plane waves:   16852
 k-point 26 :   0.4000 0.4000 0.2000  plane waves:   16881
 k-point 27 :  -0.4000 0.4000 0.2000  plane waves:   16882
 k-point 28 :  -0.2000 0.4000 0.2000  plane waves:   16859
 k-point 29 :   0.0000-0.4000 0.2000  plane waves:   16863
 k-point 30 :   0.2000-0.4000 0.2000  plane waves:   16844
 k-point 31 :   0.4000-0.4000 0.2000  plane waves:   16855
 k-point 32 :  -0.4000-0.4000 0.2000  plane waves:   16882
 k-point 33 :  -0.2000-0.4000 0.2000  plane waves:   16852
 k-point 34 :  -0.0000-0.2000 0.2000  plane waves:   16854
 k-point 35 :   0.2000-0.2000 0.2000  plane waves:   16842
 k-point 36 :   0.4000-0.2000 0.2000  plane waves:   16879
 k-point 37 :  -0.4000-0.2000 0.2000  plane waves:   16880
 k-point 38 :  -0.2000-0.2000 0.2000  plane waves:   16881
 k-point 39 :   0.0000 0.0000 0.4000  plane waves:   16860
 k-point 40 :   0.2000 0.0000 0.4000  plane waves:   16854
 k-point 41 :   0.4000 0.0000 0.4000  plane waves:   16900
 k-point 42 :  -0.4000 0.0000 0.4000  plane waves:   16889
 k-point 43 :  -0.2000 0.0000 0.4000  plane waves:   16884
 k-point 44 :   0.0000 0.2000 0.4000  plane waves:   16858
 k-point 45 :   0.2000 0.2000 0.4000  plane waves:   16857
 k-point 46 :   0.4000 0.2000 0.4000  plane waves:   16898
 k-point 47 :  -0.4000 0.2000 0.4000  plane waves:   16873
 k-point 48 :  -0.2000 0.2000 0.4000  plane waves:   16877
 k-point 49 :  -0.0000 0.4000 0.4000  plane waves:   16865
 k-point 50 :   0.2000 0.4000 0.4000  plane waves:   16853
 k-point 51 :   0.4000 0.4000 0.4000  plane waves:   16894
 k-point 52 :  -0.4000 0.4000 0.4000  plane waves:   16880
 k-point 53 :  -0.2000 0.4000 0.4000  plane waves:   16866
 k-point 54 :  -0.0000-0.4000 0.4000  plane waves:   16899
 k-point 55 :   0.2000-0.4000 0.4000  plane waves:   16856
 k-point 56 :   0.4000-0.4000 0.4000  plane waves:   16879
 k-point 57 :  -0.4000-0.4000 0.4000  plane waves:   16877
 k-point 58 :  -0.2000-0.4000 0.4000  plane waves:   16859
 k-point 59 :   0.0000-0.2000 0.4000  plane waves:   16865
 k-point 60 :   0.2000-0.2000 0.4000  plane waves:   16864
 k-point 61 :   0.4000-0.2000 0.4000  plane waves:   16875
 k-point 62 :  -0.4000-0.2000 0.4000  plane waves:   16878
 k-point 63 :  -0.2000-0.2000 0.4000  plane waves:   16868

 maximum and minimum number of plane-waves per node :      4253     4188

 maximum number of plane-waves:     16900
 maximum index in each direction: 
   IXMAX=   11   IYMAX=   17   IZMAX=   23
   IXMIN=  -11   IYMIN=  -17   IZMIN=  -23


 real space projection operators:
  total allocation   :      15704.79 KBytes
  max/ min on nodes  :       3926.98       3925.73


 parallel 3D FFT for wavefunctions:
    minimum data exchange during FFTs selected (reduces bandwidth)
 parallel 3D FFT for charge:
    minimum data exchange during FFTs selected (reduces bandwidth)


 total amount of memory used by VASP MPI-rank0   110026. kBytes
=======================================================================

   base      :      30000. kBytes
   nonlr-proj:       6860. kBytes
   fftplans  :       2333. kBytes
   grid      :       4665. kBytes
   one-center:        124. kBytes
   wavefun   :      66044. kBytes
 
     INWAV:  cpu time    6.2382: real time   10.2046
 Broyden mixing: mesh for mixing (old mesh)
   NGX = 23   NGY = 33   NGZ = 47
  (NGX  = 72   NGY  =100   NGZ  =140)
  gives a total of  35673 points

 initial charge density was supplied:
 number of electron     198.0000008 magnetization 
 keeping initial charge density in first step


--------------------------------------------------------------------------------------------------------


 Maximum index for non-local projection operator          977
 Maximum index for augmentation-charges         1356 (set IRDMAX)


--------------------------------------------------------------------------------------------------------


 First call to EWALD:  gamma=   0.223
 Maximum number of real-space cells 4x 3x 2
 Maximum number of reciprocal cells 2x 3x 4

    FEWALD:  cpu time    0.0031: real time    0.0032


--------------------------------------- Iteration      1(   1)  ---------------------------------------


    POTLOK:  cpu time    0.0266: real time    0.0484
    SETDIJ:  cpu time    0.0055: real time    0.0056
     EDDAV:  cpu time   25.0208: real time   25.0727
       DOS:  cpu time    0.0044: real time    0.0044
    CHARGE:  cpu time    0.5986: real time    0.5990
    MIXING:  cpu time    0.0014: real time    0.0016
    --------------------------------------------
      LOOP:  cpu time   25.6572: real time   25.7317

 eigenvalue-minimisations  : 22232
 total energy-change (2. order) :-0.4419962E+03  (-0.1057157E+02)
 number of electron     198.0000010 magnetization 
 augmentation part       30.9965807 magnetization 

 Broyden mixing:
  rms(total) = 0.82606E+01    rms(broyden)= 0.82606E+01
  rms(prec ) = 0.12083E+02
  weight for this iteration     100.00

 Free energy of the ion-electron system (eV)
  ---------------------------------------------------
  alpha Z        PSCENC =      1151.80364462
  Ewald energy   TEWEN  =    -11284.48122045
  -Hartree energ DENC   =     -3123.25707136
  -exchange      EXHF   =         0.00000000
  -V(xc)+E(xc)   XCENC  =      -891.86553591
  PAW double counting   =     19952.18662859   -18468.37525343
  entropy T*S    EENTRO =         0.00512856
  eigenvalues    EBANDS =      -783.92049680
  atomic energy  EATOM  =     13005.90793652
  Solvation  Ediel_sol  =         0.00000000
  ---------------------------------------------------
  free energy    TOTEN  =      -441.99623967 eV

  energy without entropy =     -442.00136823  energy(sigma->0) =     -441.99794919


--------------------------------------------------------------------------------------------------------




--------------------------------------- Iteration      1(   2)  ---------------------------------------


    POTLOK:  cpu time    0.0344: real time    0.0356
    SETDIJ:  cpu time    0.0088: real time    0.0088
     EDDAV:  cpu time   29.7523: real time   29.7824
       DOS:  cpu time    0.0037: real time    0.0037
    CHARGE:  cpu time    0.5983: real time    0.5989
    MIXING:  cpu time    0.0011: real time    0.0011
    --------------------------------------------
      LOOP:  cpu time   30.3987: real time   30.4304

 eigenvalue-minimisations  : 27216
 total energy-change (2. order) :-0.6143231E+02  (-0.3802719E+03)
 number of electron     197.9999998 magnetization 
 augmentation part       58.3639878 magnetization 

 Broyden mixing:
  rms(total) = 0.18568E+02    rms(broyden)= 0.18568E+02
  rms(prec ) = 0.23115E+02
  weight for this iteration     100.00

 eigenvalues of (default mixing * dielectric matrix)
  average eigenvalue GAMMA=   0.2128
  0.2128

 Free energy of the ion-electron system (eV)
  ---------------------------------------------------
  alpha Z        PSCENC =      1151.80364462
  Ewald energy   TEWEN  =    -11284.48122045
  -Hartree energ DENC   =     -2978.25063912
  -exchange      EXHF   =         0.00000000
  -V(xc)+E(xc)   XCENC  =      -894.18160762
  PAW double counting   =     19330.79145016   -17836.06524514
  entropy T*S    EENTRO =         0.00043030
  eigenvalues    EBANDS =      -998.95329929
  atomic energy  EATOM  =     13005.90793652
  Solvation  Ediel_sol  =         0.00000000
  ---------------------------------------------------
  free energy    TOTEN  =      -503.42855002 eV

  energy without entropy =     -503.42898033  energy(sigma->0) =     -503.42869346


--------------------------------------------------------------------------------------------------------




--------------------------------------- Iteration      1(   3)  ---------------------------------------


    POTLOK:  cpu time    0.0225: real time    0.0466
    SETDIJ:  cpu time    0.0052: real time    0.0074
     EDDAV:  cpu time   29.8960: real time   29.9400
       DOS:  cpu time    0.0037: real time    0.0037
    CHARGE:  cpu time    0.5975: real time    0.5981
    MIXING:  cpu time    0.0009: real time    0.0009
    --------------------------------------------
      LOOP:  cpu time   30.5259: real time   30.5967

 eigenvalue-minimisations  : 27416
 total energy-change (2. order) : 0.1313409E+03  (-0.2104373E+03)
 number of electron     198.0000012 magnetization 
 augmentation part       33.8030944 magnetization 

 Broyden mixing:
  rms(total) = 0.67584E+01    rms(broyden)= 0.67584E+01
  rms(prec ) = 0.92786E+01
  weight for this iteration     100.00

 eigenvalues of (default mixing * dielectric matrix)
  average eigenvalue GAMMA=   0.4333
  0.5948  0.2719

 Free energy of the ion-electron system (eV)
  ---------------------------------------------------
  alpha Z        PSCENC =      1151.80364462
  Ewald energy   TEWEN  =    -11284.48122045
  -Hartree energ DENC   =     -2985.26261839
  -exchange      EXHF   =         0.00000000
  -V(xc)+E(xc)   XCENC  =      -896.40687472
  PAW double counting   =     19325.12224681   -17848.23762646
  entropy T*S    EENTRO =        -0.00363397
  eigenvalues    EBANDS =      -840.52947392
  atomic energy  EATOM  =     13005.90793652
  Solvation  Ediel_sol  =         0.00000000
  ---------------------------------------------------
  free energy    TOTEN  =      -372.08761996 eV

  energy without entropy =     -372.08398599  energy(sigma->0) =     -372.08640864


--------------------------------------------------------------------------------------------------------




--------------------------------------- Iteration      1(   4)  ---------------------------------------


    POTLOK:  cpu time    0.0229: real time    0.0234
    SETDIJ:  cpu time    0.0052: real time    0.0052
     EDDAV:  cpu time   29.1587: real time   29.2004
       DOS:  cpu time    0.0039: real time    0.0039
    CHARGE:  cpu time    0.5971: real time    0.5976
    MIXING:  cpu time    0.0009: real time    0.0009
    --------------------------------------------
      LOOP:  cpu time   29.7895: real time   29.8313

 eigenvalue-minimisations  : 26688
 total energy-change (2. order) : 0.4088654E+02  (-0.6077356E+02)
 number of electron     198.0000006 magnetization 
 augmentation part       34.0338191 magnetization 

 Broyden mixing:
  rms(total) = 0.53812E+01    rms(broyden)= 0.53812E+01
  rms(prec ) = 0.65707E+01
  weight for this iteration     100.00

 eigenvalues of (default mixing * dielectric matrix)
  average eigenvalue GAMMA=   0.4478
  0.7571  0.2931  0.2931

 Free energy of the ion-electron system (eV)
  ---------------------------------------------------
  alpha Z        PSCENC =      1151.80364462
  Ewald energy   TEWEN  =    -11284.48122045
  -Hartree energ DENC   =     -3003.26724489
  -exchange      EXHF   =         0.00000000
  -V(xc)+E(xc)   XCENC  =      -895.32461026
  PAW double counting   =     19029.24831362   -17550.65316658
  entropy T*S    EENTRO =        -0.00307156
  eigenvalues    EBANDS =      -784.43166184
  atomic energy  EATOM  =     13005.90793652
  Solvation  Ediel_sol  =         0.00000000
  ---------------------------------------------------
  free energy    TOTEN  =      -331.20108083 eV

  energy without entropy =     -331.19800927  energy(sigma->0) =     -331.20005697


--------------------------------------------------------------------------------------------------------




--------------------------------------- Iteration      1(   5)  ---------------------------------------


    POTLOK:  cpu time    0.0354: real time    0.0440
    SETDIJ:  cpu time    0.0078: real time    0.0078
     EDDAV:  cpu time   28.0114: real time   28.0414
       DOS:  cpu time    0.0038: real time    0.0038
    CHARGE:  cpu time    0.5966: real time    0.5971
    MIXING:  cpu time    0.0010: real time    0.0010
    --------------------------------------------
      LOOP:  cpu time   28.6551: real time   28.6952

 eigenvalue-minimisations  : 25448
 total energy-change (2. order) : 0.4364736E+01  (-0.2152557E+02)
 number of electron     198.0000010 magnetization 
 augmentation part       30.6780093 magnetization 

 Broyden mixing:
  rms(total) = 0.44603E+01    rms(broyden)= 0.44603E+01
  rms(prec ) = 0.52389E+01
  weight for this iteration     100.00

 eigenvalues of (default mixing * dielectric matrix)
  average eigenvalue GAMMA=   0.6547
  1.5774  0.4151  0.4151  0.2113

 Free energy of the ion-electron system (eV)
  ---------------------------------------------------
  alpha Z        PSCENC =      1151.80364462
  Ewald energy   TEWEN  =    -11284.48122045
  -Hartree energ DENC   =     -3025.89893967
  -exchange      EXHF   =         0.00000000
  -V(xc)+E(xc)   XCENC  =      -894.21810685
  PAW double counting   =     18859.74914136   -17379.17180619
  entropy T*S    EENTRO =        -0.00517291
  eigenvalues    EBANDS =      -760.52182153
  atomic energy  EATOM  =     13005.90793652
  Solvation  Ediel_sol  =         0.00000000
  ---------------------------------------------------
  free energy    TOTEN  =      -326.83634511 eV

  energy without entropy =     -326.83117220  energy(sigma->0) =     -326.83462081


--------------------------------------------------------------------------------------------------------




--------------------------------------- Iteration      1(   6)  ---------------------------------------


    POTLOK:  cpu time    0.0223: real time    0.0226
    SETDIJ:  cpu time    0.0052: real time    0.0052
     EDDAV:  cpu time   28.3555: real time   28.3849
       DOS:  cpu time    0.0042: real time    0.0042
    CHARGE:  cpu time    0.5973: real time    0.5982
    MIXING:  cpu time    0.0012: real time    0.0012
    --------------------------------------------
      LOOP:  cpu time   28.9857: real time   29.0163

 eigenvalue-minimisations  : 25776
 total energy-change (2. order) :-0.3871497E+01  (-0.1408211E+02)
 number of electron     198.0000004 magnetization 
 augmentation part       34.8154649 magnetization 

 Broyden mixing:
  rms(total) = 0.42747E+01    rms(broyden)= 0.42747E+01
  rms(prec ) = 0.63341E+01
  weight for this iteration     100.00

 eigenvalues of (default mixing * dielectric matrix)
  average eigenvalue GAMMA=   0.6980
  2.0605  0.4825  0.4825  0.2663  0.1981

 Free energy of the ion-electron system (eV)
  ---------------------------------------------------
  alpha Z        PSCENC =      1151.80364462
  Ewald energy   TEWEN  =    -11284.48122045
  -Hartree energ DENC   =     -3043.61411539
  -exchange      EXHF   =         0.00000000
  -V(xc)+E(xc)   XCENC  =      -892.15440352
  PAW double counting   =     18661.97638533   -17172.30923544
  entropy T*S    EENTRO =        -0.00254961
  eigenvalues    EBANDS =      -757.83428396
  atomic energy  EATOM  =     13005.90793652
  Solvation  Ediel_sol  =         0.00000000
  ---------------------------------------------------
  free energy    TOTEN  =      -330.70784191 eV

  energy without entropy =     -330.70529230  energy(sigma->0) =     -330.70699204


--------------------------------------------------------------------------------------------------------




--------------------------------------- Iteration      1(   7)  ---------------------------------------


    POTLOK:  cpu time    0.0229: real time    0.0235
    SETDIJ:  cpu time    0.0052: real time    0.0052
     EDDAV:  cpu time   30.2478: real time   30.2802
       DOS:  cpu time    0.0042: real time    0.0042
    CHARGE:  cpu time    0.5970: real time    0.5974
    MIXING:  cpu time    0.0011: real time    0.0011
    --------------------------------------------
      LOOP:  cpu time   30.8782: real time   30.9117

 eigenvalue-minimisations  : 27808
 total energy-change (2. order) : 0.4987593E+01  (-0.1677318E+02)
 number of electron     198.0000007 magnetization 
 augmentation part       34.3719391 magnetization 

 Broyden mixing:
  rms(total) = 0.31426E+01    rms(broyden)= 0.31426E+01
  rms(prec ) = 0.44662E+01
  weight for this iteration     100.00

 eigenvalues of (default mixing * dielectric matrix)
  average eigenvalue GAMMA=   0.7179
  2.4688  0.5272  0.5272  0.3836  0.2002  0.2002

 Free energy of the ion-electron system (eV)
  ---------------------------------------------------
  alpha Z        PSCENC =      1151.80364462
  Ewald energy   TEWEN  =    -11284.48122045
  -Hartree energ DENC   =     -3029.84234416
  -exchange      EXHF   =         0.00000000
  -V(xc)+E(xc)   XCENC  =      -891.46779736
  PAW double counting   =     18454.44873848   -16959.41669949
  entropy T*S    EENTRO =        -0.01569642
  eigenvalues    EBANDS =      -772.65681068
  atomic energy  EATOM  =     13005.90793652
  Solvation  Ediel_sol  =         0.00000000
  ---------------------------------------------------
  free energy    TOTEN  =      -325.72024894 eV

  energy without entropy =     -325.70455252  energy(sigma->0) =     -325.71501680


--------------------------------------------------------------------------------------------------------




--------------------------------------- Iteration      1(   8)  ---------------------------------------


    POTLOK:  cpu time    0.0227: real time    0.0449
    SETDIJ:  cpu time    0.0052: real time    0.0052
     EDDAV:  cpu time   28.1802: real time   28.2229
       DOS:  cpu time    0.0042: real time    0.0042
    CHARGE:  cpu time    0.5986: real time    0.5992
    MIXING:  cpu time    0.0011: real time    0.0011
    --------------------------------------------
      LOOP:  cpu time   28.8119: real time   28.8774

 eigenvalue-minimisations  : 25568
 total energy-change (2. order) : 0.3339645E+01  (-0.7716004E+01)
 number of electron     198.0000007 magnetization 
 augmentation part       32.0261705 magnetization 

 Broyden mixing:
  rms(total) = 0.23351E+01    rms(broyden)= 0.23351E+01
  rms(prec ) = 0.33817E+01
  weight for this iteration     100.00

 eigenvalues of (default mixing * dielectric matrix)
  average eigenvalue GAMMA=   0.7013
  2.5971  0.7666  0.4646  0.3455  0.3455  0.2055  0.1841

 Free energy of the ion-electron system (eV)
  ---------------------------------------------------
  alpha Z        PSCENC =      1151.80364462
  Ewald energy   TEWEN  =    -11284.48122045
  -Hartree energ DENC   =     -3001.73201445
  -exchange      EXHF   =         0.00000000
  -V(xc)+E(xc)   XCENC  =      -892.02913405
  PAW double counting   =     18274.09822294   -16777.23427170
  entropy T*S    EENTRO =        -0.02377342
  eigenvalues    EBANDS =      -798.68999441
  atomic energy  EATOM  =     13005.90793652
  Solvation  Ediel_sol  =         0.00000000
  ---------------------------------------------------
  free energy    TOTEN  =      -322.38060441 eV

  energy without entropy =     -322.35683099  energy(sigma->0) =     -322.37267993


--------------------------------------------------------------------------------------------------------




--------------------------------------- Iteration      1(   9)  ---------------------------------------


    POTLOK:  cpu time    0.0344: real time    0.0351
    SETDIJ:  cpu time    0.0087: real time    0.0087
     EDDAV:  cpu time   28.8874: real time   28.9300
       DOS:  cpu time    0.0042: real time    0.0042
    CHARGE:  cpu time    0.5973: real time    0.5978
[...]
    114       7.2911     -0.00000
    115       7.3488     -0.00000
    116       7.4018     -0.00000
    117       7.4663     -0.00000
    118       7.5342     -0.00000
    119       7.5684     -0.00000
    120       7.6200     -0.00000

 k-point    63 :      -0.2000   -0.2000    0.4000
  band No.  band energies     occupation 
      1     -47.9846      2.00000
      2     -47.9629      2.00000
      3     -47.9305      2.00000
      4     -47.8908      2.00000
      5     -47.8642      2.00000
      6     -47.7767      2.00000
      7     -24.5259      2.00000
      8     -24.4692      2.00000
      9     -24.3448      2.00000
     10     -24.3065      2.00000
     11     -24.1234      2.00000
     12     -24.1160      2.00000
     13     -24.1054      2.00000
     14     -24.0706      2.00000
     15     -24.0539      2.00000
     16     -24.0422      2.00000
     17     -24.0234      2.00000
     18     -23.9809      2.00000
     19     -23.9397      2.00000
     20     -23.9195      2.00000
     21     -23.8094      2.00000
     22     -23.7905      2.00000
     23     -23.6629      2.00000
     24     -23.5662      2.00000
     25       0.0059      2.00000
     26       0.2781      2.00000
     27       1.8338      2.00000
     28       2.0451      2.00000
     29       2.1383      2.00000
     30       2.3091      2.00000
     31       2.4262      2.00000
     32       2.4564      2.00000
     33       2.5738      2.00000
     34       2.6509      2.00000
     35       2.6781      2.00000
     36       2.7759      2.00000
     37       2.8155      2.00000
     38       2.8561      2.00000
     39       2.9568      2.00000
     40       3.0381      2.00000
     41       3.0597      2.00000
     42       3.1028      2.00000
     43       3.1925      2.00000
     44       3.2483      2.00000
     45       3.3803      2.00000
     46       3.4030      2.00000
     47       3.5780      2.00000
     48       3.6220      2.00000
     49       3.7015      2.00000
     50       3.7359      2.00000
     51       3.7854      2.00000
     52       3.8385      2.00000
     53       3.8744      2.00000
     54       3.9657      2.00000
     55       4.0222      2.00000
     56       4.1005      2.00000
     57       4.2371      2.00000
     58       4.3166      2.00000
     59       4.3930      2.00000
     60       4.4736      2.00000
     61       4.4962      2.00000
     62       4.5466      2.00000
     63       4.5622      2.00000
     64       4.6047      2.00000
     65       4.6632      2.00000
     66       4.6930      2.00000
     67       4.7416      2.00000
     68       4.7980      2.00000
     69       4.8402      2.00000
     70       4.8537      2.00000
     71       4.9537      2.00000
     72       5.0021      2.00000
     73       5.0389      2.00000
     74       5.0610      2.00000
     75       5.1466      2.00000
     76       5.1862      2.00000
     77       5.2207      2.00000
     78       5.2464      2.00000
     79       5.2993      2.00000
     80       5.3325      2.00000
     81       5.3990      2.00001
     82       5.4287      2.00002
     83       5.4867      2.00014
     84       5.5268      2.00041
     85       5.5649      2.00108
     86       5.5889      2.00189
     87       5.6496      2.00681
     88       5.6613      2.00849
     89       5.7000      2.01657
     90       5.7323      2.02678
     91       5.7493      2.03347
     92       5.7777      2.04607
     93       5.8350      2.06874
     94       5.8604      2.07045
     95       5.8791      2.06461
     96       5.9093      2.03623
     97       5.9299      1.99893
     98       5.9730      1.86100
     99       5.9911      1.77593
    100       6.1187      0.82417
    101       6.1602      0.49941
    102       6.2757     -0.01904
    103       6.3025     -0.05476
    104       6.3588     -0.06913
    105       6.3894     -0.05897
    106       6.4607     -0.02776
    107       6.5424     -0.00730
    108       6.6153     -0.00155
    109       6.9463     -0.00000
    110       7.0377     -0.00000
    111       7.0830     -0.00000
    112       7.1314     -0.00000
    113       7.1778     -0.00000
    114       7.6522     -0.00000
    115       7.7087     -0.00000
    116       7.7640     -0.00000
    117       7.8524     -0.00000
    118       7.8782     -0.00000
    119       7.9307     -0.00000
    120       7.9821     -0.00000


--------------------------------------------------------------------------------------------------------


 soft charge-density along one line, spin component           1
         0         1         2         3         4         5         6         7         8         9
 total charge-density along one line
 
 pseudopotential strength for first ion, spin component:           1
  5.576 -21.211   0.002   0.001  -0.000  -0.005  -0.003   0.001
-21.211  10.067   0.003   0.002  -0.001  -0.000  -0.000   0.000
  0.002   0.003 -10.683  -0.001   0.004   6.984   0.001  -0.004
  0.001   0.002  -0.001 -10.682  -0.006   0.001   6.982   0.007
 -0.000  -0.001   0.004  -0.006 -10.684  -0.004   0.007   6.985
 -0.005  -0.000   6.984   0.001  -0.004   7.315  -0.001   0.002
 -0.003  -0.000   0.001   6.982   0.007  -0.001   7.316  -0.004
  0.001   0.000  -0.004   0.007   6.985   0.002  -0.004   7.314
  0.002   0.001  -0.001  -0.000   0.002   0.001   0.000  -0.003
 -0.001  -0.000   0.001   0.002  -0.000  -0.001  -0.003   0.000
  0.001   0.000  -0.001   0.001   0.000   0.001  -0.001  -0.000
 -0.004  -0.002  -0.000  -0.001   0.001   0.000   0.001  -0.001
 -0.000  -0.000  -0.002   0.000  -0.000   0.002  -0.000   0.001
  0.003   0.001  -0.001  -0.000   0.002   0.001   0.001  -0.003
 -0.001  -0.000   0.001   0.003  -0.000  -0.002  -0.004   0.001
  0.001   0.001  -0.001   0.002   0.000   0.002  -0.002  -0.000
 -0.006  -0.002  -0.000  -0.001   0.001   0.001   0.001  -0.002
 -0.000  -0.000  -0.002   0.000  -0.001   0.003  -0.000   0.001
 total augmentation occupancy for first ion, spin component:           1
  1.996  -0.037  -0.000  -0.000   0.000  -0.000  -0.000   0.000   0.006  -0.004   0.001  -0.008  -0.001  -0.005   0.003  -0.001
 -0.037   1.498  -0.002  -0.001   0.003   0.002  -0.000  -0.003   0.015  -0.022  -0.016  -0.035  -0.003  -0.006   0.008   0.006
 -0.000  -0.002   1.998   0.000  -0.000  -0.026  -0.001   0.001   0.007  -0.004  -0.000   0.005  -0.003  -0.004   0.002   0.001
 -0.000  -0.001   0.000   1.998  -0.000  -0.001  -0.026   0.001   0.004  -0.001   0.001   0.006   0.001  -0.003   0.000  -0.001
  0.000   0.003  -0.000  -0.000   1.998   0.001   0.001  -0.026  -0.005   0.005  -0.001  -0.001   0.001   0.002  -0.003   0.000
 -0.000   0.002  -0.026  -0.001   0.001   0.064   0.001  -0.000  -0.006   0.005  -0.000  -0.004   0.002   0.003  -0.002   0.000
 -0.000  -0.000  -0.001  -0.026   0.001   0.001   0.064  -0.004   0.000  -0.005  -0.003  -0.006   0.000   0.000   0.001   0.001
  0.000  -0.003   0.001   0.001  -0.026  -0.000  -0.004   0.064   0.003  -0.004   0.004  -0.001  -0.003  -0.000   0.001  -0.002
  0.006   0.015   0.007   0.004  -0.005  -0.006   0.000   0.003   2.453  -0.239  -0.044  -0.018  -0.008  -0.897   0.103   0.016
 -0.004  -0.022  -0.004  -0.001   0.005   0.005  -0.005  -0.004  -0.239   2.475  -0.016   0.031   0.024   0.103  -0.900   0.006
  0.001  -0.016  -0.000   0.001  -0.001  -0.000  -0.003   0.004  -0.044  -0.016   2.244  -0.012   0.014   0.016   0.006  -0.898
 -0.008  -0.035   0.005   0.006  -0.001  -0.004  -0.006  -0.001  -0.018   0.031  -0.012   2.461  -0.026   0.006  -0.009   0.016
 -0.001  -0.003  -0.003   0.001   0.001   0.002   0.000  -0.003  -0.008   0.024   0.014  -0.026   2.254   0.002  -0.010  -0.007
 -0.005  -0.006  -0.004  -0.003   0.002   0.003   0.000  -0.000  -0.897   0.103   0.016   0.006   0.002   0.342  -0.044  -0.006
  0.003   0.008   0.002   0.000  -0.003  -0.002   0.001   0.001   0.103  -0.900   0.006  -0.009  -0.010  -0.044   0.343  -0.002
 -0.001   0.006   0.001  -0.001   0.000   0.000   0.001  -0.002   0.016   0.006  -0.898   0.016  -0.007  -0.006  -0.002   0.369
  0.008   0.035  -0.003  -0.004   0.001   0.001   0.003  -0.001   0.005  -0.009   0.015  -0.893   0.029  -0.002   0.003  -0.011
  0.001   0.005   0.003  -0.000  -0.000  -0.000  -0.000   0.003   0.001  -0.010  -0.007   0.030  -0.903  -0.000   0.004   0.004


------------------------ aborting loop because EDIFF is reached ----------------------------------------


    CHARGE:  cpu time    0.5987: real time    0.5992
    FORLOC:  cpu time    0.0064: real time    0.0064
    FORNL :  cpu time    3.9068: real time    3.9100
    STRESS:  cpu time   11.8675: real time   11.8900
    FORCOR:  cpu time    0.0303: real time    0.0306
    FORHAR:  cpu time    0.0116: real time    0.0116
    MIXING:  cpu time    0.0029: real time    0.0029
    OFIELD:  cpu time    0.0010: real time    0.0001

  FORCE on cell =-STRESS in cart. coord.  units (eV):
  Direction    XX          YY          ZZ          XY          YZ          ZX
  --------------------------------------------------------------------------------------
  Alpha Z  1151.80364  1151.80364  1151.80364
  Ewald   -3721.97570 -3411.19792 -4151.33658  -126.32656   436.66986   302.10468
  Hartree  1057.50195  1301.01612   650.90820  -107.45208   395.41030   297.28369
  E(xc)    -879.48494  -879.24577  -879.38331    -0.07586    -0.05057    -0.38090
  Local    -392.82059  -947.67825   443.34356   233.73084  -832.22787  -597.74119
  n-local  -281.14830  -281.25121  -280.94852     0.50451     0.10963     1.25725
  augment   333.20411   333.16859   332.98454     0.00353     0.00554    -0.30244
  Kinetic  2698.24740  2697.99767  2697.63180    -1.29839     0.01967    -1.85974
  Fock        0.00000     0.00000     0.00000     0.00000     0.00000     0.00000
  -------------------------------------------------------------------------------------
  Total     -34.67244   -35.38712   -34.99666    -0.91400    -0.06344     0.36136
  in kB    -109.89960  -112.16491  -110.92728    -2.89705    -0.20107     1.14537
  external pressure =     -111.00 kB  Pullay stress =        0.00 kB


 VOLUME and BASIS-vectors are now :
 -----------------------------------------------------------------------------
  energy-cutoff  :      600.00
  volume of cell :      505.47
      direct lattice vectors                 reciprocal lattice vectors
    -3.230000000 -3.230000000 -3.230000000    -0.134158927 -0.123839009 -0.051599587
     1.615000000  1.615000000 -8.075000000     0.041279670  0.061919505 -0.103199174
     8.075000000 -8.075000000 -1.615000000     0.061919505 -0.061919505  0.000000000

  length of vectors
     5.594524108  8.391786163 11.533406912     0.189729374  0.127232487  0.087567403


 FORCES acting on ions
    electron-ion (+dipol)            ewald-force                    non-local-force                 convergence-correction
 -----------------------------------------------------------------------------------------------
   0.145E+03 0.396E+02 -.187E+03   -.146E+03 -.389E+02 0.187E+03   0.327E+00 -.220E+00 -.950E-01   -.115E+00 -.188E-01 0.744E-01
   -.778E+02 -.182E+03 0.108E+03   0.780E+02 0.182E+03 -.107E+03   0.876E-01 -.585E-01 -.217E+00   -.129E+00 0.151E+00 -.953E-01
   -.241E+02 0.783E+02 -.266E+02   0.239E+02 -.780E+02 0.267E+02   0.962E-01 0.452E-02 -.286E+00   0.111E-01 -.554E-01 0.337E-01
   -.589E+02 0.102E+03 -.770E+02   0.592E+02 -.102E+03 0.771E+02   -.434E-01 -.637E-02 -.150E+00   0.422E-02 -.205E-01 0.467E-01
   -.227E+02 -.106E+03 0.244E+03   0.224E+02 0.106E+03 -.244E+03   0.861E-01 0.322E+00 -.284E+00   0.111E+00 -.672E-01 0.396E-01
   0.360E+01 0.743E+02 -.268E+02   -.412E+01 -.741E+02 0.264E+02   0.324E+00 0.780E-01 -.248E-01   -.823E-01 -.315E-01 0.108E+00
   0.114E+02 0.463E+02 -.892E+02   -.112E+02 -.466E+02 0.892E+02   -.103E+00 -.210E+00 0.164E+00   -.470E-02 -.270E-01 0.146E-01
   -.157E+02 0.570E+01 0.124E+02   0.154E+02 -.590E+01 -.120E+02   -.253E+00 -.555E-01 0.239E+00   -.382E-01 0.268E-01 -.149E-01
   0.386E+02 -.484E+02 0.412E+02   -.387E+02 0.487E+02 -.410E+02   -.528E-01 0.210E-02 -.953E-01   0.171E-01 -.145E-05 -.127E-01
   -.807E+02 -.615E+02 0.104E+03   0.806E+02 0.618E+02 -.104E+03   0.237E+00 0.849E-01 -.204E+00   0.339E-01 -.218E-01 -.632E-02
   0.308E+02 0.898E+02 -.685E+02   -.308E+02 -.899E+02 0.688E+02   -.127E+00 -.189E+00 -.155E+00   0.186E-02 0.179E-01 0.335E-01
   0.367E+02 -.495E+02 0.832E+02   -.368E+02 0.496E+02 -.835E+02   0.263E+00 0.185E-01 -.273E+00   -.183E-01 0.724E-01 -.255E-01
   0.531E+02 0.359E+02 -.771E+02   -.529E+02 -.359E+02 0.771E+02   0.349E-01 -.454E+00 0.402E+00   0.143E-01 -.614E-02 -.169E-01
   0.508E+02 0.219E+02 -.128E+03   -.504E+02 -.218E+02 0.127E+03   -.121E+00 0.219E+00 0.799E-01   -.458E-02 -.528E-01 0.147E-01
   -.366E+02 -.350E+02 0.122E+02   0.362E+02 0.352E+02 -.123E+02   0.570E-01 0.193E+00 -.777E-01   -.140E-01 0.116E-01 -.841E-02
   0.297E+00 0.583E+02 -.437E+02   -.671E+00 -.583E+02 0.440E+02   -.329E+00 -.142E+00 0.359E+00   -.235E-02 -.102E-01 0.224E-01
   0.968E+02 0.460E+02 -.946E+02   -.972E+02 -.460E+02 0.950E+02   -.403E+00 -.839E-01 0.102E+00   0.297E-01 -.327E-01 0.453E-01
   -.516E+01 0.503E+01 -.360E+01   0.537E+01 -.509E+01 0.319E+01   0.974E-01 -.241E+00 0.149E+00   -.411E-02 0.329E-01 -.108E-01
   -.160E+02 0.452E+02 -.623E+02   0.162E+02 -.450E+02 0.625E+02   -.133E+00 0.724E-01 0.198E+00   -.314E-01 -.122E-01 0.849E-02
   0.294E+02 0.899E+01 -.366E+02   -.289E+02 -.928E+01 0.366E+02   0.431E-01 -.180E+00 0.770E-01   -.275E-01 0.109E-01 0.390E-01
   -.526E+02 -.167E+02 0.912E+02   0.527E+02 0.165E+02 -.914E+02   -.162E+00 0.650E-01 -.111E+00   0.141E-01 -.143E-01 -.700E-02
   -.667E+01 -.815E+01 0.197E+02   0.657E+01 0.811E+01 -.200E+02   -.220E+00 0.367E-01 -.546E-01   0.187E-01 0.140E-01 -.331E-01
   -.266E+02 -.235E+02 0.739E+02   0.262E+02 0.234E+02 -.734E+02   0.789E-01 -.456E-01 0.281E-01   0.123E-01 0.450E-01 -.390E-01
   0.426E+01 -.523E+01 0.532E+02   -.387E+01 0.497E+01 -.537E+02   0.221E+00 0.117E+00 -.247E+00   0.549E-02 0.219E-02 0.196E-02
   -.220E+02 -.344E+02 0.452E+02   0.219E+02 0.340E+02 -.451E+02   0.179E+00 -.561E-03 0.380E+00   0.270E-01 -.414E-02 -.221E-01
   -.795E+02 -.331E+02 0.873E+02   0.801E+02 0.332E+02 -.878E+02   -.571E-01 0.810E-01 0.134E+00   -.495E-02 0.419E-01 -.586E-01
   -.188E+02 -.729E+02 0.583E+02   0.187E+02 0.730E+02 -.584E+02   0.809E-01 0.464E-01 -.323E-01   0.442E-01 -.619E-01 -.126E-01
   -.181E+02 0.265E+02 -.341E+02   0.183E+02 -.271E+02 0.338E+02   0.193E-01 0.925E-01 -.142E+00   -.227E-01 -.249E-02 0.308E-01
   0.460E+02 0.329E+02 -.836E+02   -.462E+02 -.330E+02 0.839E+02   -.636E-01 -.154E+00 0.196E+00   0.139E-01 -.504E-02 0.202E-02
   0.147E+02 -.404E+02 0.476E+01   -.145E+02 0.405E+02 -.480E+01   0.111E+00 0.664E-01 -.100E+00   0.193E-01 -.297E-02 -.170E-01
 -----------------------------------------------------------------------------------------------
   -.165E+00 0.557E+00 -.982E-01   -.249E-13 -.711E-14 0.167E-12   0.276E+00 -.541E+00 -.395E-01   -.121E+00 -.203E-01 0.135E+00
 
 
 POSITION                                       TOTAL-FORCE (eV/Angst)
 -----------------------------------------------------------------------------------
      1.61500     -4.84500    -11.30500        -0.024372      0.442655      0.247347
      1.61500     -4.84500     -4.84500         0.245339     -0.078275     -0.001054
     -1.61500     -1.61500     -1.61500        -0.139205      0.289881     -0.129478
      0.00000      0.00000      0.00000         0.247450     -0.013818      0.009113
      6.46000     -6.46000     -3.23000        -0.063690      0.564747     -0.362846
      4.84500     -4.84500     -1.61500        -0.281342      0.214500     -0.295034
      0.00000     -3.23000     -9.69000         0.048867     -0.479026      0.127714
      1.61500     -4.84500     -8.07500        -0.610852     -0.226020      0.584834
      0.00000     -3.23000     -6.46000        -0.100523      0.312489      0.022542
     -1.61500     -1.61500     -4.84500         0.171692      0.355160     -0.514754
      4.84500     -4.84500     -8.07500        -0.071496     -0.281432      0.243288
      3.23000     -3.23000     -3.23000         0.153312      0.178736     -0.600527
     -1.61500     -1.61500     -8.07500         0.193372     -0.416140      0.345256
      4.84500     -8.07500    -11.30500         0.282218      0.269826     -0.128601
     -0.00000     -3.23000     -3.23000        -0.321147      0.454350     -0.115184
      1.61500     -1.61500     -8.07500        -0.705400     -0.138131      0.717596
      6.46000     -6.46000     -9.69000        -0.769771     -0.093025      0.591708
      3.23000     -3.23000     -6.46000         0.302787     -0.274023     -0.280743
      3.23000     -6.46000     -9.69000         0.056031      0.247173      0.408657
      3.23000     -3.23000     -9.69000         0.517486     -0.456380      0.146242
     -0.00000     -0.00000     -3.23000        -0.013549     -0.166528     -0.349923
      6.46000     -6.46000     -6.46000        -0.302083      0.007941     -0.314638
      4.84500     -4.84500     -4.84500        -0.286843     -0.028434      0.525553
      1.61500     -1.61500     -1.61500         0.616977     -0.144924     -0.770463
      4.84500     -8.07500     -8.07500         0.116134     -0.401262      0.495901
      3.23000     -6.46000     -6.46000         0.479781      0.184732     -0.390605
      4.84500     -8.07500     -4.84500         0.016165      0.166101     -0.121227
      3.23000     -6.46000     -3.23000         0.187433     -0.456029     -0.422572
      0.00000      0.00000     -6.46000        -0.221669     -0.209795      0.491037
      1.61500     -1.61500     -4.84500         0.276899      0.174950     -0.159140
 -----------------------------------------------------------------------------------
    total drift:                               -0.009033     -0.003944     -0.002823


--------------------------------------------------------------------------------------------------------



  FREE ENERGIE OF THE ION-ELECTRON SYSTEM (eV)
  ---------------------------------------------------
  free  energy   TOTEN  =      -317.67766794 eV

  energy  without entropy=     -317.66796395  energy(sigma->0) =     -317.67443328
 


--------------------------------------------------------------------------------------------------------


    POTLOK:  cpu time    0.0268: real time    0.0278


--------------------------------------------------------------------------------------------------------


 stress matrix after NEB project (eV)
    -34.67244     -0.91400      0.36136
     -0.91400    -35.38712     -0.06344
      0.36136     -0.06344    -34.99666
  FORCES: max atom, RMS     1.015684    0.592111
  FORCE total and by dimension    3.243128    0.770463
  Stress total and by dimension   60.672338   35.387124
 writing wavefunctions
     LOOP+:  cpu time  819.8554: real time  825.6672
    4ORBIT:  cpu time    0.0000: real time    0.0000

 total amount of memory used by VASP MPI-rank0   110026. kBytes
=======================================================================

   base      :      30000. kBytes
   nonlr-proj:       6860. kBytes
   fftplans  :       2333. kBytes
   grid      :       4665. kBytes
   one-center:        124. kBytes
   wavefun   :      66044. kBytes
 
  
  
 General timing and accounting informations for this job:
 ========================================================
  
                  Total CPU time used (sec):      830.079
                            User time (sec):      823.613
                          System time (sec):        6.467
                         Elapsed time (sec):      840.520
  
                   Maximum memory used (kb):      159080.
                   Average memory used (kb):           0.
  
                          Minor page faults:        79368
                          Major page faults:            0
                 Voluntary context switches:         2137
