<?xml version="1.0" encoding="ISO-8859-1"?>
<modeling>
 <generator>
  <i name="program" type="string">vasp </i>
  <i name="version" type="string">5.4.4.18Apr17-6-g9f103f2a35  </i>
  <i name="subversion" type="string">(build Aug 09 2018 16:20:53) complex            parallel </i>
  <i name="platform" type="string">LinuxIFC </i>
  <i name="date" type="string">2020 04 28 </i>
  <i name="time" type="string">21:33:05 </i>
 </generator>
 <incar>
  <i type="string" name="SYSTEM"> Nb - Mo - Ta - Ti - V SQS</i>
  <i type="string" name="PREC">normal</i>
  <i type="int" name="ICHARG">     1</i>
  <i type="int" name="NELM">   100</i>
  <i type="int" name="IBRION">     2</i>
  <i name="ENCUT">    600.00000000</i>
  <i type="string" name="LREAL"> Auto</i>
  <i type="int" name="ISMEAR">     1</i>
  <i name="SIGMA">      0.20000000</i>
  <v type="int" name="KPOINT_BSE">    -1     0     0     0</v>
  <i type="int" name="NELM">   100</i>
  <i type="string" name="GGA"> PS</i>
 </incar>
 <structure name="primitive_cell" >
  <crystal>
   <varray name="basis" >
    <v>      -3.23000000      -3.23000000      -3.23000000 </v>
    <v>       1.61500000       1.61500000      -8.07500000 </v>
    <v>       8.07500000      -8.07500000      -1.61500000 </v>
   </varray>
   <i name="volume">    505.47400500 </i>
   <varray name="rec_basis" >
    <v>      -0.13415893      -0.12383901      -0.05159959 </v>
    <v>       0.04127967       0.06191950      -0.10319917 </v>
    <v>       0.06191950      -0.06191950       0.00000000 </v>
   </varray>
  </crystal>
  <varray name="positions" >
   <v>      -0.03333333      -0.06666667       0.40000000 </v>
   <v>       0.30000000      -0.40000000       0.40000000 </v>
   <v>      -0.10000000      -0.20000000       0.20000000 </v>
   <v>       0.06666667       0.13333333       0.20000000 </v>
   <v>       0.46666667      -0.06666667       0.40000000 </v>
   <v>      -0.13333333      -0.26666667      -0.40000000 </v>
   <v>       0.03333333       0.06666667      -0.40000000 </v>
   <v>      -0.36666667       0.26666667       0.40000000 </v>
   <v>       0.40000000      -0.20000000       0.20000000 </v>
   <v>      -0.20000000      -0.40000000       0.40000000 </v>
   <v>      -0.43333333       0.13333333       0.20000000 </v>
   <v>       0.36666667      -0.26666667      -0.40000000 </v>
   <v>       0.13333333       0.26666667       0.40000000 </v>
   <v>      -0.46666667       0.06666667      -0.40000000 </v>
   <v>       0.23333333       0.46666667       0.20000000 </v>
   <v>       0.20000000       0.40000000      -0.40000000 </v>
   <v>       0.00000000       0.00000000       0.00000000 </v>
   <v>      -0.06666667      -0.13333333      -0.20000000 </v>
   <v>      -0.30000000       0.40000000      -0.40000000 </v>
   <v>      -0.26666667       0.46666667       0.20000000 </v>
   <v>       0.33333333      -0.33333333       0.00000000 </v>
   <v>       0.43333333      -0.13333333      -0.20000000 </v>
   <v>      -0.50000000       0.00000000       0.00000000 </v>
   <v>       0.26666667      -0.46666667      -0.20000000 </v>
   <v>      -0.33333333       0.33333333       0.00000000 </v>
   <v>      -0.40000000       0.20000000      -0.20000000 </v>
   <v>      -0.16666667      -0.33333333       0.00000000 </v>
   <v>      -0.23333333      -0.46666667      -0.20000000 </v>
   <v>       0.16666667       0.33333333       0.00000000 </v>
   <v>       0.10000000       0.20000000      -0.20000000 </v>
  </varray>
 </structure>
 <varray name="primitive_index" >
  <v type="int" >        1 </v>
  <v type="int" >       18 </v>
  <v type="int" >        7 </v>
  <v type="int" >       24 </v>
  <v type="int" >       20 </v>
  <v type="int" >       19 </v>
  <v type="int" >        6 </v>
  <v type="int" >        2 </v>
  <v type="int" >       16 </v>
  <v type="int" >        8 </v>
  <v type="int" >       15 </v>
  <v type="int" >       11 </v>
  <v type="int" >       12 </v>
  <v type="int" >       28 </v>
  <v type="int" >       30 </v>
  <v type="int" >       23 </v>
  <v type="int" >        4 </v>
  <v type="int" >       14 </v>
  <v type="int" >       26 </v>
  <v type="int" >        9 </v>
  <v type="int" >       29 </v>
  <v type="int" >       17 </v>
  <v type="int" >        3 </v>
  <v type="int" >       22 </v>
  <v type="int" >       10 </v>
  <v type="int" >       27 </v>
  <v type="int" >       13 </v>
  <v type="int" >       25 </v>
  <v type="int" >       21 </v>
  <v type="int" >        5 </v>
 </varray>
 <kpoints>
  <generation param="Gamma">
   <v type="int" name="divisions">       5        5        5 </v>
   <v name="usershift">      0.00000000       0.00000000       0.00000000 </v>
   <v name="genvec1">      0.20000000       0.00000000      -0.00000000 </v>
   <v name="genvec2">      0.00000000       0.20000000       0.00000000 </v>
   <v name="genvec3">      0.00000000       0.00000000       0.20000000 </v>
   <v name="shift">      0.00000000       0.00000000       0.00000000 </v>
  </generation>
  <varray name="kpointlist" >
   <v>       0.00000000       0.00000000       0.00000000 </v>
   <v>       0.20000000       0.00000000       0.00000000 </v>
   <v>       0.40000000       0.00000000       0.00000000 </v>
   <v>       0.00000000       0.20000000      -0.00000000 </v>
   <v>       0.20000000       0.20000000      -0.00000000 </v>
   <v>       0.40000000       0.20000000      -0.00000000 </v>
   <v>      -0.40000000       0.20000000       0.00000000 </v>
   <v>      -0.20000000       0.20000000      -0.00000000 </v>
   <v>       0.00000000       0.40000000      -0.00000000 </v>
   <v>       0.20000000       0.40000000      -0.00000000 </v>
   <v>       0.40000000       0.40000000      -0.00000000 </v>
   <v>      -0.40000000       0.40000000      -0.00000000 </v>
   <v>      -0.20000000       0.40000000      -0.00000000 </v>
   <v>       0.00000000       0.00000000       0.20000000 </v>
   <v>       0.20000000       0.00000000       0.20000000 </v>
   <v>       0.40000000       0.00000000       0.20000000 </v>
   <v>      -0.40000000       0.00000000       0.20000000 </v>
   <v>      -0.20000000       0.00000000       0.20000000 </v>
   <v>      -0.00000000       0.20000000       0.20000000 </v>
   <v>       0.20000000       0.20000000       0.20000000 </v>
   <v>       0.40000000       0.20000000       0.20000000 </v>
   <v>      -0.40000000       0.20000000       0.20000000 </v>
   <v>      -0.20000000       0.20000000       0.20000000 </v>
   <v>       0.00000000       0.40000000       0.20000000 </v>
   <v>       0.20000000       0.40000000       0.20000000 </v>
   <v>       0.40000000       0.40000000       0.20000000 </v>
   <v>      -0.40000000       0.40000000       0.20000000 </v>
   <v>      -0.20000000       0.40000000       0.20000000 </v>
   <v>       0.00000000      -0.40000000       0.20000000 </v>
   <v>       0.20000000      -0.40000000       0.20000000 </v>
   <v>       0.40000000      -0.40000000       0.20000000 </v>
   <v>      -0.40000000      -0.40000000       0.20000000 </v>
   <v>      -0.20000000      -0.40000000       0.20000000 </v>
   <v>      -0.00000000      -0.20000000       0.20000000 </v>
   <v>       0.20000000      -0.20000000       0.20000000 </v>
   <v>       0.40000000      -0.20000000       0.20000000 </v>
   <v>      -0.40000000      -0.20000000       0.20000000 </v>
   <v>      -0.20000000      -0.20000000       0.20000000 </v>
   <v>       0.00000000       0.00000000       0.40000000 </v>
   <v>       0.20000000       0.00000000       0.40000000 </v>
   <v>       0.40000000       0.00000000       0.40000000 </v>
   <v>      -0.40000000       0.00000000       0.40000000 </v>
   <v>      -0.20000000       0.00000000       0.40000000 </v>
   <v>       0.00000000       0.20000000       0.40000000 </v>
   <v>       0.20000000       0.20000000       0.40000000 </v>
   <v>       0.40000000       0.20000000       0.40000000 </v>
   <v>      -0.40000000       0.20000000       0.40000000 </v>
   <v>      -0.20000000       0.20000000       0.40000000 </v>
   <v>      -0.00000000       0.40000000       0.40000000 </v>
   <v>       0.20000000       0.40000000       0.40000000 </v>
   <v>       0.40000000       0.40000000       0.40000000 </v>
   <v>      -0.40000000       0.40000000       0.40000000 </v>
   <v>      -0.20000000       0.40000000       0.40000000 </v>
   <v>      -0.00000000      -0.40000000       0.40000000 </v>
   <v>       0.20000000      -0.40000000       0.40000000 </v>
   <v>       0.40000000      -0.40000000       0.40000000 </v>
   <v>      -0.40000000      -0.40000000       0.40000000 </v>
   <v>      -0.20000000      -0.40000000       0.40000000 </v>
   <v>       0.00000000      -0.20000000       0.40000000 </v>
   <v>       0.20000000      -0.20000000       0.40000000 </v>
   <v>       0.40000000      -0.20000000       0.40000000 </v>
   <v>      -0.40000000      -0.20000000       0.40000000 </v>
   <v>      -0.20000000      -0.20000000       0.40000000 </v>
  </varray>
  <varray name="weights" >
   <v>       0.00800000 </v>
   <v>       0.01600000 </v>
   <v>       0.01600000 </v>
   <v>       0.01600000 </v>
   <v>       0.01600000 </v>
   <v>       0.01600000 </v>
   <v>       0.01600000 </v>
   <v>       0.01600000 </v>
   <v>       0.01600000 </v>
   <v>       0.01600000 </v>
   <v>       0.01600000 </v>
   <v>       0.01600000 </v>
   <v>       0.01600000 </v>
   <v>       0.01600000 </v>
   <v>       0.01600000 </v>
   <v>       0.01600000 </v>
   <v>       0.01600000 </v>
   <v>       0.01600000 </v>
   <v>       0.01600000 </v>
   <v>       0.01600000 </v>
   <v>       0.01600000 </v>
   <v>       0.01600000 </v>
   <v>       0.01600000 </v>
   <v>       0.01600000 </v>
   <v>       0.01600000 </v>
   <v>       0.01600000 </v>
   <v>       0.01600000 </v>
   <v>       0.01600000 </v>
   <v>       0.01600000 </v>
   <v>       0.01600000 </v>
   <v>       0.01600000 </v>
   <v>       0.01600000 </v>
   <v>       0.01600000 </v>
   <v>       0.01600000 </v>
   <v>       0.01600000 </v>
   <v>       0.01600000 </v>
   <v>       0.01600000 </v>
   <v>       0.01600000 </v>
   <v>       0.01600000 </v>
   <v>       0.01600000 </v>
   <v>       0.01600000 </v>
   <v>       0.01600000 </v>
   <v>       0.01600000 </v>
   <v>       0.01600000 </v>
   <v>       0.01600000 </v>
   <v>       0.01600000 </v>
   <v>       0.01600000 </v>
   <v>       0.01600000 </v>
   <v>       0.01600000 </v>
   <v>       0.01600000 </v>
   <v>       0.01600000 </v>
   <v>       0.01600000 </v>
   <v>       0.01600000 </v>
   <v>       0.01600000 </v>
   <v>       0.01600000 </v>
   <v>       0.01600000 </v>
   <v>       0.01600000 </v>
   <v>       0.01600000 </v>
   <v>       0.01600000 </v>
   <v>       0.01600000 </v>
   <v>       0.01600000 </v>
   <v>       0.01600000 </v>
   <v>       0.01600000 </v>
  </varray>
 </kpoints>
 <parameters>
  <separator name="general" >
   <i type="string" name="SYSTEM">Nb - Mo - Ta - Ti - V SQS</i>
   <i type="logical" name="LCOMPAT"> F  </i>
  </separator>
  <separator name="electronic" >
   <i type="string" name="PREC">normal</i>
   <i name="ENMAX">    600.00000000</i>
   <i name="ENAUG">    455.65900000</i>
   <i name="EDIFF">      0.00010000</i>
   <i type="int" name="IALGO">    38</i>
   <i type="int" name="IWAVPR">    10</i>
   <i type="int" name="NBANDS">   120</i>
   <i name="NELECT">    198.00000000</i>
   <i type="int" name="TURBO">     0</i>
   <i type="int" name="IRESTART">     0</i>
   <i type="int" name="NREBOOT">     0</i>
   <i type="int" name="NMIN">     0</i>
   <i name="EREF">      0.00000000</i>
   <separator name="electronic smearing" >
    <i type="int" name="ISMEAR">     1</i>
    <i name="SIGMA">      0.20000000</i>
    <i name="KSPACING">      0.50000000</i>
    <i type="logical" name="KGAMMA"> T  </i>
   </separator>
   <separator name="electronic projectors" >
    <i type="logical" name="LREAL"> T  </i>
    <v name="ROPT">     -0.00050000     -0.00050000     -0.00050000     -0.00050000     -0.00050000</v>
    <i type="int" name="LMAXPAW">  -100</i>
    <i type="int" name="LMAXMIX">     2</i>
    <i type="logical" name="NLSPLINE"> F  </i>
   </separator>
   <separator name="electronic startup" >
    <i type="int" name="ISTART">     1</i>
    <i type="int" name="ICHARG">     1</i>
    <i type="int" name="INIWAV">     1</i>
   </separator>
   <separator name="electronic spin" >
    <i type="int" name="ISPIN">     1</i>
    <i type="logical" name="LNONCOLLINEAR"> F  </i>
    <v name="MAGMOM">      1.00000000      1.00000000      1.00000000      1.00000000      1.00000000      1.00000000      1.00000000      1.00000000      1.00000000      1.00000000      1.00000000      1.00000000      1.00000000      1.00000000      1.00000000      1.00000000      1.00000000      1.00000000      1.00000000      1.00000000
      1.00000000      1.00000000      1.00000000      1.00000000      1.00000000      1.00000000      1.00000000      1.00000000      1.00000000      1.00000000</v>
    <i name="NUPDOWN">     -1.00000000</i>
    <i type="logical" name="LSORBIT"> F  </i>
    <v name="SAXIS">      0.00000000      0.00000000      1.00000000</v>
    <i type="logical" name="LSPIRAL"> F  </i>
    <v name="QSPIRAL">      0.00000000      0.00000000      0.00000000</v>
    <i type="logical" name="LZEROZ"> F  </i>
   </separator>
   <separator name="electronic exchange-correlation" >
    <i type="logical" name="LASPH"> F  </i>
    <i type="logical" name="LMETAGGA"> F  </i>
   </separator>
   <separator name="electronic convergence" >
    <i type="int" name="NELM">   100</i>
    <i type="int" name="NELMDL">     0</i>
    <i type="int" name="NELMIN">     2</i>
    <i name="ENINI">    600.00000000</i>
    <separator name="electronic convergence detail" >
     <i type="logical" name="LDIAG"> T  </i>
     <i type="logical" name="LSUBROT"> F  </i>
     <i name="WEIMIN">      0.00000000</i>
     <i name="EBREAK">      0.00000021</i>
     <i name="DEPER">      0.30000000</i>
     <i type="int" name="NRMM">     4</i>
     <i name="TIME">      0.40000000</i>
    </separator>
   </separator>
   <separator name="electronic mixer" >
    <i name="AMIX">      0.40000000</i>
    <i name="BMIX">      1.00000000</i>
    <i name="AMIN">      0.10000000</i>
    <i name="AMIX_MAG">      1.60000000</i>
    <i name="BMIX_MAG">      1.00000000</i>
    <separator name="electronic mixer details" >
     <i type="int" name="IMIX">     4</i>
     <i type="logical" name="MIXFIRST"> F  </i>
     <i type="int" name="MAXMIX">   -45</i>
     <i name="WC">    100.00000000</i>
     <i type="int" name="INIMIX">     1</i>
     <i type="int" name="MIXPRE">     1</i>
     <i type="int" name="MREMOVE">     5</i>
    </separator>
   </separator>
   <separator name="electronic dipolcorrection" >
    <i type="logical" name="LDIPOL"> F  </i>
    <i type="logical" name="LMONO"> F  </i>
    <i type="int" name="IDIPOL">     0</i>
    <i name="EPSILON">      1.00000000</i>
    <v name="DIPOL">   -100.00000000   -100.00000000   -100.00000000</v>
    <i name="EFIELD">      0.00000000</i>
   </separator>
  </separator>
  <separator name="grids" >
   <i type="int" name="NGX">    36</i>
   <i type="int" name="NGY">    50</i>
   <i type="int" name="NGZ">    70</i>
   <i type="int" name="NGXF">    72</i>
   <i type="int" name="NGYF">   100</i>
   <i type="int" name="NGZF">   140</i>
   <i type="logical" name="ADDGRID"> F  </i>
  </separator>
  <separator name="ionic" >
   <i type="int" name="NSW">     0</i>
   <i type="int" name="IBRION">    -1</i>
   <i type="int" name="MDALGO">     0</i>
   <i type="int" name="ISIF">     2</i>
   <i name="PSTRESS">      0.00000000</i>
   <i name="EDIFFG">      0.00100000</i>
   <i type="int" name="NFREE">     1</i>
   <i name="POTIM">      0.50000000</i>
   <i name="SMASS">     -3.00000000</i>
   <i name="SCALEE">      1.00000000</i>
  </separator>
  <separator name="ionic md" >
   <i name="TEBEG">      0.00010000</i>
   <i name="TEEND">      0.00010000</i>
   <i type="int" name="NBLOCK">     1</i>
   <i type="int" name="KBLOCK">     1</i>
   <i type="int" name="NPACO">   256</i>
   <i name="APACO">     16.00000000</i>
  </separator>
  <separator name="symmetry" >
   <i type="int" name="ISYM">     2</i>
   <i name="SYMPREC">      0.00001000</i>
  </separator>
  <separator name="dos" >
   <i type="int" name="LORBIT">     0</i>
   <v name="RWIGS">     -1.00000000     -1.00000000     -1.00000000     -1.00000000     -1.00000000</v>
   <i type="int" name="NEDOS">   301</i>
   <i name="EMIN">     10.00000000</i>
   <i name="EMAX">    -10.00000000</i>
   <i name="EFERMI">      0.00000000</i>
  </separator>
  <separator name="writing" >
   <i type="int" name="NWRITE">     2</i>
   <i type="logical" name="LWAVE"> T  </i>
   <i type="logical" name="LDOWNSAMPLE"> F  </i>
   <i type="logical" name="LCHARG"> T  </i>
   <i type="logical" name="LPARD"> F  </i>
   <i type="logical" name="LVTOT"> F  </i>
   <i type="logical" name="LVHAR"> F  </i>
   <i type="logical" name="LELF"> F  </i>
   <i type="logical" name="LOPTICS"> F  </i>
   <v name="STM">      0.00000000      0.00000000      0.00000000      0.00000000      0.00000000      0.00000000      0.00000000</v>
  </separator>
  <separator name="performance" >
   <i type="int" name="NPAR">     8</i>
   <i type="int" name="NSIM">     4</i>
   <i type="int" name="NBLK">    -1</i>
   <i type="logical" name="LPLANE"> T  </i>
   <i type="logical" name="LSCALAPACK"> T  </i>
   <i type="logical" name="LSCAAWARE"> F  </i>
   <i type="logical" name="LSCALU"> F  </i>
   <i type="logical" name="LASYNC"> F  </i>
   <i type="logical" name="LORBITALREAL"> F  </i>
  </separator>
  <separator name="miscellaneous" >
   <i type="int" name="IDIOT">     3</i>
   <i type="int" name="ISPECIAL">     0</i>
   <i type="logical" name="LMUSIC"> F  </i>
   <v name="POMASS">     92.91000000     95.94000000    180.94800000     47.88000000     50.94100000</v>
   <v name="DARWINR">      0.00000000      0.00000000      0.00000000      0.00000000      0.00000000</v>
   <v name="DARWINV">      1.00000000      1.00000000      1.00000000      1.00000000      1.00000000</v>
   <i type="logical" name="LCORR"> T  </i>
  </separator>
  <i type="logical" name="GGA_COMPAT"> T  </i>
  <i type="logical" name="LBERRY"> F  </i>
  <i type="int" name="ICORELEVEL">     0</i>
  <i type="logical" name="LDAU"> F  </i>
  <i type="int" name="I_CONSTRAINED_M">     0</i>
  <separator name="electronic exchange-correlation" >
   <i type="string" name="GGA">PS</i>
   <i type="int" name="VOSKOWN">     0</i>
   <i type="logical" name="LHFCALC"> F  </i>
   <i type="string" name="PRECFOCK"></i>
   <i type="logical" name="LSYMGRAD"> F  </i>
   <i type="logical" name="LHFONE"> F  </i>
   <i type="logical" name="LRHFCALC"> F  </i>
   <i type="logical" name="LTHOMAS"> F  </i>
   <i type="logical" name="LMODELHF"> F  </i>
   <i name="ENCUT4O">     -1.00000000</i>
   <i type="int" name="EXXOEP">     0</i>
   <i type="int" name="FOURORBIT">     0</i>
   <i name="AEXX">      0.00000000</i>
   <i name="HFALPHA">      0.00000000</i>
   <i name="MCALPHA">      0.00000000</i>
   <i name="ALDAX">      1.00000000</i>
   <i name="AGGAX">      1.00000000</i>
   <i name="ALDAC">      1.00000000</i>
   <i name="AGGAC">      1.00000000</i>
   <i type="int" name="NKREDX">     1</i>
   <i type="int" name="NKREDY">     1</i>
   <i type="int" name="NKREDZ">     1</i>
   <i type="logical" name="SHIFTRED"> F  </i>
   <i type="logical" name="ODDONLY"> F  </i>
   <i type="logical" name="EVENONLY"> F  </i>
   <i type="int" name="LMAXFOCK">     0</i>
   <i type="int" name="NMAXFOCKAE">     0</i>
   <i type="logical" name="LFOCKAEDFT"> F  </i>
   <i name="HFSCREEN">      0.00000000</i>
   <i name="HFSCREENC">      0.00000000</i>
   <i type="int" name="NBANDSGWLOW">     0</i>
  </separator>
  <separator name="vdW DFT" >
   <i type="logical" name="LUSE_VDW"> F  </i>
   <i name="Zab_VDW">     -0.84910000</i>
   <i name="PARAM1">      0.12340000</i>
   <i name="PARAM2">      1.00000000</i>
   <i name="PARAM3">      0.00000000</i>
  </separator>
  <separator name="model GW" >
   <i type="int" name="MODEL_GW">     0</i>
   <i name="MODEL_EPS0">     10.10948010</i>
   <i name="MODEL_ALPHA">      1.00000000</i>
  </separator>
  <separator name="linear response parameters" >
   <i type="logical" name="LEPSILON"> F  </i>
   <i type="logical" name="LRPA"> F  </i>
   <i type="logical" name="LNABLA"> F  </i>
   <i type="logical" name="LVEL"> F  </i>
   <i type="int" name="KINTER">     0</i>
   <i name="CSHIFT">      0.10000000</i>
   <i name="OMEGAMAX">     -1.00000000</i>
   <i name="DEG_THRESHOLD">      0.00200000</i>
   <i name="RTIME">     -0.10000000</i>
   <i name="WPLASMAI">      0.00000000</i>
   <v name="DFIELD">      0.00000000      0.00000000      0.00000000</v>
   <v name="WPLASMA">      0.00000000      0.00000000      0.00000000      0.00000000      0.00000000      0.00000000      0.00000000      0.00000000      0.00000000</v>
  </separator>
  <separator name="orbital magnetization" >
   <i type="logical" name="NUCIND"> F  </i>
   <v name="MAGPOS">      0.00000000      0.00000000      0.00000000</v>
   <i type="logical" name="LNICSALL"> T  </i>
   <i type="logical" name="ORBITALMAG"> F  </i>
   <i type="logical" name="LMAGBLOCH"> F  </i>
   <i type="logical" name="LCHIMAG"> F  </i>
   <i type="logical" name="LGAUGE"> T  </i>
   <i type="int" name="MAGATOM">     0</i>
   <v name="MAGDIPOL">      0.00000000      0.00000000      0.00000000</v>
   <v name="AVECCONST">      0.00000000      0.00000000      0.00000000</v>
  </separator>
  <separator name="response functions" >
   <i type="logical" name="LADDER"> F  </i>
   <i type="logical" name="LRPAFORCE"> F  </i>
   <i type="logical" name="LFXC"> F  </i>
   <i type="logical" name="LHARTREE"> T  </i>
   <i type="int" name="IBSE">     0</i>
   <v type="int" name="KPOINT">    -1     0     0     0</v>
   <i type="logical" name="LTCTE"> F  </i>
   <i type="logical" name="LTETE"> F  </i>
   <i type="logical" name="LTRIPLET"> F  </i>
   <i type="logical" name="LFXCEPS"> F  </i>
   <i type="logical" name="LFXHEG"> F  </i>
   <i type="int" name="NATURALO">     2</i>
   <i type="logical" name="L2ORDER"> F  </i>
   <i type="logical" name="LMP2LT"> F  </i>
   <i type="logical" name="LUSEW"> F  </i>
   <i name="ENCUTGW">     -2.00000000</i>
   <i name="ENCUTGWSOFT">     -2.00000000</i>
   <i name="ENCUTLF">     -1.00000000</i>
   <i type="int" name="LMAXMP2">    -1</i>
   <i name="SCISSOR">      0.00000000</i>
   <i type="int" name="NOMEGA">     0</i>
   <i type="int" name="NOMEGAR">     0</i>
   <i type="int" name="NBANDSGW">    -1</i>
   <i type="int" name="NBANDSO">    -1</i>
   <i type="int" name="NBANDSV">    -1</i>
   <i type="int" name="NELM">   100</i>
   <i type="int" name="NELMHF">     1</i>
   <i type="int" name="DIM">     3</i>
   <i type="int" name="ANTIRES">     0</i>
   <i name="OMEGAMAX">    -30.00000000</i>
   <i name="OMEGAMIN">    -30.00000000</i>
   <i name="OMEGATL">   -200.00000000</i>
   <i type="int" name="OMEGAGRID">   140</i>
   <i name="CSHIFT">     -0.10000000</i>
   <i type="logical" name="SELFENERGY"> F  </i>
   <i type="logical" name="LSPECTRAL"> F  </i>
   <i type="logical" name="LSPECTRALGW"> F  </i>
   <i type="logical" name="LSINGLES"> F  </i>
   <i type="logical" name="LFERMIGW"> F  </i>
   <i type="logical" name="ODDONLYGW"> F  </i>
   <i type="logical" name="EVENONLYGW"> F  </i>
   <i type="int" name="NKREDLFX">     1</i>
   <i type="int" name="NKREDLFY">     1</i>
   <i type="int" name="NKREDLFZ">     1</i>
   <i type="int" name="MAXMEM">  2800</i>
   <i type="int" name="TELESCOPE">     0</i>
   <i type="int" name="TAUPAR">     1</i>
   <i type="int" name="OMEGAPAR">    -1</i>
   <i name="LAMBDA">      1.00000000</i>
  </separator>
  <separator name="External order field" >
   <i name="OFIELD_KAPPA">      0.00000000</i>
   <v name="OFIELD_K">      0.00000000      0.00000000      0.00000000</v>
   <i name="OFIELD_Q6_NEAR">      0.00000000</i>
   <i name="OFIELD_Q6_FAR">      0.00000000</i>
   <i name="OFIELD_A">      0.00000000</i>
  </separator>
  <separator name="solvation model" >
   <i type="logical" name="LSOL"> F  </i>
  </separator>
 </parameters>
 <atominfo>
  <atoms>      30 </atoms>
  <types>       5 </types>
  <array name="atoms" >
   <dimension dim="1">ion</dimension>
   <field type="string">element</field>
   <field type="int">atomtype</field>
   <set>
    <rc><c>Nb</c><c>   1</c></rc>
    <rc><c>Nb</c><c>   1</c></rc>
    <rc><c>Nb</c><c>   1</c></rc>
    <rc><c>Nb</c><c>   1</c></rc>
    <rc><c>Nb</c><c>   1</c></rc>
    <rc><c>Nb</c><c>   1</c></rc>
    <rc><c>Mo</c><c>   2</c></rc>
    <rc><c>Mo</c><c>   2</c></rc>
    <rc><c>Mo</c><c>   2</c></rc>
    <rc><c>Mo</c><c>   2</c></rc>
    <rc><c>Mo</c><c>   2</c></rc>
    <rc><c>Mo</c><c>   2</c></rc>
    <rc><c>Ta</c><c>   3</c></rc>
    <rc><c>Ta</c><c>   3</c></rc>
    <rc><c>Ta</c><c>   3</c></rc>
    <rc><c>Ta</c><c>   3</c></rc>
    <rc><c>Ta</c><c>   3</c></rc>
    <rc><c>Ta</c><c>   3</c></rc>
    <rc><c>Ti</c><c>   4</c></rc>
    <rc><c>Ti</c><c>   4</c></rc>
    <rc><c>Ti</c><c>   4</c></rc>
    <rc><c>Ti</c><c>   4</c></rc>
    <rc><c>Ti</c><c>   4</c></rc>
    <rc><c>Ti</c><c>   4</c></rc>
    <rc><c>V </c><c>   5</c></rc>
    <rc><c>V </c><c>   5</c></rc>
    <rc><c>V </c><c>   5</c></rc>
    <rc><c>V </c><c>   5</c></rc>
    <rc><c>V </c><c>   5</c></rc>
    <rc><c>V </c><c>   5</c></rc>
   </set>
  </array>
  <array name="atomtypes" >
   <dimension dim="1">type</dimension>
   <field type="int">atomspertype</field>
   <field type="string">element</field>
   <field>mass</field>
   <field>valence</field>
   <field type="string">pseudopotential</field>
   <set>
    <rc><c>   6</c><c>Nb</c><c>     92.91000000</c><c>     13.00000000</c><c>  PAW_PBE Nb_sv 25May2007               </c></rc>
    <rc><c>   6</c><c>Mo</c><c>     95.94000000</c><c>      6.00000000</c><c>  PAW_PBE Mo 08Apr2002                  </c></rc>
    <rc><c>   6</c><c>Ta</c><c>    180.94800000</c><c>      5.00000000</c><c>  PAW_PBE Ta 17Jan2003                  </c></rc>
    <rc><c>   6</c><c>Ti</c><c>     47.88000000</c><c>      4.00000000</c><c>  PAW_PBE Ti 08Apr2002                  </c></rc>
    <rc><c>   6</c><c>V </c><c>     50.94100000</c><c>      5.00000000</c><c>  PAW_PBE V 08Apr2002                   </c></rc>
   </set>
  </array>
 </atominfo>
 <structure name="initialpos" >
  <crystal>
   <varray name="basis" >
    <v>      -3.23000000      -3.23000000      -3.23000000 </v>
    <v>       1.61500000       1.61500000      -8.07500000 </v>
    <v>       8.07500000      -8.07500000      -1.61500000 </v>
   </varray>
   <i name="volume">    505.47400500 </i>
   <varray name="rec_basis" >
    <v>      -0.13415893      -0.12383901      -0.05159959 </v>
    <v>       0.04127967       0.06191950      -0.10319917 </v>
    <v>       0.06191950      -0.06191950       0.00000000 </v>
   </varray>
  </crystal>
  <varray name="positions" >
   <v>       0.96666667       0.93333333       0.40000000 </v>
   <v>       0.63333333       0.26666667       0.40000000 </v>
   <v>       0.50000000       0.00000000       0.00000000 </v>
   <v>       0.00000000       0.00000000       0.00000000 </v>
   <v>       0.10000000       0.20000000       0.80000000 </v>
   <v>       0.03333333       0.06666667       0.60000000 </v>
   <v>       0.90000000       0.80000000       0.20000000 </v>
   <v>       0.80000000       0.60000000       0.40000000 </v>
   <v>       0.73333333       0.46666667       0.20000000 </v>
   <v>       0.66666667       0.33333333       0.00000000 </v>
   <v>       0.36666667       0.73333333       0.60000000 </v>
   <v>       0.13333333       0.26666667       0.40000000 </v>
   <v>       0.83333333       0.66666667       0.00000000 </v>
   <v>       0.93333333       0.86666667       0.80000000 </v>
   <v>       0.56666667       0.13333333       0.20000000 </v>
   <v>       0.40000000       0.80000000       0.20000000 </v>
   <v>       0.43333333       0.86666667       0.80000000 </v>
   <v>       0.30000000       0.60000000       0.40000000 </v>
   <v>       0.86666667       0.73333333       0.60000000 </v>
   <v>       0.46666667       0.93333333       0.40000000 </v>
   <v>       0.16666667       0.33333333       0.00000000 </v>
   <v>       0.26666667       0.53333333       0.80000000 </v>
   <v>       0.20000000       0.40000000       0.60000000 </v>
   <v>       0.06666667       0.13333333       0.20000000 </v>
   <v>       0.76666667       0.53333333       0.80000000 </v>
   <v>       0.70000000       0.40000000       0.60000000 </v>
   <v>       0.60000000       0.20000000       0.80000000 </v>
   <v>       0.53333333       0.06666667       0.60000000 </v>
   <v>       0.33333333       0.66666667       0.00000000 </v>
   <v>       0.23333333       0.46666667       0.20000000 </v>
  </varray>
 </structure>
 <calculation>
  <scstep>
   <time name="dav">   25.02   25.07</time>
   <time name="total">   25.66   25.73</time>
   <energy>
    <i name="alphaZ">   1151.80364462 </i>
    <i name="ewald"> -11284.48122045 </i>
    <i name="hartreedc">  -3123.25707136 </i>
    <i name="XCdc">   -891.86553591 </i>
    <i name="pawpsdc">  19952.18662859 </i>
    <i name="pawaedc"> -18468.37525343 </i>
    <i name="eentropy">      0.00512856 </i>
    <i name="bandstr">   -783.92049680 </i>
    <i name="atom">  13005.90793652 </i>
    <i name="e_fr_energy">   -441.99623967 </i>
    <i name="e_wo_entrp">   -442.00136823 </i>
    <i name="e_0_energy">   -441.99794919 </i>
   </energy>
  </scstep>
  <scstep>
   <time name="dav">   29.75   29.78</time>
   <time name="total">   30.40   30.43</time>
   <energy>
    <i name="e_fr_energy">   -503.42855002 </i>
    <i name="e_wo_entrp">   -503.42898033 </i>
    <i name="e_0_energy">   -503.42869346 </i>
   </energy>
  </scstep>
  <scstep>
   <time name="dav">   29.90   29.94</time>
   <time name="total">   30.53   30.60</time>
   <energy>
    <i name="e_fr_energy">   -372.08761996 </i>
    <i name="e_wo_entrp">   -372.08398599 </i>
    <i name="e_0_energy">   -372.08640864 </i>
   </energy>
  </scstep>
  <scstep>
   <time name="dav">   29.16   29.20</time>
   <time name="total">   29.79   29.83</time>
   <energy>
    <i name="e_fr_energy">   -331.20108083 </i>
    <i name="e_wo_entrp">   -331.19800927 </i>
    <i name="e_0_energy">   -331.20005697 </i>
   </energy>
  </scstep>
  <scstep>
   <time name="dav">   28.01   28.04</time>
   <time name="total">   28.66   28.70</time>
   <energy>
    <i name="e_fr_energy">   -326.83634511 </i>
    <i name="e_wo_entrp">   -326.83117220 </i>
    <i name="e_0_energy">   -326.83462081 </i>
   </energy>
  </scstep>
  <scstep>
   <time name="dav">   28.36   28.38</time>
   <time name="total">   28.99   29.02</time>
   <energy>
    <i name="e_fr_energy">   -330.70784191 </i>
    <i name="e_wo_entrp">   -330.70529230 </i>
    <i name="e_0_energy">   -330.70699204 </i>
   </energy>
  </scstep>
  <scstep>
   <time name="dav">   30.25   30.28</time>
   <time name="total">   30.88   30.91</time>
   <energy>
    <i name="e_fr_energy">   -325.72024894 </i>
    <i name="e_wo_entrp">   -325.70455252 </i>
    <i name="e_0_energy">   -325.71501680 </i>
   </energy>
  </scstep>
  <scstep>
   <time name="dav">   28.18   28.22</time>
   <time name="total">   28.81   28.88</time>
   <energy>
    <i name="e_fr_energy">   -322.38060441 </i>
    <i name="e_wo_entrp">   -322.35683099 </i>
    <i name="e_0_energy">   -322.37267993 </i>
   </energy>
  </scstep>
  <scstep>
   <time name="dav">   28.89   28.93</time>
   <time name="total">   29.53   29.58</time>
   <energy>
    <i name="e_fr_energy">   -321.48144272 </i>
    <i name="e_wo_entrp">   -321.48291218 </i>
    <i name="e_0_energy">   -321.48193254 </i>
   </energy>
  </scstep>
  <scstep>
   <time name="dav">   26.90   26.94</time>
   <time name="total">   27.53   27.57</time>
   <energy>
    <i name="e_fr_energy">   -319.61878352 </i>
    <i name="e_wo_entrp">   -319.61115358 </i>
    <i name="e_0_energy">   -319.61624021 </i>
   </energy>
  </scstep>
  <scstep>
   <time name="dav">   28.28   28.31</time>
   <time name="total">   28.92   28.96</time>
   <energy>
    <i name="e_fr_energy">   -318.40464566 </i>
    <i name="e_wo_entrp">   -318.39987876 </i>
    <i name="e_0_energy">   -318.40305669 </i>
   </energy>
  </scstep>
  <scstep>
   <time name="dav">   27.30   27.33</time>
   <time name="total">   27.93   27.96</time>
   <energy>
    <i name="e_fr_energy">   -318.32688075 </i>
    <i name="e_wo_entrp">   -318.32418690 </i>
    <i name="e_0_energy">   -318.32598280 </i>
   </energy>
  </scstep>
  <scstep>
   <time name="dav">   27.46   27.52</time>
   <time name="total">   28.09   28.15</time>
   <energy>
    <i name="e_fr_energy">   -318.06639432 </i>
    <i name="e_wo_entrp">   -318.06445140 </i>
    <i name="e_0_energy">   -318.06574668 </i>
   </energy>
  </scstep>
  <scstep>
   <time name="dav">   29.68   29.71</time>
   <time name="total">   30.32   30.37</time>
   <energy>
    <i name="e_fr_energy">   -317.92682998 </i>
    <i name="e_wo_entrp">   -317.92370604 </i>
    <i name="e_0_energy">   -317.92578867 </i>
   </energy>
  </scstep>
  <scstep>
   <time name="dav">   29.70   29.72</time>
   <time name="total">   30.33   30.36</time>
   <energy>
    <i name="e_fr_energy">   -317.86134126 </i>
    <i name="e_wo_entrp">   -317.85863525 </i>
    <i name="e_0_energy">   -317.86043926 </i>
   </energy>
  </scstep>
  <scstep>
   <time name="dav">   27.83   27.85</time>
   <time name="total">   28.46   28.50</time>
   <energy>
    <i name="e_fr_energy">   -317.82429064 </i>
    <i name="e_wo_entrp">   -317.81576158 </i>
    <i name="e_0_energy">   -317.82144762 </i>
   </energy>
  </scstep>
  <scstep>
   <time name="dav">   28.13   28.16</time>
   <time name="total">   28.76   28.79</time>
   <energy>
    <i name="e_fr_energy">   -317.78490601 </i>
    <i name="e_wo_entrp">   -317.78038729 </i>
    <i name="e_0_energy">   -317.78339977 </i>
   </energy>
  </scstep>
  <scstep>
   <time name="dav">   28.87   28.90</time>
   <time name="total">   29.50   29.53</time>
   <energy>
    <i name="e_fr_energy">   -317.75523457 </i>
    <i name="e_wo_entrp">   -317.74769246 </i>
    <i name="e_0_energy">   -317.75272053 </i>
   </energy>
  </scstep>
  <scstep>
   <time name="dav">   28.17   28.19</time>
   <time name="total">   28.79   28.83</time>
   <energy>
    <i name="e_fr_energy">   -317.72550040 </i>
    <i name="e_wo_entrp">   -317.71715619 </i>
    <i name="e_0_energy">   -317.72271900 </i>
   </energy>
  </scstep>
  <scstep>
   <time name="dav">   27.58   27.61</time>
   <time name="total">   28.21   28.24</time>
   <energy>
    <i name="e_fr_energy">   -317.70833037 </i>
    <i name="e_wo_entrp">   -317.69993605 </i>
    <i name="e_0_energy">   -317.70553226 </i>
   </energy>
  </scstep>
  <scstep>
   <time name="dav">   29.04   29.06</time>
   <time name="total">   29.66   29.69</time>
   <energy>
    <i name="e_fr_energy">   -317.69376679 </i>
    <i name="e_wo_entrp">   -317.68533009 </i>
    <i name="e_0_energy">   -317.69095456 </i>
   </energy>
  </scstep>
  <scstep>
   <time name="dav">   28.48   28.51</time>
   <time name="total">   29.13   29.17</time>
   <energy>
    <i name="e_fr_energy">   -317.68310711 </i>
    <i name="e_wo_entrp">   -317.67295710 </i>
    <i name="e_0_energy">   -317.67972377 </i>
   </energy>
  </scstep>
  <scstep>
   <time name="dav">   27.88   27.90</time>
   <time name="total">   28.51   28.54</time>
   <energy>
    <i name="e_fr_energy">   -317.67963403 </i>
    <i name="e_wo_entrp">   -317.67006897 </i>
    <i name="e_0_energy">   -317.67644568 </i>
   </energy>
  </scstep>
  <scstep>
   <time name="dav">   26.64   26.66</time>
   <time name="total">   27.28   27.31</time>
   <energy>
    <i name="e_fr_energy">   -317.67814541 </i>
    <i name="e_wo_entrp">   -317.66840011 </i>
    <i name="e_0_energy">   -317.67489698 </i>
   </energy>
  </scstep>
  <scstep>
   <time name="dav">   27.97   28.01</time>
   <time name="total">   28.63   28.68</time>
   <energy>
    <i name="e_fr_energy">   -317.67814735 </i>
    <i name="e_wo_entrp">   -317.66825022 </i>
    <i name="e_0_energy">   -317.67484831 </i>
   </energy>
  </scstep>
  <scstep>
   <time name="dav">   26.92   26.96</time>
   <time name="total">   27.56   27.60</time>
   <energy>
    <i name="e_fr_energy">   -317.67776850 </i>
    <i name="e_wo_entrp">   -317.66814634 </i>
    <i name="e_0_energy">   -317.67456111 </i>
   </energy>
  </scstep>
  <scstep>
   <time name="dav">   24.76   24.80</time>
   <time name="total">   25.40   25.44</time>
   <energy>
    <i name="e_fr_energy">   -317.67769107 </i>
    <i name="e_wo_entrp">   -317.66799969 </i>
    <i name="e_0_energy">   -317.67446061 </i>
   </energy>
  </scstep>
  <scstep>
   <time name="dav">   18.68   18.70</time>
   <time name="total">   18.71   18.74</time>
   <energy>
    <i name="alphaZ">   1151.80364462 </i>
    <i name="ewald"> -11284.48122045 </i>
    <i name="hartreedc">  -3009.78155282 </i>
    <i name="XCdc">   -891.55755981 </i>
    <i name="pawpsdc">  17769.71679318 </i>
    <i name="pawaedc"> -16259.87779635 </i>
    <i name="eentropy">     -0.00970399 </i>
    <i name="bandstr">   -799.39820885 </i>
    <i name="atom">  13005.90793652 </i>
    <i name="e_fr_energy">   -317.67766794 </i>
    <i name="e_wo_entrp">   -317.66796395 </i>
    <i name="e_0_energy">   -317.67443328 </i>
   </energy>
  </scstep>
  <structure>
   <crystal>
    <varray name="basis" >
     <v>      -3.23000000      -3.23000000      -3.23000000 </v>
     <v>       1.61500000       1.61500000      -8.07500000 </v>
     <v>       8.07500000      -8.07500000      -1.61500000 </v>
    </varray>
    <i name="volume">    505.47400500 </i>
    <varray name="rec_basis" >
     <v>      -0.13415893      -0.12383901      -0.05159959 </v>
     <v>       0.04127967       0.06191950      -0.10319917 </v>
     <v>       0.06191950      -0.06191950       0.00000000 </v>
    </varray>
   </crystal>
   <varray name="positions" >
    <v>       0.96666667       0.93333333       0.40000000 </v>
    <v>       0.63333333       0.26666667       0.40000000 </v>
    <v>       0.50000000       0.00000000       0.00000000 </v>
    <v>       0.00000000       0.00000000       0.00000000 </v>
    <v>       0.10000000       0.20000000       0.80000000 </v>
    <v>       0.03333333       0.06666667       0.60000000 </v>
    <v>       0.90000000       0.80000000       0.20000000 </v>
    <v>       0.80000000       0.60000000       0.40000000 </v>
    <v>       0.73333333       0.46666667       0.20000000 </v>
    <v>       0.66666667       0.33333333       0.00000000 </v>
    <v>       0.36666667       0.73333333       0.60000000 </v>
    <v>       0.13333333       0.26666667       0.40000000 </v>
    <v>       0.83333333       0.66666667       0.00000000 </v>
    <v>       0.93333333       0.86666667       0.80000000 </v>
    <v>       0.56666667       0.13333333       0.20000000 </v>
    <v>       0.40000000       0.80000000       0.20000000 </v>
    <v>       0.43333333       0.86666667       0.80000000 </v>
    <v>       0.30000000       0.60000000       0.40000000 </v>
    <v>       0.86666667       0.73333333       0.60000000 </v>
    <v>       0.46666667       0.93333333       0.40000000 </v>
    <v>       0.16666667       0.33333333       0.00000000 </v>
    <v>       0.26666667       0.53333333       0.80000000 </v>
    <v>       0.20000000       0.40000000       0.60000000 </v>
    <v>       0.06666667       0.13333333       0.20000000 </v>
    <v>       0.76666667       0.53333333       0.80000000 </v>
    <v>       0.70000000       0.40000000       0.60000000 </v>
    <v>       0.60000000       0.20000000       0.80000000 </v>
    <v>       0.53333333       0.06666667       0.60000000 </v>
    <v>       0.33333333       0.66666667       0.00000000 </v>
    <v>       0.23333333       0.46666667       0.20000000 </v>
   </varray>
  </structure>
  <varray name="forces" >
   <v>      -0.02437208       0.44265490       0.24734669 </v>
   <v>       0.24533930      -0.07827530      -0.00105437 </v>
   <v>      -0.13920532       0.28988111      -0.12947780 </v>
   <v>       0.24745009      -0.01381797       0.00911345 </v>
   <v>      -0.06369012       0.56474745      -0.36284568 </v>
   <v>      -0.28134226       0.21450015      -0.29503436 </v>
   <v>       0.04886680      -0.47902611       0.12771382 </v>
   <v>      -0.61085197      -0.22602009       0.58483400 </v>
   <v>      -0.10052260       0.31248870       0.02254235 </v>
   <v>       0.17169193       0.35516017      -0.51475384 </v>
   <v>      -0.07149576      -0.28143198       0.24328756 </v>
   <v>       0.15331203       0.17873627      -0.60052739 </v>
   <v>       0.19337196      -0.41614026       0.34525611 </v>
   <v>       0.28221842       0.26982565      -0.12860067 </v>
   <v>      -0.32114743       0.45435028      -0.11518446 </v>
   <v>      -0.70540002      -0.13813099       0.71759631 </v>
   <v>      -0.76977065      -0.09302490       0.59170842 </v>
   <v>       0.30278705      -0.27402286      -0.28074349 </v>
   <v>       0.05603104       0.24717345       0.40865698 </v>
   <v>       0.51748625      -0.45637954       0.14624223 </v>
   <v>      -0.01354943      -0.16652799      -0.34992290 </v>
   <v>      -0.30208333       0.00794084      -0.31463798 </v>
   <v>      -0.28684322      -0.02843426       0.52555325 </v>
   <v>       0.61697689      -0.14492411      -0.77046273 </v>
   <v>       0.11613375      -0.40126159       0.49590058 </v>
   <v>       0.47978132       0.18473234      -0.39060477 </v>
   <v>       0.01616525       0.16610076      -0.12122691 </v>
   <v>       0.18743294      -0.45602931      -0.42257229 </v>
   <v>      -0.22166937      -0.20979461       0.49103747 </v>
   <v>       0.27689855       0.17494981      -0.15913958 </v>
  </varray>
  <varray name="stress" >
   <v>    -109.89959936      -2.89704871       1.14537228 </v>
   <v>      -2.89704869    -112.16491379      -0.20107178 </v>
   <v>       1.14537227      -0.20107184    -110.92727781 </v>
  </varray>
  <energy>
   <i name="e_fr_energy">   -317.67766794 </i>
   <i name="e_wo_entrp">   -317.67443328 </i>
   <i name="e_0_energy">     -0.00970399 </i>
  </energy>
  <time name="totalsc">  819.86  825.67</time>
  <eigenvalues>
   <array>
    <dimension dim="1">band</dimension>
    <dimension dim="2">kpoint</dimension>
    <dimension dim="3">spin</dimension>
    <field>eigene</field>
    <field>occ</field>
    <set>
     <set comment="spin 1">
      <set comment="kpoint 1">
       <r>  -47.9860    1.0000 </r>
       <r>  -47.9670    1.0000 </r>
       <r>  -47.9330    1.0000 </r>
       <r>  -47.8919    1.0000 </r>
       <r>  -47.8648    1.0000 </r>
       <r>  -47.7674    1.0000 </r>
       <r>  -24.6070    1.0000 </r>
       <r>  -24.4807    1.0000 </r>
       <r>  -24.3476    1.0000 </r>
       <r>  -24.3109    1.0000 </r>
       <r>  -24.1213    1.0000 </r>
       <r>  -24.1148    1.0000 </r>
       <r>  -24.1108    1.0000 </r>
       <r>  -24.0690    1.0000 </r>
       <r>  -24.0547    1.0000 </r>
       <r>  -24.0386    1.0000 </r>
       <r>  -24.0213    1.0000 </r>
       <r>  -23.9797    1.0000 </r>
       <r>  -23.9311    1.0000 </r>
       <r>  -23.9176    1.0000 </r>
       <r>  -23.8063    1.0000 </r>
       <r>  -23.7897    1.0000 </r>
       <r>  -23.6611    1.0000 </r>
       <r>  -23.4575    1.0000 </r>
       <r>   -0.5391    1.0000 </r>
       <r>    0.7064    1.0000 </r>
       <r>    1.0579    1.0000 </r>
       <r>    1.8825    1.0000 </r>
       <r>    2.0585    1.0000 </r>
       <r>    2.1268    1.0000 </r>
       <r>    2.2593    1.0000 </r>
       <r>    2.3948    1.0000 </r>
       <r>    2.4240    1.0000 </r>
       <r>    2.5043    1.0000 </r>
       <r>    2.5564    1.0000 </r>
       <r>    2.6398    1.0000 </r>
       <r>    2.7031    1.0000 </r>
       <r>    2.7327    1.0000 </r>
       <r>    2.8702    1.0000 </r>
       <r>    2.9396    1.0000 </r>
       <r>    2.9979    1.0000 </r>
       <r>    3.1238    1.0000 </r>
       <r>    3.2209    1.0000 </r>
       <r>    3.2499    1.0000 </r>
       <r>    3.2938    1.0000 </r>
       <r>    3.3574    1.0000 </r>
       <r>    3.4292    1.0000 </r>
       <r>    3.4506    1.0000 </r>
       <r>    3.5518    1.0000 </r>
       <r>    3.6110    1.0000 </r>
       <r>    3.6887    1.0000 </r>
       <r>    3.7615    1.0000 </r>
       <r>    3.8221    1.0000 </r>
       <r>    3.8571    1.0000 </r>
       <r>    3.9957    1.0000 </r>
       <r>    4.0506    1.0000 </r>
       <r>    4.1276    1.0000 </r>
       <r>    4.1642    1.0000 </r>
       <r>    4.3308    1.0000 </r>
       <r>    4.3647    1.0000 </r>
       <r>    4.4393    1.0000 </r>
       <r>    4.4840    1.0000 </r>
       <r>    4.4916    1.0000 </r>
       <r>    4.5719    1.0000 </r>
       <r>    4.5773    1.0000 </r>
       <r>    4.6652    1.0000 </r>
       <r>    4.6823    1.0000 </r>
       <r>    4.7606    1.0000 </r>
       <r>    4.7834    1.0000 </r>
       <r>    4.8272    1.0000 </r>
       <r>    4.8780    1.0000 </r>
       <r>    4.9035    1.0000 </r>
       <r>    4.9660    1.0000 </r>
       <r>    5.0095    1.0000 </r>
       <r>    5.0229    1.0000 </r>
       <r>    5.0329    1.0000 </r>
       <r>    5.0602    1.0000 </r>
       <r>    5.1654    1.0000 </r>
       <r>    5.2283    1.0000 </r>
       <r>    5.3112    1.0000 </r>
       <r>    5.4488    1.0000 </r>
       <r>    5.5103    1.0001 </r>
       <r>    5.5595    1.0005 </r>
       <r>    5.5909    1.0010 </r>
       <r>    5.6245    1.0021 </r>
       <r>    5.6860    1.0066 </r>
       <r>    5.7440    1.0156 </r>
       <r>    5.7641    1.0199 </r>
       <r>    5.7839    1.0245 </r>
       <r>    5.7972    1.0275 </r>
       <r>    5.8066    1.0296 </r>
       <r>    5.8576    1.0354 </r>
       <r>    5.8837    1.0310 </r>
       <r>    5.9299    0.9995 </r>
       <r>    6.0788    0.5803 </r>
       <r>    6.1155    0.4253 </r>
       <r>    6.1808    0.1803 </r>
       <r>    6.2101    0.0980 </r>
       <r>    6.2312    0.0522 </r>
       <r>    6.3088   -0.0299 </r>
       <r>    6.3598   -0.0345 </r>
       <r>    6.3962   -0.0280 </r>
       <r>    6.5000   -0.0077 </r>
       <r>    6.5089   -0.0067 </r>
       <r>    6.5242   -0.0051 </r>
       <r>    6.5904   -0.0014 </r>
       <r>    6.8068   -0.0000 </r>
       <r>    6.9494   -0.0000 </r>
       <r>    6.9693   -0.0000 </r>
       <r>    7.0518   -0.0000 </r>
       <r>    7.4753   -0.0000 </r>
       <r>    7.6281   -0.0000 </r>
       <r>    7.7563   -0.0000 </r>
       <r>    7.8276   -0.0000 </r>
       <r>    7.8679   -0.0000 </r>
       <r>    7.9076   -0.0000 </r>
       <r>    7.9247   -0.0000 </r>
       <r>    7.9549   -0.0000 </r>
       <r>    8.0251   -0.0000 </r>
       <r>    8.0487   -0.0000 </r>
      </set>
      <set comment="kpoint 2">
       <r>  -47.9846    1.0000 </r>
       <r>  -47.9625    1.0000 </r>
       <r>  -47.9307    1.0000 </r>
       <r>  -47.8910    1.0000 </r>
       <r>  -47.8642    1.0000 </r>
       <r>  -47.7767    1.0000 </r>
       <r>  -24.5263    1.0000 </r>
       <r>  -24.4681    1.0000 </r>
       <r>  -24.3418    1.0000 </r>
       <r>  -24.3055    1.0000 </r>
       <r>  -24.1234    1.0000 </r>
       <r>  -24.1165    1.0000 </r>
       <r>  -24.1056    1.0000 </r>
       <r>  -24.0704    1.0000 </r>
       <r>  -24.0536    1.0000 </r>
       <r>  -24.0416    1.0000 </r>
       <r>  -24.0231    1.0000 </r>
       <r>  -23.9816    1.0000 </r>
       <r>  -23.9396    1.0000 </r>
       <r>  -23.9196    1.0000 </r>
       <r>  -23.8111    1.0000 </r>
       <r>  -23.7940    1.0000 </r>
       <r>  -23.6627    1.0000 </r>
       <r>  -23.5662    1.0000 </r>
       <r>   -0.2424    1.0000 </r>
       <r>    0.9684    1.0000 </r>
       <r>    1.3098    1.0000 </r>
       <r>    1.8966    1.0000 </r>
       <r>    2.2596    1.0000 </r>
       <r>    2.3576    1.0000 </r>
       <r>    2.4163    1.0000 </r>
       <r>    2.5524    1.0000 </r>
       <r>    2.5811    1.0000 </r>
       <r>    2.6181    1.0000 </r>
       <r>    2.7396    1.0000 </r>
       <r>    2.8104    1.0000 </r>
       <r>    2.8655    1.0000 </r>
       <r>    2.9487    1.0000 </r>
       <r>    3.0196    1.0000 </r>
       <r>    3.0720    1.0000 </r>
       <r>    3.1166    1.0000 </r>
       <r>    3.1264    1.0000 </r>
       <r>    3.2260    1.0000 </r>
       <r>    3.2785    1.0000 </r>
       <r>    3.3941    1.0000 </r>
       <r>    3.4303    1.0000 </r>
       <r>    3.5030    1.0000 </r>
       <r>    3.5952    1.0000 </r>
       <r>    3.6268    1.0000 </r>
       <r>    3.6556    1.0000 </r>
       <r>    3.7585    1.0000 </r>
       <r>    3.8322    1.0000 </r>
       <r>    3.8747    1.0000 </r>
       <r>    3.9510    1.0000 </r>
       <r>    4.0114    1.0000 </r>
       <r>    4.0884    1.0000 </r>
       <r>    4.1565    1.0000 </r>
       <r>    4.2397    1.0000 </r>
       <r>    4.3589    1.0000 </r>
       <r>    4.4101    1.0000 </r>
       <r>    4.4684    1.0000 </r>
       <r>    4.5973    1.0000 </r>
       <r>    4.6071    1.0000 </r>
       <r>    4.6821    1.0000 </r>
       <r>    4.7155    1.0000 </r>
       <r>    4.7421    1.0000 </r>
       <r>    4.7863    1.0000 </r>
       <r>    4.8522    1.0000 </r>
       <r>    4.8641    1.0000 </r>
       <r>    4.8735    1.0000 </r>
       <r>    4.9468    1.0000 </r>
       <r>    4.9734    1.0000 </r>
       <r>    5.0301    1.0000 </r>
       <r>    5.0422    1.0000 </r>
       <r>    5.1256    1.0000 </r>
       <r>    5.1525    1.0000 </r>
       <r>    5.1690    1.0000 </r>
       <r>    5.1964    1.0000 </r>
       <r>    5.2354    1.0000 </r>
       <r>    5.2842    1.0000 </r>
       <r>    5.2867    1.0000 </r>
       <r>    5.3840    1.0000 </r>
       <r>    5.4296    1.0000 </r>
       <r>    5.4900    1.0001 </r>
       <r>    5.5189    1.0002 </r>
       <r>    5.5650    1.0005 </r>
       <r>    5.5920    1.0010 </r>
       <r>    5.6820    1.0061 </r>
       <r>    5.7661    1.0204 </r>
       <r>    5.7943    1.0269 </r>
       <r>    5.8244    1.0329 </r>
       <r>    5.8615    1.0352 </r>
       <r>    5.8967    1.0257 </r>
       <r>    5.9302    0.9992 </r>
       <r>    6.0243    0.7890 </r>
       <r>    6.0416    0.7278 </r>
       <r>    6.0758    0.5927 </r>
       <r>    6.1161    0.4231 </r>
       <r>    6.1757    0.1966 </r>
       <r>    6.2081    0.1030 </r>
       <r>    6.2377    0.0404 </r>
       <r>    6.2907   -0.0211 </r>
       <r>    6.3465   -0.0354 </r>
       <r>    6.3846   -0.0305 </r>
       <r>    6.4083   -0.0253 </r>
       <r>    6.4572   -0.0146 </r>
       <r>    6.4885   -0.0093 </r>
       <r>    6.6764   -0.0002 </r>
       <r>    6.7430   -0.0000 </r>
       <r>    6.8457   -0.0000 </r>
       <r>    7.1326   -0.0000 </r>
       <r>    7.1994   -0.0000 </r>
       <r>    7.2486   -0.0000 </r>
       <r>    7.3025   -0.0000 </r>
       <r>    7.3987   -0.0000 </r>
       <r>    7.5475   -0.0000 </r>
       <r>    7.6000   -0.0000 </r>
       <r>    7.6540   -0.0000 </r>
       <r>    7.6711   -0.0000 </r>
       <r>    7.7119   -0.0000 </r>
      </set>
      <set comment="kpoint 3">
       <r>  -47.9829    1.0000 </r>
       <r>  -47.9557    1.0000 </r>
       <r>  -47.9251    1.0000 </r>
       <r>  -47.8883    1.0000 </r>
       <r>  -47.8624    1.0000 </r>
       <r>  -47.7947    1.0000 </r>
       <r>  -24.4904    1.0000 </r>
       <r>  -24.3600    1.0000 </r>
       <r>  -24.3194    1.0000 </r>
       <r>  -24.2062    1.0000 </r>
       <r>  -24.1288    1.0000 </r>
       <r>  -24.1193    1.0000 </r>
       <r>  -24.0956    1.0000 </r>
       <r>  -24.0717    1.0000 </r>
       <r>  -24.0525    1.0000 </r>
       <r>  -24.0414    1.0000 </r>
       <r>  -24.0265    1.0000 </r>
       <r>  -23.9846    1.0000 </r>
       <r>  -23.9587    1.0000 </r>
       <r>  -23.9234    1.0000 </r>
       <r>  -23.8681    1.0000 </r>
       <r>  -23.8132    1.0000 </r>
       <r>  -23.7836    1.0000 </r>
       <r>  -23.6581    1.0000 </r>
       <r>    0.5591    1.0000 </r>
       <r>    1.4772    1.0000 </r>
       <r>    1.8019    1.0000 </r>
       <r>    2.0172    1.0000 </r>
       <r>    2.0975    1.0000 </r>
       <r>    2.4801    1.0000 </r>
       <r>    2.5321    1.0000 </r>
       <r>    2.7064    1.0000 </r>
       <r>    2.8164    1.0000 </r>
       <r>    2.9177    1.0000 </r>
       <r>    3.0090    1.0000 </r>
       <r>    3.0336    1.0000 </r>
       <r>    3.1352    1.0000 </r>
       <r>    3.1658    1.0000 </r>
       <r>    3.2636    1.0000 </r>
       <r>    3.3156    1.0000 </r>
       <r>    3.3650    1.0000 </r>
       <r>    3.4015    1.0000 </r>
       <r>    3.4330    1.0000 </r>
       <r>    3.5109    1.0000 </r>
       <r>    3.6046    1.0000 </r>
       <r>    3.6281    1.0000 </r>
       <r>    3.6806    1.0000 </r>
       <r>    3.7068    1.0000 </r>
       <r>    3.8159    1.0000 </r>
       <r>    3.8458    1.0000 </r>
       <r>    3.9731    1.0000 </r>
       <r>    4.0233    1.0000 </r>
       <r>    4.0814    1.0000 </r>
       <r>    4.1625    1.0000 </r>
       <r>    4.2376    1.0000 </r>
       <r>    4.2893    1.0000 </r>
       <r>    4.3597    1.0000 </r>
       <r>    4.3998    1.0000 </r>
       <r>    4.4273    1.0000 </r>
       <r>    4.4808    1.0000 </r>
       <r>    4.5174    1.0000 </r>
       <r>    4.5578    1.0000 </r>
       <r>    4.6079    1.0000 </r>
       <r>    4.6401    1.0000 </r>
       <r>    4.6651    1.0000 </r>
       <r>    4.7525    1.0000 </r>
       <r>    4.7724    1.0000 </r>
       <r>    4.8008    1.0000 </r>
       <r>    4.8415    1.0000 </r>
       <r>    4.8910    1.0000 </r>
       <r>    4.9470    1.0000 </r>
       <r>    4.9900    1.0000 </r>
       <r>    5.0246    1.0000 </r>
       <r>    5.0690    1.0000 </r>
       <r>    5.1250    1.0000 </r>
       <r>    5.1728    1.0000 </r>
       <r>    5.2279    1.0000 </r>
       <r>    5.2530    1.0000 </r>
       <r>    5.2709    1.0000 </r>
       <r>    5.3054    1.0000 </r>
       <r>    5.3897    1.0000 </r>
       <r>    5.4434    1.0000 </r>
       <r>    5.4741    1.0000 </r>
       <r>    5.5145    1.0001 </r>
       <r>    5.5577    1.0005 </r>
       <r>    5.6049    1.0014 </r>
       <r>    5.6497    1.0034 </r>
       <r>    5.6849    1.0065 </r>
       <r>    5.7304    1.0130 </r>
       <r>    5.7510    1.0171 </r>
       <r>    5.7795    1.0235 </r>
       <r>    5.8067    1.0296 </r>
       <r>    5.8458    1.0353 </r>
       <r>    5.8687    1.0344 </r>
       <r>    5.8769    1.0329 </r>
       <r>    5.9548    0.9650 </r>
       <r>    5.9927    0.8838 </r>
       <r>    6.0325    0.7605 </r>
       <r>    6.0757    0.5930 </r>
       <r>    6.0888    0.5382 </r>
       <r>    6.1316    0.3594 </r>
       <r>    6.1744    0.2008 </r>
       <r>    6.1879    0.1584 </r>
       <r>    6.2653    0.0010 </r>
       <r>    6.2722   -0.0062 </r>
       <r>    6.3383   -0.0354 </r>
       <r>    6.3922   -0.0289 </r>
       <r>    6.4155   -0.0236 </r>
       <r>    6.4453   -0.0170 </r>
       <r>    6.5088   -0.0067 </r>
       <r>    6.5443   -0.0035 </r>
       <r>    6.5885   -0.0014 </r>
       <r>    6.8609   -0.0000 </r>
       <r>    6.9786   -0.0000 </r>
       <r>    7.0000   -0.0000 </r>
       <r>    7.1147   -0.0000 </r>
       <r>    7.1969   -0.0000 </r>
       <r>    7.2174   -0.0000 </r>
       <r>    7.3264   -0.0000 </r>
       <r>    7.4198   -0.0000 </r>
      </set>
      <set comment="kpoint 4">
       <r>  -47.9859    1.0000 </r>
       <r>  -47.9669    1.0000 </r>
       <r>  -47.9330    1.0000 </r>
       <r>  -47.8921    1.0000 </r>
       <r>  -47.8649    1.0000 </r>
       <r>  -47.7674    1.0000 </r>
       <r>  -24.6070    1.0000 </r>
       <r>  -24.4799    1.0000 </r>
       <r>  -24.3448    1.0000 </r>
       <r>  -24.3101    1.0000 </r>
       <r>  -24.1214    1.0000 </r>
       <r>  -24.1149    1.0000 </r>
       <r>  -24.1108    1.0000 </r>
       <r>  -24.0690    1.0000 </r>
       <r>  -24.0547    1.0000 </r>
       <r>  -24.0385    1.0000 </r>
       <r>  -24.0213    1.0000 </r>
       <r>  -23.9796    1.0000 </r>
       <r>  -23.9311    1.0000 </r>
       <r>  -23.9176    1.0000 </r>
       <r>  -23.8080    1.0000 </r>
       <r>  -23.7927    1.0000 </r>
       <r>  -23.6614    1.0000 </r>
       <r>  -23.4575    1.0000 </r>
       <r>   -0.4144    1.0000 </r>
       <r>    0.7685    1.0000 </r>
       <r>    1.1739    1.0000 </r>
       <r>    1.3898    1.0000 </r>
       <r>    1.9904    1.0000 </r>
       <r>    2.2065    1.0000 </r>
       <r>    2.2833    1.0000 </r>
       <r>    2.4283    1.0000 </r>
       <r>    2.4469    1.0000 </r>
       <r>    2.5273    1.0000 </r>
       <r>    2.5976    1.0000 </r>
       <r>    2.6705    1.0000 </r>
       <r>    2.7158    1.0000 </r>
       <r>    2.7831    1.0000 </r>
       <r>    2.8673    1.0000 </r>
       <r>    2.8977    1.0000 </r>
       <r>    2.9721    1.0000 </r>
       <r>    3.0525    1.0000 </r>
       <r>    3.1720    1.0000 </r>
       <r>    3.2510    1.0000 </r>
       <r>    3.3285    1.0000 </r>
       <r>    3.3878    1.0000 </r>
       <r>    3.4268    1.0000 </r>
       <r>    3.5327    1.0000 </r>
       <r>    3.5514    1.0000 </r>
       <r>    3.6269    1.0000 </r>
       <r>    3.6942    1.0000 </r>
       <r>    3.7692    1.0000 </r>
       <r>    3.7984    1.0000 </r>
       <r>    3.8417    1.0000 </r>
       <r>    3.9160    1.0000 </r>
       <r>    3.9947    1.0000 </r>
       <r>    4.1005    1.0000 </r>
       <r>    4.2627    1.0000 </r>
       <r>    4.3483    1.0000 </r>
       <r>    4.4067    1.0000 </r>
       <r>    4.4494    1.0000 </r>
       <r>    4.5447    1.0000 </r>
       <r>    4.5777    1.0000 </r>
       <r>    4.6264    1.0000 </r>
       <r>    4.6669    1.0000 </r>
       <r>    4.7006    1.0000 </r>
       <r>    4.7493    1.0000 </r>
       <r>    4.8060    1.0000 </r>
       <r>    4.8190    1.0000 </r>
       <r>    4.8517    1.0000 </r>
       <r>    4.9008    1.0000 </r>
       <r>    4.9323    1.0000 </r>
       <r>    4.9669    1.0000 </r>
       <r>    5.0228    1.0000 </r>
       <r>    5.0670    1.0000 </r>
       <r>    5.0879    1.0000 </r>
       <r>    5.1360    1.0000 </r>
       <r>    5.1509    1.0000 </r>
       <r>    5.2615    1.0000 </r>
       <r>    5.2867    1.0000 </r>
       <r>    5.4590    1.0000 </r>
       <r>    5.4796    1.0001 </r>
       <r>    5.5400    1.0003 </r>
       <r>    5.5726    1.0006 </r>
       <r>    5.6044    1.0013 </r>
       <r>    5.6329    1.0024 </r>
       <r>    5.6641    1.0045 </r>
       <r>    5.7146    1.0104 </r>
       <r>    5.7450    1.0158 </r>
       <r>    5.7702    1.0213 </r>
       <r>    5.8007    1.0283 </r>
       <r>    5.8476    1.0354 </r>
       <r>    5.8832    1.0311 </r>
       <r>    5.9149    1.0138 </r>
       <r>    5.9671    0.9427 </r>
       <r>    5.9789    0.9176 </r>
       <r>    6.0392    0.7366 </r>
       <r>    6.1069    0.4617 </r>
       <r>    6.1578    0.2584 </r>
       <r>    6.3574   -0.0347 </r>
       <r>    6.4440   -0.0172 </r>
       <r>    6.4643   -0.0132 </r>
       <r>    6.5013   -0.0076 </r>
       <r>    6.6031   -0.0010 </r>
       <r>    6.6327   -0.0005 </r>
       <r>    6.6563   -0.0003 </r>
       <r>    6.7811   -0.0000 </r>
       <r>    6.9586   -0.0000 </r>
       <r>    7.0252   -0.0000 </r>
       <r>    7.0703   -0.0000 </r>
       <r>    7.2058   -0.0000 </r>
       <r>    7.2567   -0.0000 </r>
       <r>    7.3594   -0.0000 </r>
       <r>    7.6213   -0.0000 </r>
       <r>    7.6929   -0.0000 </r>
       <r>    7.8155   -0.0000 </r>
       <r>    7.8394   -0.0000 </r>
       <r>    7.8912   -0.0000 </r>
       <r>    7.9397   -0.0000 </r>
       <r>    7.9721   -0.0000 </r>
      </set>
      <set comment="kpoint 5">
       <r>  -47.9847    1.0000 </r>
       <r>  -47.9626    1.0000 </r>
       <r>  -47.9307    1.0000 </r>
       <r>  -47.8908    1.0000 </r>
       <r>  -47.8642    1.0000 </r>
       <r>  -47.7767    1.0000 </r>
       <r>  -24.5264    1.0000 </r>
       <r>  -24.4689    1.0000 </r>
       <r>  -24.3449    1.0000 </r>
       <r>  -24.3059    1.0000 </r>
       <r>  -24.1234    1.0000 </r>
       <r>  -24.1166    1.0000 </r>
       <r>  -24.1056    1.0000 </r>
       <r>  -24.0705    1.0000 </r>
       <r>  -24.0536    1.0000 </r>
       <r>  -24.0416    1.0000 </r>
       <r>  -24.0232    1.0000 </r>
       <r>  -23.9817    1.0000 </r>
       <r>  -23.9395    1.0000 </r>
       <r>  -23.9196    1.0000 </r>
       <r>  -23.8097    1.0000 </r>
       <r>  -23.7907    1.0000 </r>
       <r>  -23.6624    1.0000 </r>
       <r>  -23.5662    1.0000 </r>
       <r>   -0.2379    1.0000 </r>
       <r>    0.9306    1.0000 </r>
       <r>    1.3384    1.0000 </r>
       <r>    1.8766    1.0000 </r>
       <r>    2.2279    1.0000 </r>
       <r>    2.3310    1.0000 </r>
       <r>    2.3794    1.0000 </r>
       <r>    2.4825    1.0000 </r>
       <r>    2.5252    1.0000 </r>
       <r>    2.6032    1.0000 </r>
       <r>    2.6642    1.0000 </r>
       <r>    2.7530    1.0000 </r>
       <r>    2.8559    1.0000 </r>
       <r>    2.9021    1.0000 </r>
       <r>    2.9738    1.0000 </r>
       <r>    3.0169    1.0000 </r>
       <r>    3.1031    1.0000 </r>
       <r>    3.1232    1.0000 </r>
       <r>    3.3047    1.0000 </r>
       <r>    3.3472    1.0000 </r>
       <r>    3.3931    1.0000 </r>
       <r>    3.4599    1.0000 </r>
       <r>    3.5344    1.0000 </r>
       <r>    3.5883    1.0000 </r>
       <r>    3.6799    1.0000 </r>
       <r>    3.7331    1.0000 </r>
       <r>    3.7559    1.0000 </r>
       <r>    3.8438    1.0000 </r>
       <r>    3.9360    1.0000 </r>
       <r>    3.9924    1.0000 </r>
       <r>    4.0474    1.0000 </r>
       <r>    4.1083    1.0000 </r>
       <r>    4.2007    1.0000 </r>
       <r>    4.2884    1.0000 </r>
       <r>    4.3684    1.0000 </r>
       <r>    4.4415    1.0000 </r>
       <r>    4.4949    1.0000 </r>
       <r>    4.5112    1.0000 </r>
       <r>    4.5966    1.0000 </r>
       <r>    4.6135    1.0000 </r>
       <r>    4.6483    1.0000 </r>
       <r>    4.7342    1.0000 </r>
       <r>    4.7623    1.0000 </r>
       <r>    4.7962    1.0000 </r>
       <r>    4.8405    1.0000 </r>
       <r>    4.8587    1.0000 </r>
       <r>    4.8928    1.0000 </r>
       <r>    4.9151    1.0000 </r>
       <r>    4.9376    1.0000 </r>
       <r>    4.9903    1.0000 </r>
       <r>    5.0233    1.0000 </r>
       <r>    5.0895    1.0000 </r>
       <r>    5.1562    1.0000 </r>
       <r>    5.1832    1.0000 </r>
       <r>    5.2477    1.0000 </r>
       <r>    5.3250    1.0000 </r>
       <r>    5.3731    1.0000 </r>
       <r>    5.4264    1.0000 </r>
       <r>    5.4924    1.0001 </r>
       <r>    5.5115    1.0001 </r>
       <r>    5.5471    1.0003 </r>
       <r>    5.6188    1.0018 </r>
       <r>    5.6641    1.0045 </r>
       <r>    5.7128    1.0101 </r>
       <r>    5.7384    1.0145 </r>
       <r>    5.7833    1.0243 </r>
       <r>    5.8132    1.0309 </r>
       <r>    5.8439    1.0352 </r>
       <r>    5.8757    1.0331 </r>
       <r>    5.8968    1.0256 </r>
       <r>    5.9907    0.8891 </r>
       <r>    6.0151    0.8190 </r>
       <r>    6.0889    0.5377 </r>
       <r>    6.1268    0.3787 </r>
       <r>    6.2051    0.1106 </r>
       <r>    6.2406    0.0353 </r>
       <r>    6.2884   -0.0195 </r>
       <r>    6.3280   -0.0345 </r>
       <r>    6.3780   -0.0317 </r>
       <r>    6.4267   -0.0210 </r>
       <r>    6.4653   -0.0130 </r>
       <r>    6.4821   -0.0102 </r>
       <r>    6.5429   -0.0036 </r>
       <r>    6.5931   -0.0013 </r>
       <r>    6.6730   -0.0002 </r>
       <r>    6.7496   -0.0000 </r>
       <r>    6.8303   -0.0000 </r>
       <r>    7.1128   -0.0000 </r>
       <r>    7.4870   -0.0000 </r>
       <r>    7.5868   -0.0000 </r>
       <r>    7.6552   -0.0000 </r>
       <r>    7.6867   -0.0000 </r>
       <r>    7.8258   -0.0000 </r>
       <r>    7.8876   -0.0000 </r>
       <r>    7.9255   -0.0000 </r>
       <r>    8.0037   -0.0000 </r>
      </set>
      <set comment="kpoint 6">
       <r>  -47.9831    1.0000 </r>
       <r>  -47.9559    1.0000 </r>
       <r>  -47.9250    1.0000 </r>
       <r>  -47.8880    1.0000 </r>
       <r>  -47.8623    1.0000 </r>
       <r>  -47.7947    1.0000 </r>
       <r>  -24.4915    1.0000 </r>
       <r>  -24.3627    1.0000 </r>
       <r>  -24.3227    1.0000 </r>
       <r>  -24.2062    1.0000 </r>
       <r>  -24.1287    1.0000 </r>
       <r>  -24.1193    1.0000 </r>
       <r>  -24.0955    1.0000 </r>
       <r>  -24.0717    1.0000 </r>
       <r>  -24.0525    1.0000 </r>
       <r>  -24.0413    1.0000 </r>
       <r>  -24.0265    1.0000 </r>
       <r>  -23.9846    1.0000 </r>
       <r>  -23.9586    1.0000 </r>
       <r>  -23.9234    1.0000 </r>
       <r>  -23.8681    1.0000 </r>
       <r>  -23.8073    1.0000 </r>
       <r>  -23.7818    1.0000 </r>
       <r>  -23.6577    1.0000 </r>
       <r>    0.4668    1.0000 </r>
       <r>    1.4218    1.0000 </r>
       <r>    1.7730    1.0000 </r>
       <r>    1.9783    1.0000 </r>
       <r>    2.1215    1.0000 </r>
       <r>    2.2552    1.0000 </r>
       <r>    2.5863    1.0000 </r>
       <r>    2.7770    1.0000 </r>
       <r>    2.8370    1.0000 </r>
       <r>    2.9367    1.0000 </r>
       <r>    3.0064    1.0000 </r>
       <r>    3.0575    1.0000 </r>
       <r>    3.1370    1.0000 </r>
       <r>    3.1711    1.0000 </r>
       <r>    3.1987    1.0000 </r>
       <r>    3.3226    1.0000 </r>
       <r>    3.3969    1.0000 </r>
       <r>    3.4267    1.0000 </r>
       <r>    3.4977    1.0000 </r>
       <r>    3.5281    1.0000 </r>
       <r>    3.5805    1.0000 </r>
       <r>    3.6214    1.0000 </r>
       <r>    3.6905    1.0000 </r>
       <r>    3.7660    1.0000 </r>
       <r>    3.8149    1.0000 </r>
       <r>    3.8850    1.0000 </r>
       <r>    3.9317    1.0000 </r>
       <r>    4.0052    1.0000 </r>
       <r>    4.0653    1.0000 </r>
       <r>    4.0937    1.0000 </r>
       <r>    4.1526    1.0000 </r>
       <r>    4.2084    1.0000 </r>
       <r>    4.2582    1.0000 </r>
       <r>    4.3377    1.0000 </r>
       <r>    4.4000    1.0000 </r>
       <r>    4.5180    1.0000 </r>
       <r>    4.5415    1.0000 </r>
       <r>    4.5610    1.0000 </r>
       <r>    4.6221    1.0000 </r>
       <r>    4.6695    1.0000 </r>
       <r>    4.7077    1.0000 </r>
       <r>    4.7577    1.0000 </r>
       <r>    4.7927    1.0000 </r>
       <r>    4.8343    1.0000 </r>
       <r>    4.8725    1.0000 </r>
       <r>    4.9152    1.0000 </r>
       <r>    4.9621    1.0000 </r>
       <r>    4.9791    1.0000 </r>
       <r>    5.0142    1.0000 </r>
       <r>    5.0793    1.0000 </r>
       <r>    5.1076    1.0000 </r>
       <r>    5.1500    1.0000 </r>
       <r>    5.1700    1.0000 </r>
       <r>    5.2676    1.0000 </r>
       <r>    5.3095    1.0000 </r>
       <r>    5.3629    1.0000 </r>
       <r>    5.3850    1.0000 </r>
       <r>    5.4333    1.0000 </r>
       <r>    5.4833    1.0001 </r>
       <r>    5.4999    1.0001 </r>
       <r>    5.5256    1.0002 </r>
       <r>    5.5448    1.0003 </r>
       <r>    5.6179    1.0018 </r>
       <r>    5.6301    1.0023 </r>
       <r>    5.6803    1.0060 </r>
       <r>    5.7203    1.0113 </r>
       <r>    5.7450    1.0159 </r>
       <r>    5.7724    1.0218 </r>
       <r>    5.7986    1.0278 </r>
       <r>    5.8448    1.0352 </r>
       <r>    5.8628    1.0351 </r>
       <r>    5.8958    1.0261 </r>
       <r>    5.9309    0.9983 </r>
       <r>    5.9617    0.9530 </r>
       <r>    5.9768    0.9224 </r>
       <r>    6.0171    0.8125 </r>
       <r>    6.0605    0.6547 </r>
       <r>    6.1114    0.4428 </r>
       <r>    6.1492    0.2904 </r>
       <r>    6.1915    0.1478 </r>
       <r>    6.2338    0.0474 </r>
       <r>    6.2602    0.0069 </r>
       <r>    6.3803   -0.0313 </r>
       <r>    6.4819   -0.0102 </r>
       <r>    6.5280   -0.0048 </r>
       <r>    6.6075   -0.0009 </r>
       <r>    6.6765   -0.0002 </r>
       <r>    7.0017   -0.0000 </r>
       <r>    7.1157   -0.0000 </r>
       <r>    7.1753   -0.0000 </r>
       <r>    7.2485   -0.0000 </r>
       <r>    7.3577   -0.0000 </r>
       <r>    7.4190   -0.0000 </r>
       <r>    7.4775   -0.0000 </r>
       <r>    7.5443   -0.0000 </r>
       <r>    7.5878   -0.0000 </r>
      </set>
      <set comment="kpoint 7">
       <r>  -47.9829    1.0000 </r>
       <r>  -47.9557    1.0000 </r>
       <r>  -47.9251    1.0000 </r>
       <r>  -47.8883    1.0000 </r>
       <r>  -47.8624    1.0000 </r>
       <r>  -47.7947    1.0000 </r>
       <r>  -24.4904    1.0000 </r>
       <r>  -24.3600    1.0000 </r>
       <r>  -24.3194    1.0000 </r>
       <r>  -24.2062    1.0000 </r>
       <r>  -24.1289    1.0000 </r>
       <r>  -24.1193    1.0000 </r>
       <r>  -24.0956    1.0000 </r>
       <r>  -24.0717    1.0000 </r>
       <r>  -24.0524    1.0000 </r>
       <r>  -24.0414    1.0000 </r>
       <r>  -24.0264    1.0000 </r>
       <r>  -23.9846    1.0000 </r>
       <r>  -23.9587    1.0000 </r>
       <r>  -23.9234    1.0000 </r>
       <r>  -23.8681    1.0000 </r>
       <r>  -23.8132    1.0000 </r>
       <r>  -23.7837    1.0000 </r>
       <r>  -23.6581    1.0000 </r>
       <r>    0.8156    1.0000 </r>
       <r>    1.4559    1.0000 </r>
       <r>    1.5798    1.0000 </r>
       <r>    1.8654    1.0000 </r>
       <r>    2.1502    1.0000 </r>
       <r>    2.3752    1.0000 </r>
       <r>    2.4600    1.0000 </r>
       <r>    2.5995    1.0000 </r>
       <r>    2.8240    1.0000 </r>
       <r>    2.9393    1.0000 </r>
       <r>    3.0273    1.0000 </r>
       <r>    3.0963    1.0000 </r>
       <r>    3.1326    1.0000 </r>
       <r>    3.2005    1.0000 </r>
       <r>    3.2374    1.0000 </r>
       <r>    3.2937    1.0000 </r>
       <r>    3.3529    1.0000 </r>
       <r>    3.3918    1.0000 </r>
       <r>    3.4680    1.0000 </r>
       <r>    3.5309    1.0000 </r>
       <r>    3.5906    1.0000 </r>
       <r>    3.6754    1.0000 </r>
       <r>    3.7198    1.0000 </r>
       <r>    3.7910    1.0000 </r>
       <r>    3.8706    1.0000 </r>
       <r>    3.9230    1.0000 </r>
       <r>    3.9481    1.0000 </r>
       <r>    4.0114    1.0000 </r>
       <r>    4.0561    1.0000 </r>
       <r>    4.1561    1.0000 </r>
       <r>    4.2375    1.0000 </r>
       <r>    4.3463    1.0000 </r>
       <r>    4.4004    1.0000 </r>
       <r>    4.4342    1.0000 </r>
       <r>    4.4455    1.0000 </r>
       <r>    4.4733    1.0000 </r>
       <r>    4.4953    1.0000 </r>
       <r>    4.5573    1.0000 </r>
       <r>    4.5716    1.0000 </r>
       <r>    4.6467    1.0000 </r>
       <r>    4.6688    1.0000 </r>
       <r>    4.7263    1.0000 </r>
       <r>    4.7848    1.0000 </r>
       <r>    4.8297    1.0000 </r>
       <r>    4.8417    1.0000 </r>
       <r>    4.8697    1.0000 </r>
       <r>    4.8839    1.0000 </r>
       <r>    4.9837    1.0000 </r>
       <r>    5.0166    1.0000 </r>
       <r>    5.0448    1.0000 </r>
       <r>    5.1118    1.0000 </r>
       <r>    5.1340    1.0000 </r>
       <r>    5.1740    1.0000 </r>
       <r>    5.1995    1.0000 </r>
       <r>    5.2988    1.0000 </r>
       <r>    5.3474    1.0000 </r>
       <r>    5.3595    1.0000 </r>
       <r>    5.4213    1.0000 </r>
       <r>    5.4316    1.0000 </r>
       <r>    5.4765    1.0001 </r>
       <r>    5.5872    1.0009 </r>
       <r>    5.6150    1.0017 </r>
       <r>    5.6574    1.0039 </r>
       <r>    5.6787    1.0058 </r>
       <r>    5.7265    1.0124 </r>
       <r>    5.7445    1.0157 </r>
       <r>    5.8012    1.0284 </r>
       <r>    5.8137    1.0310 </r>
       <r>    5.8512    1.0354 </r>
       <r>    5.8874    1.0297 </r>
       <r>    5.9177    1.0115 </r>
       <r>    5.9656    0.9455 </r>
       <r>    5.9970    0.8724 </r>
       <r>    6.0224    0.7953 </r>
       <r>    6.0601    0.6564 </r>
       <r>    6.1036    0.4753 </r>
       <r>    6.1402    0.3250 </r>
       <r>    6.1744    0.2009 </r>
       <r>    6.2238    0.0671 </r>
       <r>    6.2598    0.0075 </r>
       <r>    6.2713   -0.0053 </r>
       <r>    6.3042   -0.0281 </r>
       <r>    6.3448   -0.0354 </r>
       <r>    6.3663   -0.0336 </r>
       <r>    6.4537   -0.0152 </r>
       <r>    6.5105   -0.0065 </r>
       <r>    6.6390   -0.0004 </r>
       <r>    6.6628   -0.0002 </r>
       <r>    6.6945   -0.0001 </r>
       <r>    6.8042   -0.0000 </r>
       <r>    7.0754   -0.0000 </r>
       <r>    7.2301   -0.0000 </r>
       <r>    7.4239   -0.0000 </r>
       <r>    7.4362   -0.0000 </r>
       <r>    7.4879   -0.0000 </r>
       <r>    7.5202   -0.0000 </r>
      </set>
      <set comment="kpoint 8">
       <r>  -47.9844    1.0000 </r>
       <r>  -47.9624    1.0000 </r>
       <r>  -47.9307    1.0000 </r>
       <r>  -47.8912    1.0000 </r>
       <r>  -47.8643    1.0000 </r>
       <r>  -47.7767    1.0000 </r>
       <r>  -24.5261    1.0000 </r>
       <r>  -24.4670    1.0000 </r>
       <r>  -24.3369    1.0000 </r>
       <r>  -24.3045    1.0000 </r>
       <r>  -24.1236    1.0000 </r>
       <r>  -24.1166    1.0000 </r>
       <r>  -24.1057    1.0000 </r>
       <r>  -24.0705    1.0000 </r>
       <r>  -24.0536    1.0000 </r>
       <r>  -24.0416    1.0000 </r>
       <r>  -24.0231    1.0000 </r>
       <r>  -23.9816    1.0000 </r>
       <r>  -23.9396    1.0000 </r>
       <r>  -23.9197    1.0000 </r>
       <r>  -23.8146    1.0000 </r>
       <r>  -23.7983    1.0000 </r>
       <r>  -23.6631    1.0000 </r>
       <r>  -23.5662    1.0000 </r>
       <r>   -0.0142    1.0000 </r>
       <r>    1.0706    1.0000 </r>
       <r>    1.3144    1.0000 </r>
       <r>    1.5099    1.0000 </r>
       <r>    2.0614    1.0000 </r>
       <r>    2.4159    1.0000 </r>
       <r>    2.5140    1.0000 </r>
       <r>    2.6050    1.0000 </r>
       <r>    2.6496    1.0000 </r>
       <r>    2.6939    1.0000 </r>
       <r>    2.8210    1.0000 </r>
       <r>    2.8453    1.0000 </r>
       <r>    2.8590    1.0000 </r>
       <r>    2.9418    1.0000 </r>
       <r>    2.9617    1.0000 </r>
       <r>    3.0223    1.0000 </r>
       <r>    3.0659    1.0000 </r>
       <r>    3.1285    1.0000 </r>
       <r>    3.2011    1.0000 </r>
       <r>    3.2692    1.0000 </r>
       <r>    3.3459    1.0000 </r>
       <r>    3.4050    1.0000 </r>
       <r>    3.4866    1.0000 </r>
       <r>    3.5678    1.0000 </r>
       <r>    3.6266    1.0000 </r>
       <r>    3.7141    1.0000 </r>
       <r>    3.7443    1.0000 </r>
       <r>    3.8057    1.0000 </r>
       <r>    3.8755    1.0000 </r>
       <r>    3.9759    1.0000 </r>
       <r>    4.0197    1.0000 </r>
       <r>    4.0741    1.0000 </r>
       <r>    4.2623    1.0000 </r>
       <r>    4.3147    1.0000 </r>
       <r>    4.3851    1.0000 </r>
       <r>    4.4491    1.0000 </r>
       <r>    4.5303    1.0000 </r>
       <r>    4.5752    1.0000 </r>
       <r>    4.6065    1.0000 </r>
       <r>    4.6828    1.0000 </r>
       <r>    4.7622    1.0000 </r>
       <r>    4.7786    1.0000 </r>
       <r>    4.8389    1.0000 </r>
       <r>    4.8807    1.0000 </r>
       <r>    4.9048    1.0000 </r>
       <r>    4.9248    1.0000 </r>
       <r>    5.0188    1.0000 </r>
       <r>    5.0363    1.0000 </r>
       <r>    5.0540    1.0000 </r>
       <r>    5.0995    1.0000 </r>
       <r>    5.1298    1.0000 </r>
       <r>    5.1937    1.0000 </r>
       <r>    5.2203    1.0000 </r>
       <r>    5.2339    1.0000 </r>
       <r>    5.2651    1.0000 </r>
       <r>    5.3232    1.0000 </r>
       <r>    5.3409    1.0000 </r>
       <r>    5.3716    1.0000 </r>
       <r>    5.3936    1.0000 </r>
       <r>    5.4508    1.0000 </r>
       <r>    5.5346    1.0003 </r>
       <r>    5.5990    1.0012 </r>
       <r>    5.6577    1.0040 </r>
       <r>    5.6832    1.0063 </r>
       <r>    5.7285    1.0127 </r>
       <r>    5.7641    1.0199 </r>
       <r>    5.8225    1.0326 </r>
       <r>    5.8547    1.0354 </r>
       <r>    5.8789    1.0324 </r>
       <r>    5.9406    0.9863 </r>
       <r>    5.9917    0.8865 </r>
       <r>    6.0030    0.8555 </r>
       <r>    6.0534    0.6830 </r>
       <r>    6.0735    0.6021 </r>
       <r>    6.1164    0.4217 </r>
       <r>    6.2014    0.1201 </r>
       <r>    6.2350    0.0452 </r>
       <r>    6.2588    0.0087 </r>
       <r>    6.2881   -0.0193 </r>
       <r>    6.3190   -0.0329 </r>
       <r>    6.3586   -0.0346 </r>
       <r>    6.4122   -0.0244 </r>
       <r>    6.4476   -0.0165 </r>
       <r>    6.5133   -0.0062 </r>
       <r>    6.6305   -0.0005 </r>
       <r>    6.6737   -0.0002 </r>
       <r>    6.7583   -0.0000 </r>
       <r>    6.9623   -0.0000 </r>
       <r>    7.1371   -0.0000 </r>
       <r>    7.2920   -0.0000 </r>
       <r>    7.3253   -0.0000 </r>
       <r>    7.4156   -0.0000 </r>
       <r>    7.4736   -0.0000 </r>
       <r>    7.5438   -0.0000 </r>
       <r>    7.5926   -0.0000 </r>
       <r>    7.7067   -0.0000 </r>
      </set>
      <set comment="kpoint 9">
       <r>  -47.9857    1.0000 </r>
       <r>  -47.9667    1.0000 </r>
       <r>  -47.9330    1.0000 </r>
       <r>  -47.8924    1.0000 </r>
       <r>  -47.8650    1.0000 </r>
       <r>  -47.7674    1.0000 </r>
       <r>  -24.6070    1.0000 </r>
       <r>  -24.4786    1.0000 </r>
       <r>  -24.3403    1.0000 </r>
       <r>  -24.3086    1.0000 </r>
       <r>  -24.1216    1.0000 </r>
       <r>  -24.1150    1.0000 </r>
       <r>  -24.1109    1.0000 </r>
       <r>  -24.0691    1.0000 </r>
       <r>  -24.0547    1.0000 </r>
       <r>  -24.0383    1.0000 </r>
       <r>  -24.0212    1.0000 </r>
       <r>  -23.9795    1.0000 </r>
       <r>  -23.9311    1.0000 </r>
       <r>  -23.9177    1.0000 </r>
       <r>  -23.8124    1.0000 </r>
       <r>  -23.7962    1.0000 </r>
       <r>  -23.6619    1.0000 </r>
       <r>  -23.4576    1.0000 </r>
       <r>   -0.0884    1.0000 </r>
       <r>    0.6571    1.0000 </r>
       <r>    1.0035    1.0000 </r>
       <r>    1.4800    1.0000 </r>
       <r>    1.7829    1.0000 </r>
       <r>    2.0516    1.0000 </r>
       <r>    2.3635    1.0000 </r>
       <r>    2.3893    1.0000 </r>
       <r>    2.5116    1.0000 </r>
       <r>    2.5473    1.0000 </r>
       <r>    2.6356    1.0000 </r>
       <r>    2.7550    1.0000 </r>
       <r>    2.7641    1.0000 </r>
       <r>    2.8268    1.0000 </r>
       <r>    2.8559    1.0000 </r>
       <r>    2.9087    1.0000 </r>
       <r>    2.9856    1.0000 </r>
       <r>    3.0754    1.0000 </r>
       <r>    3.1391    1.0000 </r>
       <r>    3.2398    1.0000 </r>
       <r>    3.2851    1.0000 </r>
       <r>    3.3364    1.0000 </r>
       <r>    3.3807    1.0000 </r>
       <r>    3.4365    1.0000 </r>
       <r>    3.5015    1.0000 </r>
       <r>    3.6087    1.0000 </r>
       <r>    3.6706    1.0000 </r>
       <r>    3.7095    1.0000 </r>
       <r>    3.7580    1.0000 </r>
       <r>    3.8105    1.0000 </r>
       <r>    3.8809    1.0000 </r>
       <r>    3.9975    1.0000 </r>
       <r>    4.3155    1.0000 </r>
       <r>    4.3851    1.0000 </r>
       <r>    4.4368    1.0000 </r>
       <r>    4.4891    1.0000 </r>
       <r>    4.5353    1.0000 </r>
       <r>    4.5944    1.0000 </r>
       <r>    4.6751    1.0000 </r>
[...]
       <r>    4.4962    1.0000 </r>
       <r>    4.5466    1.0000 </r>
       <r>    4.5622    1.0000 </r>
       <r>    4.6047    1.0000 </r>
       <r>    4.6632    1.0000 </r>
       <r>    4.6930    1.0000 </r>
       <r>    4.7416    1.0000 </r>
       <r>    4.7980    1.0000 </r>
       <r>    4.8402    1.0000 </r>
       <r>    4.8537    1.0000 </r>
       <r>    4.9537    1.0000 </r>
       <r>    5.0021    1.0000 </r>
       <r>    5.0389    1.0000 </r>
       <r>    5.0610    1.0000 </r>
       <r>    5.1466    1.0000 </r>
       <r>    5.1862    1.0000 </r>
       <r>    5.2207    1.0000 </r>
       <r>    5.2464    1.0000 </r>
       <r>    5.2993    1.0000 </r>
       <r>    5.3325    1.0000 </r>
       <r>    5.3990    1.0000 </r>
       <r>    5.4287    1.0000 </r>
       <r>    5.4867    1.0001 </r>
       <r>    5.5268    1.0002 </r>
       <r>    5.5649    1.0005 </r>
       <r>    5.5889    1.0009 </r>
       <r>    5.6496    1.0034 </r>
       <r>    5.6613    1.0042 </r>
       <r>    5.7000    1.0083 </r>
       <r>    5.7323    1.0134 </r>
       <r>    5.7493    1.0167 </r>
       <r>    5.7777    1.0230 </r>
       <r>    5.8350    1.0344 </r>
       <r>    5.8604    1.0352 </r>
       <r>    5.8791    1.0323 </r>
       <r>    5.9093    1.0181 </r>
       <r>    5.9299    0.9995 </r>
       <r>    5.9730    0.9305 </r>
       <r>    5.9911    0.8880 </r>
       <r>    6.1187    0.4121 </r>
       <r>    6.1602    0.2497 </r>
       <r>    6.2757   -0.0095 </r>
       <r>    6.3025   -0.0274 </r>
       <r>    6.3588   -0.0346 </r>
       <r>    6.3894   -0.0295 </r>
       <r>    6.4607   -0.0139 </r>
       <r>    6.5424   -0.0036 </r>
       <r>    6.6153   -0.0008 </r>
       <r>    6.9463   -0.0000 </r>
       <r>    7.0377   -0.0000 </r>
       <r>    7.0830   -0.0000 </r>
       <r>    7.1314   -0.0000 </r>
       <r>    7.1778   -0.0000 </r>
       <r>    7.6522   -0.0000 </r>
       <r>    7.7087   -0.0000 </r>
       <r>    7.7640   -0.0000 </r>
       <r>    7.8524   -0.0000 </r>
       <r>    7.8782   -0.0000 </r>
       <r>    7.9307   -0.0000 </r>
       <r>    7.9821   -0.0000 </r>
      </set>
     </set>
    </set>
   </array>
  </eigenvalues>
  <separator name="orbital magnetization" >
   <v name="MAGDIPOLOUT">      0.00000000      0.00000000      0.00000000</v>
  </separator>
  <dos>
   <i name="efermi">      6.09781387 </i>
   <total>
    <array>
     <dimension dim="1">gridpoints</dimension>
     <dimension dim="2">spin</dimension>
     <field>energy</field>
     <field>total</field>
     <field>integrated</field>
     <set>
      <set comment="spin 1">
       <r>   -50.7914     0.0000     0.0000 </r>
       <r>   -50.5857     0.0000     0.0000 </r>
       <r>   -50.3800     0.0000     0.0000 </r>
       <r>   -50.1742     0.0000     0.0000 </r>
       <r>   -49.9685     0.0000     0.0000 </r>
       <r>   -49.7628    -0.0000    -0.0000 </r>
       <r>   -49.5571    -0.0000    -0.0000 </r>
       <r>   -49.3513    -0.0000    -0.0000 </r>
       <r>   -49.1456    -0.0000    -0.0000 </r>
       <r>   -48.9399    -0.0000    -0.0000 </r>
       <r>   -48.7341    -0.0000    -0.0000 </r>
       <r>   -48.5284    -0.0075    -0.0015 </r>
       <r>   -48.3227    -0.4744    -0.0991 </r>
       <r>   -48.1169     0.1129    -0.0759 </r>
       <r>   -47.9112    28.0004     5.6847 </r>
       <r>   -47.7055    29.7355    11.8022 </r>
       <r>   -47.4997     1.5769    12.1267 </r>
       <r>   -47.2940    -0.5971    12.0038 </r>
       <r>   -47.0883    -0.0185    12.0000 </r>
       <r>   -46.8825    -0.0001    12.0000 </r>
       <r>   -46.6768    -0.0000    12.0000 </r>
       <r>   -46.4711    -0.0000    12.0000 </r>
       <r>   -46.2653     0.0000    12.0000 </r>
       <r>   -46.0596     0.0000    12.0000 </r>
       <r>   -45.8539     0.0000    12.0000 </r>
       <r>   -45.6481     0.0000    12.0000 </r>
       <r>   -45.4424     0.0000    12.0000 </r>
       <r>   -45.2367     0.0000    12.0000 </r>
       <r>   -45.0309     0.0000    12.0000 </r>
       <r>   -44.8252     0.0000    12.0000 </r>
       <r>   -44.6195     0.0000    12.0000 </r>
       <r>   -44.4137     0.0000    12.0000 </r>
       <r>   -44.2080     0.0000    12.0000 </r>
       <r>   -44.0023     0.0000    12.0000 </r>
       <r>   -43.7965     0.0000    12.0000 </r>
       <r>   -43.5908     0.0000    12.0000 </r>
       <r>   -43.3851     0.0000    12.0000 </r>
       <r>   -43.1793     0.0000    12.0000 </r>
       <r>   -42.9736     0.0000    12.0000 </r>
       <r>   -42.7679     0.0000    12.0000 </r>
       <r>   -42.5621     0.0000    12.0000 </r>
       <r>   -42.3564     0.0000    12.0000 </r>
       <r>   -42.1507     0.0000    12.0000 </r>
       <r>   -41.9449     0.0000    12.0000 </r>
       <r>   -41.7392     0.0000    12.0000 </r>
       <r>   -41.5335     0.0000    12.0000 </r>
       <r>   -41.3277     0.0000    12.0000 </r>
       <r>   -41.1220     0.0000    12.0000 </r>
       <r>   -40.9163     0.0000    12.0000 </r>
       <r>   -40.7105     0.0000    12.0000 </r>
       <r>   -40.5048     0.0000    12.0000 </r>
       <r>   -40.2991     0.0000    12.0000 </r>
       <r>   -40.0933     0.0000    12.0000 </r>
       <r>   -39.8876     0.0000    12.0000 </r>
       <r>   -39.6819     0.0000    12.0000 </r>
       <r>   -39.4762     0.0000    12.0000 </r>
       <r>   -39.2704     0.0000    12.0000 </r>
       <r>   -39.0647     0.0000    12.0000 </r>
       <r>   -38.8590     0.0000    12.0000 </r>
       <r>   -38.6532     0.0000    12.0000 </r>
       <r>   -38.4475     0.0000    12.0000 </r>
       <r>   -38.2418     0.0000    12.0000 </r>
       <r>   -38.0360     0.0000    12.0000 </r>
       <r>   -37.8303     0.0000    12.0000 </r>
       <r>   -37.6246     0.0000    12.0000 </r>
       <r>   -37.4188     0.0000    12.0000 </r>
       <r>   -37.2131     0.0000    12.0000 </r>
       <r>   -37.0074     0.0000    12.0000 </r>
       <r>   -36.8016     0.0000    12.0000 </r>
       <r>   -36.5959     0.0000    12.0000 </r>
       <r>   -36.3902     0.0000    12.0000 </r>
       <r>   -36.1844     0.0000    12.0000 </r>
       <r>   -35.9787     0.0000    12.0000 </r>
       <r>   -35.7730     0.0000    12.0000 </r>
       <r>   -35.5672     0.0000    12.0000 </r>
       <r>   -35.3615     0.0000    12.0000 </r>
       <r>   -35.1558     0.0000    12.0000 </r>
       <r>   -34.9500     0.0000    12.0000 </r>
       <r>   -34.7443     0.0000    12.0000 </r>
       <r>   -34.5386     0.0000    12.0000 </r>
       <r>   -34.3328     0.0000    12.0000 </r>
       <r>   -34.1271     0.0000    12.0000 </r>
       <r>   -33.9214     0.0000    12.0000 </r>
       <r>   -33.7156     0.0000    12.0000 </r>
       <r>   -33.5099     0.0000    12.0000 </r>
       <r>   -33.3042     0.0000    12.0000 </r>
       <r>   -33.0984     0.0000    12.0000 </r>
       <r>   -32.8927     0.0000    12.0000 </r>
       <r>   -32.6870     0.0000    12.0000 </r>
       <r>   -32.4812     0.0000    12.0000 </r>
       <r>   -32.2755     0.0000    12.0000 </r>
       <r>   -32.0698     0.0000    12.0000 </r>
       <r>   -31.8640     0.0000    12.0000 </r>
       <r>   -31.6583     0.0000    12.0000 </r>
       <r>   -31.4526     0.0000    12.0000 </r>
       <r>   -31.2468     0.0000    12.0000 </r>
       <r>   -31.0411     0.0000    12.0000 </r>
       <r>   -30.8354     0.0000    12.0000 </r>
       <r>   -30.6296     0.0000    12.0000 </r>
       <r>   -30.4239     0.0000    12.0000 </r>
       <r>   -30.2182     0.0000    12.0000 </r>
       <r>   -30.0124     0.0000    12.0000 </r>
       <r>   -29.8067     0.0000    12.0000 </r>
       <r>   -29.6010     0.0000    12.0000 </r>
       <r>   -29.3952     0.0000    12.0000 </r>
       <r>   -29.1895     0.0000    12.0000 </r>
       <r>   -28.9838     0.0000    12.0000 </r>
       <r>   -28.7781     0.0000    12.0000 </r>
       <r>   -28.5723     0.0000    12.0000 </r>
       <r>   -28.3666     0.0000    12.0000 </r>
       <r>   -28.1609     0.0000    12.0000 </r>
       <r>   -27.9551     0.0000    12.0000 </r>
       <r>   -27.7494     0.0000    12.0000 </r>
       <r>   -27.5437     0.0000    12.0000 </r>
       <r>   -27.3379     0.0000    12.0000 </r>
       <r>   -27.1322     0.0000    12.0000 </r>
       <r>   -26.9265     0.0000    12.0000 </r>
       <r>   -26.7207     0.0000    12.0000 </r>
       <r>   -26.5150     0.0000    12.0000 </r>
       <r>   -26.3093    -0.0000    12.0000 </r>
       <r>   -26.1035    -0.0000    12.0000 </r>
       <r>   -25.8978    -0.0000    12.0000 </r>
       <r>   -25.6921    -0.0000    12.0000 </r>
       <r>   -25.4863    -0.0000    12.0000 </r>
       <r>   -25.2806    -0.0000    12.0000 </r>
       <r>   -25.0749    -0.0069    11.9986 </r>
       <r>   -24.8691    -0.2323    11.9508 </r>
       <r>   -24.6634     0.3844    12.0299 </r>
       <r>   -24.4577    10.9239    14.2773 </r>
       <r>   -24.2519    21.3123    18.6619 </r>
       <r>   -24.0462    52.7120    29.5065 </r>
       <r>   -23.8405    58.3233    41.5055 </r>
       <r>   -23.6347    23.8638    46.4150 </r>
       <r>   -23.4290     7.4126    47.9401 </r>
       <r>   -23.2233     0.4733    48.0374 </r>
       <r>   -23.0175    -0.1725    48.0019 </r>
       <r>   -22.8118    -0.0094    48.0000 </r>
       <r>   -22.6061    -0.0001    48.0000 </r>
       <r>   -22.4003    -0.0000    48.0000 </r>
       <r>   -22.1946    -0.0000    48.0000 </r>
       <r>   -21.9889     0.0000    48.0000 </r>
       <r>   -21.7831     0.0000    48.0000 </r>
       <r>   -21.5774     0.0000    48.0000 </r>
       <r>   -21.3717     0.0000    48.0000 </r>
       <r>   -21.1659     0.0000    48.0000 </r>
       <r>   -20.9602     0.0000    48.0000 </r>
       <r>   -20.7545     0.0000    48.0000 </r>
       <r>   -20.5487     0.0000    48.0000 </r>
       <r>   -20.3430     0.0000    48.0000 </r>
       <r>   -20.1373     0.0000    48.0000 </r>
       <r>   -19.9315     0.0000    48.0000 </r>
       <r>   -19.7258     0.0000    48.0000 </r>
       <r>   -19.5201     0.0000    48.0000 </r>
       <r>   -19.3143     0.0000    48.0000 </r>
       <r>   -19.1086     0.0000    48.0000 </r>
       <r>   -18.9029     0.0000    48.0000 </r>
       <r>   -18.6972     0.0000    48.0000 </r>
       <r>   -18.4914     0.0000    48.0000 </r>
       <r>   -18.2857     0.0000    48.0000 </r>
       <r>   -18.0800     0.0000    48.0000 </r>
       <r>   -17.8742     0.0000    48.0000 </r>
       <r>   -17.6685     0.0000    48.0000 </r>
       <r>   -17.4628     0.0000    48.0000 </r>
       <r>   -17.2570     0.0000    48.0000 </r>
       <r>   -17.0513     0.0000    48.0000 </r>
       <r>   -16.8456     0.0000    48.0000 </r>
       <r>   -16.6398     0.0000    48.0000 </r>
       <r>   -16.4341     0.0000    48.0000 </r>
       <r>   -16.2284     0.0000    48.0000 </r>
       <r>   -16.0226     0.0000    48.0000 </r>
       <r>   -15.8169     0.0000    48.0000 </r>
       <r>   -15.6112     0.0000    48.0000 </r>
       <r>   -15.4054     0.0000    48.0000 </r>
       <r>   -15.1997     0.0000    48.0000 </r>
       <r>   -14.9940     0.0000    48.0000 </r>
       <r>   -14.7882     0.0000    48.0000 </r>
       <r>   -14.5825     0.0000    48.0000 </r>
       <r>   -14.3768     0.0000    48.0000 </r>
       <r>   -14.1710     0.0000    48.0000 </r>
       <r>   -13.9653     0.0000    48.0000 </r>
       <r>   -13.7596     0.0000    48.0000 </r>
       <r>   -13.5538     0.0000    48.0000 </r>
       <r>   -13.3481     0.0000    48.0000 </r>
       <r>   -13.1424     0.0000    48.0000 </r>
       <r>   -12.9366     0.0000    48.0000 </r>
       <r>   -12.7309     0.0000    48.0000 </r>
       <r>   -12.5252     0.0000    48.0000 </r>
       <r>   -12.3194     0.0000    48.0000 </r>
       <r>   -12.1137     0.0000    48.0000 </r>
       <r>   -11.9080     0.0000    48.0000 </r>
       <r>   -11.7022     0.0000    48.0000 </r>
       <r>   -11.4965     0.0000    48.0000 </r>
       <r>   -11.2908     0.0000    48.0000 </r>
       <r>   -11.0850     0.0000    48.0000 </r>
       <r>   -10.8793     0.0000    48.0000 </r>
       <r>   -10.6736     0.0000    48.0000 </r>
       <r>   -10.4678     0.0000    48.0000 </r>
       <r>   -10.2621     0.0000    48.0000 </r>
       <r>   -10.0564     0.0000    48.0000 </r>
       <r>    -9.8506     0.0000    48.0000 </r>
       <r>    -9.6449     0.0000    48.0000 </r>
       <r>    -9.4392     0.0000    48.0000 </r>
       <r>    -9.2334     0.0000    48.0000 </r>
       <r>    -9.0277     0.0000    48.0000 </r>
       <r>    -8.8220     0.0000    48.0000 </r>
       <r>    -8.6163     0.0000    48.0000 </r>
       <r>    -8.4105     0.0000    48.0000 </r>
       <r>    -8.2048     0.0000    48.0000 </r>
       <r>    -7.9991     0.0000    48.0000 </r>
       <r>    -7.7933     0.0000    48.0000 </r>
       <r>    -7.5876     0.0000    48.0000 </r>
       <r>    -7.3819     0.0000    48.0000 </r>
       <r>    -7.1761     0.0000    48.0000 </r>
       <r>    -6.9704     0.0000    48.0000 </r>
       <r>    -6.7647     0.0000    48.0000 </r>
       <r>    -6.5589     0.0000    48.0000 </r>
       <r>    -6.3532     0.0000    48.0000 </r>
       <r>    -6.1475     0.0000    48.0000 </r>
       <r>    -5.9417     0.0000    48.0000 </r>
       <r>    -5.7360     0.0000    48.0000 </r>
       <r>    -5.5303     0.0000    48.0000 </r>
       <r>    -5.3245     0.0000    48.0000 </r>
       <r>    -5.1188     0.0000    48.0000 </r>
       <r>    -4.9131     0.0000    48.0000 </r>
       <r>    -4.7073     0.0000    48.0000 </r>
       <r>    -4.5016     0.0000    48.0000 </r>
       <r>    -4.2959     0.0000    48.0000 </r>
       <r>    -4.0901     0.0000    48.0000 </r>
       <r>    -3.8844     0.0000    48.0000 </r>
       <r>    -3.6787     0.0000    48.0000 </r>
       <r>    -3.4729     0.0000    48.0000 </r>
       <r>    -3.2672     0.0000    48.0000 </r>
       <r>    -3.0615     0.0000    48.0000 </r>
       <r>    -2.8557     0.0000    48.0000 </r>
       <r>    -2.6500     0.0000    48.0000 </r>
       <r>    -2.4443     0.0000    48.0000 </r>
       <r>    -2.2385    -0.0000    48.0000 </r>
       <r>    -2.0328    -0.0000    48.0000 </r>
       <r>    -1.8271    -0.0000    48.0000 </r>
       <r>    -1.6213    -0.0000    48.0000 </r>
       <r>    -1.4156    -0.0000    48.0000 </r>
       <r>    -1.2099    -0.0000    48.0000 </r>
       <r>    -1.0041    -0.0003    47.9999 </r>
       <r>    -0.7984    -0.0093    47.9980 </r>
       <r>    -0.5927     0.0163    48.0014 </r>
       <r>    -0.3869     0.4146    48.0867 </r>
       <r>    -0.1812     1.1792    48.3293 </r>
       <r>     0.0245     1.9507    48.7306 </r>
       <r>     0.2303     1.8263    49.1063 </r>
       <r>     0.4360     1.7636    49.4691 </r>
       <r>     0.6417     2.8480    50.0551 </r>
       <r>     0.8475     3.6105    50.7979 </r>
       <r>     1.0532     3.2966    51.4761 </r>
       <r>     1.2589     2.8790    52.0684 </r>
       <r>     1.4646     4.7893    53.0537 </r>
       <r>     1.6704     4.8510    54.0517 </r>
       <r>     1.8761     5.9722    55.2804 </r>
       <r>     2.0818     7.6999    56.8645 </r>
       <r>     2.2876     9.3005    58.7779 </r>
       <r>     2.4933    15.6399    61.9956 </r>
       <r>     2.6990    22.3522    66.5941 </r>
       <r>     2.9048    26.1642    71.9770 </r>
       <r>     3.1105    30.3495    78.2209 </r>
       <r>     3.3162    31.3073    84.6618 </r>
       <r>     3.5220    32.6404    91.3770 </r>
       <r>     3.7277    33.6117    98.2920 </r>
       <r>     3.9334    31.7701   104.8281 </r>
       <r>     4.1392    26.1407   110.2061 </r>
       <r>     4.3449    24.0046   115.1447 </r>
       <r>     4.5506    35.6326   122.4755 </r>
       <r>     4.7564    44.4810   131.6266 </r>
       <r>     4.9621    49.0722   141.7224 </r>
       <r>     5.1678    48.2381   151.6466 </r>
       <r>     5.3736    44.8512   160.8739 </r>
       <r>     5.5793    46.7092   170.4835 </r>
       <r>     5.7850    52.3072   181.2448 </r>
       <r>     5.9908    55.0354   192.5674 </r>
       <r>     6.1965    48.9240   202.6327 </r>
       <r>     6.4022    40.4795   210.9606 </r>
       <r>     6.6080    27.0634   216.5284 </r>
       <r>     6.8137    15.9871   219.8175 </r>
       <r>     7.0194    13.4415   222.5829 </r>
       <r>     7.2252    16.1221   225.8997 </r>
       <r>     7.4309    19.4011   229.8911 </r>
       <r>     7.6366    21.8373   234.3838 </r>
       <r>     7.8424    18.0854   238.1045 </r>
       <r>     8.0481     8.3637   239.8252 </r>
       <r>     8.2538     1.0517   240.0416 </r>
       <r>     8.4596    -0.1867   240.0032 </r>
       <r>     8.6653    -0.0153   240.0000 </r>
       <r>     8.8710    -0.0001   240.0000 </r>
       <r>     9.0768    -0.0000   240.0000 </r>
       <r>     9.2825    -0.0000   240.0000 </r>
       <r>     9.4882    -0.0000   240.0000 </r>
       <r>     9.6940     0.0000   240.0000 </r>
       <r>     9.8997     0.0000   240.0000 </r>
       <r>    10.1054     0.0000   240.0000 </r>
       <r>    10.3112     0.0000   240.0000 </r>
       <r>    10.5169     0.0000   240.0000 </r>
       <r>    10.7226     0.0000   240.0000 </r>
       <r>    10.9284     0.0000   240.0000 </r>
      </set>
     </set>
    </array>
   </total>
  </dos>
 </calculation>
 <structure name="finalpos" >
  <crystal>
   <varray name="basis" >
    <v>      -3.23000000      -3.23000000      -3.23000000 </v>
    <v>       1.61500000       1.61500000      -8.07500000 </v>
    <v>       8.07500000      -8.07500000      -1.61500000 </v>
   </varray>
   <i name="volume">    505.47400500 </i>
   <varray name="rec_basis" >
    <v>      -0.13415893      -0.12383901      -0.05159959 </v>
    <v>       0.04127967       0.06191950      -0.10319917 </v>
    <v>       0.06191950      -0.06191950       0.00000000 </v>
   </varray>
  </crystal>
  <varray name="positions" >
   <v>       0.96666667       0.93333333       0.40000000 </v>
   <v>       0.63333333       0.26666667       0.40000000 </v>
   <v>       0.50000000       0.00000000       0.00000000 </v>
   <v>       0.00000000       0.00000000       0.00000000 </v>
   <v>       0.10000000       0.20000000       0.80000000 </v>
   <v>       0.03333333       0.06666667       0.60000000 </v>
   <v>       0.90000000       0.80000000       0.20000000 </v>
   <v>       0.80000000       0.60000000       0.40000000 </v>
   <v>       0.73333333       0.46666667       0.20000000 </v>
   <v>       0.66666667       0.33333333       0.00000000 </v>
   <v>       0.36666667       0.73333333       0.60000000 </v>
   <v>       0.13333333       0.26666667       0.40000000 </v>
   <v>       0.83333333       0.66666667       0.00000000 </v>
   <v>       0.93333333       0.86666667       0.80000000 </v>
   <v>       0.56666667       0.13333333       0.20000000 </v>
   <v>       0.40000000       0.80000000       0.20000000 </v>
   <v>       0.43333333       0.86666667       0.80000000 </v>
   <v>       0.30000000       0.60000000       0.40000000 </v>
   <v>       0.86666667       0.73333333       0.60000000 </v>
   <v>       0.46666667       0.93333333       0.40000000 </v>
   <v>       0.16666667       0.33333333       0.00000000 </v>
   <v>       0.26666667       0.53333333       0.80000000 </v>
   <v>       0.20000000       0.40000000       0.60000000 </v>
   <v>       0.06666667       0.13333333       0.20000000 </v>
   <v>       0.76666667       0.53333333       0.80000000 </v>
   <v>       0.70000000       0.40000000       0.60000000 </v>
   <v>       0.60000000       0.20000000       0.80000000 </v>
   <v>       0.53333333       0.06666667       0.60000000 </v>
   <v>       0.33333333       0.66666667       0.00000000 </v>
   <v>       0.23333333       0.46666667       0.20000000 </v>
  </varray>
 </structure>
</modeling>
