  29  29   0   0
  0.1632129E+02  0.5473281E-09  0.8209921E-09  0.1128346E-08  0.5000000E-15
  1.000000000000000E-004
  CAR 
 Nb - Mo - Ta - Ti - V SQS               
     11.65982859    -50.35088241  301      6.59423220      1.00000000
    -50.351  0.0000E+00  0.0000E+00
    -50.144  0.0000E+00  0.0000E+00
    -49.937  0.0000E+00  0.0000E+00
    -49.731  0.0000E+00  0.0000E+00
    -49.524  0.0000E+00  0.0000E+00
    -49.317 -0.1435E-34 -0.2967E-35
    -49.111 -0.4806E-27 -0.9933E-28
    -48.904 -0.1827E-20 -0.3776E-21
    -48.697 -0.7849E-15 -0.1622E-15
    -48.491 -0.3912E-10 -0.8086E-11
    -48.284 -0.2197E-06 -0.4542E-07
    -48.077 -0.1327E-03 -0.2748E-04
    -47.870 -0.7379E-02 -0.1553E-02
    -47.664  0.9623E-02  0.4363E-03
    -47.457  0.3754E+00  0.7803E-01
    -47.250  0.5725E+00  0.1964E+00
    -47.044  0.2272E+00  0.2433E+00
    -46.837 -0.1309E-01  0.2406E+00
    -46.630 -0.2999E-02  0.2400E+00
    -46.424 -0.3024E-04  0.2400E+00
    -46.217 -0.3160E-07  0.2400E+00
    -46.010 -0.3718E-11  0.2400E+00
    -45.803 -0.6138E-16  0.2400E+00
    -45.597  0.0000E+00  0.2400E+00
    -45.390  0.0000E+00  0.2400E+00
    -45.183  0.0000E+00  0.2400E+00
    -44.977  0.0000E+00  0.2400E+00
    -44.770  0.0000E+00  0.2400E+00
    -44.563  0.0000E+00  0.2400E+00
    -44.357  0.0000E+00  0.2400E+00
    -44.150  0.0000E+00  0.2400E+00
    -43.943  0.0000E+00  0.2400E+00
    -43.736  0.0000E+00  0.2400E+00
    -43.530  0.0000E+00  0.2400E+00
    -43.323  0.0000E+00  0.2400E+00
    -43.116  0.0000E+00  0.2400E+00
    -42.910  0.0000E+00  0.2400E+00
    -42.703  0.0000E+00  0.2400E+00
    -42.496  0.0000E+00  0.2400E+00
    -42.289  0.0000E+00  0.2400E+00
    -42.083  0.0000E+00  0.2400E+00
    -41.876  0.0000E+00  0.2400E+00
    -41.669  0.0000E+00  0.2400E+00
    -41.463  0.0000E+00  0.2400E+00
    -41.256  0.0000E+00  0.2400E+00
    -41.049  0.0000E+00  0.2400E+00
    -40.843  0.0000E+00  0.2400E+00
    -40.636  0.0000E+00  0.2400E+00
    -40.429  0.0000E+00  0.2400E+00
    -40.222  0.0000E+00  0.2400E+00
    -40.016  0.0000E+00  0.2400E+00
    -39.809  0.0000E+00  0.2400E+00
    -39.602  0.0000E+00  0.2400E+00
    -39.396  0.0000E+00  0.2400E+00
    -39.189  0.0000E+00  0.2400E+00
    -38.982  0.0000E+00  0.2400E+00
    -38.776  0.0000E+00  0.2400E+00
    -38.569  0.0000E+00  0.2400E+00
    -38.362  0.0000E+00  0.2400E+00
    -38.155  0.0000E+00  0.2400E+00
    -37.949  0.0000E+00  0.2400E+00
    -37.742  0.0000E+00  0.2400E+00
    -37.535  0.0000E+00  0.2400E+00
    -37.329  0.0000E+00  0.2400E+00
    -37.122  0.0000E+00  0.2400E+00
    -36.915  0.0000E+00  0.2400E+00
    -36.709  0.0000E+00  0.2400E+00
    -36.502  0.0000E+00  0.2400E+00
    -36.295  0.0000E+00  0.2400E+00
    -36.088  0.0000E+00  0.2400E+00
    -35.882  0.0000E+00  0.2400E+00
    -35.675  0.0000E+00  0.2400E+00
    -35.468  0.0000E+00  0.2400E+00
    -35.262  0.0000E+00  0.2400E+00
    -35.055  0.0000E+00  0.2400E+00
    -34.848  0.0000E+00  0.2400E+00
    -34.642  0.0000E+00  0.2400E+00
    -34.435  0.0000E+00  0.2400E+00
    -34.228  0.0000E+00  0.2400E+00
    -34.021  0.0000E+00  0.2400E+00
    -33.815  0.0000E+00  0.2400E+00
    -33.608  0.0000E+00  0.2400E+00
    -33.401  0.0000E+00  0.2400E+00
    -33.195  0.0000E+00  0.2400E+00
    -32.988  0.0000E+00  0.2400E+00
    -32.781  0.0000E+00  0.2400E+00
    -32.574  0.0000E+00  0.2400E+00
    -32.368  0.0000E+00  0.2400E+00
    -32.161  0.0000E+00  0.2400E+00
    -31.954  0.0000E+00  0.2400E+00
    -31.748  0.0000E+00  0.2400E+00
    -31.541  0.0000E+00  0.2400E+00
    -31.334  0.0000E+00  0.2400E+00
    -31.128  0.0000E+00  0.2400E+00
    -30.921  0.0000E+00  0.2400E+00
    -30.714  0.0000E+00  0.2400E+00
    -30.507  0.0000E+00  0.2400E+00
    -30.301  0.0000E+00  0.2400E+00
    -30.094  0.0000E+00  0.2400E+00
    -29.887  0.0000E+00  0.2400E+00
    -29.681  0.0000E+00  0.2400E+00
    -29.474  0.0000E+00  0.2400E+00
    -29.267  0.0000E+00  0.2400E+00
    -29.061  0.0000E+00  0.2400E+00
    -28.854  0.0000E+00  0.2400E+00
    -28.647  0.0000E+00  0.2400E+00
    -28.440  0.0000E+00  0.2400E+00
    -28.234  0.0000E+00  0.2400E+00
    -28.027  0.0000E+00  0.2400E+00
    -27.820  0.0000E+00  0.2400E+00
    -27.614  0.0000E+00  0.2400E+00
    -27.407  0.0000E+00  0.2400E+00
    -27.200  0.0000E+00  0.2400E+00
    -26.994  0.0000E+00  0.2400E+00
    -26.787  0.0000E+00  0.2400E+00
    -26.580  0.0000E+00  0.2400E+00
    -26.373  0.0000E+00  0.2400E+00
    -26.167  0.0000E+00  0.2400E+00
    -25.960 -0.1679E-33  0.2400E+00
    -25.753 -0.3088E-26  0.2400E+00
    -25.547 -0.6645E-20  0.2400E+00
    -25.340 -0.1622E-14  0.2400E+00
    -25.133 -0.4727E-10  0.2400E+00
    -24.926 -0.1613E-06  0.2400E+00
    -24.720 -0.6476E-04  0.2400E+00
    -24.513 -0.2908E-02  0.2394E+00
    -24.306 -0.3502E-03  0.2393E+00
    -24.100  0.1613E+00  0.2727E+00
    -23.893  0.3498E+00  0.3450E+00
    -23.686  0.5603E+00  0.4608E+00
    -23.480  0.1033E+01  0.6743E+00
    -23.273  0.8330E+00  0.8465E+00
    -23.066  0.3893E+00  0.9269E+00
    -22.859  0.1493E+00  0.9578E+00
    -22.653  0.1427E-01  0.9608E+00
    -22.446 -0.3427E-02  0.9600E+00
    -22.239 -0.2197E-03  0.9600E+00
    -22.033 -0.1232E-05  0.9600E+00
    -21.826 -0.7574E-09  0.9600E+00
    -21.619 -0.5324E-13  0.9600E+00
    -21.413  0.0000E+00  0.9600E+00
    -21.206  0.0000E+00  0.9600E+00
    -20.999  0.0000E+00  0.9600E+00
    -20.792  0.0000E+00  0.9600E+00
    -20.586  0.0000E+00  0.9600E+00
    -20.379  0.0000E+00  0.9600E+00
    -20.172  0.0000E+00  0.9600E+00
    -19.966  0.0000E+00  0.9600E+00
    -19.759  0.0000E+00  0.9600E+00
    -19.552  0.0000E+00  0.9600E+00
    -19.346  0.0000E+00  0.9600E+00
    -19.139  0.0000E+00  0.9600E+00
    -18.932  0.0000E+00  0.9600E+00
    -18.725  0.0000E+00  0.9600E+00
    -18.519  0.0000E+00  0.9600E+00
    -18.312  0.0000E+00  0.9600E+00
    -18.105  0.0000E+00  0.9600E+00
    -17.899  0.0000E+00  0.9600E+00
    -17.692  0.0000E+00  0.9600E+00
    -17.485  0.0000E+00  0.9600E+00
    -17.279  0.0000E+00  0.9600E+00
    -17.072  0.0000E+00  0.9600E+00
    -16.865  0.0000E+00  0.9600E+00
    -16.658  0.0000E+00  0.9600E+00
    -16.452  0.0000E+00  0.9600E+00
    -16.245  0.0000E+00  0.9600E+00
    -16.038  0.0000E+00  0.9600E+00
    -15.832  0.0000E+00  0.9600E+00
    -15.625  0.0000E+00  0.9600E+00
    -15.418  0.0000E+00  0.9600E+00
    -15.211  0.0000E+00  0.9600E+00
    -15.005  0.0000E+00  0.9600E+00
    -14.798  0.0000E+00  0.9600E+00
    -14.591  0.0000E+00  0.9600E+00
    -14.385  0.0000E+00  0.9600E+00
    -14.178  0.0000E+00  0.9600E+00
    -13.971  0.0000E+00  0.9600E+00
    -13.765  0.0000E+00  0.9600E+00
    -13.558  0.0000E+00  0.9600E+00
    -13.351  0.0000E+00  0.9600E+00
    -13.144  0.0000E+00  0.9600E+00
    -12.938  0.0000E+00  0.9600E+00
    -12.731  0.0000E+00  0.9600E+00
    -12.524  0.0000E+00  0.9600E+00
    -12.318  0.0000E+00  0.9600E+00
    -12.111  0.0000E+00  0.9600E+00
    -11.904  0.0000E+00  0.9600E+00
    -11.698  0.0000E+00  0.9600E+00
    -11.491  0.0000E+00  0.9600E+00
    -11.284  0.0000E+00  0.9600E+00
    -11.077  0.0000E+00  0.9600E+00
    -10.871  0.0000E+00  0.9600E+00
    -10.664  0.0000E+00  0.9600E+00
    -10.457  0.0000E+00  0.9600E+00
    -10.251  0.0000E+00  0.9600E+00
    -10.044  0.0000E+00  0.9600E+00
     -9.837  0.0000E+00  0.9600E+00
     -9.631  0.0000E+00  0.9600E+00
     -9.424  0.0000E+00  0.9600E+00
     -9.217  0.0000E+00  0.9600E+00
     -9.010  0.0000E+00  0.9600E+00
     -8.804  0.0000E+00  0.9600E+00
     -8.597  0.0000E+00  0.9600E+00
     -8.390  0.0000E+00  0.9600E+00
     -8.184  0.0000E+00  0.9600E+00
     -7.977  0.0000E+00  0.9600E+00
     -7.770  0.0000E+00  0.9600E+00
     -7.563  0.0000E+00  0.9600E+00
     -7.357  0.0000E+00  0.9600E+00
     -7.150  0.0000E+00  0.9600E+00
     -6.943  0.0000E+00  0.9600E+00
     -6.737  0.0000E+00  0.9600E+00
     -6.530  0.0000E+00  0.9600E+00
     -6.323  0.0000E+00  0.9600E+00
     -6.117  0.0000E+00  0.9600E+00
     -5.910  0.0000E+00  0.9600E+00
     -5.703  0.0000E+00  0.9600E+00
     -5.496  0.0000E+00  0.9600E+00
     -5.290  0.0000E+00  0.9600E+00
     -5.083  0.0000E+00  0.9600E+00
     -4.876  0.0000E+00  0.9600E+00
     -4.670  0.0000E+00  0.9600E+00
     -4.463  0.0000E+00  0.9600E+00
     -4.256  0.0000E+00  0.9600E+00
     -4.050  0.0000E+00  0.9600E+00
     -3.843  0.0000E+00  0.9600E+00
     -3.636  0.0000E+00  0.9600E+00
     -3.429  0.0000E+00  0.9600E+00
     -3.223  0.0000E+00  0.9600E+00
     -3.016  0.0000E+00  0.9600E+00
     -2.809  0.0000E+00  0.9600E+00
     -2.603  0.0000E+00  0.9600E+00
     -2.396  0.0000E+00  0.9600E+00
     -2.189  0.0000E+00  0.9600E+00
     -1.983 -0.2561E-37  0.9600E+00
     -1.776 -0.9625E-30  0.9600E+00
     -1.569 -0.3855E-23  0.9600E+00
     -1.362 -0.1797E-17  0.9600E+00
     -1.156 -0.9891E-13  0.9600E+00
     -0.949 -0.6537E-09  0.9600E+00
     -0.742 -0.5139E-06  0.9600E+00
     -0.536 -0.4719E-04  0.9600E+00
     -0.329 -0.3535E-03  0.9599E+00
     -0.122  0.3290E-02  0.9606E+00
      0.084  0.1748E-01  0.9642E+00
      0.291  0.2541E-01  0.9695E+00
      0.498  0.3655E-01  0.9770E+00
      0.705  0.4280E-01  0.9859E+00
      0.911  0.3714E-01  0.9935E+00
      1.118  0.5477E-01  0.1005E+01
      1.325  0.6226E-01  0.1018E+01
      1.531  0.6875E-01  0.1032E+01
      1.738  0.7790E-01  0.1048E+01
      1.945  0.9198E-01  0.1067E+01
      2.152  0.1045E+00  0.1089E+01
      2.358  0.1231E+00  0.1114E+01
      2.565  0.1956E+00  0.1155E+01
      2.772  0.3163E+00  0.1220E+01
      2.978  0.3897E+00  0.1300E+01
      3.185  0.4854E+00  0.1401E+01
      3.392  0.5851E+00  0.1522E+01
      3.598  0.6204E+00  0.1650E+01
      3.805  0.6405E+00  0.1782E+01
      4.012  0.6243E+00  0.1911E+01
      4.219  0.6083E+00  0.2037E+01
      4.425  0.5643E+00  0.2154E+01
      4.632  0.5430E+00  0.2266E+01
      4.839  0.6203E+00  0.2394E+01
      5.045  0.7512E+00  0.2550E+01
      5.252  0.8264E+00  0.2720E+01
      5.459  0.8236E+00  0.2891E+01
      5.665  0.8026E+00  0.3057E+01
      5.872  0.8377E+00  0.3230E+01
      6.079  0.8746E+00  0.3410E+01
      6.286  0.8633E+00  0.3589E+01
      6.492  0.8274E+00  0.3760E+01
      6.699  0.7596E+00  0.3917E+01
      6.906  0.6552E+00  0.4052E+01
      7.112  0.5486E+00  0.4166E+01
      7.319  0.4341E+00  0.4255E+01
      7.526  0.3863E+00  0.4335E+01
      7.732  0.3809E+00  0.4414E+01
      7.939  0.4177E+00  0.4500E+01
      8.146  0.4905E+00  0.4602E+01
      8.353  0.4716E+00  0.4699E+01
      8.559  0.3355E+00  0.4769E+01
      8.766  0.1425E+00  0.4798E+01
      8.973  0.1241E-01  0.4801E+01
      9.179 -0.2964E-02  0.4800E+01
      9.386 -0.2024E-03  0.4800E+01
      9.593 -0.1744E-05  0.4800E+01
      9.800 -0.2126E-08  0.4800E+01
     10.006 -0.3375E-12  0.4800E+01
     10.213 -0.6264E-17  0.4800E+01
     10.420  0.0000E+00  0.4800E+01
     10.626  0.0000E+00  0.4800E+01
     10.833  0.0000E+00  0.4800E+01
     11.040  0.0000E+00  0.4800E+01
     11.246  0.0000E+00  0.4800E+01
     11.453  0.0000E+00  0.4800E+01
     11.660  0.0000E+00  0.4800E+01
