   29   29   50    1
  0.1632129E+02  0.5473281E-09  0.8209921E-09  0.1128346E-08  0.5000000E-15
  1.000000000000000E-004
  CAR 
 Nb - Mo - Ta - Ti - V SQS               
    192    172    120
 
  0.0000000E+00  0.0000000E+00  0.0000000E+00  0.2915452E-02
    1      -47.532214   1.000000
    2      -47.528310   1.000000
    3      -47.426150   1.000000
    4      -47.343518   1.000000
    5      -47.277933   1.000000
    6      -47.207225   1.000000
    7      -24.227008   1.000000
    8      -24.092157   1.000000
    9      -23.950946   1.000000
   10      -23.852100   1.000000
   11      -23.698147   1.000000
   12      -23.685047   1.000000
   13      -23.670385   1.000000
   14      -23.591272   1.000000
   15      -23.540986   1.000000
   16      -23.514927   1.000000
   17      -23.503750   1.000000
   18      -23.458608   1.000000
   19      -23.410204   1.000000
   20      -23.368281   1.000000
   21      -23.303433   1.000000
   22      -23.208218   1.000000
   23      -23.085748   1.000000
   24      -22.872525   1.000000
   25       -0.193638   1.000000
   26        1.112226   1.000000
   27        1.413511   1.000000
   28        2.232627   1.000000
   29        2.451653   1.000000
   30        2.468508   1.000000
   31        2.565696   1.000000
   32        2.741138   1.000000
   33        2.820520   1.000000
   34        2.855729   1.000000
   35        2.896469   1.000000
   36        2.967404   1.000000
   37        3.031283   1.000000
   38        3.058986   1.000000
   39        3.203138   1.000000
   40        3.283754   1.000000
   41        3.343395   1.000000
   42        3.403930   1.000000
   43        3.533035   1.000000
   44        3.585120   1.000000
   45        3.638710   1.000000
   46        3.657407   1.000000
   47        3.701940   1.000000
   48        3.762084   1.000000
   49        3.836264   1.000000
   50        3.995860   1.000000
   51        4.022307   1.000000
   52        4.050482   1.000000
   53        4.180924   1.000000
   54        4.307998   1.000000
   55        4.351217   1.000000
   56        4.418085   1.000000
   57        4.523721   1.000000
   58        4.569378   1.000000
   59        4.638698   1.000000
   60        4.698402   1.000000
   61        4.775087   1.000000
   62        4.835551   1.000000
   63        4.868820   1.000000
   64        4.947157   1.000000
   65        5.014019   1.000000
   66        5.059264   1.000000
   67        5.117749   1.000000
   68        5.162706   1.000000
   69        5.197870   1.000000
   70        5.261069   1.000000
   71        5.286572   1.000000
   72        5.337725   1.000000
   73        5.425173   1.000000
   74        5.430549   1.000000
   75        5.578308   1.000000
   76        5.597205   1.000000
   77        5.638238   1.000000
   78        5.720891   1.000000
   79        5.779310   1.000000
   80        5.849116   1.000001
   81        5.886249   1.000003
   82        5.985386   1.000073
   83        6.044834   1.000358
   84        6.081070   1.000859
   85        6.124441   1.002214
   86        6.187573   1.007168
   87        6.243801   1.016336
   88        6.269885   1.022064
   89        6.319467   1.032685
   90        6.385596   1.029047
   91        6.460703   0.948066
   92        6.520132   0.790959
   93        6.576583   0.574358
   94        6.620048   0.391765
   95        6.648359   0.280005
   96        6.732641   0.042934
   97        6.816512  -0.033160
   98        6.962444  -0.012904
   99        7.036434  -0.003814
  100        7.076484  -0.001706
  101        7.221313  -0.000043
  102        7.231171  -0.000032
  103        7.326353  -0.000001
  104        7.445371  -0.000000
  105        7.552653  -0.000000
  106        7.576974  -0.000000
  107        7.630345  -0.000000
  108        7.687330  -0.000000
  109        7.849637  -0.000000
  110        8.061352  -0.000000
  111        8.254550  -0.000000
  112        8.301656  -0.000000
  113        8.428341  -0.000000
  114        8.488740  -0.000000
  115        8.559262  -0.000000
  116        8.602616  -0.000000
  117        8.650120  -0.000000
  118        8.656536  -0.000000
  119        8.739030  -0.000000
  120        8.767731  -0.000000
 
  0.1428571E+00  0.0000000E+00 -0.1561251E-16  0.5830904E-02
    1      -47.531457   1.000000
    2      -47.524525   1.000000
    3      -47.426040   1.000000
    4      -47.343543   1.000000
    5      -47.277899   1.000000
    6      -47.211529   1.000000
    7      -24.170466   1.000000
    8      -24.089076   1.000000
    9      -23.948706   1.000000
   10      -23.849625   1.000000
   11      -23.701568   1.000000
   12      -23.681933   1.000000
   13      -23.670399   1.000000
   14      -23.592312   1.000000
   15      -23.541877   1.000000
   16      -23.515886   1.000000
   17      -23.506353   1.000000
   18      -23.460983   1.000000
   19      -23.414758   1.000000
   20      -23.368990   1.000000
   21      -23.305514   1.000000
   22      -23.212859   1.000000
   23      -23.086420   1.000000
   24      -22.939792   1.000000
   25       -0.028781   1.000000
   26        1.260798   1.000000
   27        1.554793   1.000000
   28        2.268643   1.000000
   29        2.543290   1.000000
   30        2.593923   1.000000
   31        2.691351   1.000000
   32        2.827782   1.000000
   33        2.869240   1.000000
   34        2.957894   1.000000
   35        2.974882   1.000000
   36        3.047670   1.000000
   37        3.142050   1.000000
   38        3.212844   1.000000
   39        3.270693   1.000000
   40        3.364457   1.000000
   41        3.396693   1.000000
   42        3.450521   1.000000
   43        3.536094   1.000000
   44        3.588497   1.000000
   45        3.697829   1.000000
   46        3.771890   1.000000
   47        3.800167   1.000000
   48        3.824527   1.000000
   49        3.940541   1.000000
   50        4.030780   1.000000
   51        4.084522   1.000000
   52        4.129199   1.000000
   53        4.191427   1.000000
   54        4.310601   1.000000
   55        4.353017   1.000000
   56        4.419821   1.000000
   57        4.514355   1.000000
   58        4.576976   1.000000
   59        4.620923   1.000000
   60        4.742610   1.000000
   61        4.820395   1.000000
   62        4.857595   1.000000
   63        4.916672   1.000000
   64        5.013640   1.000000
   65        5.061592   1.000000
   66        5.124861   1.000000
   67        5.156269   1.000000
   68        5.211667   1.000000
   69        5.254015   1.000000
   70        5.295597   1.000000
   71        5.335432   1.000000
   72        5.373386   1.000000
   73        5.442159   1.000000
   74        5.469223   1.000000
   75        5.506252   1.000000
   76        5.587407   1.000000
   77        5.698910   1.000000
   78        5.742343   1.000000
   79        5.778195   1.000000
   80        5.812368   1.000000
   81        5.850445   1.000001
   82        5.953768   1.000029
   83        6.006743   1.000132
   84        6.103304   1.001415
   85        6.117862   1.001931
   86        6.141265   1.003102
   87        6.231781   1.013965
   88        6.288443   1.026344
   89        6.298116   1.028508
   90        6.357133   1.035208
   91        6.402464   1.020312
   92        6.455299   0.957997
   93        6.500789   0.851565
   94        6.547867   0.690464
   95        6.611671   0.426519
   96        6.681907   0.165601
   97        6.715477   0.077213
   98        6.824629  -0.034559
   99        6.907366  -0.024655
  100        6.995663  -0.007811
  101        7.093487  -0.001177
  102        7.126045  -0.000553
  103        7.194084  -0.000094
  104        7.262173  -0.000012
  105        7.324258  -0.000002
  106        7.387082  -0.000000
  107        7.463471  -0.000000
  108        7.599383  -0.000000
  109        7.761665  -0.000000
  110        7.971175  -0.000000
  111        8.049731  -0.000000
  112        8.130330  -0.000000
  113        8.186683  -0.000000
  114        8.235438  -0.000000
  115        8.311850  -0.000000
  116        8.385263  -0.000000
  117        8.423573  -0.000000
  118        8.442432  -0.000000
  119        8.503167  -0.000000
  120        8.598954  -0.000000
 
  0.2857143E+00  0.1387779E-16  0.3469447E-17  0.5830904E-02
    1      -47.530210   1.000000
    2      -47.515129   1.000000
    3      -47.425782   1.000000
    4      -47.343600   1.000000
    5      -47.277898   1.000000
    6      -47.221574   1.000000
    7      -24.090462   1.000000
    8      -24.013063   1.000000
    9      -23.935799   1.000000
   10      -23.841116   1.000000
   11      -23.709897   1.000000
   12      -23.679029   1.000000
   13      -23.665091   1.000000
   14      -23.594683   1.000000
   15      -23.543726   1.000000
   16      -23.518330   1.000000
   17      -23.512312   1.000000
   18      -23.465928   1.000000
   19      -23.425767   1.000000
   20      -23.371728   1.000000
   21      -23.311664   1.000000
   22      -23.223719   1.000000
   23      -23.129803   1.000000
   24      -23.078762   1.000000
   25        0.440322   1.000000
   26        1.657852   1.000000
   27        1.937902   1.000000
   28        2.403071   1.000000
   29        2.670545   1.000000
   30        2.753091   1.000000
   31        2.878440   1.000000
   32        3.000360   1.000000
   33        3.085088   1.000000
   34        3.140965   1.000000
   35        3.215396   1.000000
   36        3.268036   1.000000
   37        3.308753   1.000000
   38        3.400249   1.000000
   39        3.482106   1.000000
   40        3.534452   1.000000
   41        3.547748   1.000000
   42        3.610296   1.000000
   43        3.701967   1.000000
   44        3.763673   1.000000
   45        3.835964   1.000000
   46        3.861535   1.000000
   47        3.934170   1.000000
   48        4.047403   1.000000
   49        4.071727   1.000000
   50        4.132870   1.000000
   51        4.201183   1.000000
   52        4.310730   1.000000
   53        4.333492   1.000000
   54        4.397339   1.000000
   55        4.444635   1.000000
   56        4.510539   1.000000
   57        4.597579   1.000000
   58        4.645751   1.000000
   59        4.711919   1.000000
   60        4.779739   1.000000
   61        4.875433   1.000000
   62        4.902950   1.000000
   63        4.956008   1.000000
   64        5.027831   1.000000
   65        5.076357   1.000000
   66        5.119864   1.000000
   67        5.186470   1.000000
   68        5.241596   1.000000
   69        5.318207   1.000000
   70        5.379091   1.000000
   71        5.423755   1.000000
   72        5.439804   1.000000
   73        5.506655   1.000000
   74        5.543902   1.000000
   75        5.571505   1.000000
   76        5.639111   1.000000
   77        5.678158   1.000000
   78        5.706377   1.000000
   79        5.766759   1.000000
   80        5.827987   1.000000
   81        5.870315   1.000002
   82        5.913564   1.000008
   83        5.959944   1.000035
   84        6.025595   1.000218
   85        6.044856   1.000358
   86        6.101842   1.001370
   87        6.173454   1.005634
   88        6.187888   1.007206
   89        6.243580   1.016291
   90        6.287376   1.026100
   91        6.341556   1.035240
   92        6.358578   1.035104
   93        6.413538   1.011993
   94        6.470157   0.928949
   95        6.496506   0.863789
   96        6.550397   0.680635
   97        6.606197   0.449471
   98        6.682144   0.164881
   99        6.710907   0.087585
  100        6.762190   0.000462
  101        6.820411  -0.033921
  102        6.882243  -0.030221
  103        6.966904  -0.012118
  104        7.009037  -0.006248
  105        7.083473  -0.001468
  106        7.118065  -0.000669
  107        7.250539  -0.000018
  108        7.323957  -0.000002
  109        7.473115  -0.000000
  110        7.556448  -0.000000
  111        7.583190  -0.000000
  112        7.707149  -0.000000
  113        7.797818  -0.000000
  114        7.852125  -0.000000
  115        7.935422  -0.000000
  116        7.995955  -0.000000
  117        8.097548  -0.000000
  118        8.145320  -0.000000
  119        8.237328  -0.000000
  120        8.347079  -0.000000
 
  0.4285714E+00  0.5551115E-16 -0.4163336E-16  0.5830904E-02
    1      -47.529289   1.000000
    2      -47.507005   1.000000
    3      -47.425560   1.000000
    4      -47.343646   1.000000
    5      -47.278022   1.000000
    6      -47.230029   1.000000
    7      -24.085314   1.000000
    8      -23.953534   1.000000
    9      -23.857705   1.000000
   10      -23.748897   1.000000
   11      -23.716868   1.000000
   12      -23.679441   1.000000
   13      -23.657304   1.000000
   14      -23.596664   1.000000
   15      -23.545135   1.000000
   16      -23.520833   1.000000
   17      -23.518483   1.000000
   18      -23.469890   1.000000
   19      -23.437430   1.000000
   20      -23.396995   1.000000
   21      -23.362736   1.000000
   22      -23.291581   1.000000
   23      -23.231049   1.000000
   24      -23.083682   1.000000
   25        1.130587   1.000000
   26        1.875969   1.000000
   27        2.306437   1.000000
   28        2.479821   1.000000
   29        2.587295   1.000000
   30        2.859636   1.000000
   31        2.969327   1.000000
   32        3.051378   1.000000
   33        3.207708   1.000000
   34        3.273582   1.000000
   35        3.366791   1.000000
   36        3.411084   1.000000
   37        3.509319   1.000000
   38        3.571115   1.000000
   39        3.671871   1.000000
   40        3.704135   1.000000
   41        3.752012   1.000000
   42        3.817892   1.000000
   43        3.898314   1.000000
   44        3.934148   1.000000
   45        3.967393   1.000000
   46        4.035068   1.000000
   47        4.079095   1.000000
   48        4.132818   1.000000
   49        4.178982   1.000000
   50        4.257858   1.000000
   51        4.331556   1.000000
   52        4.405613   1.000000
   53        4.486168   1.000000
   54        4.528618   1.000000
   55        4.620679   1.000000
   56        4.639603   1.000000
   57        4.721771   1.000000
   58        4.775278   1.000000
   59        4.785028   1.000000
   60        4.830709   1.000000
   61        4.885967   1.000000
   62        4.932893   1.000000
   63        4.981790   1.000000
   64        5.026421   1.000000
   65        5.092565   1.000000
   66        5.126842   1.000000
   67        5.197632   1.000000
   68        5.252829   1.000000
   69        5.291637   1.000000
   70        5.362437   1.000000
   71        5.427844   1.000000
   72        5.469100   1.000000
   73        5.482684   1.000000
   74        5.522445   1.000000
   75        5.556305   1.000000
   76        5.610797   1.000000
   77        5.631501   1.000000
   78        5.693985   1.000000
   79        5.722193   1.000000
   80        5.800200   1.000000
   81        5.827957   1.000000
   82        5.889578   1.000004
   83        5.932898   1.000015
   84        5.952774   1.000028
   85        5.995251   1.000096
   86        6.037491   1.000297
   87        6.094649   1.001169
   88        6.149972   1.003669
   89        6.197454   1.008419
   90        6.230348   1.013696
   91        6.253826   1.018459
   92        6.323456   1.033316
   93        6.372055   1.033138
   94        6.407351   1.016913
   95        6.468967   0.931478
   96        6.500006   0.853832
   97        6.529972   0.756972
   98        6.586656   0.532031
   99        6.634743   0.332421
  100        6.666804   0.214186
  101        6.745535   0.021930
  102        6.775710  -0.012656
  103        6.827723  -0.034912
  104        6.955594  -0.014171
  105        6.991779  -0.008316
  106        7.010404  -0.006103
  107        7.113406  -0.000747
  108        7.167204  -0.000195
  109        7.251952  -0.000017
  110        7.267606  -0.000010
  111        7.422455  -0.000000
  112        7.524903  -0.000000
  113        7.588579  -0.000000
  114        7.668755  -0.000000
  115        7.754481  -0.000000
  116        7.813475  -0.000000
  117        7.928234  -0.000000
  118        8.076374  -0.000000
  119        8.129272  -0.000000
  120        8.204055  -0.000000
 
 -0.6938894E-17  0.1428571E+00  0.1040834E-16  0.5830904E-02
    1      -47.532034   1.000000
    2      -47.528278   1.000000
    3      -47.426202   1.000000
    4      -47.343679   1.000000
    5      -47.277932   1.000000
    6      -47.207223   1.000000
    7      -24.227006   1.000000
    8      -24.089442   1.000000
    9      -23.949715   1.000000
   10      -23.852021   1.000000
   11      -23.698281   1.000000
   12      -23.685119   1.000000
   13      -23.670407   1.000000
   14      -23.591234   1.000000
   15      -23.541065   1.000000
   16      -23.514872   1.000000
   17      -23.503666   1.000000
   18      -23.458619   1.000000
   19      -23.410255   1.000000
   20      -23.368342   1.000000
   21      -23.303446   1.000000
   22      -23.212670   1.000000
   23      -23.085984   1.000000
   24      -22.872532   1.000000
   25       -0.123093   1.000000
   26        1.145346   1.000000
   27        1.486699   1.000000
   28        1.993419   1.000000
   29        2.395728   1.000000
   30        2.503004   1.000000
   31        2.625579   1.000000
   32        2.682713   1.000000
   33        2.804137   1.000000
   34        2.880323   1.000000
   35        2.893952   1.000000
   36        2.954835   1.000000
   37        3.029150   1.000000
   38        3.126357   1.000000
   39        3.199999   1.000000
   40        3.291507   1.000000
   41        3.355013   1.000000
   42        3.389049   1.000000
   43        3.437859   1.000000
   44        3.568111   1.000000
   45        3.648044   1.000000
   46        3.677768   1.000000
   47        3.727969   1.000000
   48        3.783594   1.000000
   49        3.879151   1.000000
   50        4.006838   1.000000
   51        4.051678   1.000000
   52        4.087587   1.000000
   53        4.175431   1.000000
   54        4.310075   1.000000
   55        4.358674   1.000000
   56        4.449565   1.000000
   57        4.523457   1.000000
   58        4.559382   1.000000
   59        4.606522   1.000000
   60        4.718075   1.000000
   61        4.815390   1.000000
   62        4.849058   1.000000
   63        4.938517   1.000000
   64        4.963087   1.000000
   65        5.034347   1.000000
   66        5.082650   1.000000
   67        5.134692   1.000000
   68        5.186679   1.000000
   69        5.228045   1.000000
   70        5.242171   1.000000
   71        5.331463   1.000000
   72        5.368572   1.000000
   73        5.406137   1.000000
   74        5.438139   1.000000
   75        5.568491   1.000000
   76        5.596644   1.000000
   77        5.695133   1.000000
   78        5.747310   1.000000
   79        5.829664   1.000000
   80        5.854521   1.000001
   81        5.893131   1.000004
   82        5.966159   1.000042
   83        6.040140   1.000318
   84        6.085191   1.000944
   85        6.122181   1.002113
   86        6.147586   1.003505
   87        6.188714   1.007305
   88        6.255233   1.018766
   89        6.305790   1.030133
   90        6.372419   1.033057
   91        6.428269   0.997287
   92        6.482058   0.901681
   93        6.507334   0.832026
   94        6.594061   0.500723
   95        6.655830   0.252558
   96        6.719964   0.067540
   97        6.775510  -0.012488
   98        6.889112  -0.028777
   99        6.991910  -0.008299
  100        7.023739  -0.004823
  101        7.140963  -0.000383
  102        7.219797  -0.000045
  103        7.326687  -0.000001
  104        7.432601  -0.000000
  105        7.538448  -0.000000
  106        7.614857  -0.000000
  107        7.673717  -0.000000
  108        7.744845  -0.000000
  109        7.888479  -0.000000
  110        8.005929  -0.000000
  111        8.120558  -0.000000
  112        8.264090  -0.000000
  113        8.312654  -0.000000
  114        8.368867  -0.000000
  115        8.430740  -0.000000
  116        8.500252  -0.000000
  117        8.557766  -0.000000
  118        8.595270  -0.000000
  119        8.668506  -0.000000
  120        8.720647  -0.000000
 
  0.1428571E+00  0.1428571E+00 -0.1387779E-16  0.5830904E-02
    1      -47.531649   1.000000
    2      -47.524535   1.000000
    3      -47.425990   1.000000
    4      -47.343389   1.000000
    5      -47.277900   1.000000
    6      -47.211532   1.000000
    7      -24.170484   1.000000
    8      -24.091673   1.000000
    9      -23.949929   1.000000
   10      -23.849698   1.000000
   11      -23.701586   1.000000
   12      -23.681901   1.000000
   13      -23.670367   1.000000
   14      -23.592313   1.000000
   15      -23.541817   1.000000
   16      -23.515903   1.000000
   17      -23.506350   1.000000
   18      -23.460945   1.000000
   19      -23.414705   1.000000
   20      -23.368937   1.000000
   21      -23.305495   1.000000
   22      -23.208564   1.000000
   23      -23.086208   1.000000
   24      -22.939787   1.000000
   25       -0.027927   1.000000
   26        1.232548   1.000000
   27        1.576418   1.000000
   28        2.264366   1.000000
   29        2.539255   1.000000
   30        2.584485   1.000000
   31        2.693860   1.000000
   32        2.749286   1.000000
   33        2.838558   1.000000
   34        2.929878   1.000000
   35        2.983379   1.000000
   36        3.022274   1.000000
   37        3.106831   1.000000
   38        3.168749   1.000000
   39        3.258672   1.000000
   40        3.315674   1.000000
   41        3.415184   1.000000
   42        3.487808   1.000000
   43        3.553586   1.000000
   44        3.648455   1.000000
   45        3.677215   1.000000
   46        3.727535   1.000000
   47        3.775595   1.000000
   48        3.855748   1.000000
   49        3.896341   1.000000
   50        4.029111   1.000000
   51        4.093773   1.000000
   52        4.151059   1.000000
   53        4.215071   1.000000
   54        4.307358   1.000000
   55        4.430366   1.000000
   56        4.513084   1.000000
   57        4.564002   1.000000
   58        4.654133   1.000000
   59        4.685413   1.000000
   60        4.720933   1.000000
   61        4.781817   1.000000
   62        4.833003   1.000000
   63        4.880462   1.000000
   64        4.954498   1.000000
   65        5.016038   1.000000
   66        5.092472   1.000000
   67        5.114849   1.000000
   68        5.189158   1.000000
   69        5.225651   1.000000
   70        5.251464   1.000000
   71        5.293269   1.000000
   72        5.343884   1.000000
   73        5.428186   1.000000
   74        5.496204   1.000000
   75        5.548286   1.000000
   76        5.600996   1.000000
   77        5.647010   1.000000
   78        5.689695   1.000000
   79        5.777785   1.000000
   80        5.790667   1.000000
   81        5.841635   1.000001
   82        5.929754   1.000014
   83        5.991464   1.000086
   84        6.013622   1.000159
   85        6.127986   1.002380
   86        6.155037   1.004036
   87        6.222672   1.012311
   88        6.247379   1.017080
   89        6.314862   1.031887
   90        6.361249   1.034860
   91        6.434666   0.989491
   92        6.504052   0.841953
   93        6.556394   0.656973
   94        6.616271   0.407371
   95        6.649433   0.275997
   96        6.703516   0.105481
   97        6.774872  -0.011948
   98        6.861613  -0.033801
   99        6.919028  -0.021961
  100        7.017101  -0.005430
  101        7.075660  -0.001736
  102        7.127099  -0.000539
  103        7.231707  -0.000032
  104        7.333135  -0.000001
  105        7.360738  -0.000000
  106        7.413870  -0.000000
  107        7.448268  -0.000000
  108        7.580670  -0.000000
  109        7.641869  -0.000000
  110        7.937207  -0.000000
  111        8.052903  -0.000000
  112        8.146831  -0.000000
  113        8.284514  -0.000000
  114        8.348103  -0.000000
  115        8.409159  -0.000000
  116        8.521494  -0.000000
  117        8.564228  -0.000000
  118        8.620143  -0.000000
  119        8.638037  -0.000000
  120        8.714314  -0.000000
 
  0.2857143E+00  0.1428571E+00  0.2775558E-16  0.5830904E-02
    1      -47.530665   1.000000
    2      -47.515137   1.000000
    3      -47.425666   1.000000
    4      -47.343248   1.000000
    5      -47.277901   1.000000
    6      -47.221579   1.000000
    7      -24.095746   1.000000
    8      -24.014274   1.000000
    9      -23.938209   1.000000
   10      -23.841224   1.000000
   11      -23.709840   1.000000
   12      -23.678987   1.000000
   13      -23.664980   1.000000
   14      -23.594707   1.000000
   15      -23.543581   1.000000
   16      -23.518383   1.000000
   17      -23.512338   1.000000
   18      -23.465872   1.000000
   19      -23.425636   1.000000
   20      -23.371632   1.000000
   21      -23.311597   1.000000
   22      -23.213846   1.000000
   23      -23.129607   1.000000
   24      -23.078433   1.000000
   25        0.376608   1.000000
   26        1.566968   1.000000
   27        1.900717   1.000000
   28        2.498128   1.000000
   29        2.621409   1.000000
   30        2.788477   1.000000
   31        2.886772   1.000000
   32        2.938770   1.000000
   33        3.051919   1.000000
   34        3.121861   1.000000
   35        3.186079   1.000000
   36        3.270773   1.000000
   37        3.296691   1.000000
   38        3.381244   1.000000
   39        3.472256   1.000000
   40        3.502590   1.000000
   41        3.585303   1.000000
   42        3.617461   1.000000
   43        3.679979   1.000000
   44        3.765842   1.000000
   45        3.844387   1.000000
   46        3.898847   1.000000
   47        3.927128   1.000000
   48        4.036588   1.000000
   49        4.099536   1.000000
   50        4.138454   1.000000
   51        4.213938   1.000000
   52        4.274274   1.000000
   53        4.279052   1.000000
   54        4.385847   1.000000
   55        4.460249   1.000000
   56        4.499586   1.000000
   57        4.602237   1.000000
   58        4.704293   1.000000
   59        4.758534   1.000000
   60        4.803206   1.000000
   61        4.848390   1.000000
   62        4.893645   1.000000
   63        4.945318   1.000000
   64        4.974690   1.000000
   65        5.069281   1.000000
   66        5.102540   1.000000
   67        5.145516   1.000000
   68        5.186882   1.000000
   69        5.244770   1.000000
   70        5.307479   1.000000
   71        5.332801   1.000000
   72        5.414429   1.000000
   73        5.439502   1.000000
   74        5.497240   1.000000
   75        5.554528   1.000000
   76        5.616477   1.000000
   77        5.676864   1.000000
   78        5.726858   1.000000
   79        5.761104   1.000000
   80        5.834592   1.000001
   81        5.882766   1.000003
   82        5.923331   1.000011
   83        6.034022   1.000272
   84        6.039114   1.000310
   85        6.069650   1.000657
   86        6.138639   1.002946
   87        6.158070   1.004270
   88        6.171121   1.005407
   89        6.210977   1.010379
   90        6.261433   1.020142
   91        6.323914   1.033384
   92        6.354409   1.035353
   93        6.415872   1.009952
   94        6.502439   0.846736
   95        6.540831   0.717274
   96        6.588607   0.523791
   97        6.634969   0.331530
   98        6.687095   0.150128
   99        6.707542   0.095562
  100        6.772541  -0.009905
  101        6.819789  -0.033811
  102        6.860180  -0.033991
  103        6.919562  -0.021838
  104        7.015633  -0.005573
  105        7.051244  -0.002865
  106        7.150498  -0.000301
  107        7.291110  -0.000005
  108        7.338545  -0.000001
  109        7.526854  -0.000000
  110        7.636735  -0.000000
  111        7.697592  -0.000000
  112        7.858704  -0.000000
  113        8.038261  -0.000000
  114        8.099353  -0.000000
  115        8.151384  -0.000000
  116        8.199059  -0.000000
  117        8.312228  -0.000000
  118        8.332831  -0.000000
  119        8.388868  -0.000000
  120        8.454223  -0.000000
 
  0.4285714E+00  0.1428571E+00 -0.2081668E-16  0.5830904E-02
    1      -47.529657   1.000000
    2      -47.507010   1.000000
    3      -47.425465   1.000000
    4      -47.343364   1.000000
    5      -47.278024   1.000000
    6      -47.230033   1.000000
    7      -24.089698   1.000000
    8      -23.956273   1.000000
    9      -23.857983   1.000000
   10      -23.748872   1.000000
   11      -23.716839   1.000000
   12      -23.679417   1.000000
   13      -23.657207   1.000000
   14      -23.596677   1.000000
   15      -23.545022   1.000000
   16      -23.520852   1.000000
   17      -23.518498   1.000000
   18      -23.469856   1.000000
   19      -23.437326   1.000000
   20      -23.396953   1.000000
   21      -23.362697   1.000000
   22      -23.291396   1.000000
   23      -23.222995   1.000000
   24      -23.083387   1.000000
   25        1.028136   1.000000
   26        1.908097   1.000000
   27        2.218027   1.000000
   28        2.395177   1.000000
   29        2.593885   1.000000
   30        2.734274   1.000000
   31        2.988199   1.000000
   32        3.215914   1.000000
   33        3.260248   1.000000
   34        3.308395   1.000000
   35        3.352472   1.000000
   36        3.451133   1.000000
   37        3.498867   1.000000
   38        3.587411   1.000000
   39        3.655707   1.000000
   40        3.726235   1.000000
   41        3.765848   1.000000
   42        3.801554   1.000000
   43        3.849001   1.000000
   44        3.919794   1.000000
   45        3.976030   1.000000
   46        4.034205   1.000000
   47        4.077306   1.000000