 running on   64 total cores
 distrk:  each k-point on   64 cores,    1 groups
 distr:  one band on    8 cores,    8 groups
 using from now: INCAR     
 vasp.5.4.4.18Apr17-6-g9f103f2a35 (build Aug 09 2018 16:20:53) complex          
  
 POSCAR found :  5 types and      29 ions
 scaLAPACK will be used

 ----------------------------------------------------------------------------- 
|                                                                             |
|  ADVICE TO THIS USER RUNNING 'VASP/VAMP'   (HEAR YOUR MASTER'S VOICE ...):  |
|                                                                             |
|      You enforced a specific xc-type in the INCAR file,                     |
|      a different type was found on the POTCAR file                          |
|          I HOPE YOU KNOW, WHAT YOU ARE  DOING                               |
|                                                                             |
 ----------------------------------------------------------------------------- 

 LDA part: xc-table for Pade appr. of Perdew
 POSCAR found :  5 types and      29 ions
 POSCAR, INCAR and KPOINTS ok, starting setup
 FFT: planning ...
 WAVECAR not read
 WARNING: random wavefunctions but no delay for mixing, default for NELMDL
 entering main loop
       N       E                     dE             d eps       ncg     rms          rms(c)
DAV:   1     0.255320218012E+04    0.25532E+04   -0.80197E+04 41280   0.181E+03
DAV:   2     0.267479952209E+03   -0.22857E+04   -0.22206E+04 47240   0.504E+02
DAV:   3    -0.244806958520E+03   -0.51229E+03   -0.48574E+03 70408   0.219E+02
DAV:   4    -0.323932761595E+03   -0.79126E+02   -0.72015E+02 71768   0.974E+01
DAV:   5    -0.334441308478E+03   -0.10509E+02   -0.10058E+02 79920   0.342E+01    0.685E+01
DAV:   6    -0.366961274860E+03   -0.32520E+02   -0.53740E+02 75592   0.868E+01    0.927E+01
DAV:   7    -0.315036671780E+03    0.51925E+02   -0.99788E+02 77064   0.169E+02    0.383E+01
DAV:   8    -0.325549743593E+03   -0.10513E+02   -0.34158E+02 65456   0.565E+01    0.271E+01
DAV:   9    -0.313768503170E+03    0.11781E+02   -0.11131E+02 68624   0.487E+01    0.236E+01
DAV:  10    -0.308050735286E+03    0.57178E+01   -0.33689E+01 70096   0.278E+01    0.175E+01
DAV:  11    -0.306011424568E+03    0.20393E+01   -0.10214E+01 68072   0.131E+01    0.154E+01
DAV:  12    -0.304660741756E+03    0.13507E+01   -0.54761E+00 70448   0.968E+00    0.122E+01
DAV:  13    -0.304254247700E+03    0.40649E+00   -0.16028E+00 72968   0.495E+00    0.107E+01
DAV:  14    -0.304115640430E+03    0.13861E+00   -0.52643E-01 72432   0.315E+00    0.987E+00
DAV:  15    -0.304151486576E+03   -0.35846E-01   -0.89282E-01 67888   0.406E+00    0.919E+00
DAV:  16    -0.304061985146E+03    0.89501E-01   -0.18636E+00 68744   0.576E+00    0.775E+00
DAV:  17    -0.304024979059E+03    0.37006E-01   -0.30473E+00 68928   0.773E+00    0.671E+00
DAV:  18    -0.303723400758E+03    0.30158E+00   -0.21723E+00 71808   0.587E+00    0.286E+00
DAV:  19    -0.303663820278E+03    0.59580E-01   -0.53148E-01 72152   0.241E+00    0.180E+00
DAV:  20    -0.303650213412E+03    0.13607E-01   -0.20786E-01 70216   0.150E+00    0.111E+00
DAV:  21    -0.303645154229E+03    0.50592E-02   -0.77147E-02 71584   0.919E-01    0.785E-01
DAV:  22    -0.303645968150E+03   -0.81392E-03   -0.58763E-02 68152   0.101E+00    0.796E-01
DAV:  23    -0.303642677906E+03    0.32902E-02   -0.31334E-02 66464   0.761E-01    0.498E-01
DAV:  24    -0.303642085388E+03    0.59252E-03   -0.13383E-02 66624   0.458E-01    0.407E-01
DAV:  25    -0.303640472960E+03    0.16124E-02   -0.76780E-03 64504   0.334E-01    0.173E-01
DAV:  26    -0.303640325408E+03    0.14755E-03   -0.21999E-03 63432   0.179E-01    0.107E-01
DAV:  27    -0.303640254184E+03    0.71224E-04   -0.83013E-04 51024   0.978E-02
   1 F= -.30364025E+03 E0= -.30363254E+03  d E =-.303640E+03
 curvature:   0.00 expect dE= 0.000E+00 dE for cont linesearch  0.000E+00
 trial: gam= 0.00000 g(F)=  0.814E+00 g(S)=  0.771E-01 ort = 0.000E+00 (trialstep = 0.100E+01)
 search vector abs. value=  0.891E+00
 bond charge predicted
       N       E                     dE             d eps       ncg     rms          rms(c)
DAV:   1    -0.304203651983E+03   -0.56333E+00   -0.95026E+01 41280   0.334E+01    0.573E+00
DAV:   2    -0.306142989405E+03   -0.19393E+01   -0.17639E+01 73896   0.243E+01    0.109E+01
DAV:   3    -0.304549911137E+03    0.15931E+01   -0.95648E+00 74112   0.135E+01    0.428E+00
DAV:   4    -0.304537399648E+03    0.12511E-01   -0.33051E+00 71336   0.770E+00    0.468E+00
DAV:   5    -0.304406926285E+03    0.13047E+00   -0.18341E+00 67680   0.657E+00    0.287E+00
DAV:   6    -0.304347263725E+03    0.59663E-01   -0.82085E-01 71216   0.389E+00    0.198E+00
DAV:   7    -0.304320217507E+03    0.27046E-01   -0.45610E-01 76784   0.304E+00    0.149E+00
DAV:   8    -0.304318279335E+03    0.19382E-02   -0.29723E-01 78600   0.250E+00    0.137E+00
DAV:   9    -0.304302753005E+03    0.15526E-01   -0.13320E-01 73856   0.165E+00    0.720E-01
DAV:  10    -0.304300372426E+03    0.23806E-02   -0.39693E-02 72680   0.878E-01    0.594E-01
DAV:  11    -0.304299849055E+03    0.52337E-03   -0.22997E-02 59160   0.691E-01    0.475E-01
DAV:  12    -0.304300388434E+03   -0.53938E-03   -0.12993E-02 73680   0.449E-01    0.299E-01
DAV:  13    -0.304301602123E+03   -0.12137E-02   -0.14732E-02 65216   0.550E-01    0.372E-01
DAV:  14    -0.304300667321E+03    0.93480E-03   -0.12416E-02 62144   0.536E-01    0.182E-01
DAV:  15    -0.304300446089E+03    0.22123E-03   -0.40879E-03 68336   0.256E-01    0.978E-02
DAV:  16    -0.304300365419E+03    0.80670E-04   -0.14491E-03 60096   0.165E-01    0.785E-02
DAV:  17    -0.304300318010E+03    0.47409E-04   -0.43669E-04 39152   0.125E-01
   2 F= -.30430032E+03 E0= -.30429323E+03  d E =-.660064E+00
 trial-energy change:   -0.660064  1 .order   -0.655179   -0.891347   -0.419011
 step:   1.7981(harm=  1.8871)  dis= 0.09266  next Energy=  -304.470000 (dE=-0.830E+00)
 bond charge predicted
       N       E                     dE             d eps       ncg     rms          rms(c)
DAV:   1    -0.304382420452E+03   -0.82055E-01   -0.60483E+01 41280   0.268E+01    0.471E+00
DAV:   2    -0.305555998576E+03   -0.11736E+01   -0.11102E+01 73104   0.195E+01    0.849E+00
DAV:   3    -0.304614129421E+03    0.94187E+00   -0.59627E+00 73192   0.110E+01    0.335E+00
DAV:   4    -0.304599888206E+03    0.14241E-01   -0.19770E+00 71648   0.603E+00    0.351E+00
DAV:   5    -0.304531274940E+03    0.68613E-01   -0.11202E+00 66536   0.516E+00    0.236E+00
DAV:   6    -0.304488114355E+03    0.43161E-01   -0.53148E-01 70544   0.322E+00    0.150E+00
DAV:   7    -0.304474616921E+03    0.13497E-01   -0.28418E-01 76784   0.241E+00    0.119E+00
DAV:   8    -0.304471265140E+03    0.33518E-02   -0.17889E-01 77336   0.196E+00    0.101E+00
DAV:   9    -0.304462868849E+03    0.83963E-02   -0.72936E-02 73448   0.125E+00    0.560E-01
DAV:  10    -0.304461363980E+03    0.15049E-02   -0.21903E-02 71704   0.645E-01    0.432E-01
DAV:  11    -0.304461763955E+03   -0.39998E-03   -0.13435E-02 58784   0.539E-01    0.409E-01
DAV:  12    -0.304461945215E+03   -0.18126E-03   -0.97623E-03 66600   0.420E-01    0.232E-01
DAV:  13    -0.304462384813E+03   -0.43960E-03   -0.85195E-03 68112   0.419E-01    0.253E-01
DAV:  14    -0.304462010926E+03    0.37389E-03   -0.71723E-03 62312   0.410E-01    0.155E-01
DAV:  15    -0.304461823289E+03    0.18764E-03   -0.23363E-03 63224   0.213E-01    0.680E-02
DAV:  16    -0.304461763111E+03    0.60177E-04   -0.57920E-04 45064   0.111E-01
   3 F= -.30446176E+03 E0= -.30445598E+03  d E =-.821509E+00
 curvature:  -0.93 expect dE=-0.922E+00 dE for cont linesearch -0.336E-03
 trial: gam= 1.12727 g(F)=  0.167E+00 g(S)=  0.820E+00 ort =-0.179E-01 (trialstep = 0.497E+00)
 search vector abs. value=  0.208E+01
 bond charge predicted
       N       E                     dE             d eps       ncg     rms          rms(c)
DAV:   1    -0.304957215314E+03   -0.49539E+00   -0.54363E+01 46992   0.287E+01    0.632E+00
DAV:   2    -0.305750979113E+03   -0.79376E+00   -0.10586E+01 72360   0.159E+01    0.868E+00
DAV:   3    -0.305043027928E+03    0.70795E+00   -0.88908E+00 74632   0.129E+01    0.502E+00
DAV:   4    -0.304944803163E+03    0.98225E-01   -0.27423E+00 69784   0.809E+00    0.407E+00
DAV:   5    -0.304859680097E+03    0.85123E-01   -0.20139E+00 67136   0.691E+00    0.319E+00
DAV:   6    -0.304746516189E+03    0.11316E+00   -0.77784E-01 71024   0.396E+00    0.132E+00
DAV:   7    -0.304741237343E+03    0.52788E-02   -0.29431E-01 76136   0.245E+00    0.139E+00
DAV:   8    -0.304730809116E+03    0.10428E-01   -0.20929E-01 70392   0.218E+00    0.897E-01
DAV:   9    -0.304726048108E+03    0.47610E-02   -0.53416E-02 66080   0.107E+00    0.551E-01
DAV:  10    -0.304725904314E+03    0.14379E-03   -0.16874E-02 69728   0.529E-01    0.466E-01
DAV:  11    -0.304727219759E+03   -0.13154E-02   -0.12962E-02 64648   0.509E-01    0.432E-01
DAV:  12    -0.304728528481E+03   -0.13087E-02   -0.18220E-02 70128   0.637E-01    0.379E-01
DAV:  13    -0.304727908942E+03    0.61954E-03   -0.13041E-02 74976   0.499E-01    0.203E-01
DAV:  14    -0.304727837304E+03    0.71638E-04   -0.70968E-03 65760   0.376E-01    0.184E-01
DAV:  15    -0.304727622019E+03    0.21529E-03   -0.31445E-03 62160   0.265E-01    0.934E-02
DAV:  16    -0.304727534576E+03    0.87443E-04   -0.80193E-04 50480   0.127E-01
   4 F= -.30472753E+03 E0= -.30472326E+03  d E =-.265771E+00
 trial-energy change:   -0.265771  1 .order   -0.270165   -0.480571   -0.059758
 step:   0.5732(harm=  0.5677)  dis= 0.03991  next Energy=  -304.732092 (dE=-0.270E+00)
 bond charge predicted
       N       E                     dE             d eps       ncg     rms          rms(c)
DAV:   1    -0.304736365476E+03   -0.87435E-02   -0.12565E+00 44464   0.432E+00    0.961E-01
DAV:   2    -0.304752684614E+03   -0.16319E-01   -0.22576E-01 71592   0.228E+00    0.123E+00
DAV:   3    -0.304740468211E+03    0.12216E-01   -0.19882E-01 72496   0.204E+00    0.829E-01
DAV:   4    -0.304736466454E+03    0.40018E-02   -0.59649E-02 68224   0.123E+00    0.605E-01
DAV:   5    -0.304734371619E+03    0.20948E-02   -0.42012E-02 67224   0.981E-01    0.468E-01
DAV:   6    -0.304732179029E+03    0.21926E-02   -0.17172E-02 72136   0.601E-01    0.206E-01
DAV:   7    -0.304732016548E+03    0.16248E-03   -0.61781E-03 67288   0.349E-01    0.203E-01
DAV:   8    -0.304731797119E+03    0.21943E-03   -0.38082E-03 58160   0.292E-01    0.131E-01
DAV:   9    -0.304731727716E+03    0.69403E-04   -0.11059E-03 54232   0.155E-01    0.878E-02
DAV:  10    -0.304731709759E+03    0.17957E-04   -0.28097E-04 33800   0.956E-02
   5 F= -.30473171E+03 E0= -.30472764E+03  d E =-.269947E+00
 curvature:  -0.61 expect dE=-0.669E-01 dE for cont linesearch -0.113E-04
 trial: gam= 0.05709 g(F)=  0.105E+00 g(S)=  0.514E-02 ort = 0.623E-02 (trialstep = 0.512E+00)
 search vector abs. value=  0.118E+00
 bond charge predicted
       N       E                     dE             d eps       ncg     rms          rms(c)
DAV:   1    -0.304759160616E+03   -0.27433E-01   -0.36808E+00 42600   0.641E+00    0.595E-01
DAV:   2    -0.304791510060E+03   -0.32349E-01   -0.33410E-01 67560   0.302E+00    0.102E+00
DAV:   3    -0.304785586753E+03    0.59233E-02   -0.11274E-01 69424   0.179E+00    0.622E-01
DAV:   4    -0.304783655143E+03    0.19316E-02   -0.31534E-02 66936   0.859E-01    0.399E-01
DAV:   5    -0.304782010562E+03    0.16446E-02   -0.13571E-02 66792   0.537E-01    0.243E-01
DAV:   6    -0.304781840111E+03    0.17045E-03   -0.69915E-03 63560   0.386E-01    0.216E-01
DAV:   7    -0.304781674108E+03    0.16600E-03   -0.56633E-03 69608   0.332E-01    0.184E-01
DAV:   8    -0.304781469819E+03    0.20429E-03   -0.34050E-03 64904   0.275E-01    0.138E-01
DAV:   9    -0.304781272073E+03    0.19775E-03   -0.13943E-03 54648   0.185E-01    0.571E-02
DAV:  10    -0.304781235237E+03    0.36836E-04   -0.21055E-04 30992   0.977E-02
   6 F= -.30478124E+03 E0= -.30477705E+03  d E =-.495255E-01
 trial-energy change:   -0.049525  1 .order   -0.049353   -0.056678   -0.042028
 step:   1.9821(harm=  1.9821)  dis= 0.04883  next Energy=  -304.841347 (dE=-0.110E+00)
 bond charge predicted
       N       E                     dE             d eps       ncg     rms          rms(c)
DAV:   1    -0.304654651696E+03    0.12662E+00   -0.30271E+01 42408   0.184E+01    0.194E+00
DAV:   2    -0.304938696495E+03   -0.28404E+00   -0.28975E+00 67792   0.911E+00    0.318E+00
DAV:   3    -0.304889583706E+03    0.49113E-01   -0.11380E+00 68480   0.577E+00    0.201E+00
DAV:   4    -0.304865066350E+03    0.24517E-01   -0.28937E-01 67688   0.264E+00    0.118E+00
DAV:   5    -0.304849410780E+03    0.15656E-01   -0.12052E-01 72560   0.154E+00    0.704E-01
DAV:   6    -0.304848494551E+03    0.91623E-03   -0.52902E-02 72736   0.107E+00    0.656E-01
DAV:   7    -0.304847238364E+03    0.12562E-02   -0.44438E-02 70816   0.936E-01    0.549E-01
DAV:   8    -0.304845315204E+03    0.19232E-02   -0.27601E-02 71960   0.753E-01    0.380E-01
DAV:   9    -0.304843828022E+03    0.14872E-02   -0.13803E-02 71280   0.538E-01    0.198E-01
DAV:  10    -0.304843706971E+03    0.12105E-03   -0.54268E-03 67152   0.292E-01    0.129E-01
DAV:  11    -0.304843540340E+03    0.16663E-03   -0.18767E-03 62208   0.167E-01    0.647E-02
DAV:  12    -0.304843495786E+03    0.44554E-04   -0.44775E-04 40224   0.113E-01
   7 F= -.30484350E+03 E0= -.30483911E+03  d E =-.111786E+00
 curvature:  -1.05 expect dE=-0.362E-01 dE for cont linesearch -0.152E-05
 trial: gam= 0.31466 g(F)=  0.328E-01 g(S)=  0.149E-02 ort = 0.412E-03 (trialstep = 0.806E+00)
 search vector abs. value=  0.463E-01
 bond charge predicted
       N       E                     dE             d eps       ncg     rms          rms(c)
DAV:   1    -0.304855863312E+03   -0.12323E-01   -0.26502E+00 41288   0.543E+00    0.642E-01
DAV:   2    -0.304882536823E+03   -0.26674E-01   -0.28782E-01 70752   0.280E+00    0.116E+00
DAV:   3    -0.304870442208E+03    0.12095E-01   -0.12428E-01 69408   0.173E+00    0.558E-01
DAV:   4    -0.304869294515E+03    0.11477E-02   -0.35601E-02 67784   0.876E-01    0.452E-01
DAV:   5    -0.304867509034E+03    0.17855E-02   -0.17741E-02 69072   0.605E-01    0.283E-01
DAV:   6    -0.304867143056E+03    0.36598E-03   -0.99185E-03 69480   0.475E-01    0.250E-01
DAV:   7    -0.304866695589E+03    0.44747E-03   -0.77953E-03 66984   0.381E-01    0.164E-01
DAV:   8    -0.304866567935E+03    0.12765E-03   -0.34932E-03 69104   0.260E-01    0.131E-01
DAV:   9    -0.304866397896E+03    0.17004E-03   -0.15909E-03 57824   0.191E-01    0.726E-02
DAV:  10    -0.304866347689E+03    0.50206E-04   -0.20316E-04 27728   0.100E-01
   8 F= -.30486635E+03 E0= -.30486209E+03  d E =-.228519E-01
 trial-energy change:   -0.022852  1 .order   -0.022686   -0.027787   -0.017584
 step:   2.1960(harm=  2.1960)  dis= 0.03246  next Energy=  -304.881335 (dE=-0.378E-01)
 bond charge predicted
       N       E                     dE             d eps       ncg     rms          rms(c)
DAV:   1    -0.304849509988E+03    0.16888E-01   -0.78667E+00 41280   0.935E+00    0.111E+00
DAV:   2    -0.304929501984E+03   -0.79992E-01   -0.85664E-01 70600   0.489E+00    0.201E+00
DAV:   3    -0.304892012385E+03    0.37490E-01   -0.36100E-01 69440   0.294E+00    0.934E-01
DAV:   4    -0.304889256575E+03    0.27558E-02   -0.10611E-01 71456   0.151E+00    0.780E-01
DAV:   5    -0.304883759962E+03    0.54966E-02   -0.51607E-02 73320   0.104E+00    0.471E-01
DAV:   6    -0.304882823596E+03    0.93637E-03   -0.28525E-02 73736   0.800E-01    0.422E-01
DAV:   7    -0.304881725336E+03    0.10983E-02   -0.23306E-02 78192   0.668E-01    0.299E-01
DAV:   8    -0.304881139773E+03    0.58556E-03   -0.10275E-02 70136   0.439E-01    0.214E-01
DAV:   9    -0.304880673525E+03    0.46625E-03   -0.41682E-03 61600   0.297E-01    0.119E-01
DAV:  10    -0.304880598530E+03    0.74994E-04   -0.10504E-03 51872   0.153E-01    0.817E-02
DAV:  11    -0.304880594770E+03    0.37601E-05   -0.23741E-04 31760   0.112E-01
   9 F= -.30488059E+03 E0= -.30487662E+03  d E =-.370990E-01
 curvature:  -1.47 expect dE=-0.557E-01 dE for cont linesearch -0.363E-04
 trial: gam= 1.11709 g(F)=  0.126E-01 g(S)=  0.253E-01 ort =-0.107E-02 (trialstep = 0.538E+00)
 search vector abs. value=  0.932E-01
 bond charge predicted
       N       E                     dE             d eps       ncg     rms          rms(c)
DAV:   1    -0.304901292038E+03   -0.20694E-01   -0.22998E+00 41560   0.607E+00    0.139E+00
DAV:   2    -0.304917171401E+03   -0.15879E-01   -0.36155E-01 71384   0.290E+00    0.134E+00
DAV:   3    -0.304919478692E+03   -0.23073E-02   -0.36017E-01 71968   0.271E+00    0.155E+00
DAV:   4    -0.304902109952E+03    0.17369E-01   -0.17002E-01 66312   0.213E+00    0.774E-01
DAV:   5    -0.304895896014E+03    0.62139E-02   -0.66242E-02 71808   0.116E+00    0.526E-01
DAV:   6    -0.304894141756E+03    0.17543E-02   -0.32766E-02 72208   0.893E-01    0.368E-01
DAV:   7    -0.304893047684E+03    0.10941E-02   -0.12923E-02 71664   0.523E-01    0.253E-01
DAV:   8    -0.304892849238E+03    0.19845E-03   -0.77754E-03 61496   0.407E-01    0.213E-01
DAV:   9    -0.304892616029E+03    0.23321E-03   -0.32860E-03 62392   0.267E-01    0.137E-01
DAV:  10    -0.304892546288E+03    0.69740E-04   -0.11771E-03 54384   0.155E-01    0.103E-01
DAV:  11    -0.304892578905E+03   -0.32617E-04   -0.65531E-04 45288   0.140E-01
  10 F= -.30489258E+03 E0= -.30488875E+03  d E =-.119841E-01
 trial-energy change:   -0.011984  1 .order   -0.012233   -0.019722   -0.004743
 step:   0.7087(harm=  0.7087)  dis= 0.01739  next Energy=  -304.893579 (dE=-0.130E-01)
 bond charge predicted
       N       E                     dE             d eps       ncg     rms          rms(c)
DAV:   1    -0.304894111077E+03   -0.15648E-02   -0.23140E-01 42456   0.192E+00    0.437E-01
DAV:   2    -0.304895660924E+03   -0.15498E-02   -0.36751E-02 71312   0.925E-01    0.438E-01
DAV:   3    -0.304895528940E+03    0.13198E-03   -0.38256E-02 71232   0.878E-01    0.472E-01
DAV:   4    -0.304893742983E+03    0.17860E-02   -0.15455E-02 58016   0.628E-01    0.227E-01
DAV:   5    -0.304893260829E+03    0.48215E-03   -0.67769E-03 61424   0.379E-01    0.174E-01
DAV:   6    -0.304893068662E+03    0.19217E-03   -0.33218E-03 63400   0.300E-01    0.107E-01
DAV:   7    -0.304892966429E+03    0.10223E-03   -0.95511E-04 55168   0.152E-01    0.658E-02
DAV:   8    -0.304892963751E+03    0.26780E-05   -0.37054E-04 36960   0.120E-01
  11 F= -.30489296E+03 E0= -.30488916E+03  d E =-.123690E-01
 curvature:  -0.90 expect dE=-0.165E-01 dE for cont linesearch -0.322E-04
 trial: gam= 0.48687 g(F)=  0.130E-01 g(S)=  0.540E-02 ort =-0.182E-02 (trialstep = 0.572E+00)
 search vector abs. value=  0.387E-01
 bond charge predicted
       N       E                     dE             d eps       ncg     rms          rms(c)
DAV:   1    -0.304899664226E+03   -0.66978E-02   -0.85630E-01 41984   0.270E+00    0.277E-01
DAV:   2    -0.304906822719E+03   -0.71585E-02   -0.67432E-02 69960   0.135E+00    0.639E-01
DAV:   3    -0.304902378639E+03    0.44441E-02   -0.31402E-02 69656   0.860E-01    0.228E-01
DAV:   4    -0.304902309623E+03    0.69016E-04   -0.64675E-03 62440   0.379E-01    0.221E-01
DAV:   5    -0.304901888849E+03    0.42077E-03   -0.30419E-03 63576   0.265E-01    0.132E-01
DAV:   6    -0.304901842619E+03    0.46230E-04   -0.17738E-03 58168   0.199E-01    0.124E-01
DAV:   7    -0.304901776165E+03    0.66454E-04   -0.17653E-03 59512   0.199E-01    0.102E-01
DAV:   8    -0.304901759780E+03    0.16385E-04   -0.14127E-03 55472   0.185E-01    0.930E-02
DAV:   9    -0.304901643978E+03    0.11580E-03   -0.61325E-04 43712   0.141E-01    0.350E-02
DAV:  10    -0.304901631688E+03    0.12290E-04   -0.10990E-04 24768   0.753E-02
  12 F= -.30490163E+03 E0= -.30489785E+03  d E =-.866794E-02
 ZBRENT: can't locate minimum, use default step
 trial-energy change:   -0.008668  1 .order   -0.008811   -0.010005   -0.007618
 step:   2.2894(harm=  2.3994)  dis= 0.04087  next Energy=  -304.913934 (dE=-0.210E-01)
 bond charge predicted
       N       E                     dE             d eps       ncg     rms          rms(c)
DAV:   1    -0.304895342683E+03    0.63013E-02   -0.76916E+00 41920   0.810E+00    0.839E-01
DAV:   2    -0.304960307224E+03   -0.64965E-01   -0.61212E-01 69488   0.411E+00    0.189E+00
DAV:   3    -0.304919907810E+03    0.40399E-01   -0.27175E-01 70160   0.247E+00    0.614E-01
DAV:   4    -0.304919745632E+03    0.16218E-03   -0.56070E-02 72504   0.109E+00    0.624E-01
DAV:   5    -0.304916163844E+03    0.35818E-02   -0.27130E-02 70288   0.765E-01    0.349E-01
DAV:   6    -0.304915885719E+03    0.27812E-03   -0.15419E-02 67816   0.556E-01    0.343E-01
DAV:   7    -0.304915475023E+03    0.41070E-03   -0.14763E-02 74032   0.543E-01    0.295E-01
DAV:   8    -0.304915090398E+03    0.38463E-03   -0.97587E-03 64888   0.454E-01    0.240E-01
DAV:   9    -0.304914399355E+03    0.69104E-03   -0.44057E-03 59400   0.321E-01    0.999E-02
DAV:  10    -0.304914324516E+03    0.74838E-04   -0.11510E-03 53520   0.155E-01    0.659E-02
DAV:  11    -0.304914298111E+03    0.26406E-04   -0.24602E-04 31160   0.109E-01
  13 F= -.30491430E+03 E0= -.30491067E+03  d E =-.213344E-01
 curvature:  -2.64 expect dE=-0.209E-01 dE for cont linesearch -0.960E-04
 trial: gam= 0.28826 g(F)=  0.768E-02 g(S)=  0.201E-03 ort = 0.118E-02 (trialstep = 0.916E+00)
 search vector abs. value=  0.118E-01
 bond charge predicted
       N       E                     dE             d eps       ncg     rms          rms(c)
DAV:   1    -0.304917497523E+03   -0.31730E-02   -0.78643E-01 42168   0.283E+00    0.286E-01
DAV:   2    -0.304923875145E+03   -0.63776E-02   -0.65648E-02 68808   0.138E+00    0.560E-01
DAV:   3    -0.304921437166E+03    0.24380E-02   -0.25563E-02 68216   0.833E-01    0.239E-01
DAV:   4    -0.304921127023E+03    0.31014E-03   -0.52460E-03 60328   0.372E-01    0.187E-01
DAV:   5    -0.304920846822E+03    0.28020E-03   -0.34802E-03 60752   0.300E-01    0.134E-01
DAV:   6    -0.304920760885E+03    0.85936E-04   -0.16292E-03 57528   0.193E-01    0.102E-01
DAV:   7    -0.304920710669E+03    0.50216E-04   -0.10104E-03 48472   0.178E-01    0.807E-02
DAV:   8    -0.304920638045E+03    0.72624E-04   -0.68065E-04 44712   0.137E-01
  14 F= -.30492064E+03 E0= -.30491712E+03  d E =-.633993E-02
 trial-energy change:   -0.006340  1 .order   -0.006568   -0.007534   -0.005602
 step:   3.5708(harm=  3.5708)  dis= 0.03662  next Energy=  -304.928986 (dE=-0.147E-01)
 bond charge predicted
       N       E                     dE             d eps       ncg     rms          rms(c)
DAV:   1    -0.304901302008E+03    0.19409E-01   -0.65984E+00 42328   0.817E+00    0.822E-01
DAV:   2    -0.304954798019E+03   -0.53496E-01   -0.55103E-01 68816   0.402E+00    0.162E+00
DAV:   3    -0.304933591399E+03    0.21207E-01   -0.21146E-01 68600   0.235E+00    0.684E-01
DAV:   4    -0.304931531678E+03    0.20597E-02   -0.48423E-02 69760   0.110E+00    0.564E-01
DAV:   5    -0.304928850449E+03    0.26812E-02   -0.30891E-02 65480   0.859E-01    0.393E-01
DAV:   6    -0.304928006179E+03    0.84427E-03   -0.14142E-02 72488   0.531E-01    0.281E-01
DAV:   7    -0.304927838353E+03    0.16783E-03   -0.91184E-03 69736   0.466E-01    0.257E-01
DAV:   8    -0.304927148543E+03    0.68981E-03   -0.69366E-03 69640   0.360E-01    0.140E-01
DAV:   9    -0.304926929980E+03    0.21856E-03   -0.23436E-03 63272   0.220E-01    0.881E-02
DAV:  10    -0.304926882504E+03    0.47476E-04   -0.78312E-04 48328   0.136E-01
  15 F= -.30492688E+03 E0= -.30492372E+03  d E =-.125844E-01
 curvature:  -2.56 expect dE=-0.340E-01 dE for cont linesearch -0.200E-03
 trial: gam= 1.89405 g(F)=  0.741E-02 g(S)=  0.588E-02 ort =-0.959E-03 (trialstep = 0.328E+00)
 search vector abs. value=  0.519E-01
 bond charge predicted
       N       E                     dE             d eps       ncg     rms          rms(c)
DAV:   1    -0.304929864934E+03   -0.29350E-02   -0.39476E-01 41296   0.218E+00    0.411E-01
DAV:   2    -0.304932213168E+03   -0.23482E-02   -0.43207E-02 70968   0.996E-01    0.430E-01
DAV:   3    -0.304932032516E+03    0.18065E-03   -0.31458E-02 72264   0.822E-01    0.427E-01
DAV:   4    -0.304930801136E+03    0.12314E-02   -0.14013E-02 60720   0.588E-01    0.250E-01
DAV:   5    -0.304930143265E+03    0.65787E-03   -0.69176E-03 65792   0.359E-01    0.171E-01
DAV:   6    -0.304930036792E+03    0.10647E-03   -0.41120E-03 59776   0.322E-01    0.157E-01
DAV:   7    -0.304929865922E+03    0.17087E-03   -0.21477E-03 62016   0.229E-01    0.819E-02
DAV:   8    -0.304929787223E+03    0.78698E-04   -0.63198E-04 43304   0.121E-01
  16 F= -.30492979E+03 E0= -.30492670E+03  d E =-.290472E-02
 trial-energy change:   -0.002905  1 .order   -0.002907   -0.003767   -0.002047
 step:   0.7192(harm=  0.7192)  dis= 0.01576  next Energy=  -304.931008 (dE=-0.413E-02)
 bond charge predicted
       N       E                     dE             d eps       ncg     rms          rms(c)
DAV:   1    -0.304930960510E+03   -0.10946E-02   -0.56074E-01 41288   0.262E+00    0.469E-01
DAV:   2    -0.304934190623E+03   -0.32301E-02   -0.56391E-02 70104   0.109E+00    0.476E-01
DAV:   3    -0.304934269120E+03   -0.78497E-04   -0.41884E-02 71624   0.935E-01    0.517E-01
DAV:   4    -0.304932365313E+03    0.19038E-02   -0.18345E-02 61024   0.665E-01    0.276E-01
DAV:   5    -0.304931641266E+03    0.72405E-03   -0.91548E-03 68792   0.432E-01    0.207E-01
DAV:   6    -0.304931320544E+03    0.32072E-03   -0.49978E-03 60232   0.365E-01    0.146E-01
DAV:   7    -0.304931229138E+03    0.91406E-04   -0.21853E-03 60976   0.228E-01    0.109E-01
DAV:   8    -0.304931124731E+03    0.10441E-03   -0.82226E-04 47688   0.157E-01    0.609E-02
DAV:   9    -0.304931104218E+03    0.20513E-04   -0.17480E-04 25944   0.924E-02
  17 F= -.30493110E+03 E0= -.30492807E+03  d E =-.422171E-02
 curvature:  -1.63 expect dE=-0.149E-01 dE for cont linesearch -0.464E-04
 trial: gam= 0.35278 g(F)=  0.766E-02 g(S)=  0.151E-02 ort = 0.122E-02 (trialstep = 0.406E+00)
 search vector abs. value=  0.165E-01
 bond charge predicted
       N       E                     dE             d eps       ncg     rms          rms(c)
DAV:   1    -0.304933636789E+03   -0.25121E-02   -0.23736E-01 41296   0.156E+00    0.172E-01
DAV:   2    -0.304935531628E+03   -0.18948E-02   -0.21397E-02 71312   0.706E-01    0.259E-01
DAV:   3    -0.304934861109E+03    0.67052E-03   -0.77948E-03 72296   0.393E-01    0.149E-01
DAV:   4    -0.304934792165E+03    0.68944E-04   -0.24782E-03 60568   0.229E-01    0.132E-01
DAV:   5    -0.304934639625E+03    0.15254E-03   -0.12814E-03 54704   0.165E-01    0.777E-02
DAV:   6    -0.304934634140E+03    0.54844E-05   -0.67088E-04 43488   0.136E-01
  18 F= -.30493463E+03 E0= -.30493161E+03  d E =-.352992E-02
 ZBRENT: can't locate minimum, use default step
 trial-energy change:   -0.003530  1 .order   -0.003538   -0.003901   -0.003176
 step:   1.6259(harm=  2.1874)  dis= 0.01386  next Energy=  -304.941600 (dE=-0.105E-01)
 bond charge predicted
       N       E                     dE             d eps       ncg     rms          rms(c)
DAV:   1    -0.304931131003E+03    0.35086E-02   -0.21304E+00 41280   0.464E+00    0.492E-01
DAV:   2    -0.304947626070E+03   -0.16495E-01   -0.18301E-01 70624   0.204E+00    0.725E-01
DAV:   3    -0.304941534113E+03    0.60920E-02   -0.60453E-02 73584   0.106E+00    0.392E-01
DAV:   4    -0.304941532383E+03    0.17293E-05   -0.20179E-02 65720   0.670E-01    0.399E-01
DAV:   5    -0.304939955111E+03    0.15773E-02   -0.10556E-02 67720   0.482E-01    0.203E-01
DAV:   6    -0.304940014822E+03   -0.59710E-04   -0.68409E-03 68648   0.365E-01    0.224E-01
DAV:   7    -0.304939740013E+03    0.27481E-03   -0.59460E-03 59520   0.364E-01    0.162E-01
DAV:   8    -0.304939503699E+03    0.23631E-03   -0.28452E-03 59664   0.244E-01    0.920E-02
DAV:   9    -0.304939421144E+03    0.82554E-04   -0.75868E-04 45712   0.152E-01
  19 F= -.30493942E+03 E0= -.30493623E+03  d E =-.831693E-02
 curvature:  -1.69 expect dE=-0.774E-02 dE for cont linesearch -0.273E-04
 trial: gam= 0.60935 g(F)=  0.327E-02 g(S)=  0.131E-02 ort = 0.516E-03 (trialstep = 0.650E+00)
 search vector abs. value=  0.113E-01
 bond charge predicted
       N       E                     dE             d eps       ncg     rms          rms(c)
DAV:   1    -0.304940981628E+03   -0.14779E-02   -0.39254E-01 41288   0.216E+00    0.375E-01
DAV:   2    -0.304943083360E+03   -0.21017E-02   -0.40926E-02 69512   0.896E-01    0.322E-01
DAV:   3    -0.304943544175E+03   -0.46081E-03   -0.26328E-02 72064   0.717E-01    0.403E-01
DAV:   4    -0.304942099696E+03    0.14445E-02   -0.10906E-02 58800   0.520E-01    0.186E-01
DAV:   5    -0.304941838574E+03    0.26112E-03   -0.50240E-03 64472   0.305E-01    0.162E-01
DAV:   6    -0.304941754072E+03    0.84502E-04   -0.32651E-03 61648   0.285E-01    0.139E-01
DAV:   7    -0.304941568115E+03    0.18596E-03   -0.13948E-03 56184   0.189E-01    0.703E-02
DAV:   8    -0.304941567577E+03    0.53814E-06   -0.83128E-04 48048   0.159E-01
  20 F= -.30494157E+03 E0= -.30493831E+03  d E =-.214643E-02
 trial-energy change:   -0.002146  1 .order   -0.002240   -0.003178   -0.001301
 step:   1.1011(harm=  1.1011)  dis= 0.00625  next Energy=  -304.942112 (dE=-0.269E-02)
 bond charge predicted
       N       E                     dE             d eps       ncg     rms          rms(c)
DAV:   1    -0.304941741289E+03   -0.17317E-03   -0.18917E-01 41320   0.151E+00    0.246E-01
DAV:   2    -0.304942915749E+03   -0.11745E-02   -0.19076E-02 69600   0.632E-01    0.248E-01
DAV:   3    -0.304942939011E+03   -0.23262E-04   -0.11999E-02 68832   0.515E-01    0.272E-01
DAV:   4    -0.304942365291E+03    0.57372E-03   -0.49108E-03 58176   0.364E-01    0.133E-01
DAV:   5    -0.304942230286E+03    0.13500E-03   -0.22814E-03 60368   0.225E-01    0.112E-01
DAV:   6    -0.304942127569E+03    0.10272E-03   -0.11950E-03 52872   0.179E-01    0.689E-02
DAV:   7    -0.304942083812E+03    0.43757E-04   -0.29378E-04 32976   0.115E-01
  21 F= -.30494208E+03 E0= -.30493885E+03  d E =-.266267E-02
 curvature:  -1.28 expect dE=-0.606E-02 dE for cont linesearch -0.960E-04
 trial: gam= 0.87107 g(F)=  0.243E-02 g(S)=  0.232E-02 ort = 0.923E-03 (trialstep = 0.561E+00)
 search vector abs. value=  0.150E-01
 bond charge predicted
       N       E                     dE             d eps       ncg     rms          rms(c)
DAV:   1    -0.304943419340E+03   -0.12918E-02   -0.39370E-01 41296   0.212E+00    0.311E-01
DAV:   2    -0.304946217316E+03   -0.27980E-02   -0.41216E-02 70208   0.103E+00    0.376E-01
DAV:   3    -0.304945619566E+03    0.59775E-03   -0.19124E-02 67288   0.704E-01    0.289E-01
DAV:   4    -0.304945062168E+03    0.55740E-03   -0.85053E-03 63336   0.413E-01    0.186E-01
DAV:   5    -0.304944749094E+03    0.31307E-03   -0.41366E-03 62000   0.301E-01    0.139E-01
DAV:   6    -0.304944655655E+03    0.93439E-04   -0.23221E-03 60400   0.239E-01    0.101E-01
DAV:   7    -0.304944585718E+03    0.69937E-04   -0.11233E-03 52288   0.164E-01    0.767E-02
DAV:   8    -0.304944565974E+03    0.19744E-04   -0.71026E-04 45136   0.154E-01
  22 F= -.30494457E+03 E0= -.30494136E+03  d E =-.248216E-02
 trial-energy change:   -0.002482  1 .order   -0.002599   -0.003116   -0.002083
 step:   1.6923(harm=  1.6923)  dis= 0.01171  next Energy=  -304.946785 (dE=-0.470E-02)
 bond charge predicted
       N       E                     dE             d eps       ncg     rms          rms(c)
DAV:   1    -0.304940567878E+03    0.40178E-02   -0.15957E+00 41280   0.424E+00    0.580E-01
DAV:   2    -0.304951790106E+03   -0.11222E-01   -0.15748E-01 69472   0.206E+00    0.723E-01
DAV:   3    -0.304948734588E+03    0.30555E-02   -0.64982E-02 67904   0.129E+00    0.470E-01
DAV:   4    -0.304947258356E+03    0.14762E-02   -0.26187E-02 68608   0.702E-01    0.327E-01
DAV:   5    -0.304946367699E+03    0.89066E-03   -0.13245E-02 67272   0.533E-01    0.271E-01
DAV:   6    -0.304945957582E+03    0.41012E-03   -0.81655E-03 66472   0.424E-01    0.184E-01
DAV:   7    -0.304945803198E+03    0.15438E-03   -0.41525E-03 65848   0.285E-01    0.150E-01
DAV:   8    -0.304945672890E+03    0.13031E-03   -0.20651E-03 60576   0.226E-01    0.972E-02
DAV:   9    -0.304945571679E+03    0.10121E-03   -0.32104E-04 34112   0.120E-01    0.553E-02
DAV:  10    -0.304945580236E+03   -0.85567E-05   -0.18821E-04 26808   0.905E-02
  23 F= -.30494558E+03 E0= -.30494238E+03  d E =-.349642E-02
 curvature:  -2.28 expect dE=-0.122E-01 dE for cont linesearch -0.196E-03
 trial: gam= 0.00000 g(F)=  0.231E-02 g(S)=  0.306E-02 ort =-0.114E-02 (trialstep = 0.787E+00)
 search vector abs. value=  0.537E-02
 bond charge predicted
       N       E                     dE             d eps       ncg     rms          rms(c)
DAV:   1    -0.304953708365E+03   -0.81367E-02   -0.47978E-01 57232   0.329E+00    0.820E-01
DAV:   2    -0.304956681688E+03   -0.29733E-02   -0.11974E-01 76848   0.155E+00    0.755E-01
DAV:   3    -0.304954699688E+03    0.19820E-02   -0.11684E-01 73208   0.134E+00    0.777E-01
DAV:   4    -0.304950734877E+03    0.39648E-02   -0.54366E-02 65792   0.115E+00    0.516E-01
DAV:   5    -0.304948282950E+03    0.24519E-02   -0.27531E-02 70424   0.738E-01    0.332E-01
DAV:   6    -0.304947690298E+03    0.59265E-03   -0.16201E-02 66360   0.605E-01    0.269E-01
DAV:   7    -0.304947177098E+03    0.51320E-03   -0.75458E-03 63560   0.410E-01    0.162E-01
DAV:   8    -0.304947038207E+03    0.13889E-03   -0.30208E-03 61336   0.263E-01    0.110E-01
DAV:   9    -0.304946930997E+03    0.10721E-03   -0.62770E-04 41712   0.146E-01    0.622E-02
DAV:  10    -0.304946905228E+03    0.25769E-04   -0.15256E-04 25080   0.702E-02
  24 F= -.30494691E+03 E0= -.30494378E+03  d E =-.132499E-02
 trial-energy change:   -0.001325  1 .order   -0.001313   -0.004225    0.001599
 step:   0.5710(harm=  0.5710)  dis= 0.00154  next Energy=  -304.947113 (dE=-0.153E-02)
 bond charge predicted
       N       E                     dE             d eps       ncg     rms          rms(c)
DAV:   1    -0.304947749272E+03   -0.81827E-03   -0.36204E-02 57368   0.902E-01    0.244E-01
DAV:   2    -0.304947979683E+03   -0.23041E-03   -0.10477E-02 78352   0.421E-01    0.210E-01
DAV:   3    -0.304947762448E+03    0.21723E-03   -0.91470E-03 64408   0.339E-01    0.205E-01
DAV:   4    -0.304947534498E+03    0.22795E-03   -0.46142E-03 63344   0.319E-01    0.165E-01
DAV:   5    -0.304947313077E+03    0.22142E-03   -0.24960E-03 60896   0.231E-01    0.104E-01
DAV:   6    -0.304947270695E+03    0.42382E-04   -0.15345E-03 53640   0.199E-01    0.943E-02
DAV:   7    -0.304947191278E+03    0.79417E-04   -0.74118E-04 46768   0.155E-01
  25 F= -.30494719E+03 E0= -.30494406E+03  d E =-.161104E-02
 curvature:  -0.29 expect dE=-0.599E-03 dE for cont linesearch -0.104E-05
 trial: gam= 0.41710 g(F)=  0.114E-02 g(S)=  0.960E-03 ort =-0.140E-03 (trialstep = 0.744E+00)
 search vector abs. value=  0.292E-02
 bond charge predicted
       N       E                     dE             d eps       ncg     rms          rms(c)
DAV:   1    -0.304947302533E+03   -0.31838E-04   -0.18984E-01 42664   0.149E+00    0.147E-01
DAV:   2    -0.304949156855E+03   -0.18543E-02   -0.18314E-02 70504   0.682E-01    0.268E-01
DAV:   3    -0.304948385129E+03    0.77173E-03   -0.64764E-03 74736   0.363E-01    0.104E-01
DAV:   4    -0.304948403016E+03   -0.17887E-04   -0.15886E-03 56216   0.193E-01    0.119E-01
DAV:   5    -0.304948273891E+03    0.12913E-03   -0.96587E-04 49200   0.167E-01    0.640E-02
DAV:   6    -0.304948259679E+03    0.14212E-04   -0.42007E-04 39264   0.110E-01
  26 F= -.30494826E+03 E0= -.30494523E+03  d E =-.106840E-02
 trial-energy change:   -0.001068  1 .order   -0.001188   -0.001518   -0.000858
 step:   1.7104(harm=  1.7104)  dis= 0.00527  next Energy=  -304.948936 (dE=-0.175E-02)
 bond charge predicted
       N       E                     dE             d eps       ncg     rms          rms(c)
DAV:   1    -0.304946845116E+03    0.14288E-02   -0.31785E-01 42776   0.193E+00    0.190E-01
DAV:   2    -0.304949555360E+03   -0.27102E-02   -0.28986E-02 69920   0.825E-01    0.319E-01
DAV:   3    -0.304948658622E+03    0.89674E-03   -0.10693E-02 74224   0.462E-01    0.154E-01
DAV:   4    -0.304948605763E+03    0.52858E-04   -0.26848E-03 59808   0.253E-01    0.145E-01
DAV:   5    -0.304948398376E+03    0.20739E-03   -0.15345E-03 56056   0.188E-01    0.779E-02
DAV:   6    -0.304948437266E+03   -0.38890E-04   -0.98778E-04 51376   0.163E-01
  27 F= -.30494844E+03 E0= -.30494553E+03  d E =-.124599E-02
 curvature:  -1.22 expect dE=-0.176E-02 dE for cont linesearch -0.596E-04
 trial: gam= 0.00000 g(F)=  0.128E-02 g(S)=  0.158E-03 ort =-0.377E-03 (trialstep = 0.937E+00)
 search vector abs. value=  0.144E-02
 bond charge predicted
       N       E                     dE             d eps       ncg     rms          rms(c)
DAV:   1    -0.304948874176E+03   -0.47580E-03   -0.15259E-01 41336   0.141E+00    0.262E-01
DAV:   2    -0.304950452190E+03   -0.15780E-02   -0.23028E-02 71112   0.683E-01    0.318E-01
DAV:   3    -0.304949855557E+03    0.59663E-03   -0.17439E-02 69864   0.572E-01    0.254E-01
DAV:   4    -0.304949461640E+03    0.39392E-03   -0.50807E-03 60168   0.354E-01    0.154E-01
DAV:   5    -0.304949176069E+03    0.28557E-03   -0.24918E-03 63152   0.212E-01    0.875E-02
DAV:   6    -0.304949147512E+03    0.28557E-04   -0.12011E-03 53240   0.174E-01    0.881E-02
DAV:   7    -0.304949076291E+03    0.71221E-04   -0.55261E-04 41680   0.140E-01
  28 F= -.30494908E+03 E0= -.30494621E+03  d E =-.639025E-03
 trial-energy change:   -0.000639  1 .order   -0.000821   -0.001349   -0.000293
 step:   1.1976(harm=  1.1976)  dis= 0.00269  next Energy=  -304.949299 (dE=-0.862E-03)
 bond charge predicted
       N       E                     dE             d eps       ncg     rms          rms(c)
DAV:   1    -0.304949046359E+03    0.10115E-03   -0.11396E-02 43424   0.392E-01    0.714E-02
DAV:   2    -0.304949369478E+03   -0.32312E-03   -0.26021E-03 69824   0.283E-01    0.161E-01
DAV:   3    -0.304949102039E+03    0.26744E-03   -0.17137E-03 55024   0.214E-01    0.569E-02
DAV:   4    -0.304949080895E+03    0.21144E-04   -0.28777E-04 34704   0.920E-02
  29 F= -.30494908E+03 E0= -.30494624E+03  d E =-.643629E-03
 curvature:  -0.60 expect dE=-0.871E-03 dE for cont linesearch -0.111E-04
 trial: gam= 1.12376 g(F)=  0.416E-03 g(S)=  0.104E-02 ort =-0.163E-03 (trialstep = 0.490E+00)
 search vector abs. value=  0.290E-02
 reached required accuracy - stopping structural energy minimisation
 writing wavefunctions
VASP is done!
