<?xml version="1.0" encoding="ISO-8859-1"?>
<modeling>
 <generator>
  <i name="program" type="string">vasp </i>
  <i name="version" type="string">5.4.4.18Apr17-6-g9f103f2a35  </i>
  <i name="subversion" type="string">(build Aug 09 2018 16:20:53) complex            parallel </i>
  <i name="platform" type="string">LinuxIFC </i>
  <i name="date" type="string">2020 05 01 </i>
  <i name="time" type="string">22:23:05 </i>
 </generator>
 <incar>
  <i type="string" name="SYSTEM"> Nb - Mo - Ta - Ti - V SQS</i>
  <i type="string" name="PREC">normal</i>
  <i type="int" name="ICHARG">     0</i>
  <i type="int" name="IBRION">     2</i>
  <i type="int" name="NSW">    50</i>
  <i type="int" name="ISIF">     3</i>
  <i name="ENCUT">    600.00000000</i>
  <i type="string" name="LREAL"> Auto</i>
  <i type="int" name="ISMEAR">     1</i>
  <i name="SIGMA">      0.20000000</i>
  <v type="int" name="KPOINT_BSE">    -1     0     0     0</v>
  <i type="string" name="GGA"> PS</i>
 </incar>
 <structure name="primitive_cell" >
  <crystal>
   <varray name="basis" >
    <v>      -3.16000000      -3.16000000      -3.16000000 </v>
    <v>       1.58000000       1.58000000      -7.90000000 </v>
    <v>       7.90000000      -7.90000000      -1.58000000 </v>
   </varray>
   <i name="volume">    473.31744000 </i>
   <varray name="rec_basis" >
    <v>      -0.13713080      -0.12658228      -0.05274262 </v>
    <v>       0.04219409       0.06329114      -0.10548523 </v>
    <v>       0.06329114      -0.06329114       0.00000000 </v>
   </varray>
  </crystal>
  <varray name="positions" >
   <v>      -0.03333333      -0.06666667       0.40000000 </v>
   <v>       0.30000000      -0.40000000       0.40000000 </v>
   <v>      -0.10000000      -0.20000000       0.20000000 </v>
   <v>       0.06666667       0.13333333       0.20000000 </v>
   <v>       0.46666667      -0.06666667       0.40000000 </v>
   <v>      -0.13333333      -0.26666667      -0.40000000 </v>
   <v>       0.03333333       0.06666667      -0.40000000 </v>
   <v>      -0.36666667       0.26666667       0.40000000 </v>
   <v>       0.40000000      -0.20000000       0.20000000 </v>
   <v>      -0.20000000      -0.40000000       0.40000000 </v>
   <v>      -0.43333333       0.13333333       0.20000000 </v>
   <v>       0.36666667      -0.26666667      -0.40000000 </v>
   <v>       0.13333333       0.26666667       0.40000000 </v>
   <v>      -0.46666667       0.06666667      -0.40000000 </v>
   <v>       0.23333333       0.46666667       0.20000000 </v>
   <v>       0.20000000       0.40000000      -0.40000000 </v>
   <v>       0.00000000       0.00000000       0.00000000 </v>
   <v>      -0.06666667      -0.13333333      -0.20000000 </v>
   <v>      -0.30000000       0.40000000      -0.40000000 </v>
   <v>       0.33333333      -0.33333333       0.00000000 </v>
   <v>       0.43333333      -0.13333333      -0.20000000 </v>
   <v>      -0.50000000       0.00000000       0.00000000 </v>
   <v>       0.26666667      -0.46666667      -0.20000000 </v>
   <v>      -0.33333333       0.33333333       0.00000000 </v>
   <v>      -0.40000000       0.20000000      -0.20000000 </v>
   <v>      -0.16666667      -0.33333333       0.00000000 </v>
   <v>      -0.23333333      -0.46666667      -0.20000000 </v>
   <v>       0.16666667       0.33333333       0.00000000 </v>
   <v>       0.10000000       0.20000000      -0.20000000 </v>
  </varray>
 </structure>
 <varray name="primitive_index" >
  <v type="int" >        1 </v>
  <v type="int" >       17 </v>
  <v type="int" >        7 </v>
  <v type="int" >       23 </v>
  <v type="int" >       19 </v>
  <v type="int" >       18 </v>
  <v type="int" >        6 </v>
  <v type="int" >        2 </v>
  <v type="int" >       15 </v>
  <v type="int" >        8 </v>
  <v type="int" >       14 </v>
  <v type="int" >       10 </v>
  <v type="int" >       11 </v>
  <v type="int" >       27 </v>
  <v type="int" >       29 </v>
  <v type="int" >       22 </v>
  <v type="int" >        4 </v>
  <v type="int" >       13 </v>
  <v type="int" >       25 </v>
  <v type="int" >       28 </v>
  <v type="int" >       16 </v>
  <v type="int" >        3 </v>
  <v type="int" >       21 </v>
  <v type="int" >        9 </v>
  <v type="int" >       26 </v>
  <v type="int" >       12 </v>
  <v type="int" >       24 </v>
  <v type="int" >       20 </v>
  <v type="int" >        5 </v>
 </varray>
 <kpoints>
  <generation param="Gamma">
   <v type="int" name="divisions">       7        7        7 </v>
   <v name="usershift">      0.00000000       0.00000000       0.00000000 </v>
   <v name="genvec1">      0.14285714       0.00000000       0.00000000 </v>
   <v name="genvec2">     -0.00000000       0.14285714       0.00000000 </v>
   <v name="genvec3">      0.00000000       0.00000000       0.14285714 </v>
   <v name="shift">      0.00000000       0.00000000       0.00000000 </v>
  </generation>
  <varray name="kpointlist" >
   <v>       0.00000000       0.00000000       0.00000000 </v>
   <v>       0.14285714       0.00000000      -0.00000000 </v>
   <v>       0.28571429       0.00000000       0.00000000 </v>
   <v>       0.42857143       0.00000000      -0.00000000 </v>
   <v>      -0.00000000       0.14285714       0.00000000 </v>
   <v>       0.14285714       0.14285714      -0.00000000 </v>
   <v>       0.28571429       0.14285714       0.00000000 </v>
   <v>       0.42857143       0.14285714      -0.00000000 </v>
   <v>      -0.42857143       0.14285714       0.00000000 </v>
   <v>      -0.28571429       0.14285714       0.00000000 </v>
   <v>      -0.14285714       0.14285714       0.00000000 </v>
   <v>       0.00000000       0.28571429      -0.00000000 </v>
   <v>       0.14285714       0.28571429      -0.00000000 </v>
   <v>       0.28571429       0.28571429      -0.00000000 </v>
   <v>       0.42857143       0.28571429      -0.00000000 </v>
   <v>      -0.42857143       0.28571429      -0.00000000 </v>
   <v>      -0.28571429       0.28571429      -0.00000000 </v>
   <v>      -0.14285714       0.28571429      -0.00000000 </v>
   <v>      -0.00000000       0.42857143      -0.00000000 </v>
   <v>       0.14285714       0.42857143       0.00000000 </v>
   <v>       0.28571429       0.42857143       0.00000000 </v>
   <v>       0.42857143       0.42857143      -0.00000000 </v>
   <v>      -0.42857143       0.42857143       0.00000000 </v>
   <v>      -0.28571429       0.42857143      -0.00000000 </v>
   <v>      -0.14285714       0.42857143      -0.00000000 </v>
   <v>       0.00000000       0.00000000       0.14285714 </v>
   <v>       0.14285714       0.00000000       0.14285714 </v>
   <v>       0.28571429       0.00000000       0.14285714 </v>
   <v>       0.42857143       0.00000000       0.14285714 </v>
   <v>      -0.42857143       0.00000000       0.14285714 </v>
   <v>      -0.28571429       0.00000000       0.14285714 </v>
   <v>      -0.14285714      -0.00000000       0.14285714 </v>
   <v>      -0.00000000       0.14285714       0.14285714 </v>
   <v>       0.14285714       0.14285714       0.14285714 </v>
   <v>       0.28571429       0.14285714       0.14285714 </v>
   <v>       0.42857143       0.14285714       0.14285714 </v>
   <v>      -0.42857143       0.14285714       0.14285714 </v>
   <v>      -0.28571429       0.14285714       0.14285714 </v>
   <v>      -0.14285714       0.14285714       0.14285714 </v>
   <v>      -0.00000000       0.28571429       0.14285714 </v>
   <v>       0.14285714       0.28571429       0.14285714 </v>
   <v>       0.28571429       0.28571429       0.14285714 </v>
   <v>       0.42857143       0.28571429       0.14285714 </v>
   <v>      -0.42857143       0.28571429       0.14285714 </v>
   <v>      -0.28571429       0.28571429       0.14285714 </v>
   <v>      -0.14285714       0.28571429       0.14285714 </v>
   <v>       0.00000000       0.42857143       0.14285714 </v>
   <v>       0.14285714       0.42857143       0.14285714 </v>
   <v>       0.28571429       0.42857143       0.14285714 </v>
   <v>       0.42857143       0.42857143       0.14285714 </v>
   <v>      -0.42857143       0.42857143       0.14285714 </v>
   <v>      -0.28571429       0.42857143       0.14285714 </v>
   <v>      -0.14285714       0.42857143       0.14285714 </v>
   <v>       0.00000000      -0.42857143       0.14285714 </v>
   <v>       0.14285714      -0.42857143       0.14285714 </v>
   <v>       0.28571429      -0.42857143       0.14285714 </v>
   <v>       0.42857143      -0.42857143       0.14285714 </v>
   <v>      -0.42857143      -0.42857143       0.14285714 </v>
   <v>      -0.28571429      -0.42857143       0.14285714 </v>
   <v>      -0.14285714      -0.42857143       0.14285714 </v>
   <v>       0.00000000      -0.28571429       0.14285714 </v>
   <v>       0.14285714      -0.28571429       0.14285714 </v>
   <v>       0.28571429      -0.28571429       0.14285714 </v>
   <v>       0.42857143      -0.28571429       0.14285714 </v>
   <v>      -0.42857143      -0.28571429       0.14285714 </v>
   <v>      -0.28571429      -0.28571429       0.14285714 </v>
   <v>      -0.14285714      -0.28571429       0.14285714 </v>
   <v>       0.00000000      -0.14285714       0.14285714 </v>
   <v>       0.14285714      -0.14285714       0.14285714 </v>
   <v>       0.28571429      -0.14285714       0.14285714 </v>
   <v>       0.42857143      -0.14285714       0.14285714 </v>
   <v>      -0.42857143      -0.14285714       0.14285714 </v>
   <v>      -0.28571429      -0.14285714       0.14285714 </v>
   <v>      -0.14285714      -0.14285714       0.14285714 </v>
   <v>       0.00000000       0.00000000       0.28571429 </v>
   <v>       0.14285714       0.00000000       0.28571429 </v>
   <v>       0.28571429       0.00000000       0.28571429 </v>
   <v>       0.42857143       0.00000000       0.28571429 </v>
   <v>      -0.42857143      -0.00000000       0.28571429 </v>
   <v>      -0.28571429      -0.00000000       0.28571429 </v>
   <v>      -0.14285714      -0.00000000       0.28571429 </v>
   <v>      -0.00000000       0.14285714       0.28571429 </v>
   <v>       0.14285714       0.14285714       0.28571429 </v>
   <v>       0.28571429       0.14285714       0.28571429 </v>
   <v>       0.42857143       0.14285714       0.28571429 </v>
   <v>      -0.42857143       0.14285714       0.28571429 </v>
   <v>      -0.28571429       0.14285714       0.28571429 </v>
   <v>      -0.14285714       0.14285714       0.28571429 </v>
   <v>      -0.00000000       0.28571429       0.28571429 </v>
   <v>       0.14285714       0.28571429       0.28571429 </v>
   <v>       0.28571429       0.28571429       0.28571429 </v>
   <v>       0.42857143       0.28571429       0.28571429 </v>
   <v>      -0.42857143       0.28571429       0.28571429 </v>
   <v>      -0.28571429       0.28571429       0.28571429 </v>
   <v>      -0.14285714       0.28571429       0.28571429 </v>
   <v>       0.00000000       0.42857143       0.28571429 </v>
   <v>       0.14285714       0.42857143       0.28571429 </v>
   <v>       0.28571429       0.42857143       0.28571429 </v>
   <v>       0.42857143       0.42857143       0.28571429 </v>
   <v>      -0.42857143       0.42857143       0.28571429 </v>
   <v>      -0.28571429       0.42857143       0.28571429 </v>
   <v>      -0.14285714       0.42857143       0.28571429 </v>
   <v>      -0.00000000      -0.42857143       0.28571429 </v>
   <v>       0.14285714      -0.42857143       0.28571429 </v>
   <v>       0.28571429      -0.42857143       0.28571429 </v>
   <v>       0.42857143      -0.42857143       0.28571429 </v>
   <v>      -0.42857143      -0.42857143       0.28571429 </v>
   <v>      -0.28571429      -0.42857143       0.28571429 </v>
   <v>      -0.14285714      -0.42857143       0.28571429 </v>
   <v>       0.00000000      -0.28571429       0.28571429 </v>
   <v>       0.14285714      -0.28571429       0.28571429 </v>
   <v>       0.28571429      -0.28571429       0.28571429 </v>
   <v>       0.42857143      -0.28571429       0.28571429 </v>
   <v>      -0.42857143      -0.28571429       0.28571429 </v>
   <v>      -0.28571429      -0.28571429       0.28571429 </v>
   <v>      -0.14285714      -0.28571429       0.28571429 </v>
   <v>       0.00000000      -0.14285714       0.28571429 </v>
   <v>       0.14285714      -0.14285714       0.28571429 </v>
   <v>       0.28571429      -0.14285714       0.28571429 </v>
   <v>       0.42857143      -0.14285714       0.28571429 </v>
   <v>      -0.42857143      -0.14285714       0.28571429 </v>
   <v>      -0.28571429      -0.14285714       0.28571429 </v>
   <v>      -0.14285714      -0.14285714       0.28571429 </v>
   <v>       0.00000000       0.00000000       0.42857143 </v>
   <v>       0.14285714       0.00000000       0.42857143 </v>
   <v>       0.28571429       0.00000000       0.42857143 </v>
   <v>       0.42857143      -0.00000000       0.42857143 </v>
   <v>      -0.42857143      -0.00000000       0.42857143 </v>
   <v>      -0.28571429       0.00000000       0.42857143 </v>
   <v>      -0.14285714      -0.00000000       0.42857143 </v>
   <v>      -0.00000000       0.14285714       0.42857143 </v>
   <v>       0.14285714       0.14285714       0.42857143 </v>
   <v>       0.28571429       0.14285714       0.42857143 </v>
   <v>       0.42857143       0.14285714       0.42857143 </v>
   <v>      -0.42857143       0.14285714       0.42857143 </v>
   <v>      -0.28571429       0.14285714       0.42857143 </v>
   <v>      -0.14285714       0.14285714       0.42857143 </v>
   <v>       0.00000000       0.28571429       0.42857143 </v>
   <v>       0.14285714       0.28571429       0.42857143 </v>
   <v>       0.28571429       0.28571429       0.42857143 </v>
   <v>       0.42857143       0.28571429       0.42857143 </v>
   <v>      -0.42857143       0.28571429       0.42857143 </v>
   <v>      -0.28571429       0.28571429       0.42857143 </v>
   <v>      -0.14285714       0.28571429       0.42857143 </v>
   <v>       0.00000000       0.42857143       0.42857143 </v>
   <v>       0.14285714       0.42857143       0.42857143 </v>
   <v>       0.28571429       0.42857143       0.42857143 </v>
   <v>       0.42857143       0.42857143       0.42857143 </v>
   <v>      -0.42857143       0.42857143       0.42857143 </v>
   <v>      -0.28571429       0.42857143       0.42857143 </v>
   <v>      -0.14285714       0.42857143       0.42857143 </v>
   <v>       0.00000000      -0.42857143       0.42857143 </v>
   <v>       0.14285714      -0.42857143       0.42857143 </v>
   <v>       0.28571429      -0.42857143       0.42857143 </v>
   <v>       0.42857143      -0.42857143       0.42857143 </v>
   <v>      -0.42857143      -0.42857143       0.42857143 </v>
   <v>      -0.28571429      -0.42857143       0.42857143 </v>
   <v>      -0.14285714      -0.42857143       0.42857143 </v>
   <v>      -0.00000000      -0.28571429       0.42857143 </v>
   <v>       0.14285714      -0.28571429       0.42857143 </v>
   <v>       0.28571429      -0.28571429       0.42857143 </v>
   <v>       0.42857143      -0.28571429       0.42857143 </v>
   <v>      -0.42857143      -0.28571429       0.42857143 </v>
   <v>      -0.28571429      -0.28571429       0.42857143 </v>
   <v>      -0.14285714      -0.28571429       0.42857143 </v>
   <v>       0.00000000      -0.14285714       0.42857143 </v>
   <v>       0.14285714      -0.14285714       0.42857143 </v>
   <v>       0.28571429      -0.14285714       0.42857143 </v>
   <v>       0.42857143      -0.14285714       0.42857143 </v>
   <v>      -0.42857143      -0.14285714       0.42857143 </v>
   <v>      -0.28571429      -0.14285714       0.42857143 </v>
   <v>      -0.14285714      -0.14285714       0.42857143 </v>
  </varray>
  <varray name="weights" >
   <v>       0.00291545 </v>
   <v>       0.00583090 </v>
   <v>       0.00583090 </v>
   <v>       0.00583090 </v>
   <v>       0.00583090 </v>
   <v>       0.00583090 </v>
   <v>       0.00583090 </v>
   <v>       0.00583090 </v>
   <v>       0.00583090 </v>
   <v>       0.00583090 </v>
   <v>       0.00583090 </v>
   <v>       0.00583090 </v>
   <v>       0.00583090 </v>
   <v>       0.00583090 </v>
   <v>       0.00583090 </v>
   <v>       0.00583090 </v>
   <v>       0.00583090 </v>
   <v>       0.00583090 </v>
   <v>       0.00583090 </v>
   <v>       0.00583090 </v>
   <v>       0.00583090 </v>
   <v>       0.00583090 </v>
   <v>       0.00583090 </v>
   <v>       0.00583090 </v>
   <v>       0.00583090 </v>
   <v>       0.00583090 </v>
   <v>       0.00583090 </v>
   <v>       0.00583090 </v>
   <v>       0.00583090 </v>
   <v>       0.00583090 </v>
   <v>       0.00583090 </v>
   <v>       0.00583090 </v>
   <v>       0.00583090 </v>
   <v>       0.00583090 </v>
   <v>       0.00583090 </v>
   <v>       0.00583090 </v>
   <v>       0.00583090 </v>
   <v>       0.00583090 </v>
   <v>       0.00583090 </v>
   <v>       0.00583090 </v>
   <v>       0.00583090 </v>
   <v>       0.00583090 </v>
   <v>       0.00583090 </v>
   <v>       0.00583090 </v>
   <v>       0.00583090 </v>
   <v>       0.00583090 </v>
   <v>       0.00583090 </v>
   <v>       0.00583090 </v>
   <v>       0.00583090 </v>
   <v>       0.00583090 </v>
   <v>       0.00583090 </v>
   <v>       0.00583090 </v>
   <v>       0.00583090 </v>
   <v>       0.00583090 </v>
   <v>       0.00583090 </v>
   <v>       0.00583090 </v>
   <v>       0.00583090 </v>
   <v>       0.00583090 </v>
   <v>       0.00583090 </v>
   <v>       0.00583090 </v>
   <v>       0.00583090 </v>
   <v>       0.00583090 </v>
   <v>       0.00583090 </v>
   <v>       0.00583090 </v>
   <v>       0.00583090 </v>
   <v>       0.00583090 </v>
   <v>       0.00583090 </v>
   <v>       0.00583090 </v>
   <v>       0.00583090 </v>
   <v>       0.00583090 </v>
   <v>       0.00583090 </v>
   <v>       0.00583090 </v>
   <v>       0.00583090 </v>
   <v>       0.00583090 </v>
   <v>       0.00583090 </v>
   <v>       0.00583090 </v>
   <v>       0.00583090 </v>
   <v>       0.00583090 </v>
   <v>       0.00583090 </v>
   <v>       0.00583090 </v>
   <v>       0.00583090 </v>
   <v>       0.00583090 </v>
   <v>       0.00583090 </v>
   <v>       0.00583090 </v>
   <v>       0.00583090 </v>
   <v>       0.00583090 </v>
   <v>       0.00583090 </v>
   <v>       0.00583090 </v>
   <v>       0.00583090 </v>
   <v>       0.00583090 </v>
   <v>       0.00583090 </v>
   <v>       0.00583090 </v>
   <v>       0.00583090 </v>
   <v>       0.00583090 </v>
   <v>       0.00583090 </v>
   <v>       0.00583090 </v>
   <v>       0.00583090 </v>
   <v>       0.00583090 </v>
   <v>       0.00583090 </v>
   <v>       0.00583090 </v>
   <v>       0.00583090 </v>
   <v>       0.00583090 </v>
   <v>       0.00583090 </v>
   <v>       0.00583090 </v>
   <v>       0.00583090 </v>
   <v>       0.00583090 </v>
   <v>       0.00583090 </v>
   <v>       0.00583090 </v>
   <v>       0.00583090 </v>
   <v>       0.00583090 </v>
   <v>       0.00583090 </v>
   <v>       0.00583090 </v>
   <v>       0.00583090 </v>
   <v>       0.00583090 </v>
   <v>       0.00583090 </v>
   <v>       0.00583090 </v>
   <v>       0.00583090 </v>
   <v>       0.00583090 </v>
   <v>       0.00583090 </v>
   <v>       0.00583090 </v>
   <v>       0.00583090 </v>
   <v>       0.00583090 </v>
   <v>       0.00583090 </v>
   <v>       0.00583090 </v>
   <v>       0.00583090 </v>
   <v>       0.00583090 </v>
   <v>       0.00583090 </v>
   <v>       0.00583090 </v>
   <v>       0.00583090 </v>
   <v>       0.00583090 </v>
   <v>       0.00583090 </v>
   <v>       0.00583090 </v>
   <v>       0.00583090 </v>
   <v>       0.00583090 </v>
   <v>       0.00583090 </v>
   <v>       0.00583090 </v>
   <v>       0.00583090 </v>
   <v>       0.00583090 </v>
   <v>       0.00583090 </v>
   <v>       0.00583090 </v>
   <v>       0.00583090 </v>
   <v>       0.00583090 </v>
   <v>       0.00583090 </v>
   <v>       0.00583090 </v>
   <v>       0.00583090 </v>
   <v>       0.00583090 </v>
   <v>       0.00583090 </v>
   <v>       0.00583090 </v>
   <v>       0.00583090 </v>
   <v>       0.00583090 </v>
   <v>       0.00583090 </v>
   <v>       0.00583090 </v>
   <v>       0.00583090 </v>
   <v>       0.00583090 </v>
   <v>       0.00583090 </v>
   <v>       0.00583090 </v>
   <v>       0.00583090 </v>
   <v>       0.00583090 </v>
   <v>       0.00583090 </v>
   <v>       0.00583090 </v>
   <v>       0.00583090 </v>
   <v>       0.00583090 </v>
   <v>       0.00583090 </v>
   <v>       0.00583090 </v>
   <v>       0.00583090 </v>
   <v>       0.00583090 </v>
   <v>       0.00583090 </v>
   <v>       0.00583090 </v>
   <v>       0.00583090 </v>
   <v>       0.00583090 </v>
   <v>       0.00583090 </v>
   <v>       0.00583090 </v>
  </varray>
 </kpoints>
 <parameters>
  <separator name="general" >
   <i type="string" name="SYSTEM">Nb - Mo - Ta - Ti - V SQS</i>
   <i type="logical" name="LCOMPAT"> F  </i>
  </separator>
  <separator name="electronic" >
   <i type="string" name="PREC">normal</i>
   <i name="ENMAX">    600.00000000</i>
   <i name="ENAUG">    455.65900000</i>
   <i name="EDIFF">      0.00010000</i>
   <i type="int" name="IALGO">    38</i>
   <i type="int" name="IWAVPR">    11</i>
   <i type="int" name="NBANDS">   120</i>
   <i name="NELECT">    192.00000000</i>
   <i type="int" name="TURBO">     0</i>
   <i type="int" name="IRESTART">     0</i>
   <i type="int" name="NREBOOT">     0</i>
   <i type="int" name="NMIN">     0</i>
   <i name="EREF">      0.00000000</i>
   <separator name="electronic smearing" >
    <i type="int" name="ISMEAR">     1</i>
    <i name="SIGMA">      0.20000000</i>
    <i name="KSPACING">      0.50000000</i>
    <i type="logical" name="KGAMMA"> T  </i>
   </separator>
   <separator name="electronic projectors" >
    <i type="logical" name="LREAL"> T  </i>
    <v name="ROPT">     -0.00050000     -0.00050000     -0.00050000     -0.00050000     -0.00050000</v>
    <i type="int" name="LMAXPAW">  -100</i>
    <i type="int" name="LMAXMIX">     2</i>
    <i type="logical" name="NLSPLINE"> F  </i>
   </separator>
   <separator name="electronic startup" >
    <i type="int" name="ISTART">     0</i>
    <i type="int" name="ICHARG">     2</i>
    <i type="int" name="INIWAV">     1</i>
   </separator>
   <separator name="electronic spin" >
    <i type="int" name="ISPIN">     1</i>
    <i type="logical" name="LNONCOLLINEAR"> F  </i>
    <v name="MAGMOM">      1.00000000      1.00000000      1.00000000      1.00000000      1.00000000      1.00000000      1.00000000      1.00000000      1.00000000      1.00000000      1.00000000      1.00000000      1.00000000      1.00000000      1.00000000      1.00000000      1.00000000      1.00000000      1.00000000      1.00000000
      1.00000000      1.00000000      1.00000000      1.00000000      1.00000000      1.00000000      1.00000000      1.00000000      1.00000000</v>
    <i name="NUPDOWN">     -1.00000000</i>
    <i type="logical" name="LSORBIT"> F  </i>
    <v name="SAXIS">      0.00000000      0.00000000      1.00000000</v>
    <i type="logical" name="LSPIRAL"> F  </i>
    <v name="QSPIRAL">      0.00000000      0.00000000      0.00000000</v>
    <i type="logical" name="LZEROZ"> F  </i>
   </separator>
   <separator name="electronic exchange-correlation" >
    <i type="logical" name="LASPH"> F  </i>
    <i type="logical" name="LMETAGGA"> F  </i>
   </separator>
   <separator name="electronic convergence" >
    <i type="int" name="NELM">    60</i>
    <i type="int" name="NELMDL">     0</i>
    <i type="int" name="NELMIN">     2</i>
    <i name="ENINI">    600.00000000</i>
    <separator name="electronic convergence detail" >
     <i type="logical" name="LDIAG"> T  </i>
     <i type="logical" name="LSUBROT"> F  </i>
     <i name="WEIMIN">      0.00100000</i>
     <i name="EBREAK">      0.00000021</i>
     <i name="DEPER">      0.30000000</i>
     <i type="int" name="NRMM">     4</i>
     <i name="TIME">      0.40000000</i>
    </separator>
   </separator>
   <separator name="electronic mixer" >
    <i name="AMIX">      0.40000000</i>
    <i name="BMIX">      1.00000000</i>
    <i name="AMIN">      0.10000000</i>
    <i name="AMIX_MAG">      1.60000000</i>
    <i name="BMIX_MAG">      1.00000000</i>
    <separator name="electronic mixer details" >
     <i type="int" name="IMIX">     4</i>
     <i type="logical" name="MIXFIRST"> F  </i>
     <i type="int" name="MAXMIX">   -45</i>
     <i name="WC">    100.00000000</i>
     <i type="int" name="INIMIX">     1</i>
     <i type="int" name="MIXPRE">     1</i>
     <i type="int" name="MREMOVE">     5</i>
    </separator>
   </separator>
   <separator name="electronic dipolcorrection" >
    <i type="logical" name="LDIPOL"> F  </i>
    <i type="logical" name="LMONO"> F  </i>
    <i type="int" name="IDIPOL">     0</i>
    <i name="EPSILON">      1.00000000</i>
    <v name="DIPOL">   -100.00000000   -100.00000000   -100.00000000</v>
    <i name="EFIELD">      0.00000000</i>
   </separator>
  </separator>
  <separator name="grids" >
   <i type="int" name="NGX">    36</i>
   <i type="int" name="NGY">    50</i>
   <i type="int" name="NGZ">    70</i>
   <i type="int" name="NGXF">    72</i>
   <i type="int" name="NGYF">   100</i>
   <i type="int" name="NGZF">   140</i>
   <i type="logical" name="ADDGRID"> F  </i>
  </separator>
  <separator name="ionic" >
   <i type="int" name="NSW">    50</i>
   <i type="int" name="IBRION">     2</i>
   <i type="int" name="MDALGO">     0</i>
   <i type="int" name="ISIF">     3</i>
   <i name="PSTRESS">      0.00000000</i>
   <i name="EDIFFG">      0.00100000</i>
   <i type="int" name="NFREE">     1</i>
   <i name="POTIM">      0.50000000</i>
   <i name="SMASS">     -3.00000000</i>
   <i name="SCALEE">      1.00000000</i>
  </separator>
  <separator name="ionic md" >
   <i name="TEBEG">      0.00010000</i>
   <i name="TEEND">      0.00010000</i>
   <i type="int" name="NBLOCK">     1</i>
   <i type="int" name="KBLOCK">    50</i>
   <i type="int" name="NPACO">   256</i>
   <i name="APACO">     16.00000000</i>
  </separator>
  <separator name="symmetry" >
   <i type="int" name="ISYM">     2</i>
   <i name="SYMPREC">      0.00001000</i>
  </separator>
  <separator name="dos" >
   <i type="int" name="LORBIT">     0</i>
   <v name="RWIGS">     -1.00000000     -1.00000000     -1.00000000     -1.00000000     -1.00000000</v>
   <i type="int" name="NEDOS">   301</i>
   <i name="EMIN">     10.00000000</i>
   <i name="EMAX">    -10.00000000</i>
   <i name="EFERMI">      0.00000000</i>
  </separator>
  <separator name="writing" >
   <i type="int" name="NWRITE">     2</i>
   <i type="logical" name="LWAVE"> T  </i>
   <i type="logical" name="LDOWNSAMPLE"> F  </i>
   <i type="logical" name="LCHARG"> T  </i>
   <i type="logical" name="LPARD"> F  </i>
   <i type="logical" name="LVTOT"> F  </i>
   <i type="logical" name="LVHAR"> F  </i>
   <i type="logical" name="LELF"> F  </i>
   <i type="logical" name="LOPTICS"> F  </i>
   <v name="STM">      0.00000000      0.00000000      0.00000000      0.00000000      0.00000000      0.00000000      0.00000000</v>
  </separator>
  <separator name="performance" >
   <i type="int" name="NPAR">     8</i>
   <i type="int" name="NSIM">     4</i>
   <i type="int" name="NBLK">    -1</i>
   <i type="logical" name="LPLANE"> T  </i>
   <i type="logical" name="LSCALAPACK"> T  </i>
   <i type="logical" name="LSCAAWARE"> F  </i>
   <i type="logical" name="LSCALU"> F  </i>
   <i type="logical" name="LASYNC"> F  </i>
   <i type="logical" name="LORBITALREAL"> F  </i>
  </separator>
  <separator name="miscellaneous" >
   <i type="int" name="IDIOT">     3</i>
   <i type="int" name="ISPECIAL">     0</i>
   <i type="logical" name="LMUSIC"> F  </i>
   <v name="POMASS">     92.91000000     95.94000000    180.94800000     47.88000000     50.94100000</v>
   <v name="DARWINR">      0.00000000      0.00000000      0.00000000      0.00000000      0.00000000</v>
   <v name="DARWINV">      1.00000000      1.00000000      1.00000000      1.00000000      1.00000000</v>
   <i type="logical" name="LCORR"> T  </i>
  </separator>
  <i type="logical" name="GGA_COMPAT"> T  </i>
  <i type="logical" name="LBERRY"> F  </i>
  <i type="int" name="ICORELEVEL">     0</i>
  <i type="logical" name="LDAU"> F  </i>
  <i type="int" name="I_CONSTRAINED_M">     0</i>
  <separator name="electronic exchange-correlation" >
   <i type="string" name="GGA">PS</i>
   <i type="int" name="VOSKOWN">     0</i>
   <i type="logical" name="LHFCALC"> F  </i>
   <i type="string" name="PRECFOCK"></i>
   <i type="logical" name="LSYMGRAD"> F  </i>
   <i type="logical" name="LHFONE"> F  </i>
   <i type="logical" name="LRHFCALC"> F  </i>
   <i type="logical" name="LTHOMAS"> F  </i>
   <i type="logical" name="LMODELHF"> F  </i>
   <i name="ENCUT4O">     -1.00000000</i>
   <i type="int" name="EXXOEP">     0</i>
   <i type="int" name="FOURORBIT">     0</i>
   <i name="AEXX">      0.00000000</i>
   <i name="HFALPHA">      0.00000000</i>
   <i name="MCALPHA">      0.00000000</i>
   <i name="ALDAX">      1.00000000</i>
   <i name="AGGAX">      1.00000000</i>
   <i name="ALDAC">      1.00000000</i>
   <i name="AGGAC">      1.00000000</i>
   <i type="int" name="NKREDX">     1</i>
   <i type="int" name="NKREDY">     1</i>
   <i type="int" name="NKREDZ">     1</i>
   <i type="logical" name="SHIFTRED"> F  </i>
   <i type="logical" name="ODDONLY"> F  </i>
   <i type="logical" name="EVENONLY"> F  </i>
   <i type="int" name="LMAXFOCK">     0</i>
   <i type="int" name="NMAXFOCKAE">     0</i>
   <i type="logical" name="LFOCKAEDFT"> F  </i>
   <i name="HFSCREEN">      0.00000000</i>
   <i name="HFSCREENC">      0.00000000</i>
   <i type="int" name="NBANDSGWLOW">     0</i>
  </separator>
  <separator name="vdW DFT" >
   <i type="logical" name="LUSE_VDW"> F  </i>
   <i name="Zab_VDW">     -0.84910000</i>
   <i name="PARAM1">      0.12340000</i>
   <i name="PARAM2">      1.00000000</i>
   <i name="PARAM3">      0.00000000</i>
  </separator>
  <separator name="model GW" >
   <i type="int" name="MODEL_GW">     0</i>
   <i name="MODEL_EPS0">      9.79277462</i>
   <i name="MODEL_ALPHA">      1.00000000</i>
  </separator>
  <separator name="linear response parameters" >
   <i type="logical" name="LEPSILON"> F  </i>
   <i type="logical" name="LRPA"> F  </i>
   <i type="logical" name="LNABLA"> F  </i>
   <i type="logical" name="LVEL"> F  </i>
   <i type="int" name="KINTER">     0</i>
   <i name="CSHIFT">      0.10000000</i>
   <i name="OMEGAMAX">     -1.00000000</i>
   <i name="DEG_THRESHOLD">      0.00200000</i>
   <i name="RTIME">     -0.10000000</i>
   <i name="WPLASMAI">      0.00000000</i>
   <v name="DFIELD">      0.00000000      0.00000000      0.00000000</v>
   <v name="WPLASMA">      0.00000000      0.00000000      0.00000000      0.00000000      0.00000000      0.00000000      0.00000000      0.00000000      0.00000000</v>
  </separator>
  <separator name="orbital magnetization" >
   <i type="logical" name="NUCIND"> F  </i>
   <v name="MAGPOS">      0.00000000      0.00000000      0.00000000</v>
   <i type="logical" name="LNICSALL"> T  </i>
   <i type="logical" name="ORBITALMAG"> F  </i>
   <i type="logical" name="LMAGBLOCH"> F  </i>
   <i type="logical" name="LCHIMAG"> F  </i>
   <i type="logical" name="LGAUGE"> T  </i>
   <i type="int" name="MAGATOM">     0</i>
   <v name="MAGDIPOL">      0.00000000      0.00000000      0.00000000</v>
   <v name="AVECCONST">      0.00000000      0.00000000      0.00000000</v>
  </separator>
  <separator name="response functions" >
   <i type="logical" name="LADDER"> F  </i>
   <i type="logical" name="LRPAFORCE"> F  </i>
   <i type="logical" name="LFXC"> F  </i>
   <i type="logical" name="LHARTREE"> T  </i>
   <i type="int" name="IBSE">     0</i>
   <v type="int" name="KPOINT">    -1     0     0     0</v>
   <i type="logical" name="LTCTE"> F  </i>
   <i type="logical" name="LTETE"> F  </i>
   <i type="logical" name="LTRIPLET"> F  </i>
   <i type="logical" name="LFXCEPS"> F  </i>
   <i type="logical" name="LFXHEG"> F  </i>
   <i type="int" name="NATURALO">     2</i>
   <i type="logical" name="L2ORDER"> F  </i>
   <i type="logical" name="LMP2LT"> F  </i>
   <i type="logical" name="LUSEW"> F  </i>
   <i name="ENCUTGW">     -2.00000000</i>
   <i name="ENCUTGWSOFT">     -2.00000000</i>
   <i name="ENCUTLF">     -1.00000000</i>
   <i type="int" name="LMAXMP2">    -1</i>
   <i name="SCISSOR">      0.00000000</i>
   <i type="int" name="NOMEGA">     0</i>
   <i type="int" name="NOMEGAR">     0</i>
   <i type="int" name="NBANDSGW">    -1</i>
   <i type="int" name="NBANDSO">    -1</i>
   <i type="int" name="NBANDSV">    -1</i>
   <i type="int" name="NELM">     1</i>
   <i type="int" name="NELMHF">     1</i>
   <i type="int" name="DIM">     3</i>
   <i type="int" name="ANTIRES">     0</i>
   <i name="OMEGAMAX">    -30.00000000</i>
   <i name="OMEGAMIN">    -30.00000000</i>
   <i name="OMEGATL">   -200.00000000</i>
   <i type="int" name="OMEGAGRID">   140</i>
   <i name="CSHIFT">     -0.10000000</i>
   <i type="logical" name="SELFENERGY"> F  </i>
   <i type="logical" name="LSPECTRAL"> F  </i>
   <i type="logical" name="LSPECTRALGW"> F  </i>
   <i type="logical" name="LSINGLES"> F  </i>
   <i type="logical" name="LFERMIGW"> F  </i>
   <i type="logical" name="ODDONLYGW"> F  </i>
   <i type="logical" name="EVENONLYGW"> F  </i>
   <i type="int" name="NKREDLFX">     1</i>
   <i type="int" name="NKREDLFY">     1</i>
   <i type="int" name="NKREDLFZ">     1</i>
   <i type="int" name="MAXMEM">  2800</i>
   <i type="int" name="TELESCOPE">     0</i>
   <i type="int" name="TAUPAR">     1</i>
   <i type="int" name="OMEGAPAR">    -1</i>
   <i name="LAMBDA">      1.00000000</i>
  </separator>
  <separator name="External order field" >
   <i name="OFIELD_KAPPA">      0.00000000</i>
   <v name="OFIELD_K">      0.00000000      0.00000000      0.00000000</v>
   <i name="OFIELD_Q6_NEAR">      0.00000000</i>
   <i name="OFIELD_Q6_FAR">      0.00000000</i>
   <i name="OFIELD_A">      0.00000000</i>
  </separator>
  <separator name="solvation model" >
   <i type="logical" name="LSOL"> F  </i>
  </separator>
 </parameters>
 <atominfo>
  <atoms>      29 </atoms>
  <types>       5 </types>
  <array name="atoms" >
   <dimension dim="1">ion</dimension>
   <field type="string">element</field>
   <field type="int">atomtype</field>
   <set>
    <rc><c>Nb</c><c>   1</c></rc>
    <rc><c>Nb</c><c>   1</c></rc>
    <rc><c>Nb</c><c>   1</c></rc>
    <rc><c>Nb</c><c>   1</c></rc>
    <rc><c>Nb</c><c>   1</c></rc>
    <rc><c>Nb</c><c>   1</c></rc>
    <rc><c>Mo</c><c>   2</c></rc>
    <rc><c>Mo</c><c>   2</c></rc>
    <rc><c>Mo</c><c>   2</c></rc>
    <rc><c>Mo</c><c>   2</c></rc>
    <rc><c>Mo</c><c>   2</c></rc>
    <rc><c>Ta</c><c>   3</c></rc>
    <rc><c>Ta</c><c>   3</c></rc>
    <rc><c>Ta</c><c>   3</c></rc>
    <rc><c>Ta</c><c>   3</c></rc>
    <rc><c>Ta</c><c>   3</c></rc>
    <rc><c>Ta</c><c>   3</c></rc>
    <rc><c>Ti</c><c>   4</c></rc>
    <rc><c>Ti</c><c>   4</c></rc>
    <rc><c>Ti</c><c>   4</c></rc>
    <rc><c>Ti</c><c>   4</c></rc>
    <rc><c>Ti</c><c>   4</c></rc>
    <rc><c>Ti</c><c>   4</c></rc>
    <rc><c>V </c><c>   5</c></rc>
    <rc><c>V </c><c>   5</c></rc>
    <rc><c>V </c><c>   5</c></rc>
    <rc><c>V </c><c>   5</c></rc>
    <rc><c>V </c><c>   5</c></rc>
    <rc><c>V </c><c>   5</c></rc>
   </set>
  </array>
  <array name="atomtypes" >
   <dimension dim="1">type</dimension>
   <field type="int">atomspertype</field>
   <field type="string">element</field>
   <field>mass</field>
   <field>valence</field>
   <field type="string">pseudopotential</field>
   <set>
    <rc><c>   6</c><c>Nb</c><c>     92.91000000</c><c>     13.00000000</c><c>  PAW_PBE Nb_sv 25May2007               </c></rc>
    <rc><c>   5</c><c>Mo</c><c>     95.94000000</c><c>      6.00000000</c><c>  PAW_PBE Mo 08Apr2002                  </c></rc>
    <rc><c>   6</c><c>Ta</c><c>    180.94800000</c><c>      5.00000000</c><c>  PAW_PBE Ta 17Jan2003                  </c></rc>
    <rc><c>   6</c><c>Ti</c><c>     47.88000000</c><c>      4.00000000</c><c>  PAW_PBE Ti 08Apr2002                  </c></rc>
    <rc><c>   6</c><c>V </c><c>     50.94100000</c><c>      5.00000000</c><c>  PAW_PBE V 08Apr2002                   </c></rc>
   </set>
  </array>
 </atominfo>
 <structure name="initialpos" >
  <crystal>
   <varray name="basis" >
    <v>      -3.16000000      -3.16000000      -3.16000000 </v>
    <v>       1.58000000       1.58000000      -7.90000000 </v>
    <v>       7.90000000      -7.90000000      -1.58000000 </v>
   </varray>
   <i name="volume">    473.31744000 </i>
   <varray name="rec_basis" >
    <v>      -0.13713080      -0.12658228      -0.05274262 </v>
    <v>       0.04219409       0.06329114      -0.10548523 </v>
    <v>       0.06329114      -0.06329114       0.00000000 </v>
   </varray>
  </crystal>
  <varray name="positions" >
   <v>       0.96666667       0.93333333       0.40000000 </v>
   <v>       0.63333333       0.26666667       0.40000000 </v>
   <v>       0.50000000       0.00000000       0.00000000 </v>
   <v>       0.00000000       0.00000000       0.00000000 </v>
   <v>       0.10000000       0.20000000       0.80000000 </v>
   <v>       0.03333333       0.06666667       0.60000000 </v>
   <v>       0.90000000       0.80000000       0.20000000 </v>
   <v>       0.80000000       0.60000000       0.40000000 </v>
   <v>       0.66666667       0.33333333       0.00000000 </v>
   <v>       0.36666667       0.73333333       0.60000000 </v>
   <v>       0.13333333       0.26666667       0.40000000 </v>
   <v>       0.83333333       0.66666667       0.00000000 </v>
   <v>       0.93333333       0.86666667       0.80000000 </v>
   <v>       0.56666667       0.13333333       0.20000000 </v>
   <v>       0.40000000       0.80000000       0.20000000 </v>
   <v>       0.43333333       0.86666667       0.80000000 </v>
   <v>       0.30000000       0.60000000       0.40000000 </v>
   <v>       0.86666667       0.73333333       0.60000000 </v>
   <v>       0.46666667       0.93333333       0.40000000 </v>
   <v>       0.16666667       0.33333333       0.00000000 </v>
   <v>       0.26666667       0.53333333       0.80000000 </v>
   <v>       0.20000000       0.40000000       0.60000000 </v>
   <v>       0.06666667       0.13333333       0.20000000 </v>
   <v>       0.76666667       0.53333333       0.80000000 </v>
   <v>       0.70000000       0.40000000       0.60000000 </v>
   <v>       0.60000000       0.20000000       0.80000000 </v>
   <v>       0.53333333       0.06666667       0.60000000 </v>
   <v>       0.33333333       0.66666667       0.00000000 </v>
   <v>       0.23333333       0.46666667       0.20000000 </v>
  </varray>
 </structure>
 <calculation>
  <scstep>
   <time name="dav">   34.92   35.00</time>
   <time name="total">   35.01   35.11</time>
   <energy>
    <i name="alphaZ">   1146.37395419 </i>
    <i name="ewald"> -10889.00894783 </i>
    <i name="hartreedc">  -3350.96687790 </i>
    <i name="XCdc">   -832.20345610 </i>
    <i name="pawpsdc">  11825.63170095 </i>
    <i name="pawaedc"> -10391.32446259 </i>
    <i name="eentropy">     -0.00097850 </i>
    <i name="bandstr">   2256.22298191 </i>
    <i name="atom">  12788.47826598 </i>
    <i name="e_fr_energy">   2553.20218012 </i>
    <i name="e_wo_entrp">   2553.20315862 </i>
    <i name="e_0_energy">   2553.20250629 </i>
   </energy>
  </scstep>
  <scstep>
   <time name="dav">   38.63   38.68</time>
   <time name="total">   38.64   38.69</time>
   <energy>
    <i name="e_fr_energy">    267.47995221 </i>
    <i name="e_wo_entrp">    267.47865538 </i>
    <i name="e_0_energy">    267.47951993 </i>
   </energy>
  </scstep>
  <scstep>
   <time name="dav">   53.31   53.39</time>
   <time name="total">   53.33   53.40</time>
   <energy>
    <i name="e_fr_energy">   -244.80695852 </i>
    <i name="e_wo_entrp">   -244.80200983 </i>
    <i name="e_0_energy">   -244.80530896 </i>
   </energy>
  </scstep>
  <scstep>
   <time name="dav">   54.21   54.28</time>
   <time name="total">   54.22   54.29</time>
   <energy>
    <i name="e_fr_energy">   -323.93276160 </i>
    <i name="e_wo_entrp">   -323.93726562 </i>
    <i name="e_0_energy">   -323.93426294 </i>
   </energy>
  </scstep>
  <scstep>
   <time name="dav">   59.33   59.40</time>
   <time name="total">   60.21   60.29</time>
   <energy>
    <i name="e_fr_energy">   -334.44130848 </i>
    <i name="e_wo_entrp">   -334.44128228 </i>
    <i name="e_0_energy">   -334.44129974 </i>
   </energy>
  </scstep>
  <scstep>
   <time name="dav">   56.64   56.71</time>
   <time name="total">   57.57   57.66</time>
   <energy>
    <i name="e_fr_energy">   -366.96127486 </i>
    <i name="e_wo_entrp">   -366.95603975 </i>
    <i name="e_0_energy">   -366.95952982 </i>
   </energy>
  </scstep>
  <scstep>
   <time name="dav">   57.39   57.46</time>
   <time name="total">   58.31   58.39</time>
   <energy>
    <i name="e_fr_energy">   -315.03667178 </i>
    <i name="e_wo_entrp">   -315.03310674 </i>
    <i name="e_0_energy">   -315.03548343 </i>
   </energy>
  </scstep>
  <scstep>
   <time name="dav">   50.13   50.19</time>
   <time name="total">   51.06   51.14</time>
   <energy>
    <i name="e_fr_energy">   -325.54974359 </i>
    <i name="e_wo_entrp">   -325.53628171 </i>
    <i name="e_0_energy">   -325.54525630 </i>
   </energy>
  </scstep>
  <scstep>
   <time name="dav">   52.03   52.10</time>
   <time name="total">   52.95   53.02</time>
   <energy>
    <i name="e_fr_energy">   -313.76850317 </i>
    <i name="e_wo_entrp">   -313.74981119 </i>
    <i name="e_0_energy">   -313.76227251 </i>
   </energy>
  </scstep>
  <scstep>
   <time name="dav">   52.82   52.92</time>
   <time name="total">   53.74   53.86</time>
   <energy>
    <i name="e_fr_energy">   -308.05073529 </i>
    <i name="e_wo_entrp">   -308.03460666 </i>
    <i name="e_0_energy">   -308.04535908 </i>
   </energy>
  </scstep>
  <scstep>
   <time name="dav">   51.69   51.80</time>
   <time name="total">   52.60   52.71</time>
   <energy>
    <i name="e_fr_energy">   -306.01142457 </i>
    <i name="e_wo_entrp">   -305.99192947 </i>
    <i name="e_0_energy">   -306.00492620 </i>
   </energy>
  </scstep>
  <scstep>
   <time name="dav">   53.30   53.41</time>
   <time name="total">   54.23   54.34</time>
   <energy>
    <i name="e_fr_energy">   -304.66074176 </i>
    <i name="e_wo_entrp">   -304.63767833 </i>
    <i name="e_0_energy">   -304.65305395 </i>
   </energy>
  </scstep>
  <scstep>
   <time name="dav">   54.69   54.80</time>
   <time name="total">   55.60   55.71</time>
   <energy>
    <i name="e_fr_energy">   -304.25424770 </i>
    <i name="e_wo_entrp">   -304.23026377 </i>
    <i name="e_0_energy">   -304.24625306 </i>
   </energy>
  </scstep>
  <scstep>
   <time name="dav">   54.37   54.48</time>
   <time name="total">   55.29   55.41</time>
   <energy>
    <i name="e_fr_energy">   -304.11564043 </i>
    <i name="e_wo_entrp">   -304.09132341 </i>
    <i name="e_0_energy">   -304.10753476 </i>
   </energy>
  </scstep>
  <scstep>
   <time name="dav">   51.44   51.54</time>
   <time name="total">   52.36   52.46</time>
   <energy>
    <i name="e_fr_energy">   -304.15148658 </i>
    <i name="e_wo_entrp">   -304.13067164 </i>
    <i name="e_0_energy">   -304.14454827 </i>
   </energy>
  </scstep>
  <scstep>
   <time name="dav">   52.06   52.16</time>
   <time name="total">   52.99   53.10</time>
   <energy>
    <i name="e_fr_energy">   -304.06198515 </i>
    <i name="e_wo_entrp">   -304.03804404 </i>
    <i name="e_0_energy">   -304.05400478 </i>
   </energy>
  </scstep>
  <scstep>
   <time name="dav">   52.12   52.22</time>
   <time name="total">   53.04   53.14</time>
   <energy>
    <i name="e_fr_energy">   -304.02497906 </i>
    <i name="e_wo_entrp">   -304.00410297 </i>
    <i name="e_0_energy">   -304.01802036 </i>
   </energy>
  </scstep>
  <scstep>
   <time name="dav">   54.09   54.19</time>
   <time name="total">   55.00   55.12</time>
   <energy>
    <i name="e_fr_energy">   -303.72340076 </i>
    <i name="e_wo_entrp">   -303.70020711 </i>
    <i name="e_0_energy">   -303.71566954 </i>
   </energy>
  </scstep>
  <scstep>
   <time name="dav">   54.24   54.35</time>
   <time name="total">   55.16   55.27</time>
   <energy>
    <i name="e_fr_energy">   -303.66382028 </i>
    <i name="e_wo_entrp">   -303.64039041 </i>
    <i name="e_0_energy">   -303.65601032 </i>
   </energy>
  </scstep>
  <scstep>
   <time name="dav">   53.26   53.38</time>
   <time name="total">   54.19   54.32</time>
   <energy>
    <i name="e_fr_energy">   -303.65021341 </i>
    <i name="e_wo_entrp">   -303.62670640 </i>
    <i name="e_0_energy">   -303.64237774 </i>
   </energy>
  </scstep>
  <scstep>
   <time name="dav">   54.39   54.51</time>
   <time name="total">   55.30   55.43</time>
   <energy>
    <i name="e_fr_energy">   -303.64515423 </i>
    <i name="e_wo_entrp">   -303.62223967 </i>
    <i name="e_0_energy">   -303.63751604 </i>
   </energy>
  </scstep>
  <scstep>
   <time name="dav">   51.77   51.89</time>
   <time name="total">   52.69   52.81</time>
   <energy>
    <i name="e_fr_energy">   -303.64596815 </i>
    <i name="e_wo_entrp">   -303.62212706 </i>
    <i name="e_0_energy">   -303.63802112 </i>
   </energy>
  </scstep>
  <scstep>
   <time name="dav">   50.74   50.86</time>
   <time name="total">   51.66   51.78</time>
   <energy>
    <i name="e_fr_energy">   -303.64267791 </i>
    <i name="e_wo_entrp">   -303.61937615 </i>
    <i name="e_0_energy">   -303.63491065 </i>
   </energy>
  </scstep>
  <scstep>
   <time name="dav">   51.10   51.21</time>
   <time name="total">   52.02   52.15</time>
   <energy>
    <i name="e_fr_energy">   -303.64208539 </i>
    <i name="e_wo_entrp">   -303.61897606 </i>
    <i name="e_0_energy">   -303.63438228 </i>
   </energy>
  </scstep>
  <scstep>
   <time name="dav">   49.65   49.76</time>
   <time name="total">   50.58   50.70</time>
   <energy>
    <i name="e_fr_energy">   -303.64047296 </i>
    <i name="e_wo_entrp">   -303.61728224 </i>
    <i name="e_0_energy">   -303.63274272 </i>
   </energy>
  </scstep>
  <scstep>
   <time name="dav">   49.11   49.21</time>
   <time name="total">   50.04   50.16</time>
   <energy>
    <i name="e_fr_energy">   -303.64032541 </i>
    <i name="e_wo_entrp">   -303.61721409 </i>
    <i name="e_0_energy">   -303.63262164 </i>
   </energy>
  </scstep>
  <scstep>
   <time name="dav">   41.27   41.36</time>
   <time name="total">   41.32   41.41</time>
   <energy>
    <i name="alphaZ">   1146.37395419 </i>
    <i name="ewald"> -10889.00894783 </i>
    <i name="hartreedc">  -3191.89002178 </i>
    <i name="XCdc">   -828.76605337 </i>
    <i name="pawpsdc">  18683.67478941 </i>
    <i name="pawaedc"> -17242.17614560 </i>
    <i name="eentropy">     -0.02312887 </i>
    <i name="bandstr">   -770.30296631 </i>
    <i name="atom">  12788.47826598 </i>
    <i name="e_fr_energy">   -303.64025418 </i>
    <i name="e_wo_entrp">   -303.61712531 </i>
    <i name="e_0_energy">   -303.63254456 </i>
   </energy>
  </scstep>
  <structure>
   <crystal>
    <varray name="basis" >
     <v>      -3.16000000      -3.16000000      -3.16000000 </v>
     <v>       1.58000000       1.58000000      -7.90000000 </v>
     <v>       7.90000000      -7.90000000      -1.58000000 </v>
    </varray>
    <i name="volume">    473.31744000 </i>
    <varray name="rec_basis" >
     <v>      -0.13713080      -0.12658228      -0.05274262 </v>
     <v>       0.04219409       0.06329114      -0.10548523 </v>
     <v>       0.06329114      -0.06329114       0.00000000 </v>
    </varray>
   </crystal>
   <varray name="positions" >
    <v>       0.96666667       0.93333333       0.40000000 </v>
    <v>       0.63333333       0.26666667       0.40000000 </v>
    <v>       0.50000000       0.00000000       0.00000000 </v>
    <v>       0.00000000       0.00000000       0.00000000 </v>
    <v>       0.10000000       0.20000000       0.80000000 </v>
    <v>       0.03333333       0.06666667       0.60000000 </v>
    <v>       0.90000000       0.80000000       0.20000000 </v>
    <v>       0.80000000       0.60000000       0.40000000 </v>
    <v>       0.66666667       0.33333333       0.00000000 </v>
    <v>       0.36666667       0.73333333       0.60000000 </v>
    <v>       0.13333333       0.26666667       0.40000000 </v>
    <v>       0.83333333       0.66666667       0.00000000 </v>
    <v>       0.93333333       0.86666667       0.80000000 </v>
    <v>       0.56666667       0.13333333       0.20000000 </v>
    <v>       0.40000000       0.80000000       0.20000000 </v>
    <v>       0.43333333       0.86666667       0.80000000 </v>
    <v>       0.30000000       0.60000000       0.40000000 </v>
    <v>       0.86666667       0.73333333       0.60000000 </v>
    <v>       0.46666667       0.93333333       0.40000000 </v>
    <v>       0.16666667       0.33333333       0.00000000 </v>
    <v>       0.26666667       0.53333333       0.80000000 </v>
    <v>       0.20000000       0.40000000       0.60000000 </v>
    <v>       0.06666667       0.13333333       0.20000000 </v>
    <v>       0.76666667       0.53333333       0.80000000 </v>
    <v>       0.70000000       0.40000000       0.60000000 </v>
    <v>       0.60000000       0.20000000       0.80000000 </v>
    <v>       0.53333333       0.06666667       0.60000000 </v>
    <v>       0.33333333       0.66666667       0.00000000 </v>
    <v>       0.23333333       0.46666667       0.20000000 </v>
   </varray>
  </structure>
  <varray name="forces" >
   <v>      -0.05563905       0.55198852       0.18747984 </v>
   <v>       0.22070249       0.01811418      -0.27483103 </v>
   <v>      -0.03091042       0.32519975      -0.24472648 </v>
   <v>       0.32634713      -0.17203825      -0.03179360 </v>
   <v>       0.11090243       0.72718901      -0.67225510 </v>
   <v>      -0.09885816       0.38626221      -0.33315087 </v>
   <v>      -0.11600267      -0.73836023       0.13812186 </v>
   <v>      -0.74625703      -0.16653382       0.65974310 </v>
   <v>       0.27848371       0.68996823      -0.57138780 </v>
   <v>      -0.29155109      -0.43696017       0.30133787 </v>
   <v>       0.13689936       0.16858715      -0.73395531 </v>
   <v>       0.35815779      -0.74760725       0.77092394 </v>
   <v>       0.12620937       0.50662357      -0.06844505 </v>
   <v>      -0.06435292       0.71107766       0.15131118 </v>
   <v>      -0.92798507      -0.34711018       1.06820659 </v>
   <v>      -0.95462935      -0.23578415       0.54902452 </v>
   <v>       0.34902927      -0.27136468      -0.10736577 </v>
   <v>       0.23188367       0.16892304       0.49326234 </v>
   <v>       0.53116090      -0.44389516       0.00892240 </v>
   <v>      -0.38228361      -0.21333593      -0.38246088 </v>
   <v>      -0.27255755      -0.15641021      -0.18229834 </v>
   <v>      -0.36253084       0.04790555       0.46098518 </v>
   <v>       0.67513173      -0.06916957      -1.12228774 </v>
   <v>       0.09262664      -0.40841248       0.55267288 </v>
   <v>       0.55549365       0.11339657      -0.36965800 </v>
   <v>      -0.03895600       0.31756133      -0.20630683 </v>
   <v>       0.26570783      -0.57211770      -0.43468150 </v>
   <v>      -0.14525871      -0.04964279       0.68191741 </v>
   <v>       0.22903652       0.29594579      -0.28830480 </v>
  </varray>
  <varray name="stress" >
   <v>     -11.08603447      -3.55828955      -0.39286599 </v>
   <v>      -3.55828947     -14.05501101       3.24824881 </v>
   <v>      -0.39286596       3.24824879     -12.80909456 </v>
  </varray>
  <energy>
   <i name="e_fr_energy">   -303.64025418 </i>
   <i name="e_wo_entrp">   -303.63254456 </i>
   <i name="e_0_energy">     -0.02312887 </i>
  </energy>
  <time name="totalsc"> 1435.57 1438.44</time>
 </calculation>
 <calculation>
  <scstep>
   <time name="dav">   35.39   35.46</time>
   <time name="total">   36.31   36.39</time>
   <energy>
    <i name="alphaZ">   1168.03022967 </i>
    <i name="ewald"> -11019.42806257 </i>
    <i name="hartreedc">  -3153.71910614 </i>
    <i name="XCdc">   -826.48630622 </i>
    <i name="pawpsdc">  18682.32949399 </i>
    <i name="pawaedc"> -17240.83270627 </i>
    <i name="eentropy">     -0.01934921 </i>
    <i name="bandstr">   -702.55611121 </i>
    <i name="atom">  12788.47826598 </i>
    <i name="e_fr_energy">   -304.20365198 </i>
    <i name="e_wo_entrp">   -304.18430277 </i>
    <i name="e_0_energy">   -304.19720224 </i>
   </energy>
  </scstep>
  <scstep>
   <time name="dav">   56.06   56.12</time>
   <time name="total">   56.98   57.05</time>
   <energy>
    <i name="e_fr_energy">   -306.14298941 </i>
    <i name="e_wo_entrp">   -306.12334799 </i>
    <i name="e_0_energy">   -306.13644227 </i>
   </energy>
  </scstep>
  <scstep>
   <time name="dav">   56.20   56.26</time>
   <time name="total">   57.12   57.17</time>
   <energy>
    <i name="e_fr_energy">   -304.54991114 </i>
    <i name="e_wo_entrp">   -304.53332141 </i>
    <i name="e_0_energy">   -304.54438123 </i>
   </energy>
  </scstep>
  <scstep>
   <time name="dav">   53.98   54.06</time>
   <time name="total">   54.90   55.00</time>
   <energy>
    <i name="e_fr_energy">   -304.53739965 </i>
    <i name="e_wo_entrp">   -304.51587362 </i>
    <i name="e_0_energy">   -304.53022431 </i>
   </energy>
  </scstep>
  <scstep>
   <time name="dav">   51.81   51.88</time>
   <time name="total">   52.74   52.81</time>
   <energy>
    <i name="e_fr_energy">   -304.40692629 </i>
    <i name="e_wo_entrp">   -304.38631024 </i>
    <i name="e_0_energy">   -304.40005427 </i>
   </energy>
  </scstep>
  <scstep>
   <time name="dav">   54.37   54.44</time>
   <time name="total">   55.30   55.38</time>
   <energy>
    <i name="e_fr_energy">   -304.34726372 </i>
    <i name="e_wo_entrp">   -304.32852539 </i>
    <i name="e_0_energy">   -304.34101761 </i>
   </energy>
  </scstep>
  <scstep>
   <time name="dav">   58.11   58.18</time>
   <time name="total">   59.06   59.13</time>
   <energy>
    <i name="e_fr_energy">   -304.32021751 </i>
    <i name="e_wo_entrp">   -304.29975339 </i>
    <i name="e_0_energy">   -304.31339613 </i>
   </energy>
  </scstep>
  <scstep>
   <time name="dav">   59.46   59.53</time>
   <time name="total">   60.39   60.47</time>
   <energy>
    <i name="e_fr_energy">   -304.31827934 </i>
    <i name="e_wo_entrp">   -304.29574940 </i>
    <i name="e_0_energy">   -304.31076936 </i>
   </energy>
  </scstep>
  <scstep>
   <time name="dav">   56.55   56.62</time>
   <time name="total">   57.50   57.57</time>
   <energy>
    <i name="e_fr_energy">   -304.30275300 </i>
    <i name="e_wo_entrp">   -304.28132149 </i>
    <i name="e_0_energy">   -304.29560917 </i>
   </energy>
  </scstep>
  <scstep>
   <time name="dav">   55.40   55.47</time>
   <time name="total">   56.34   56.40</time>
   <energy>
    <i name="e_fr_energy">   -304.30037243 </i>
    <i name="e_wo_entrp">   -304.27935785 </i>
    <i name="e_0_energy">   -304.29336757 </i>
   </energy>
  </scstep>
  <scstep>
   <time name="dav">   46.89   46.94</time>
   <time name="total">   47.83   47.89</time>
   <energy>
    <i name="e_fr_energy">   -304.29984905 </i>
    <i name="e_wo_entrp">   -304.27835196 </i>
    <i name="e_0_energy">   -304.29268336 </i>
   </energy>
  </scstep>
  <scstep>
   <time name="dav">   56.05   56.12</time>
   <time name="total">   56.98   57.04</time>
   <energy>
    <i name="e_fr_energy">   -304.30038843 </i>
    <i name="e_wo_entrp">   -304.27915182 </i>
    <i name="e_0_energy">   -304.29330956 </i>
   </energy>
  </scstep>
  <scstep>
   <time name="dav">   50.67   50.73</time>
   <time name="total">   51.60   51.68</time>
   <energy>
    <i name="e_fr_energy">   -304.30160212 </i>
    <i name="e_wo_entrp">   -304.28052816 </i>
    <i name="e_0_energy">   -304.29457747 </i>
   </energy>
  </scstep>
  <scstep>
   <time name="dav">   49.30   49.37</time>
   <time name="total">   50.21   50.28</time>
   <energy>
    <i name="e_fr_energy">   -304.30066732 </i>
    <i name="e_wo_entrp">   -304.27926177 </i>
    <i name="e_0_energy">   -304.29353214 </i>
   </energy>
  </scstep>
  <scstep>
   <time name="dav">   52.32   52.38</time>
   <time name="total">   53.25   53.32</time>
   <energy>
    <i name="e_fr_energy">   -304.30044609 </i>
    <i name="e_wo_entrp">   -304.27919026 </i>
    <i name="e_0_energy">   -304.29336081 </i>
   </energy>
  </scstep>
  <scstep>
   <time name="dav">   47.11   47.16</time>
   <time name="total">   48.03   48.08</time>
   <energy>
    <i name="e_fr_energy">   -304.30036542 </i>
    <i name="e_wo_entrp">   -304.27910176 </i>
    <i name="e_0_energy">   -304.29327753 </i>
   </energy>
  </scstep>
  <scstep>
   <time name="dav">   34.12   34.16</time>
   <time name="total">   34.18   34.23</time>
   <energy>
    <i name="alphaZ">   1168.03022967 </i>
    <i name="ewald"> -11019.42806257 </i>
    <i name="hartreedc">  -3115.69843907 </i>
    <i name="XCdc">   -827.60890198 </i>
    <i name="pawpsdc">  19025.89694042 </i>
    <i name="pawaedc"> -17585.33143767 </i>
    <i name="eentropy">     -0.02126669 </i>
    <i name="bandstr">   -738.61764609 </i>
    <i name="atom">  12788.47826598 </i>
    <i name="e_fr_energy">   -304.30031801 </i>
    <i name="e_wo_entrp">   -304.27905132 </i>
    <i name="e_0_energy">   -304.29322911 </i>
   </energy>
  </scstep>
  <structure>
   <crystal>
    <varray name="basis" >
     <v>      -3.13664774      -3.13769155      -3.14454222 </v>
     <v>       1.57015419       1.55371251      -7.84805259 </v>
     <v>       7.87107921      -7.86176956      -1.58419028 </v>
    </varray>
    <i name="volume">    464.54173145 </i>
    <varray name="rec_basis" >
     <v>      -0.13811667      -0.12762087      -0.05289855 </v>
     <v>       0.04251710       0.06397700      -0.10624798 </v>
     <v>       0.06352601      -0.06361967       0.00011454 </v>
    </varray>
   </crystal>
   <varray name="positions" >
    <v>       0.96318691       0.93395141       0.39814471 </v>
    <v>       0.63246194       0.26856981       0.40061857 </v>
    <v>       0.49884130       0.00217541      -0.00108732 </v>
    <v>      -0.00102749       0.00030080       0.00152174 </v>
    <v>       0.09653613       0.20586713       0.79811827 </v>
    <v>       0.03247624       0.06934019       0.59851877 </v>
    <v>       0.90492490       0.79680652       0.20190026 </v>
    <v>       0.80427519       0.59461511       0.39822991 </v>
    <v>       0.66206481       0.33891463      -0.00125640 </v>
    <v>       0.37049707       0.72987220       0.60044398 </v>
    <v>       0.13326567       0.27119510       0.39990325 </v>
    <v>       0.83356773       0.66118988       0.00337627 </v>
    <v>       0.92957876       0.86881878       0.79883847 </v>
    <v>       0.56236508       0.13460349       0.19763235 </v>
    <v>       0.40554083       0.79161521       0.19822640 </v>
    <v>       0.43969162       0.86120962       0.79780513 </v>
    <v>       0.29962130       0.60042827       0.40189427 </v>
    <v>       0.86284600       0.73181096       0.60019224 </v>
    <v>       0.46584076       0.93301377       0.40297717 </v>
    <v>       0.17147161       0.33385009      -0.00051585 </v>
    <v>       0.26988878       0.53322865       0.79964536 </v>
    <v>       0.20093285       0.39706242       0.59874680 </v>
    <v>       0.06547829       0.14020760       0.20227260 </v>
    <v>       0.76714169       0.52946237       0.80152984 </v>
    <v>       0.69657320       0.40335812       0.60134987 </v>
    <v>       0.59884341       0.20194020       0.79891143 </v>
    <v>       0.53617528       0.06767271       0.60255816 </v>
    <v>       0.33286235       0.66274921      -0.00029195 </v>
    <v>       0.23074446       0.46950366       0.19979570 </v>
   </varray>
  </structure>
  <varray name="forces" >
   <v>      -0.00711676       0.34246278       0.02934983 </v>
   <v>      -0.04090288       0.12384747      -0.18745282 </v>
   <v>      -0.15403937       0.17156329       0.07085758 </v>
   <v>       0.14414227      -0.08183492      -0.08215614 </v>
   <v>       0.00322794       0.35186339      -0.28869308 </v>
   <v>      -0.09620038       0.24926624      -0.20328802 </v>
   <v>      -0.13051839      -0.30466531       0.15148001 </v>
   <v>      -0.45383185      -0.03710042       0.38022841 </v>
   <v>       0.19645391       0.46651642      -0.53328853 </v>
   <v>      -0.18852067      -0.28395155       0.23183010 </v>
   <v>       0.09719612       0.11327954      -0.29490091 </v>
   <v>       0.39497521      -0.55598583       0.46999710 </v>
   <v>       0.09560004       0.19015168      -0.11047991 </v>
   <v>       0.02781147       0.32661596      -0.01279719 </v>
   <v>      -0.61509463      -0.32772336       0.61854378 </v>
   <v>      -0.24669077      -0.00944874       0.32552789 </v>
   <v>       0.20917534      -0.26445719      -0.12918304 </v>
   <v>       0.11177903       0.11191380       0.31457763 </v>
   <v>       0.27914222      -0.22721266       0.07773669 </v>
   <v>      -0.32200778      -0.17096680      -0.28750280 </v>
   <v>      -0.25315583      -0.06627143      -0.09049989 </v>
   <v>      -0.22630878       0.01215531       0.29251495 </v>
   <v>       0.52172157       0.09405205      -0.76596396 </v>
   <v>       0.09388020      -0.29656392       0.46184403 </v>
   <v>       0.49040403       0.02114326      -0.25950460 </v>
   <v>      -0.06723745       0.31988213      -0.19355628 </v>
   <v>       0.17596839      -0.49627053      -0.31671555 </v>
   <v>      -0.16092775      -0.06284801       0.57703474 </v>
   <v>       0.12107553       0.29058738      -0.24554001 </v>
  </varray>
  <varray name="stress" >
   <v>      18.76066126      -2.84296008       0.01848833 </v>
   <v>      -2.84296001      15.76092907       3.09471947 </v>
   <v>       0.01848841       3.09471941      14.97012421 </v>
  </varray>
  <energy>
   <i name="e_fr_energy">   -304.30031801 </i>
   <i name="e_wo_entrp">   -304.29322911 </i>
   <i name="e_0_energy">     -0.02126669 </i>
  </energy>
  <time name="totalsc">  915.02  916.26</time>
 </calculation>
 <calculation>
  <scstep>
   <time name="dav">   35.69   35.74</time>
   <time name="total">   36.62   36.67</time>
   <energy>
    <i name="alphaZ">   1185.71724209 </i>
    <i name="ewald"> -11118.13999258 </i>
    <i name="hartreedc">  -3090.08481778 </i>
    <i name="XCdc">   -825.77484884 </i>
    <i name="pawpsdc">  19025.73549583 </i>
    <i name="pawaedc"> -17585.12261073 </i>
    <i name="eentropy">     -0.01762113 </i>
    <i name="bandstr">   -685.17353330 </i>
    <i name="atom">  12788.47826598 </i>
    <i name="e_fr_energy">   -304.38242045 </i>
    <i name="e_wo_entrp">   -304.36479932 </i>
    <i name="e_0_energy">   -304.37654674 </i>
   </energy>
  </scstep>
  <scstep>
   <time name="dav">   56.00   56.07</time>
   <time name="total">   56.92   56.99</time>
   <energy>
    <i name="e_fr_energy">   -305.55599858 </i>
    <i name="e_wo_entrp">   -305.53937164 </i>
    <i name="e_0_energy">   -305.55045626 </i>
   </energy>
  </scstep>
  <scstep>
   <time name="dav">   56.11   56.17</time>
   <time name="total">   57.04   57.11</time>
   <energy>
    <i name="e_fr_energy">   -304.61412942 </i>
    <i name="e_wo_entrp">   -304.60012764 </i>
    <i name="e_0_energy">   -304.60946216 </i>
   </energy>
  </scstep>
  <scstep>
   <time name="dav">   54.81   54.94</time>
   <time name="total">   55.73   55.86</time>
   <energy>
    <i name="e_fr_energy">   -304.59988821 </i>
    <i name="e_wo_entrp">   -304.58041520 </i>
    <i name="e_0_energy">   -304.59339720 </i>
   </energy>
  </scstep>
  <scstep>
   <time name="dav">   51.63   51.70</time>
   <time name="total">   52.56   52.64</time>
   <energy>
    <i name="e_fr_energy">   -304.53127494 </i>
    <i name="e_wo_entrp">   -304.51511559 </i>
    <i name="e_0_energy">   -304.52588849 </i>
   </energy>
  </scstep>
  <scstep>
   <time name="dav">   53.95   54.01</time>
   <time name="total">   54.86   54.93</time>
   <energy>
    <i name="e_fr_energy">   -304.48811435 </i>
    <i name="e_wo_entrp">   -304.47225774 </i>
    <i name="e_0_energy">   -304.48282882 </i>
   </energy>
  </scstep>
  <scstep>
   <time name="dav">   58.02   58.09</time>
   <time name="total">   58.95   59.02</time>
   <energy>
    <i name="e_fr_energy">   -304.47461692 </i>
    <i name="e_wo_entrp">   -304.45750624 </i>
    <i name="e_0_energy">   -304.46891336 </i>
   </energy>
  </scstep>
  <scstep>
   <time name="dav">   58.62   58.70</time>
   <time name="total">   59.54   59.63</time>
   <energy>
    <i name="e_fr_energy">   -304.47126514 </i>
    <i name="e_wo_entrp">   -304.45341416 </i>
    <i name="e_0_energy">   -304.46531481 </i>
   </energy>
  </scstep>
  <scstep>
   <time name="dav">   56.12   56.18</time>
   <time name="total">   57.04   57.12</time>
   <energy>
    <i name="e_fr_energy">   -304.46286885 </i>
    <i name="e_wo_entrp">   -304.44550276 </i>
    <i name="e_0_energy">   -304.45708015 </i>
   </energy>
  </scstep>
  <scstep>
   <time name="dav">   54.78   54.84</time>
   <time name="total">   55.69   55.76</time>
   <energy>
    <i name="e_fr_energy">   -304.46136398 </i>
    <i name="e_wo_entrp">   -304.44412447 </i>
    <i name="e_0_energy">   -304.45561748 </i>
   </energy>
  </scstep>
  <scstep>
   <time name="dav">   46.27   46.33</time>
   <time name="total">   47.20   47.26</time>
   <energy>
    <i name="e_fr_energy">   -304.46176396 </i>
    <i name="e_wo_entrp">   -304.44422191 </i>
    <i name="e_0_energy">   -304.45591661 </i>
   </energy>
  </scstep>
  <scstep>
   <time name="dav">   51.21   51.27</time>
   <time name="total">   52.13   52.19</time>
   <energy>
    <i name="e_fr_energy">   -304.46194522 </i>
    <i name="e_wo_entrp">   -304.44469346 </i>
    <i name="e_0_energy">   -304.45619463 </i>
   </energy>
  </scstep>
  <scstep>
   <time name="dav">   52.16   52.22</time>
   <time name="total">   53.09   53.16</time>
   <energy>
    <i name="e_fr_energy">   -304.46238481 </i>
    <i name="e_wo_entrp">   -304.44510291 </i>
    <i name="e_0_energy">   -304.45662418 </i>
   </energy>
  </scstep>
  <scstep>
   <time name="dav">   48.60   48.66</time>
   <time name="total">   49.52   49.58</time>
   <energy>
    <i name="e_fr_energy">   -304.46201093 </i>
    <i name="e_wo_entrp">   -304.44451330 </i>
    <i name="e_0_energy">   -304.45617838 </i>
   </energy>
  </scstep>
  <scstep>
   <time name="dav">   49.27   49.33</time>
   <time name="total">   50.20   50.27</time>
   <energy>
    <i name="e_fr_energy">   -304.46182329 </i>
    <i name="e_wo_entrp">   -304.44449272 </i>
    <i name="e_0_energy">   -304.45604643 </i>
   </energy>
  </scstep>
  <scstep>
   <time name="dav">   37.97   38.02</time>
   <time name="total">   38.02   38.07</time>
   <energy>
    <i name="alphaZ">   1185.71724209 </i>
    <i name="ewald"> -11118.13999258 </i>
    <i name="hartreedc">  -3060.50319702 </i>
    <i name="XCdc">   -826.66540920 </i>
    <i name="pawpsdc">  19346.72464950 </i>
    <i name="pawaedc"> -17906.76438697 </i>
    <i name="eentropy">     -0.01735218 </i>
    <i name="bandstr">   -713.29158273 </i>
    <i name="atom">  12788.47826598 </i>
    <i name="e_fr_energy">   -304.46176311 </i>
    <i name="e_wo_entrp">   -304.44441094 </i>
    <i name="e_0_energy">   -304.45597905 </i>
   </energy>
  </scstep>
  <structure>
   <crystal>
    <varray name="basis" >
     <v>      -3.11801106      -3.11988790      -3.13220586 </v>
     <v>       1.56229658       1.53273331      -7.80659506 </v>
     <v>       7.84799846      -7.83125909      -1.58753440 </v>
    </varray>
    <i name="volume">    457.61229239 </i>
    <varray name="rec_basis" >
     <v>      -0.13891396      -0.12846234      -0.05302226 </v>
     <v>       0.04277898       0.06453388      -0.10686520 </v>
     <v>       0.06371450      -0.06388483       0.00020784 </v>
    </varray>
   </crystal>
   <varray name="positions" >
    <v>       0.96038874       0.93445307       0.39665741 </v>
    <v>       0.63175905       0.27009995       0.40111278 </v>
    <v>       0.49790621       0.00392692      -0.00196055 </v>
    <v>      -0.00185281       0.00054131       0.00274117 </v>
    <v>       0.09374248       0.21058982       0.79660537 </v>
    <v>       0.03178253       0.07149260       0.59732939 </v>
    <v>       0.90888840       0.79423292       0.20342570 </v>
    <v>       0.80771810       0.59028455       0.39681553 </v>
    <v>       0.65835748       0.34340735      -0.00226782 </v>
    <v>       0.37358072       0.72708598       0.60080253 </v>
    <v>       0.13320414       0.27483681       0.39982190 </v>
    <v>       0.83376647       0.65678111       0.00608685 </v>
    <v>       0.92655772       0.87055326       0.79790592 </v>
    <v>       0.55890523       0.13563069       0.19573390 </v>
    <v>       0.41000547       0.78487151       0.19681165 </v>
    <v>       0.44480834       0.85682030       0.79605024 </v>
    <v>       0.29931731       0.60077039       0.40341214 </v>
    <v>       0.85977832       0.73058887       0.60034780 </v>
    <v>       0.46517917       0.93275337       0.40536361 </v>
    <v>       0.17533161       0.33426334      -0.00092998 </v>
    <v>       0.27247794       0.53314294       0.79936105 </v>
    <v>       0.20168640       0.39470125       0.59774481 </v>
    <v>       0.06451377       0.14573325       0.20408832 </v>
    <v>       0.76753028       0.52634722       0.80275919 </v>
    <v>       0.69381498       0.40605889       0.60242911 </v>
    <v>       0.59791039       0.20350256       0.79803741 </v>
    <v>       0.53845875       0.06847656       0.60460747 </v>
    <v>       0.33248988       0.65959967      -0.00052262 </v>
    <v>       0.22865957       0.47178690       0.19962972 </v>
   </varray>
  </structure>
  <varray name="forces" >
   <v>       0.04973627       0.15040378      -0.11395471 </v>
   <v>      -0.25752993       0.20669014      -0.10972087 </v>
   <v>      -0.27389992       0.04955139       0.34841604 </v>
   <v>       0.02406474      -0.01931176      -0.12410105 </v>
   <v>      -0.10684600       0.03845078       0.02255014 </v>
   <v>      -0.08035876       0.11560807      -0.07710982 </v>
   <v>      -0.13023417       0.11298116       0.14992490 </v>
   <v>      -0.15794404       0.09844898       0.09361863 </v>
   <v>       0.10136171       0.21130573      -0.43526571 </v>
   <v>      -0.08467642      -0.12113835       0.16186540 </v>
   <v>       0.01334861       0.01563984       0.12313025 </v>
   <v>       0.37446848      -0.38658694       0.20634507 </v>
   <v>       0.03757999      -0.08673155      -0.16706465 </v>
   <v>       0.10792161       0.01538879      -0.16476886 </v>
   <v>      -0.39587164      -0.33202121       0.23903759 </v>
   <v>       0.33540173       0.14505285       0.12095125 </v>
   <v>       0.12106203      -0.23447460      -0.15708509 </v>
   <v>      -0.02134873       0.04739397       0.14987615 </v>
   <v>       0.07745375      -0.05260932       0.13582733 </v>
   <v>      -0.21607807      -0.11737467      -0.17551133 </v>
   <v>      -0.21012000       0.03729844      -0.00073457 </v>
   <v>      -0.08728235      -0.02349966       0.14807824 </v>
   <v>       0.41417628       0.27440115      -0.47235624 </v>
   <v>       0.09328619      -0.16409292       0.32122486 </v>
   <v>       0.40357409      -0.06191127      -0.13090010 </v>
   <v>      -0.09543317       0.31133472      -0.17154400 </v>
   <v>       0.09476896      -0.40407226      -0.20133431 </v>
   <v>      -0.13521692      -0.05493796       0.45100652 </v>
   <v>       0.00463567       0.22881267      -0.17040107 </v>
  </varray>
  <varray name="stress" >
   <v>      47.19359435      -1.78032307       0.37078234 </v>
   <v>      -1.78032309      44.76767045       3.11639252 </v>
   <v>       0.37078237       3.11639251      42.25356556 </v>
  </varray>
  <energy>
   <i name="e_fr_energy">   -304.46176311 </i>
   <i name="e_wo_entrp">   -304.45597905 </i>
   <i name="e_0_energy">     -0.01735218 </i>
  </energy>
  <time name="totalsc">  860.69  861.89</time>
 </calculation>
 <calculation>
  <scstep>
   <time name="dav">   38.81   38.86</time>
   <time name="total">   39.73   39.79</time>
   <energy>
    <i name="alphaZ">   1160.87936331 </i>
    <i name="ewald"> -11074.32322613 </i>
    <i name="hartreedc">  -3005.83173796 </i>
    <i name="XCdc">   -829.56656339 </i>
    <i name="pawpsdc">  19346.45548770 </i>
    <i name="pawaedc"> -17906.46517160 </i>
    <i name="eentropy">     -0.01390926 </i>
    <i name="bandstr">   -784.56972395 </i>
    <i name="atom">  12788.47826598 </i>
    <i name="e_fr_energy">   -304.95721531 </i>
    <i name="e_wo_entrp">   -304.94330605 </i>
    <i name="e_0_energy">   -304.95257889 </i>
   </energy>
  </scstep>
  <scstep>
   <time name="dav">   55.03   55.11</time>
   <time name="total">   55.95   56.04</time>
   <energy>
    <i name="e_fr_energy">   -305.75097911 </i>
    <i name="e_wo_entrp">   -305.73453435 </i>
    <i name="e_0_energy">   -305.74549753 </i>
   </energy>
  </scstep>
  <scstep>
   <time name="dav">   56.25   56.33</time>
   <time name="total">   57.17   57.25</time>
   <energy>
    <i name="e_fr_energy">   -305.04302793 </i>
    <i name="e_wo_entrp">   -305.03594425 </i>
    <i name="e_0_energy">   -305.04066670 </i>
   </energy>
  </scstep>
  <scstep>
   <time name="dav">   53.40   53.47</time>
   <time name="total">   54.32   54.39</time>
   <energy>
    <i name="e_fr_energy">   -304.94480316 </i>
    <i name="e_wo_entrp">   -304.93052547 </i>
    <i name="e_0_energy">   -304.94004393 </i>
   </energy>
  </scstep>
  <scstep>
   <time name="dav">   51.08   51.15</time>
   <time name="total">   52.01   52.07</time>
   <energy>
    <i name="e_fr_energy">   -304.85968010 </i>
    <i name="e_wo_entrp">   -304.85267453 </i>
    <i name="e_0_energy">   -304.85734491 </i>
   </energy>
  </scstep>
  <scstep>
   <time name="dav">   53.70   53.76</time>
   <time name="total">   54.63   54.70</time>
   <energy>
    <i name="e_fr_energy">   -304.74651619 </i>
    <i name="e_wo_entrp">   -304.73323815 </i>
    <i name="e_0_energy">   -304.74209018 </i>
   </energy>
  </scstep>
  <scstep>
   <time name="dav">   56.80   56.88</time>
   <time name="total">   57.72   57.79</time>
   <energy>
    <i name="e_fr_energy">   -304.74123734 </i>
    <i name="e_wo_entrp">   -304.72784144 </i>
    <i name="e_0_energy">   -304.73677204 </i>
   </energy>
  </scstep>
  <scstep>
   <time name="dav">   53.03   53.10</time>
   <time name="total">   53.96   54.03</time>
   <energy>
    <i name="e_fr_energy">   -304.73080912 </i>
    <i name="e_wo_entrp">   -304.71820451 </i>
    <i name="e_0_energy">   -304.72660758 </i>
   </energy>
  </scstep>
  <scstep>
   <time name="dav">   50.36   50.42</time>
   <time name="total">   51.28   51.34</time>
   <energy>
    <i name="e_fr_energy">   -304.72604811 </i>
    <i name="e_wo_entrp">   -304.71324944 </i>
    <i name="e_0_energy">   -304.72178189 </i>
   </energy>
  </scstep>
  <scstep>
   <time name="dav">   52.73   52.79</time>
   <time name="total">   53.67   53.74</time>
   <energy>
    <i name="e_fr_energy">   -304.72590431 </i>
    <i name="e_wo_entrp">   -304.71301377 </i>
    <i name="e_0_energy">   -304.72160747 </i>
   </energy>
  </scstep>
  <scstep>
   <time name="dav">   49.62   49.68</time>
   <time name="total">   50.54   50.60</time>
   <energy>
    <i name="e_fr_energy">   -304.72721976 </i>
    <i name="e_wo_entrp">   -304.71417483 </i>
    <i name="e_0_energy">   -304.72287145 </i>
   </energy>
  </scstep>
  <scstep>
   <time name="dav">   52.90   52.96</time>
   <time name="total">   53.84   53.91</time>
   <energy>
    <i name="e_fr_energy">   -304.72852848 </i>
    <i name="e_wo_entrp">   -304.71590031 </i>
    <i name="e_0_energy">   -304.72431909 </i>
   </energy>
  </scstep>
  <scstep>
   <time name="dav">   56.21   56.28</time>
   <time name="total">   57.12   57.20</time>
   <energy>
    <i name="e_fr_energy">   -304.72790894 </i>
    <i name="e_wo_entrp">   -304.71487488 </i>
    <i name="e_0_energy">   -304.72356425 </i>
   </energy>
  </scstep>
  <scstep>
   <time name="dav">   50.62   50.68</time>
   <time name="total">   51.55   51.62</time>
   <energy>
    <i name="e_fr_energy">   -304.72783730 </i>
    <i name="e_wo_entrp">   -304.71492376 </i>
    <i name="e_0_energy">   -304.72353279 </i>
   </energy>
  </scstep>
  <scstep>
   <time name="dav">   48.23   48.29</time>
   <time name="total">   49.15   49.21</time>
   <energy>
    <i name="e_fr_energy">   -304.72762202 </i>
    <i name="e_wo_entrp">   -304.71477737 </i>
    <i name="e_0_energy">   -304.72334047 </i>
   </energy>
  </scstep>
  <scstep>
   <time name="dav">   41.01   41.06</time>
   <time name="total">   41.06   41.12</time>
   <energy>
    <i name="alphaZ">   1160.87936331 </i>
    <i name="ewald"> -11074.32322613 </i>
    <i name="hartreedc">  -3042.61777777 </i>
    <i name="XCdc">   -828.27086996 </i>
    <i name="pawpsdc">  18741.54531131 </i>
    <i name="pawaedc"> -17301.43500210 </i>
    <i name="eentropy">     -0.01282478 </i>
    <i name="bandstr">   -748.97077442 </i>
    <i name="atom">  12788.47826598 </i>
    <i name="e_fr_energy">   -304.72753458 </i>
    <i name="e_wo_entrp">   -304.71470980 </i>
    <i name="e_0_energy">   -304.72325965 </i>
   </energy>
  </scstep>
  <structure>
   <crystal>
    <varray name="basis" >
     <v>      -3.13881470      -3.14154281      -3.15744041 </v>
     <v>       1.57295638       1.52808989      -7.85450178 </v>
     <v>       7.92252139      -7.89733525      -1.61071041 </v>
    </varray>
    <i name="volume">    467.40324829 </i>
    <varray name="rec_basis" >
     <v>      -0.13797710      -0.12771388      -0.05247822 </v>
     <v>       0.04252270       0.06433548      -0.10628341 </v>
     <v>       0.06311489      -0.06337213       0.00031048 </v>
    </varray>
   </crystal>
   <varray name="positions" >
    <v>       0.95792775       0.93538597       0.39545426 </v>
    <v>       0.63162195       0.27151769       0.40074938 </v>
    <v>       0.49756048       0.00406830      -0.00306954 </v>
    <v>      -0.00229823       0.00102330       0.00366600 </v>
    <v>       0.09197295       0.21382109       0.79531461 </v>
    <v>       0.03129948       0.07330878       0.59618981 </v>
    <v>       0.91158551       0.79206852       0.20413054 </v>
    <v>       0.81025719       0.58697527       0.39542971 </v>
    <v>       0.65529924       0.34813055      -0.00315403 </v>
    <v>       0.37621073       0.72442664       0.60111372 </v>
    <v>       0.13290737       0.27713206       0.39975947 </v>
    <v>       0.83359382       0.65292076       0.00916486 </v>
    <v>       0.92477681       0.87211335       0.79743741 </v>
    <v>       0.55626303       0.13691653       0.19453629 </v>
    <v>       0.41520263       0.77857388       0.19572367 </v>
    <v>       0.44670726       0.85397731       0.79510706 </v>
    <v>       0.29962168       0.60117471       0.40502487 </v>
    <v>       0.85734827       0.72939402       0.60035375 </v>
    <v>       0.46444455       0.93221737       0.40724489 </v>
    <v>       0.17936110       0.33460045      -0.00137338 </v>
    <v>       0.27489210       0.53292555       0.79878246 </v>
    <v>       0.20239561       0.39252830       0.59694357 </v>
    <v>       0.06220269       0.15169599       0.20557451 </v>
    <v>       0.76759488       0.52316355       0.80402279 </v>
    <v>       0.69087756       0.40862086       0.60389891 </v>
    <v>       0.59682644       0.20543118       0.79679699 </v>
    <v>       0.54125610       0.06902939       0.60681372 </v>
[...]
       <r>    4.7806    1.0000 </r>
       <r>    4.8384    1.0000 </r>
       <r>    4.8914    1.0000 </r>
       <r>    4.9518    1.0000 </r>
       <r>    4.9760    1.0000 </r>
       <r>    5.0347    1.0000 </r>
       <r>    5.0813    1.0000 </r>
       <r>    5.1754    1.0000 </r>
       <r>    5.2175    1.0000 </r>
       <r>    5.2256    1.0000 </r>
       <r>    5.3267    1.0000 </r>
       <r>    5.3722    1.0000 </r>
       <r>    5.4167    1.0000 </r>
       <r>    5.4414    1.0000 </r>
       <r>    5.4943    1.0000 </r>
       <r>    5.5562    1.0000 </r>
       <r>    5.5826    1.0000 </r>
       <r>    5.6858    1.0000 </r>
       <r>    5.7216    1.0000 </r>
       <r>    5.7555    1.0000 </r>
       <r>    5.8499    1.0000 </r>
       <r>    5.8998    1.0000 </r>
       <r>    5.9453    1.0000 </r>
       <r>    5.9763    1.0001 </r>
       <r>    6.0317    1.0003 </r>
       <r>    6.0929    1.0011 </r>
       <r>    6.1615    1.0046 </r>
       <r>    6.1983    1.0085 </r>
       <r>    6.2525    1.0182 </r>
       <r>    6.2814    1.0247 </r>
       <r>    6.3475    1.0354 </r>
       <r>    6.4055    1.0182 </r>
       <r>    6.4408    0.9811 </r>
       <r>    6.4854    0.8934 </r>
       <r>    6.5397    0.7214 </r>
       <r>    6.5619    0.6349 </r>
       <r>    6.6336    0.3368 </r>
       <r>    6.7098    0.0901 </r>
       <r>    6.7729   -0.0103 </r>
       <r>    6.8401   -0.0355 </r>
       <r>    6.9178   -0.0222 </r>
       <r>    7.0123   -0.0059 </r>
       <r>    7.0595   -0.0024 </r>
       <r>    7.1596   -0.0002 </r>
       <r>    7.3281   -0.0000 </r>
       <r>    7.3923   -0.0000 </r>
       <r>    7.4356   -0.0000 </r>
       <r>    7.4966   -0.0000 </r>
       <r>    7.5719   -0.0000 </r>
       <r>    7.7817   -0.0000 </r>
       <r>    7.8918   -0.0000 </r>
       <r>    7.9501   -0.0000 </r>
       <r>    8.0950   -0.0000 </r>
       <r>    8.1591   -0.0000 </r>
       <r>    8.2645   -0.0000 </r>
       <r>    8.4427   -0.0000 </r>
       <r>    8.5104   -0.0000 </r>
       <r>    8.6104   -0.0000 </r>
       <r>    8.6651   -0.0000 </r>
       <r>    8.7058   -0.0000 </r>
       <r>    8.7345   -0.0000 </r>
      </set>
     </set>
    </set>
   </array>
  </eigenvalues>
  <separator name="orbital magnetization" >
   <v name="MAGDIPOLOUT">      0.00000000      0.00000000      0.00000000</v>
  </separator>
  <dos>
   <i name="efermi">      6.59423220 </i>
   <total>
    <array>
     <dimension dim="1">gridpoints</dimension>
     <dimension dim="2">spin</dimension>
     <field>energy</field>
     <field>total</field>
     <field>integrated</field>
     <set>
      <set comment="spin 1">
       <r>   -50.3509     0.0000     0.0000 </r>
       <r>   -50.1442     0.0000     0.0000 </r>
       <r>   -49.9375     0.0000     0.0000 </r>
       <r>   -49.7308     0.0000     0.0000 </r>
       <r>   -49.5241     0.0000     0.0000 </r>
       <r>   -49.3174    -0.0000    -0.0000 </r>
       <r>   -49.1107    -0.0000    -0.0000 </r>
       <r>   -48.9040    -0.0000    -0.0000 </r>
       <r>   -48.6973    -0.0000    -0.0000 </r>
       <r>   -48.4906    -0.0000    -0.0000 </r>
       <r>   -48.2839    -0.0000    -0.0000 </r>
       <r>   -48.0772    -0.0066    -0.0014 </r>
       <r>   -47.8705    -0.3689    -0.0776 </r>
       <r>   -47.6638     0.4811     0.0218 </r>
       <r>   -47.4570    18.7687     3.9014 </r>
       <r>   -47.2503    28.6246     9.8181 </r>
       <r>   -47.0436    11.3618    12.1666 </r>
       <r>   -46.8369    -0.6547    12.0313 </r>
       <r>   -46.6302    -0.1499    12.0003 </r>
       <r>   -46.4235    -0.0015    12.0000 </r>
       <r>   -46.2168    -0.0000    12.0000 </r>
       <r>   -46.0101    -0.0000    12.0000 </r>
       <r>   -45.8034    -0.0000    12.0000 </r>
       <r>   -45.5967     0.0000    12.0000 </r>
       <r>   -45.3900     0.0000    12.0000 </r>
       <r>   -45.1833     0.0000    12.0000 </r>
       <r>   -44.9766     0.0000    12.0000 </r>
       <r>   -44.7699     0.0000    12.0000 </r>
       <r>   -44.5632     0.0000    12.0000 </r>
       <r>   -44.3565     0.0000    12.0000 </r>
       <r>   -44.1498     0.0000    12.0000 </r>
       <r>   -43.9431     0.0000    12.0000 </r>
       <r>   -43.7364     0.0000    12.0000 </r>
       <r>   -43.5297     0.0000    12.0000 </r>
       <r>   -43.3230     0.0000    12.0000 </r>
       <r>   -43.1163     0.0000    12.0000 </r>
       <r>   -42.9096     0.0000    12.0000 </r>
       <r>   -42.7029     0.0000    12.0000 </r>
       <r>   -42.4962     0.0000    12.0000 </r>
       <r>   -42.2895     0.0000    12.0000 </r>
       <r>   -42.0828     0.0000    12.0000 </r>
       <r>   -41.8761     0.0000    12.0000 </r>
       <r>   -41.6694     0.0000    12.0000 </r>
       <r>   -41.4627     0.0000    12.0000 </r>
       <r>   -41.2560     0.0000    12.0000 </r>
       <r>   -41.0493     0.0000    12.0000 </r>
       <r>   -40.8426     0.0000    12.0000 </r>
       <r>   -40.6359     0.0000    12.0000 </r>
       <r>   -40.4292     0.0000    12.0000 </r>
       <r>   -40.2225     0.0000    12.0000 </r>
       <r>   -40.0158     0.0000    12.0000 </r>
       <r>   -39.8091     0.0000    12.0000 </r>
       <r>   -39.6024     0.0000    12.0000 </r>
       <r>   -39.3957     0.0000    12.0000 </r>
       <r>   -39.1890     0.0000    12.0000 </r>
       <r>   -38.9823     0.0000    12.0000 </r>
       <r>   -38.7755     0.0000    12.0000 </r>
       <r>   -38.5688     0.0000    12.0000 </r>
       <r>   -38.3621     0.0000    12.0000 </r>
       <r>   -38.1554     0.0000    12.0000 </r>
       <r>   -37.9487     0.0000    12.0000 </r>
       <r>   -37.7420     0.0000    12.0000 </r>
       <r>   -37.5353     0.0000    12.0000 </r>
       <r>   -37.3286     0.0000    12.0000 </r>
       <r>   -37.1219     0.0000    12.0000 </r>
       <r>   -36.9152     0.0000    12.0000 </r>
       <r>   -36.7085     0.0000    12.0000 </r>
       <r>   -36.5018     0.0000    12.0000 </r>
       <r>   -36.2951     0.0000    12.0000 </r>
       <r>   -36.0884     0.0000    12.0000 </r>
       <r>   -35.8817     0.0000    12.0000 </r>
       <r>   -35.6750     0.0000    12.0000 </r>
       <r>   -35.4683     0.0000    12.0000 </r>
       <r>   -35.2616     0.0000    12.0000 </r>
       <r>   -35.0549     0.0000    12.0000 </r>
       <r>   -34.8482     0.0000    12.0000 </r>
       <r>   -34.6415     0.0000    12.0000 </r>
       <r>   -34.4348     0.0000    12.0000 </r>
       <r>   -34.2281     0.0000    12.0000 </r>
       <r>   -34.0214     0.0000    12.0000 </r>
       <r>   -33.8147     0.0000    12.0000 </r>
       <r>   -33.6080     0.0000    12.0000 </r>
       <r>   -33.4013     0.0000    12.0000 </r>
       <r>   -33.1946     0.0000    12.0000 </r>
       <r>   -32.9879     0.0000    12.0000 </r>
       <r>   -32.7812     0.0000    12.0000 </r>
       <r>   -32.5745     0.0000    12.0000 </r>
       <r>   -32.3678     0.0000    12.0000 </r>
       <r>   -32.1611     0.0000    12.0000 </r>
       <r>   -31.9544     0.0000    12.0000 </r>
       <r>   -31.7477     0.0000    12.0000 </r>
       <r>   -31.5410     0.0000    12.0000 </r>
       <r>   -31.3343     0.0000    12.0000 </r>
       <r>   -31.1276     0.0000    12.0000 </r>
       <r>   -30.9209     0.0000    12.0000 </r>
       <r>   -30.7142     0.0000    12.0000 </r>
       <r>   -30.5075     0.0000    12.0000 </r>
       <r>   -30.3008     0.0000    12.0000 </r>
       <r>   -30.0941     0.0000    12.0000 </r>
       <r>   -29.8873     0.0000    12.0000 </r>
       <r>   -29.6806     0.0000    12.0000 </r>
       <r>   -29.4739     0.0000    12.0000 </r>
       <r>   -29.2672     0.0000    12.0000 </r>
       <r>   -29.0605     0.0000    12.0000 </r>
       <r>   -28.8538     0.0000    12.0000 </r>
       <r>   -28.6471     0.0000    12.0000 </r>
       <r>   -28.4404     0.0000    12.0000 </r>
       <r>   -28.2337     0.0000    12.0000 </r>
       <r>   -28.0270     0.0000    12.0000 </r>
       <r>   -27.8203     0.0000    12.0000 </r>
       <r>   -27.6136     0.0000    12.0000 </r>
       <r>   -27.4069     0.0000    12.0000 </r>
       <r>   -27.2002     0.0000    12.0000 </r>
       <r>   -26.9935     0.0000    12.0000 </r>
       <r>   -26.7868     0.0000    12.0000 </r>
       <r>   -26.5801     0.0000    12.0000 </r>
       <r>   -26.3734     0.0000    12.0000 </r>
       <r>   -26.1667     0.0000    12.0000 </r>
       <r>   -25.9600    -0.0000    12.0000 </r>
       <r>   -25.7533    -0.0000    12.0000 </r>
       <r>   -25.5466    -0.0000    12.0000 </r>
       <r>   -25.3399    -0.0000    12.0000 </r>
       <r>   -25.1332    -0.0000    12.0000 </r>
       <r>   -24.9265    -0.0000    12.0000 </r>
       <r>   -24.7198    -0.0032    11.9993 </r>
       <r>   -24.5131    -0.1454    11.9693 </r>
       <r>   -24.3064    -0.0175    11.9657 </r>
       <r>   -24.0997     8.0655    13.6328 </r>
       <r>   -23.8930    17.4913    17.2483 </r>
       <r>   -23.6863    28.0135    23.0388 </r>
       <r>   -23.4796    51.6527    33.7155 </r>
       <r>   -23.2729    41.6476    42.3242 </r>
       <r>   -23.0662    19.4641    46.3475 </r>
       <r>   -22.8595     7.4637    47.8902 </r>
       <r>   -22.6528     0.7135    48.0377 </r>
       <r>   -22.4461    -0.1713    48.0023 </r>
       <r>   -22.2394    -0.0110    48.0000 </r>
       <r>   -22.0327    -0.0001    48.0000 </r>
       <r>   -21.8260    -0.0000    48.0000 </r>
       <r>   -21.6193    -0.0000    48.0000 </r>
       <r>   -21.4126     0.0000    48.0000 </r>
       <r>   -21.2058     0.0000    48.0000 </r>
       <r>   -20.9991     0.0000    48.0000 </r>
       <r>   -20.7924     0.0000    48.0000 </r>
       <r>   -20.5857     0.0000    48.0000 </r>
       <r>   -20.3790     0.0000    48.0000 </r>
       <r>   -20.1723     0.0000    48.0000 </r>
       <r>   -19.9656     0.0000    48.0000 </r>
       <r>   -19.7589     0.0000    48.0000 </r>
       <r>   -19.5522     0.0000    48.0000 </r>
       <r>   -19.3455     0.0000    48.0000 </r>
       <r>   -19.1388     0.0000    48.0000 </r>
       <r>   -18.9321     0.0000    48.0000 </r>
       <r>   -18.7254     0.0000    48.0000 </r>
       <r>   -18.5187     0.0000    48.0000 </r>
       <r>   -18.3120     0.0000    48.0000 </r>
       <r>   -18.1053     0.0000    48.0000 </r>
       <r>   -17.8986     0.0000    48.0000 </r>
       <r>   -17.6919     0.0000    48.0000 </r>
       <r>   -17.4852     0.0000    48.0000 </r>
       <r>   -17.2785     0.0000    48.0000 </r>
       <r>   -17.0718     0.0000    48.0000 </r>
       <r>   -16.8651     0.0000    48.0000 </r>
       <r>   -16.6584     0.0000    48.0000 </r>
       <r>   -16.4517     0.0000    48.0000 </r>
       <r>   -16.2450     0.0000    48.0000 </r>
       <r>   -16.0383     0.0000    48.0000 </r>
       <r>   -15.8316     0.0000    48.0000 </r>
       <r>   -15.6249     0.0000    48.0000 </r>
       <r>   -15.4182     0.0000    48.0000 </r>
       <r>   -15.2115     0.0000    48.0000 </r>
       <r>   -15.0048     0.0000    48.0000 </r>
       <r>   -14.7981     0.0000    48.0000 </r>
       <r>   -14.5914     0.0000    48.0000 </r>
       <r>   -14.3847     0.0000    48.0000 </r>
       <r>   -14.1780     0.0000    48.0000 </r>
       <r>   -13.9713     0.0000    48.0000 </r>
       <r>   -13.7646     0.0000    48.0000 </r>
       <r>   -13.5579     0.0000    48.0000 </r>
       <r>   -13.3512     0.0000    48.0000 </r>
       <r>   -13.1445     0.0000    48.0000 </r>
       <r>   -12.9378     0.0000    48.0000 </r>
       <r>   -12.7311     0.0000    48.0000 </r>
       <r>   -12.5243     0.0000    48.0000 </r>
       <r>   -12.3176     0.0000    48.0000 </r>
       <r>   -12.1109     0.0000    48.0000 </r>
       <r>   -11.9042     0.0000    48.0000 </r>
       <r>   -11.6975     0.0000    48.0000 </r>
       <r>   -11.4908     0.0000    48.0000 </r>
       <r>   -11.2841     0.0000    48.0000 </r>
       <r>   -11.0774     0.0000    48.0000 </r>
       <r>   -10.8707     0.0000    48.0000 </r>
       <r>   -10.6640     0.0000    48.0000 </r>
       <r>   -10.4573     0.0000    48.0000 </r>
       <r>   -10.2506     0.0000    48.0000 </r>
       <r>   -10.0439     0.0000    48.0000 </r>
       <r>    -9.8372     0.0000    48.0000 </r>
       <r>    -9.6305     0.0000    48.0000 </r>
       <r>    -9.4238     0.0000    48.0000 </r>
       <r>    -9.2171     0.0000    48.0000 </r>
       <r>    -9.0104     0.0000    48.0000 </r>
       <r>    -8.8037     0.0000    48.0000 </r>
       <r>    -8.5970     0.0000    48.0000 </r>
       <r>    -8.3903     0.0000    48.0000 </r>
       <r>    -8.1836     0.0000    48.0000 </r>
       <r>    -7.9769     0.0000    48.0000 </r>
       <r>    -7.7702     0.0000    48.0000 </r>
       <r>    -7.5635     0.0000    48.0000 </r>
       <r>    -7.3568     0.0000    48.0000 </r>
       <r>    -7.1501     0.0000    48.0000 </r>
       <r>    -6.9434     0.0000    48.0000 </r>
       <r>    -6.7367     0.0000    48.0000 </r>
       <r>    -6.5300     0.0000    48.0000 </r>
       <r>    -6.3233     0.0000    48.0000 </r>
       <r>    -6.1166     0.0000    48.0000 </r>
       <r>    -5.9099     0.0000    48.0000 </r>
       <r>    -5.7032     0.0000    48.0000 </r>
       <r>    -5.4965     0.0000    48.0000 </r>
       <r>    -5.2898     0.0000    48.0000 </r>
       <r>    -5.0831     0.0000    48.0000 </r>
       <r>    -4.8764     0.0000    48.0000 </r>
       <r>    -4.6697     0.0000    48.0000 </r>
       <r>    -4.4630     0.0000    48.0000 </r>
       <r>    -4.2563     0.0000    48.0000 </r>
       <r>    -4.0496     0.0000    48.0000 </r>
       <r>    -3.8428     0.0000    48.0000 </r>
       <r>    -3.6361     0.0000    48.0000 </r>
       <r>    -3.4294     0.0000    48.0000 </r>
       <r>    -3.2227     0.0000    48.0000 </r>
       <r>    -3.0160     0.0000    48.0000 </r>
       <r>    -2.8093     0.0000    48.0000 </r>
       <r>    -2.6026     0.0000    48.0000 </r>
       <r>    -2.3959     0.0000    48.0000 </r>
       <r>    -2.1892     0.0000    48.0000 </r>
       <r>    -1.9825    -0.0000    48.0000 </r>
       <r>    -1.7758    -0.0000    48.0000 </r>
       <r>    -1.5691    -0.0000    48.0000 </r>
       <r>    -1.3624    -0.0000    48.0000 </r>
       <r>    -1.1557    -0.0000    48.0000 </r>
       <r>    -0.9490    -0.0000    48.0000 </r>
       <r>    -0.7423    -0.0000    48.0000 </r>
       <r>    -0.5356    -0.0024    47.9995 </r>
       <r>    -0.3289    -0.0177    47.9959 </r>
       <r>    -0.1222     0.1645    48.0299 </r>
       <r>     0.0845     0.8739    48.2105 </r>
       <r>     0.2912     1.2703    48.4731 </r>
       <r>     0.4979     1.8275    48.8508 </r>
       <r>     0.7046     2.1402    49.2932 </r>
       <r>     0.9113     1.8571    49.6771 </r>
       <r>     1.1180     2.7384    50.2431 </r>
       <r>     1.3247     3.1128    50.8865 </r>
       <r>     1.5314     3.4374    51.5971 </r>
       <r>     1.7381     3.8948    52.4021 </r>
       <r>     1.9448     4.5991    53.3528 </r>
       <r>     2.1515     5.2258    54.4330 </r>
       <r>     2.3582     6.1568    55.7056 </r>
       <r>     2.5649     9.7808    57.7273 </r>
       <r>     2.7716    15.8135    60.9960 </r>
       <r>     2.9783    19.4852    65.0236 </r>
       <r>     3.1850    24.2721    70.0407 </r>
       <r>     3.3917    29.2573    76.0883 </r>
       <r>     3.5984    31.0222    82.5006 </r>
       <r>     3.8051    32.0230    89.1199 </r>
       <r>     4.0118    31.2161    95.5723 </r>
       <r>     4.2185    30.4139   101.8589 </r>
       <r>     4.4252    28.2135   107.6907 </r>
       <r>     4.6319    27.1511   113.3029 </r>
       <r>     4.8387    31.0155   119.7139 </r>
       <r>     5.0454    37.5608   127.4778 </r>
       <r>     5.2521    41.3210   136.0190 </r>
       <r>     5.4588    41.1800   144.5310 </r>
       <r>     5.6655    40.1281   152.8255 </r>
       <r>     5.8722    41.8847   161.4832 </r>
       <r>     6.0789    43.7276   170.5218 </r>
       <r>     6.2856    43.1659   179.4443 </r>
       <r>     6.4923    41.3708   187.9957 </r>
       <r>     6.6990    37.9819   195.8467 </r>
       <r>     6.9057    32.7585   202.6180 </r>
       <r>     7.1124    27.4292   208.2876 </r>
       <r>     7.3191    21.7060   212.7743 </r>
       <r>     7.5258    19.3156   216.7669 </r>
       <r>     7.7325    19.0463   220.7038 </r>
       <r>     7.9392    20.8837   225.0205 </r>
       <r>     8.1459    24.5263   230.0902 </r>
       <r>     8.3526    23.5802   234.9643 </r>
       <r>     8.5593    16.7730   238.4313 </r>
       <r>     8.7660     7.1273   239.9045 </r>
       <r>     8.9727     0.6203   240.0327 </r>
       <r>     9.1794    -0.1482   240.0021 </r>
       <r>     9.3861    -0.0101   240.0000 </r>
       <r>     9.5928    -0.0001   240.0000 </r>
       <r>     9.7995    -0.0000   240.0000 </r>
       <r>    10.0062    -0.0000   240.0000 </r>
       <r>    10.2129    -0.0000   240.0000 </r>
       <r>    10.4196     0.0000   240.0000 </r>
       <r>    10.6263     0.0000   240.0000 </r>
       <r>    10.8330     0.0000   240.0000 </r>
       <r>    11.0397     0.0000   240.0000 </r>
       <r>    11.2464     0.0000   240.0000 </r>
       <r>    11.4531     0.0000   240.0000 </r>
       <r>    11.6598     0.0000   240.0000 </r>
      </set>
     </set>
    </array>
   </total>
  </dos>
 </calculation>
 <structure name="finalpos" >
  <crystal>
   <varray name="basis" >
    <v>      -3.15277598      -3.16368903      -3.17650582 </v>
    <v>       1.59094630       1.44735778      -7.82175047 </v>
    <v>       7.98188095      -7.90388762      -1.69330112 </v>
   </varray>
   <i name="volume">    468.27252817 </i>
   <varray name="rec_basis" >
    <v>      -0.13725565      -0.12757172      -0.05152405 </v>
    <v>       0.04217558       0.06554536      -0.10714140 </v>
    <v>       0.06266250      -0.06345424       0.00100383 </v>
   </varray>
  </crystal>
  <varray name="positions" >
   <v>       0.95509753       0.94318732       0.39370920 </v>
   <v>       0.63273117       0.27562756       0.39684052 </v>
   <v>       0.50156725      -0.00470908      -0.00297205 </v>
   <v>      -0.00391856       0.00201792       0.00438778 </v>
   <v>       0.09707132       0.20336362       0.79416155 </v>
   <v>       0.03364730       0.06963296       0.59621888 </v>
   <v>       0.90793941       0.79681241       0.20406515 </v>
   <v>       0.80937558       0.59293547       0.39502566 </v>
   <v>       0.66240275       0.34585044      -0.00690259 </v>
   <v>       0.37431140       0.72376016       0.60341328 </v>
   <v>       0.13328809       0.27898667       0.39831209 </v>
   <v>       0.83199172       0.64589498       0.01977257 </v>
   <v>       0.92338928       0.86524087       0.80205736 </v>
   <v>       0.55190414       0.13830598       0.19294682 </v>
   <v>       0.41355771       0.78421935       0.19896720 </v>
   <v>       0.43928398       0.85081245       0.80067350 </v>
   <v>       0.29734216       0.60608506       0.40627861 </v>
   <v>       0.85952251       0.72613357       0.60224169 </v>
   <v>       0.46565374       0.93083638       0.40919717 </v>
   <v>       0.18795383       0.33320340      -0.00657808 </v>
   <v>       0.27768110       0.52861382       0.79303984 </v>
   <v>       0.20704331       0.38540381       0.59435057 </v>
   <v>       0.02864286       0.19200566       0.19992609 </v>
   <v>       0.76542776       0.51813927       0.80703470 </v>
   <v>       0.68963313       0.40757059       0.60462680 </v>
   <v>       0.60020495       0.20074273       0.79173779 </v>
   <v>       0.55076210       0.06350381       0.60948450 </v>
   <v>       0.33084951       0.65023183       0.00134202 </v>
   <v>       0.24230963       0.47892432       0.19664135 </v>
  </varray>
 </structure>
</modeling>
