Nb - Mo - Ta - Ti - V SQS               
           1
    -3.160000   -3.160000   -3.160000
     1.580000    1.580000   -7.900000
     7.900000   -7.900000   -1.580000
   Nb   Mo   Ta   Ti   V 
   6   5   6   6   6
Direct configuration=     1
   0.96666667  0.93333333  0.40000000
   0.63333333  0.26666667  0.40000000
   0.50000000  0.00000000  0.00000000
   0.00000000  0.00000000  0.00000000
   0.10000000  0.20000000  0.80000000
   0.03333333  0.06666667  0.60000000
   0.90000000  0.80000000  0.20000000
   0.80000000  0.60000000  0.40000000
   0.66666667  0.33333333  0.00000000
   0.36666667  0.73333333  0.60000000
   0.13333333  0.26666667  0.40000000
   0.83333333  0.66666667  0.00000000
   0.93333333  0.86666667  0.80000000
   0.56666667  0.13333333  0.20000000
   0.40000000  0.80000000  0.20000000
   0.43333333  0.86666667  0.80000000
   0.30000000  0.60000000  0.40000000
   0.86666667  0.73333333  0.60000000
   0.46666667  0.93333333  0.40000000
   0.16666667  0.33333333  0.00000000
   0.26666667  0.53333333  0.80000000
   0.20000000  0.40000000  0.60000000
   0.06666667  0.13333333  0.20000000
   0.76666667  0.53333333  0.80000000
   0.70000000  0.40000000  0.60000000
   0.60000000  0.20000000  0.80000000
   0.53333333  0.06666667  0.60000000
   0.33333333  0.66666667  0.00000000
   0.23333333  0.46666667  0.20000000
Nb - Mo - Ta - Ti - V SQS               
           1
    -3.136648   -3.137692   -3.144542
     1.570154    1.553713   -7.848053
     7.871079   -7.861770   -1.584190
   Nb   Mo   Ta   Ti   V 
   6   5   6   6   6
Direct configuration=     2
   0.96318691  0.93395141  0.39814471
   0.63246194  0.26856981  0.40061857
   0.49884130  0.00217541 -0.00108732
  -0.00102749  0.00030080  0.00152174
   0.09653613  0.20586713  0.79811827
   0.03247624  0.06934019  0.59851877
   0.90492490  0.79680652  0.20190026
   0.80427519  0.59461511  0.39822991
   0.66206481  0.33891463 -0.00125640
   0.37049707  0.72987220  0.60044398
   0.13326567  0.27119510  0.39990325
   0.83356773  0.66118988  0.00337627
   0.92957876  0.86881878  0.79883847
   0.56236508  0.13460349  0.19763235
   0.40554083  0.79161521  0.19822640
   0.43969162  0.86120962  0.79780513
   0.29962130  0.60042827  0.40189427
   0.86284600  0.73181096  0.60019224
   0.46584076  0.93301377  0.40297717
   0.17147161  0.33385009 -0.00051585
   0.26988878  0.53322865  0.79964536
   0.20093285  0.39706242  0.59874680
   0.06547829  0.14020760  0.20227260
   0.76714169  0.52946237  0.80152984
   0.69657320  0.40335812  0.60134987
   0.59884341  0.20194020  0.79891143
   0.53617528  0.06767271  0.60255816
   0.33286235  0.66274921 -0.00029195
   0.23074446  0.46950366  0.19979570
Nb - Mo - Ta - Ti - V SQS               
           1
    -3.118011   -3.119888   -3.132206
     1.562297    1.532733   -7.806595
     7.847998   -7.831259   -1.587534
   Nb   Mo   Ta   Ti   V 
   6   5   6   6   6
Direct configuration=     3
   0.96038874  0.93445307  0.39665741
   0.63175905  0.27009995  0.40111278
   0.49790621  0.00392692 -0.00196055
  -0.00185281  0.00054131  0.00274117
   0.09374248  0.21058982  0.79660537
   0.03178253  0.07149260  0.59732939
   0.90888840  0.79423292  0.20342570
   0.80771810  0.59028455  0.39681553
   0.65835748  0.34340735 -0.00226782
   0.37358072  0.72708598  0.60080253
   0.13320414  0.27483681  0.39982190
   0.83376647  0.65678111  0.00608685
   0.92655772  0.87055326  0.79790592
   0.55890523  0.13563069  0.19573390
   0.41000547  0.78487151  0.19681165
   0.44480834  0.85682030  0.79605024
   0.29931731  0.60077039  0.40341214
   0.85977832  0.73058887  0.60034780
   0.46517917  0.93275337  0.40536361
   0.17533161  0.33426334 -0.00092998
   0.27247794  0.53314294  0.79936105
   0.20168640  0.39470125  0.59774481
   0.06451377  0.14573325  0.20408832
   0.76753028  0.52634722  0.80275919
   0.69381498  0.40605889  0.60242911
   0.59791039  0.20350256  0.79803741
   0.53845875  0.06847656  0.60460747
   0.33248988  0.65959967 -0.00052262
   0.22865957  0.47178690  0.19962972
Nb - Mo - Ta - Ti - V SQS               
           1
    -3.138815   -3.141543   -3.157440
     1.572956    1.528090   -7.854502
     7.922521   -7.897335   -1.610710
   Nb   Mo   Ta   Ti   V 
   6   5   6   6   6
Direct configuration=     4
   0.95792775  0.93538597  0.39545426
   0.63162195  0.27151769  0.40074938
   0.49756048  0.00406830 -0.00306954
  -0.00229823  0.00102330  0.00366600
   0.09197295  0.21382109  0.79531461
   0.03129948  0.07330878  0.59618981
   0.91158551  0.79206852  0.20413054
   0.81025719  0.58697527  0.39542971
   0.65529924  0.34813055 -0.00315403
   0.37621073  0.72442664  0.60111372
   0.13290737  0.27713206  0.39975947
   0.83359382  0.65292076  0.00916486
   0.92477681  0.87211335  0.79743741
   0.55626303  0.13691653  0.19453629
   0.41520263  0.77857388  0.19572367
   0.44670726  0.85397731  0.79510706
   0.29962168  0.60117471  0.40502487
   0.85734827  0.72939402  0.60035375
   0.46444455  0.93221737  0.40724489
   0.17936110  0.33460045 -0.00137338
   0.27489210  0.53292555  0.79878246
   0.20239561  0.39252830  0.59694357
   0.06220269  0.15169599  0.20557451
   0.76759488  0.52316355  0.80402279
   0.69087756  0.40862086  0.60389891
   0.59682644  0.20543118  0.79679699
   0.54125610  0.06902939  0.60681372
   0.33227654  0.65599530 -0.00080346
   0.22668118  0.47419666  0.19916715
Nb - Mo - Ta - Ti - V SQS               
           1
    -3.141999   -3.144857   -3.161303
     1.574588    1.527379   -7.861834
     7.933928   -7.907449   -1.614258
   Nb   Mo   Ta   Ti   V 
   6   5   6   6   6
Direct configuration=     5
   0.95755334  0.93552842  0.39527163
   0.63160072  0.27173364  0.40069405
   0.49750779  0.00409008 -0.00323779
  -0.00236596  0.00109652  0.00380623
   0.09170306  0.21431346  0.79511835
   0.03122549  0.07358557  0.59601668
   0.91199607  0.79173866  0.20423776
   0.81064382  0.58647154  0.39521994
   0.65483313  0.34885007 -0.00328913
   0.37661118  0.72402151  0.60116130
   0.13286168  0.27748156  0.39974966
   0.83356884  0.65233235  0.00963236
   0.92450569  0.87235109  0.79736612
   0.55586099  0.13711273  0.19435445
   0.41599404  0.77761493  0.19555949
   0.44699651  0.85354453  0.79496438
   0.29966800  0.60123591  0.40526946
   0.85697921  0.72921224  0.60035485
   0.46433320  0.93213541  0.40753036
   0.17997344  0.33465163 -0.00144073
   0.27525904  0.53289242  0.79869470
   0.20250387  0.39219757  0.59682233
   0.06185006  0.15260369  0.20579911
   0.76760562  0.52267854  0.80421494
   0.69043058  0.40901081  0.60412153
   0.59666108  0.20572515  0.79660855
   0.54168136  0.06911293  0.60714831
   0.33224499  0.65544658 -0.00084553
   0.22637982  0.47456378  0.19909664
Nb - Mo - Ta - Ti - V SQS               
           1
    -3.143695   -3.146552   -3.162098
     1.573610    1.521189   -7.855019
     7.939515   -7.910157   -1.617505
   Nb   Mo   Ta   Ti   V 
   6   5   6   6   6
Direct configuration=     6
   0.95744604  0.93600728  0.39525138
   0.63194922  0.27180067  0.40002536
   0.49835437  0.00236398 -0.00346467
  -0.00246272  0.00146101  0.00383039
   0.09260352  0.21308988  0.79514325
   0.03148408  0.07342079  0.59591049
   0.91129766  0.79204594  0.20362241
   0.81044652  0.58717024  0.39515038
   0.65519399  0.34942074 -0.00344158
   0.37626196  0.72392584  0.60126290
   0.13296918  0.27654948  0.39987225
   0.83313891  0.65259025  0.01030408
   0.92480014  0.87257008  0.79779037
   0.55624126  0.13726397  0.19449875
   0.41702535  0.77726655  0.19575558
   0.44473114  0.85437146  0.79549396
   0.29983939  0.60157445  0.40549401
   0.85721615  0.72912811  0.60016444
   0.46415756  0.93169356  0.40737295
   0.18113016  0.33453949 -0.00160769
   0.27539166  0.53278681  0.79825932
   0.20263297  0.39186746  0.59674046
   0.06019495  0.15410519  0.20572556
   0.76698473  0.52235346  0.80459040
   0.68974579  0.40931292  0.60457807
   0.59649428  0.20623583  0.79604094
   0.54295296  0.06884171  0.60768084
   0.33217978  0.65454660 -0.00093744
   0.22626567  0.47502958  0.19889286
Nb - Mo - Ta - Ti - V SQS               
           1
    -3.148560   -3.151413   -3.164378
     1.570806    1.503433   -7.835466
     7.955543   -7.917926   -1.626819
   Nb   Mo   Ta   Ti   V 
   6   5   6   6   6
Direct configuration=     7
   0.95713755  0.93738263  0.39519286
   0.63294788  0.27199406  0.39810798
   0.50078446 -0.00259306 -0.00411354
  -0.00274074  0.00250780  0.00389929
   0.09518749  0.20957588  0.79521583
   0.03222573  0.07294770  0.59560617
   0.90929413  0.79292900  0.20185773
   0.80987963  0.58917699  0.39495025
   0.65622767  0.35106003 -0.00387922
   0.37526089  0.72365087  0.60155430
   0.13327903  0.27387233  0.40022462
   0.83190621  0.65333006  0.01222984
   0.92564441  0.87319861  0.79900661
   0.55733149  0.13769827  0.19491234
   0.41998317  0.77626601  0.19631815
   0.43823458  0.85674525  0.79701162
   0.30033044  0.60254655  0.40613753
   0.85789552  0.72888678  0.59961858
   0.46365453  0.93042469  0.40692201
   0.18444694  0.33421793 -0.00208630
   0.27577177  0.53248402  0.79701107
   0.20300363  0.39091949  0.59650604
   0.05544666  0.15841725  0.20551324
   0.76520523  0.52141921  0.80566724
   0.68778209  0.41017987  0.60588677
   0.59601475  0.20770317  0.79441295
   0.54659990  0.06806248  0.60920800
   0.33199420  0.65196185 -0.00120012
   0.22593745  0.47636761  0.19830813
Nb - Mo - Ta - Ti - V SQS               
           1
    -3.148228   -3.151042   -3.164399
     1.569556    1.495324   -7.826539
     7.956080   -7.914128   -1.631054
   Nb   Mo   Ta   Ti   V 
   6   5   6   6   6
Direct configuration=     8
   0.95657243  0.93766037  0.39496996
   0.63305156  0.27247020  0.39775031
   0.50086682 -0.00288488 -0.00367163
  -0.00302301  0.00304005  0.00404714
   0.09576883  0.20862801  0.79537004
   0.03276756  0.07244756  0.59576544
   0.90953833  0.79365189  0.20204145
   0.81000408  0.58978971  0.39498605
   0.65741115  0.35095913 -0.00408132
   0.37456067  0.72418356  0.60203188
   0.13366216  0.27382104  0.40022473
   0.83226118  0.65277837  0.01253373
   0.92387960  0.87318427  0.79924289
   0.55701386  0.13728717  0.19428044
   0.41973256  0.77609378  0.19678302
   0.43842306  0.85670479  0.79741227
   0.29975798  0.60262381  0.40573235
   0.85803852  0.72897013  0.59975695
   0.46415978  0.92992326  0.40671683
   0.18593755  0.33387401 -0.00244445
   0.27557579  0.53223811  0.79632031
   0.20325303  0.39027404  0.59641834
   0.05384191  0.16072626  0.20508514
   0.76423929  0.52118953  0.80617229
   0.68734184  0.41018792  0.60613654
   0.59631550  0.20766082  0.79375376
   0.54782940  0.06777798  0.60946819
   0.33176449  0.65147905 -0.00117351
   0.22612076  0.47659339  0.19837087
Nb - Mo - Ta - Ti - V SQS               
           1
    -3.147657   -3.150403   -3.164436
     1.567400    1.481348   -7.811153
     7.957007   -7.907582   -1.638352
   Nb   Mo   Ta   Ti   V 
   6   5   6   6   6
Direct configuration=     9
   0.95559786  0.93814010  0.39458550
   0.63322945  0.27329252  0.39713338
   0.50100941 -0.00338914 -0.00290964
  -0.00351014  0.00395865  0.00430161
   0.09677217  0.20699160  0.79563659
   0.03370222  0.07158402  0.59604038
   0.90995843  0.79489945  0.20235761
   0.81021783  0.59084730  0.39504730
   0.65945110  0.35078513 -0.00442962
   0.37335332  0.72510252  0.60285475
   0.13432262  0.27373248  0.40022494
   0.83287391  0.65182567  0.01305802
   0.92083781  0.87315933  0.79965021
   0.55646654  0.13657835  0.19319143
   0.41930108  0.77579592  0.19758451
   0.43874823  0.85663444  0.79810296
   0.29877092  0.60275773  0.40503382
   0.85828497  0.72911382  0.59999542
   0.46503119  0.92905795  0.40636352
   0.18850709  0.33328068 -0.00306159
   0.27523789  0.53181450  0.79512972
   0.20368369  0.38915999  0.59626763
   0.05107264  0.16471259  0.20434541
   0.76257494  0.52079253  0.80704309
   0.68658315  0.41020154  0.60656709
   0.59683357  0.20758851  0.79261742
   0.54994916  0.06728648  0.60991694
   0.33136919  0.65064565 -0.00112728
   0.22643646  0.47698302  0.19847884
Nb - Mo - Ta - Ti - V SQS               
           1
    -3.153127   -3.156542   -3.171255
     1.570239    1.477550   -7.821446
     7.972783   -7.920305   -1.646494
   Nb   Mo   Ta   Ti   V 
   6   5   6   6   6
Direct configuration=    10
   0.95523637  0.93863350  0.39443614
   0.63333480  0.27371297  0.39680022
   0.50093455 -0.00346288 -0.00254960
  -0.00367112  0.00428061  0.00439707
   0.09699161  0.20656075  0.79571200
   0.03413778  0.07118074  0.59613407
   0.91005069  0.79541904  0.20258113
   0.81026342  0.59110821  0.39513375
   0.66067419  0.35039043 -0.00457941
   0.37292627  0.72545911  0.60310135
   0.13465437  0.27407590  0.40012067
   0.83331829  0.65109761  0.01345744
   0.91999532  0.87292686  0.79974845
   0.55592656  0.13644438  0.19276656
   0.41906454  0.77582139  0.19783519
   0.43870104  0.85610448  0.79864086
   0.29826251  0.60282675  0.40502055
   0.85827429  0.72910644  0.60030638
   0.46540206  0.92875035  0.40635425
   0.18977949  0.33305497 -0.00353839
   0.27475735  0.53163150  0.79450243
   0.20398979  0.38851383  0.59610223
   0.04930962  0.16726008  0.20385457
   0.76191938  0.52062847  0.80737443
   0.68633041  0.41009523  0.60665928
   0.59726508  0.20729252  0.79213691
   0.55083363  0.06698960  0.60995735
   0.33116829  0.65045403 -0.00096735
   0.22683606  0.47697642  0.19850146
Nb - Mo - Ta - Ti - V SQS               
           1
    -3.154859   -3.158486   -3.173414
     1.571138    1.476348   -7.824705
     7.977779   -7.924335   -1.649073
   Nb   Mo   Ta   Ti   V 
   6   5   6   6   6
Direct configuration=    11
   0.95512200  0.93878965  0.39438887
   0.63336800  0.27384607  0.39669484
   0.50091091 -0.00348629 -0.00243577
  -0.00372206  0.00438246  0.00442720
   0.09706106  0.20642441  0.79573589
   0.03427554  0.07105312  0.59616374
   0.91007976  0.79558337  0.20265172
   0.81027778  0.59119074  0.39516104
   0.66106087  0.35026555 -0.00462673
   0.37279123  0.72557188  0.60317927
   0.13475916  0.27418457  0.40008766
   0.83345892  0.65086717  0.01358379
   0.91972907  0.87285332  0.79977955
   0.55575588  0.13640210  0.19263227
   0.41898977  0.77582940  0.19791444
   0.43868624  0.85593669  0.79881096
   0.29810180  0.60284861  0.40501636
   0.85827092  0.72910404  0.60040468
   0.46551936  0.92865302  0.40635135
   0.19018172  0.33298363 -0.00368910
   0.27460547  0.53157376  0.79430416
   0.20408667  0.38830943  0.59605003
   0.04875182  0.16806622  0.20369910
   0.76171221  0.52057652  0.80747921
   0.68625055  0.41006159  0.60668844
   0.59740152  0.20719897  0.79198505
   0.55111327  0.06689563  0.60997016
   0.33110483  0.65039337 -0.00091676
   0.22696238  0.47697432  0.19850861
Nb - Mo - Ta - Ti - V SQS               
           1
    -3.153668   -3.158472   -3.174111
     1.571990    1.472759   -7.824295
     7.977230   -7.922858   -1.653320
   Nb   Mo   Ta   Ti   V 
   6   5   6   6   6
Direct configuration=    12
   0.95507914  0.93933595  0.39432157
   0.63343560  0.27408923  0.39646748
   0.50092386 -0.00361188 -0.00233958
  -0.00376573  0.00437963  0.00443130
   0.09695732  0.20647050  0.79567362
   0.03446969  0.07087913  0.59613827
   0.90991075  0.79564869  0.20278135
   0.81025630  0.59109442  0.39527773
   0.66178009  0.34981757 -0.00475176
   0.37281478  0.72552279  0.60311269
   0.13486711  0.27474175  0.39992091
   0.83366924  0.65037709  0.01400392
   0.92003899  0.87252069  0.79984582
   0.55531569  0.13664417  0.19263899
   0.41892978  0.77608663  0.19789337
   0.43825824  0.85527139  0.79927201
   0.29788076  0.60299591  0.40540320
   0.85810393  0.72901607  0.60072502
   0.46557046  0.92860791  0.40655125
   0.19084456  0.33299351 -0.00411636
   0.27408903  0.53154795  0.79394636
   0.20439734  0.38781001  0.59583719
   0.04732781  0.17004575  0.20334620
   0.76154964  0.52047088  0.80756170
   0.68622725  0.40992493  0.60660466
   0.59779772  0.20675945  0.79181647
   0.55146274  0.06662502  0.60985990
   0.33105519  0.65040617 -0.00067527
   0.22741939  0.47686201  0.19845197
Nb - Mo - Ta - Ti - V SQS               
           1
    -3.150093   -3.158431   -3.176203
     1.574544    1.461993   -7.823065
     7.975585   -7.918427   -1.666063
   Nb   Mo   Ta   Ti   V 
   6   5   6   6   6
Direct configuration=    13
   0.95495002  0.94097537  0.39411921
   0.63363826  0.27481921  0.39578508
   0.50096278 -0.00398892 -0.00205086
  -0.00389676  0.00437113  0.00444359
   0.09664605  0.20660893  0.79548678
   0.03505239  0.07035701  0.59606194
   0.90940354  0.79584455  0.20317029
   0.81019190  0.59080525  0.39562795
   0.66393851  0.34847321 -0.00512665
   0.37288554  0.72537556  0.60291297
   0.13519052  0.27641392  0.39942009
   0.83430063  0.64890575  0.01526486
   0.92096918  0.87152236  0.80004489
   0.55399472  0.13737072  0.19265905
   0.41874951  0.77685857  0.19782995
   0.43697455  0.85327444  0.80065598
   0.29721729  0.60343740  0.40656382
   0.85760288  0.72875167  0.60168627
   0.46572376  0.92847222  0.40715106
   0.19283347  0.33302356 -0.00539847
   0.27253963  0.53147125  0.79287296
   0.20533000  0.38631163  0.59519895
   0.04305345  0.17598688  0.20228602
   0.76106192  0.52015381  0.80780934
   0.68615751  0.40951501  0.60635343
   0.59898694  0.20544069  0.79131096
   0.55251159  0.06581304  0.60952925
   0.33090617  0.65044420  0.00004929
   0.22879072  0.47652493  0.19828201
Nb - Mo - Ta - Ti - V SQS               
           1
    -3.149135   -3.157627   -3.175118
     1.577141    1.461004   -7.822832
     7.974590   -7.914234   -1.669079
   Nb   Mo   Ta   Ti   V 
   6   5   6   6   6
Direct configuration=    14
   0.95501753  0.94118905  0.39410999
   0.63366507  0.27498661  0.39582726
   0.50117424 -0.00419752 -0.00226542
  -0.00373670  0.00398593  0.00437657
   0.09673513  0.20645535  0.79517652
   0.03471017  0.07062278  0.59595653
   0.90931058  0.79563239  0.20333862
   0.80983210  0.59107696  0.39577308
   0.66370406  0.34820205 -0.00516418
   0.37307609  0.72503834  0.60299827
   0.13489883  0.27653869  0.39920575
   0.83416035  0.64891327  0.01564733
   0.92105234  0.87091998  0.80038319
   0.55416800  0.13753093  0.19285715
   0.41834787  0.77719998  0.19808737
   0.43738426  0.85313425  0.80056018
   0.29722485  0.60396446  0.40650673
   0.85768462  0.72844177  0.60179083
   0.46574664  0.92871824  0.40738187
   0.19272021  0.33311349 -0.00561487
   0.27248978  0.53144207  0.79291902
   0.20549940  0.38613370  0.59512522
   0.04169498  0.17755672  0.20193167
   0.76132984  0.52007860  0.80767658
   0.68667479  0.40917724  0.60603775
   0.59913498  0.20496287  0.79148639
   0.55240442  0.06541529  0.60946323
   0.33102316  0.65039061  0.00027602
   0.22953910  0.47670922  0.19815133
Nb - Mo - Ta - Ti - V SQS               
           1
    -3.146355   -3.155296   -3.171974
     1.584671    1.458136   -7.822155
     7.971705   -7.902079   -1.677823
   Nb   Mo   Ta   Ti   V 
   6   5   6   6   6
Direct configuration=    15
   0.95521347  0.94180859  0.39408310
   0.63374299  0.27547189  0.39594950
   0.50178719 -0.00480194 -0.00288755
  -0.00327283  0.00286927  0.00418244
   0.09699314  0.20601056  0.79427679
   0.03371780  0.07139344  0.59565067
   0.90904094  0.79501702  0.20382695
   0.80878894  0.59186448  0.39619380
   0.66302388  0.34741594 -0.00527282
   0.37362856  0.72406055  0.60324587
   0.13405284  0.27690075  0.39858406
   0.83375379  0.64893443  0.01675661
   0.92129334  0.86917302  0.80136470
   0.55467080  0.13799509  0.19343158
   0.41718347  0.77818939  0.19883375
   0.43857229  0.85272797  0.80028241
   0.29724712  0.60549263  0.40634080
   0.85792152  0.72754311  0.60209426
   0.46581331  0.92943112  0.40805111
   0.19239163  0.33337458 -0.00624255
   0.27234522  0.53135740  0.79305262
   0.20599051  0.38561798  0.59491151
   0.03775610  0.18210855  0.20090299
   0.76210670  0.51986077  0.80729160
   0.68817452  0.40819853  0.60512242
   0.59956410  0.20357730  0.79199550
   0.55209329  0.06426224  0.60927204
   0.33136255  0.65023486  0.00093363
   0.23170952  0.47724381  0.19777220
Nb - Mo - Ta - Ti - V SQS               
           1
    -3.147656   -3.156969   -3.173081
     1.587156    1.457977   -7.825772
     7.975879   -7.904621   -1.680921
   Nb   Mo   Ta   Ti   V 
   6   5   6   6   6
Direct configuration=    16
   0.95524120  0.94197857  0.39406870
   0.63361821  0.27562132  0.39600222
   0.50190001 -0.00483014 -0.00290405
  -0.00320686  0.00264409  0.00418352
   0.09705554  0.20583526  0.79412762
   0.03351218  0.07138919  0.59564418
   0.90885569  0.79503755  0.20393003
   0.80862393  0.59209143  0.39624952
   0.66291143  0.34719134 -0.00533971
   0.37371425  0.72392257  0.60333703
   0.13387702  0.27712538  0.39844043
   0.83368406  0.64875152  0.01702965
   0.92152679  0.86869509  0.80152490
   0.55464765  0.13803836  0.19343203
   0.41685059  0.77864511  0.19895513
   0.43874531  0.85259108  0.80014889
   0.29726264  0.60560002  0.40637923
   0.85807656  0.72727006  0.60217233
   0.46582470  0.92963229  0.40824220
   0.19209967  0.33339907 -0.00638523
   0.27255452  0.53122102  0.79312365
   0.20616837  0.38560460  0.59480869
   0.03675072  0.18330610  0.20061505
   0.76237718  0.51975558  0.80721440
   0.68853810  0.40796600  0.60489554
   0.59960728  0.20322752  0.79209822
   0.55191738  0.06402971  0.60922650
   0.33142669  0.65021119  0.00107792
   0.23250584  0.47738244  0.19770142
Nb - Mo - Ta - Ti - V SQS               
           1
    -3.149205   -3.158962   -3.174399
     1.590116    1.457788   -7.830079
     7.980850   -7.907649   -1.684609
   Nb   Mo   Ta   Ti   V 
   6   5   6   6   6
Direct configuration=    17
   0.95527424  0.94218089  0.39405152
   0.63346973  0.27579916  0.39606494
   0.50203430 -0.00486370 -0.00292368
  -0.00312837  0.00237608  0.00418484
   0.09712976  0.20562667  0.79395010
   0.03326744  0.07138413  0.59563646
   0.90863520  0.79506193  0.20405273
   0.80842757  0.59236152  0.39631580
   0.66277754  0.34692404 -0.00541927
   0.37381625  0.72375831  0.60344556
   0.13366777  0.27739279  0.39826942
   0.83360105  0.64853370  0.01735469
   0.92180461  0.86812618  0.80171567
   0.55462011  0.13808986  0.19343256
   0.41645447  0.77918744  0.19909954
   0.43895121  0.85242822  0.79998997
   0.29728114  0.60572783  0.40642496
   0.85826106  0.72694503  0.60226530
   0.46583830  0.92987165  0.40846962
   0.19175215  0.33342827 -0.00655507
   0.27280362  0.53105868  0.79320822
   0.20638006  0.38558873  0.59468631
   0.03555421  0.18473153  0.20027210
   0.76269910  0.51963042  0.80712252
   0.68897080  0.40768935  0.60462551
   0.59965863  0.20281116  0.79222055
   0.55170797  0.06375296  0.60917233
   0.33150306  0.65018297  0.00124968
   0.23345369  0.47754752  0.19761712
Nb - Mo - Ta - Ti - V SQS               
           1
    -3.148976   -3.159123   -3.173896
     1.590019    1.456764   -7.827764
     7.979956   -7.906975   -1.685102
   Nb   Mo   Ta   Ti   V 
   6   5   6   6   6
Direct configuration=    18
   0.95524959  0.94228528  0.39402446
   0.63326597  0.27584882  0.39611193
   0.50202154 -0.00476761 -0.00278860
  -0.00316100  0.00234264  0.00425111
   0.09713463  0.20544792  0.79399429
   0.03324921  0.07112289  0.59570881
   0.90844524  0.79530103  0.20407635
   0.80852792  0.59245521  0.39627097
   0.66284286  0.34679872 -0.00553079
   0.37380178  0.72381423  0.60349273
   0.13362292  0.27768534  0.39823434
   0.83359270  0.64820806  0.01751843
   0.92212986  0.86792639  0.80164664
   0.55439032  0.13801209  0.19327503
   0.41623515  0.77966256  0.19904585
   0.43886795  0.85231315  0.79993573
   0.29720714  0.60551372  0.40654963
   0.85842252  0.72680324  0.60231463
   0.46582738  0.92996746  0.40857880
   0.19140224  0.33338945 -0.00660130
   0.27322627  0.53085747  0.79324882
   0.20654056  0.38567738  0.59457426
   0.03507466  0.18534950  0.20013941
   0.76289008  0.51948865  0.80713201
   0.68905479  0.40764447  0.60455347
   0.59963869  0.20264378  0.79219285
   0.55155391  0.06373082  0.60916525
   0.33148326  0.65019207  0.00127942
   0.23412849  0.47761864  0.19760546
Nb - Mo - Ta - Ti - V SQS               
           1
    -3.148290   -3.159605   -3.172386
     1.589728    1.453693   -7.820817
     7.977274   -7.904951   -1.686580
   Nb   Mo   Ta   Ti   V 
   6   5   6   6   6
Direct configuration=    19
   0.95517561  0.94259854  0.39394326
   0.63265464  0.27599780  0.39625293
   0.50198324 -0.00447929 -0.00238333
  -0.00325889  0.00224228  0.00444994
   0.09714926  0.20491150  0.79412689
   0.03319453  0.07033889  0.59592593
   0.90787531  0.79601850  0.20414721
   0.80882897  0.59273638  0.39613646
   0.66303883  0.34642266 -0.00586535
   0.37375839  0.72398206  0.60363425
   0.13348837  0.27856329  0.39812903
   0.83356766  0.64723080  0.01800973
   0.92310570  0.86732686  0.80143957
   0.55370097  0.13777868  0.19280240
   0.41557713  0.78108833  0.19888468
   0.43861820  0.85196782  0.79977301
   0.29698514  0.60487115  0.40692375
   0.85890692  0.72637775  0.60246265
   0.46579460  0.93025494  0.40890635
   0.19035248  0.33327292 -0.00673996
   0.27449427  0.53025369  0.79337063
   0.20702208  0.38594346  0.59423805
   0.03363594  0.18720394  0.19974123
   0.76346306  0.51906322  0.80716050
   0.68930681  0.40750982  0.60433732
   0.59957890  0.20214150  0.79210978
   0.55109172  0.06366435  0.60914402
   0.33142387  0.65021935  0.00136865
   0.23615296  0.47783216  0.19757041
Nb - Mo - Ta - Ti - V SQS               
           1
    -3.150223   -3.161825   -3.174112
     1.589826    1.453078   -7.822570
     7.980234   -7.908357   -1.687712
   Nb   Mo   Ta   Ti   V 
   6   5   6   6   6
Direct configuration=    20
   0.95513100  0.94276726  0.39390472
   0.63259481  0.27582897  0.39626366
   0.50181733 -0.00444268 -0.00242962
  -0.00324995  0.00223846  0.00451121
   0.09707894  0.20460427  0.79419465
   0.03323173  0.07003120  0.59598135
   0.90787231  0.79630554  0.20416102
   0.80893706  0.59279908  0.39599449
   0.66313378  0.34631355 -0.00608757
   0.37374282  0.72403679  0.60358961
   0.13341076  0.27878964  0.39813547
   0.83342598  0.64685075  0.01827186
   0.92325666  0.86707330  0.80142817
   0.55330174  0.13776138  0.19276020
   0.41515559  0.78176804  0.19887761
   0.43865699  0.85186915  0.79996767
   0.29689787  0.60502306  0.40690061
   0.85913140  0.72628154  0.60247540
   0.46574788  0.93036998  0.40898824
   0.18984015  0.33318570 -0.00673657
   0.27525825  0.52987598  0.79337717
   0.20720040  0.38590625  0.59423323
   0.03293685  0.18794884  0.19969051
   0.76377943  0.51879746  0.80718200
   0.68936296  0.40750055  0.60437520
   0.59965070  0.20191797  0.79199698
   0.55084911  0.06373474  0.60914876
   0.33132296  0.65023655  0.00136361
   0.23719117  0.47796000  0.19748036
Nb - Mo - Ta - Ti - V SQS               
           1
    -3.151563   -3.163363   -3.175308
     1.589894    1.452651   -7.823785
     7.982285   -7.910718   -1.688497
   Nb   Mo   Ta   Ti   V 
   6   5   6   6   6
Direct configuration=    21
   0.95510009  0.94288418  0.39387802
   0.63255338  0.27571197  0.39627110
   0.50170240 -0.00441730 -0.00246170
  -0.00324375  0.00223581  0.00455366
   0.09703025  0.20439136  0.79424161
   0.03325752  0.06981796  0.59601976
   0.90787020  0.79650447  0.20417059
   0.80901193  0.59284254  0.39589612
   0.66319957  0.34623795 -0.00624154
   0.37373203  0.72407472  0.60355868
   0.13335698  0.27894651  0.39813993
   0.83332786  0.64658736  0.01845349
   0.92336125  0.86689758  0.80142028
   0.55302520  0.13774938  0.19273096
   0.41486353  0.78223908  0.19887270
   0.43868386  0.85180077  0.80010255
   0.29683741  0.60512833  0.40688457
   0.85928691  0.72621487  0.60248423
   0.46571550  0.93044971  0.40904498
   0.18948529  0.33312524 -0.00673421
   0.27578748  0.52961424  0.79338171
   0.20732392  0.38588048  0.59422988
   0.03245252  0.18846505  0.19965534
   0.76399860  0.51861328  0.80719690
   0.68940185  0.40749413  0.60440145
   0.59970046  0.20176306  0.79191883
   0.55068106  0.06378352  0.60915205
   0.33125305  0.65024846  0.00136012
   0.23791032  0.47804863  0.19741795
Nb - Mo - Ta - Ti - V SQS               
           1
    -3.151228   -3.163050   -3.174964
     1.588852    1.450792   -7.820365
     7.979459   -7.907691   -1.688587
   Nb   Mo   Ta   Ti   V 
   6   5   6   6   6
Direct configuration=    22
   0.95505770  0.94303666  0.39383926
   0.63261217  0.27548550  0.39629502
   0.50155175 -0.00448056 -0.00265801
  -0.00326380  0.00223768  0.00456506
   0.09695116  0.20406556  0.79427343
   0.03331770  0.06964437  0.59603578
   0.90796438  0.79667822  0.20416179
   0.80906680  0.59287646  0.39572544
   0.66318030  0.34617250 -0.00648878
   0.37377623  0.72405024  0.60349755
   0.13326680  0.27902125  0.39819273
   0.83305439  0.64637327  0.01873641
   0.92327714  0.86668328  0.80149297
   0.55273788  0.13777073  0.19279770
   0.41446991  0.78279062  0.19892080
   0.43883681  0.85171166  0.80036199
   0.29683624  0.60554327  0.40673901
   0.85945403  0.72617299  0.60246120
   0.46566845  0.93053705  0.40909157
   0.18905404  0.33306056 -0.00670858
   0.27652706  0.52924049  0.79334565
   0.20741358  0.38573675  0.59430508
   0.03168331  0.18916819  0.19969771
   0.76433842  0.51835258  0.80721573
   0.68943232  0.40751466  0.60450540
   0.59982486  0.20154564  0.79180277
   0.55050799  0.06385466  0.60920046
   0.33115352  0.65024787  0.00132832
   0.23891554  0.47824118  0.19726651
Nb - Mo - Ta - Ti - V SQS               
           1
    -3.150551   -3.162418   -3.174272
     1.586750    1.447043   -7.813464
     7.973758   -7.901584   -1.688769
   Nb   Mo   Ta   Ti   V 
   6   5   6   6   6
Direct configuration=    23
   0.95497210  0.94334444  0.39376101
   0.63273087  0.27502836  0.39634331
   0.50124782 -0.00460822 -0.00305421
  -0.00330425  0.00224145  0.00458807