  29  29   0   0
  0.1632129E+02  0.5473281E-09  0.8209921E-09  0.1128346E-08  0.5000000E-15
  1.000000000000000E-004
  CAR 
 Nb - Mo - Ta - Ti - V SQS               
     11.65307981    -50.40345345  301      6.61025091      1.00000000
    -50.403  0.0000E+00  0.0000E+00
    -50.197  0.0000E+00  0.0000E+00
    -49.990  0.0000E+00  0.0000E+00
    -49.783  0.0000E+00  0.0000E+00
    -49.576  0.0000E+00  0.0000E+00
    -49.369 -0.1075E-34 -0.2223E-35
    -49.162 -0.3454E-27 -0.7146E-28
    -48.955 -0.1285E-20 -0.2658E-21
    -48.749 -0.5391E-15 -0.1115E-15
    -48.542 -0.2571E-10 -0.5318E-11
    -48.335 -0.1376E-06 -0.2847E-07
    -48.128 -0.7860E-04 -0.1629E-04
    -47.921 -0.4213E-02 -0.8878E-03
    -47.714  0.1587E-02 -0.5596E-03
    -47.507  0.2258E+00  0.4615E-01
    -47.301  0.4602E+00  0.1413E+00
    -47.094  0.4355E+00  0.2314E+00
    -46.887  0.5364E-01  0.2425E+00
    -46.680 -0.1174E-01  0.2401E+00
    -46.473 -0.3675E-03  0.2400E+00
    -46.266 -0.1005E-05  0.2400E+00
    -46.059 -0.3026E-09  0.2400E+00
    -45.853 -0.1047E-13  0.2400E+00
    -45.646  0.0000E+00  0.2400E+00
    -45.439  0.0000E+00  0.2400E+00
    -45.232  0.0000E+00  0.2400E+00
    -45.025  0.0000E+00  0.2400E+00
    -44.818  0.0000E+00  0.2400E+00
    -44.612  0.0000E+00  0.2400E+00
    -44.405  0.0000E+00  0.2400E+00
    -44.198  0.0000E+00  0.2400E+00
    -43.991  0.0000E+00  0.2400E+00
    -43.784  0.0000E+00  0.2400E+00
    -43.577  0.0000E+00  0.2400E+00
    -43.370  0.0000E+00  0.2400E+00
    -43.164  0.0000E+00  0.2400E+00
    -42.957  0.0000E+00  0.2400E+00
    -42.750  0.0000E+00  0.2400E+00
    -42.543  0.0000E+00  0.2400E+00
    -42.336  0.0000E+00  0.2400E+00
    -42.129  0.0000E+00  0.2400E+00
    -41.922  0.0000E+00  0.2400E+00
    -41.716  0.0000E+00  0.2400E+00
    -41.509  0.0000E+00  0.2400E+00
    -41.302  0.0000E+00  0.2400E+00
    -41.095  0.0000E+00  0.2400E+00
    -40.888  0.0000E+00  0.2400E+00
    -40.681  0.0000E+00  0.2400E+00
    -40.474  0.0000E+00  0.2400E+00
    -40.268  0.0000E+00  0.2400E+00
    -40.061  0.0000E+00  0.2400E+00
    -39.854  0.0000E+00  0.2400E+00
    -39.647  0.0000E+00  0.2400E+00
    -39.440  0.0000E+00  0.2400E+00
    -39.233  0.0000E+00  0.2400E+00
    -39.026  0.0000E+00  0.2400E+00
    -38.820  0.0000E+00  0.2400E+00
    -38.613  0.0000E+00  0.2400E+00
    -38.406  0.0000E+00  0.2400E+00
    -38.199  0.0000E+00  0.2400E+00
    -37.992  0.0000E+00  0.2400E+00
    -37.785  0.0000E+00  0.2400E+00
    -37.578  0.0000E+00  0.2400E+00
    -37.372  0.0000E+00  0.2400E+00
    -37.165  0.0000E+00  0.2400E+00
    -36.958  0.0000E+00  0.2400E+00
    -36.751  0.0000E+00  0.2400E+00
    -36.544  0.0000E+00  0.2400E+00
    -36.337  0.0000E+00  0.2400E+00
    -36.130  0.0000E+00  0.2400E+00
    -35.924  0.0000E+00  0.2400E+00
    -35.717  0.0000E+00  0.2400E+00
    -35.510  0.0000E+00  0.2400E+00
    -35.303  0.0000E+00  0.2400E+00
    -35.096  0.0000E+00  0.2400E+00
    -34.889  0.0000E+00  0.2400E+00
    -34.682  0.0000E+00  0.2400E+00
    -34.476  0.0000E+00  0.2400E+00
    -34.269  0.0000E+00  0.2400E+00
    -34.062  0.0000E+00  0.2400E+00
    -33.855  0.0000E+00  0.2400E+00
    -33.648  0.0000E+00  0.2400E+00
    -33.441  0.0000E+00  0.2400E+00
    -33.234  0.0000E+00  0.2400E+00
    -33.028  0.0000E+00  0.2400E+00
    -32.821  0.0000E+00  0.2400E+00
    -32.614  0.0000E+00  0.2400E+00
    -32.407  0.0000E+00  0.2400E+00
    -32.200  0.0000E+00  0.2400E+00
    -31.993  0.0000E+00  0.2400E+00
    -31.786  0.0000E+00  0.2400E+00
    -31.580  0.0000E+00  0.2400E+00
    -31.373  0.0000E+00  0.2400E+00
    -31.166  0.0000E+00  0.2400E+00
    -30.959  0.0000E+00  0.2400E+00
    -30.752  0.0000E+00  0.2400E+00
    -30.545  0.0000E+00  0.2400E+00
    -30.339  0.0000E+00  0.2400E+00
    -30.132  0.0000E+00  0.2400E+00
    -29.925  0.0000E+00  0.2400E+00
    -29.718  0.0000E+00  0.2400E+00
    -29.511  0.0000E+00  0.2400E+00
    -29.304  0.0000E+00  0.2400E+00
    -29.097  0.0000E+00  0.2400E+00
    -28.891  0.0000E+00  0.2400E+00
    -28.684  0.0000E+00  0.2400E+00
    -28.477  0.0000E+00  0.2400E+00
    -28.270  0.0000E+00  0.2400E+00
    -28.063  0.0000E+00  0.2400E+00
    -27.856  0.0000E+00  0.2400E+00
    -27.649  0.0000E+00  0.2400E+00
    -27.443  0.0000E+00  0.2400E+00
    -27.236  0.0000E+00  0.2400E+00
    -27.029  0.0000E+00  0.2400E+00
    -26.822  0.0000E+00  0.2400E+00
    -26.615  0.0000E+00  0.2400E+00
    -26.408  0.0000E+00  0.2400E+00
    -26.201  0.0000E+00  0.2400E+00
    -25.995  0.0000E+00  0.2400E+00
    -25.788 -0.1554E-29  0.2400E+00
    -25.581 -0.9692E-23  0.2400E+00
    -25.374 -0.7212E-17  0.2400E+00
    -25.167 -0.6231E-12  0.2400E+00
    -24.960 -0.6680E-08  0.2400E+00
    -24.753 -0.8513E-05  0.2400E+00
    -24.547 -0.1174E-02  0.2398E+00
    -24.340 -0.8984E-02  0.2379E+00
    -24.133  0.1013E+00  0.2589E+00
    -23.926  0.2868E+00  0.3182E+00
    -23.719  0.5850E+00  0.4392E+00
    -23.512  0.7866E+00  0.6019E+00
    -23.305  0.8891E+00  0.7858E+00
    -23.099  0.6073E+00  0.9114E+00
    -22.892  0.2053E+00  0.9539E+00
    -22.685  0.3229E-01  0.9606E+00
    -22.478 -0.2013E-02  0.9602E+00
    -22.271 -0.7792E-03  0.9600E+00
    -22.064 -0.1042E-04  0.9600E+00
    -21.857 -0.1409E-07  0.9600E+00
    -21.651 -0.2142E-11  0.9600E+00
    -21.444 -0.3680E-16  0.9600E+00
    -21.237  0.0000E+00  0.9600E+00
    -21.030  0.0000E+00  0.9600E+00
    -20.823  0.0000E+00  0.9600E+00
    -20.616  0.0000E+00  0.9600E+00
    -20.409  0.0000E+00  0.9600E+00
    -20.203  0.0000E+00  0.9600E+00
    -19.996  0.0000E+00  0.9600E+00
    -19.789  0.0000E+00  0.9600E+00
    -19.582  0.0000E+00  0.9600E+00
    -19.375  0.0000E+00  0.9600E+00
    -19.168  0.0000E+00  0.9600E+00
    -18.961  0.0000E+00  0.9600E+00
    -18.755  0.0000E+00  0.9600E+00
    -18.548  0.0000E+00  0.9600E+00
    -18.341  0.0000E+00  0.9600E+00
    -18.134  0.0000E+00  0.9600E+00
    -17.927  0.0000E+00  0.9600E+00
    -17.720  0.0000E+00  0.9600E+00
    -17.513  0.0000E+00  0.9600E+00
    -17.307  0.0000E+00  0.9600E+00
    -17.100  0.0000E+00  0.9600E+00
    -16.893  0.0000E+00  0.9600E+00
    -16.686  0.0000E+00  0.9600E+00
    -16.479  0.0000E+00  0.9600E+00
    -16.272  0.0000E+00  0.9600E+00
    -16.066  0.0000E+00  0.9600E+00
    -15.859  0.0000E+00  0.9600E+00
    -15.652  0.0000E+00  0.9600E+00
    -15.445  0.0000E+00  0.9600E+00
    -15.238  0.0000E+00  0.9600E+00
    -15.031  0.0000E+00  0.9600E+00
    -14.824  0.0000E+00  0.9600E+00
    -14.618  0.0000E+00  0.9600E+00
    -14.411  0.0000E+00  0.9600E+00
    -14.204  0.0000E+00  0.9600E+00
    -13.997  0.0000E+00  0.9600E+00
    -13.790  0.0000E+00  0.9600E+00
    -13.583  0.0000E+00  0.9600E+00
    -13.376  0.0000E+00  0.9600E+00
    -13.170  0.0000E+00  0.9600E+00
    -12.963  0.0000E+00  0.9600E+00
    -12.756  0.0000E+00  0.9600E+00
    -12.549  0.0000E+00  0.9600E+00
    -12.342  0.0000E+00  0.9600E+00
    -12.135  0.0000E+00  0.9600E+00
    -11.928  0.0000E+00  0.9600E+00
    -11.722  0.0000E+00  0.9600E+00
    -11.515  0.0000E+00  0.9600E+00
    -11.308  0.0000E+00  0.9600E+00
    -11.101  0.0000E+00  0.9600E+00
    -10.894  0.0000E+00  0.9600E+00
    -10.687  0.0000E+00  0.9600E+00
    -10.480  0.0000E+00  0.9600E+00
    -10.274  0.0000E+00  0.9600E+00
    -10.067  0.0000E+00  0.9600E+00
     -9.860  0.0000E+00  0.9600E+00
     -9.653  0.0000E+00  0.9600E+00
     -9.446  0.0000E+00  0.9600E+00
     -9.239  0.0000E+00  0.9600E+00
     -9.032  0.0000E+00  0.9600E+00
     -8.826  0.0000E+00  0.9600E+00
     -8.619  0.0000E+00  0.9600E+00
     -8.412  0.0000E+00  0.9600E+00
     -8.205  0.0000E+00  0.9600E+00
     -7.998  0.0000E+00  0.9600E+00
     -7.791  0.0000E+00  0.9600E+00
     -7.584  0.0000E+00  0.9600E+00
     -7.378  0.0000E+00  0.9600E+00
     -7.171  0.0000E+00  0.9600E+00
     -6.964  0.0000E+00  0.9600E+00
     -6.757  0.0000E+00  0.9600E+00
     -6.550  0.0000E+00  0.9600E+00
     -6.343  0.0000E+00  0.9600E+00
     -6.136  0.0000E+00  0.9600E+00
     -5.930  0.0000E+00  0.9600E+00
     -5.723  0.0000E+00  0.9600E+00
     -5.516  0.0000E+00  0.9600E+00
     -5.309  0.0000E+00  0.9600E+00
     -5.102  0.0000E+00  0.9600E+00
     -4.895  0.0000E+00  0.9600E+00
     -4.688  0.0000E+00  0.9600E+00
     -4.482  0.0000E+00  0.9600E+00
     -4.275  0.0000E+00  0.9600E+00
     -4.068  0.0000E+00  0.9600E+00
     -3.861  0.0000E+00  0.9600E+00
     -3.654  0.0000E+00  0.9600E+00
     -3.447  0.0000E+00  0.9600E+00
     -3.240  0.0000E+00  0.9600E+00
     -3.034  0.0000E+00  0.9600E+00
     -2.827  0.0000E+00  0.9600E+00
     -2.620  0.0000E+00  0.9600E+00
     -2.413  0.0000E+00  0.9600E+00
     -2.206  0.0000E+00  0.9600E+00
     -1.999 -0.1553E-37  0.9600E+00
     -1.793 -0.6341E-30  0.9600E+00
     -1.586 -0.2720E-23  0.9600E+00
     -1.379 -0.1345E-17  0.9600E+00
     -1.172 -0.7911E-13  0.9600E+00
     -0.965 -0.5531E-09  0.9600E+00
     -0.758 -0.4588E-06  0.9600E+00
     -0.551 -0.4462E-04  0.9600E+00
     -0.345 -0.3694E-03  0.9599E+00
     -0.138  0.3190E-02  0.9606E+00
      0.069  0.1799E-01  0.9643E+00
      0.276  0.2522E-01  0.9695E+00
      0.483  0.3397E-01  0.9765E+00
      0.690  0.4216E-01  0.9853E+00
      0.897  0.3543E-01  0.9926E+00
      1.103  0.5766E-01  0.1005E+01
      1.310  0.6396E-01  0.1018E+01
      1.517  0.6594E-01  0.1031E+01
      1.724  0.7477E-01  0.1047E+01
      1.931  0.9158E-01  0.1066E+01
      2.138  0.1052E+00  0.1088E+01
      2.345  0.1304E+00  0.1115E+01
      2.551  0.2157E+00  0.1159E+01
      2.758  0.3468E+00  0.1231E+01
      2.965  0.4400E+00  0.1322E+01
      3.172  0.5037E+00  0.1426E+01
      3.379  0.5753E+00  0.1545E+01
      3.586  0.6198E+00  0.1673E+01
      3.793  0.6126E+00  0.1800E+01
      3.999  0.6152E+00  0.1927E+01
      4.206  0.5992E+00  0.2051E+01
      4.413  0.5651E+00  0.2168E+01
      4.620  0.5455E+00  0.2281E+01
      4.827  0.6509E+00  0.2416E+01
      5.034  0.7752E+00  0.2576E+01
      5.241  0.8498E+00  0.2752E+01
      5.447  0.8084E+00  0.2919E+01
      5.654  0.7622E+00  0.3077E+01
      5.861  0.7868E+00  0.3239E+01
      6.068  0.8551E+00  0.3416E+01
      6.275  0.8534E+00  0.3593E+01
      6.482  0.8156E+00  0.3762E+01
      6.689  0.7426E+00  0.3915E+01
      6.895  0.6213E+00  0.4044E+01
      7.102  0.5339E+00  0.4154E+01
      7.309  0.4329E+00  0.4244E+01
      7.516  0.3752E+00  0.4321E+01
      7.723  0.3725E+00  0.4398E+01
      7.930  0.4187E+00  0.4485E+01
      8.137  0.4977E+00  0.4588E+01
      8.343  0.5151E+00  0.4694E+01
      8.550  0.3671E+00  0.4770E+01
      8.757  0.1382E+00  0.4799E+01
      8.964  0.8057E-02  0.4801E+01
      9.171 -0.2702E-02  0.4800E+01
      9.378 -0.1674E-03  0.4800E+01
      9.585 -0.1393E-05  0.4800E+01
      9.791 -0.1587E-08  0.4800E+01
      9.998 -0.2319E-12  0.4800E+01
     10.205 -0.4256E-17  0.4800E+01
     10.412  0.0000E+00  0.4800E+01
     10.619  0.0000E+00  0.4800E+01
     10.826  0.0000E+00  0.4800E+01
     11.033  0.0000E+00  0.4800E+01
     11.239  0.0000E+00  0.4800E+01
     11.446  0.0000E+00  0.4800E+01
     11.653  0.0000E+00  0.4800E+01
