   29   29   50    1
  0.1632129E+02  0.5473281E-09  0.8209921E-09  0.1128346E-08  0.5000000E-15
  1.000000000000000E-004
  CAR 
 Nb - Mo - Ta - Ti - V SQS               
    193    172    120
 
  0.0000000E+00  0.0000000E+00  0.0000000E+00  0.2915452E-02
    1      -47.582702   1.000000
    2      -47.445506   1.000000
    3      -47.442243   1.000000
    4      -47.262765   1.000000
    5      -47.218293   1.000000
    6      -47.163196   1.000000
    7      -24.163836   1.000000
    8      -24.094899   1.000000
    9      -23.880559   1.000000
   10      -23.829606   1.000000
   11      -23.757746   1.000000
   12      -23.724310   1.000000
   13      -23.620694   1.000000
   14      -23.614880   1.000000
   15      -23.525583   1.000000
   16      -23.469431   1.000000
   17      -23.431553   1.000000
   18      -23.405152   1.000000
   19      -23.352728   1.000000
   20      -23.318643   1.000000
   21      -23.234073   1.000000
   22      -23.164702   1.000000
   23      -23.099182   1.000000
   24      -22.829614   1.000000
   25       -0.204860   1.000000
   26        1.112964   1.000000
   27        1.451042   1.000000
   28        2.241867   1.000000
   29        2.340605   1.000000
   30        2.452021   1.000000
   31        2.564450   1.000000
   32        2.692988   1.000000
   33        2.723137   1.000000
   34        2.775683   1.000000
   35        2.830176   1.000000
   36        2.907174   1.000000
   37        2.991868   1.000000
   38        3.108613   1.000000
   39        3.136558   1.000000
   40        3.176422   1.000000
   41        3.299259   1.000000
   42        3.398307   1.000000
   43        3.457221   1.000000
   44        3.504819   1.000000
   45        3.592842   1.000000
   46        3.680278   1.000000
   47        3.702813   1.000000
   48        3.775185   1.000000
   49        3.847517   1.000000
   50        3.906854   1.000000
   51        3.979432   1.000000
   52        4.044541   1.000000
   53        4.171208   1.000000
   54        4.209555   1.000000
   55        4.343929   1.000000
   56        4.399147   1.000000
   57        4.423574   1.000000
   58        4.564231   1.000000
   59        4.609952   1.000000
   60        4.695820   1.000000
   61        4.720278   1.000000
   62        4.806580   1.000000
   63        4.826943   1.000000
   64        4.895108   1.000000
   65        4.932680   1.000000
   66        4.961800   1.000000
   67        5.027130   1.000000
   68        5.136839   1.000000
   69        5.156908   1.000000
   70        5.210909   1.000000
   71        5.242229   1.000000
   72        5.313216   1.000000
   73        5.369896   1.000000
   74        5.419615   1.000000
   75        5.424842   1.000000
   76        5.540192   1.000000
   77        5.596528   1.000000
   78        5.662129   1.000000
   79        5.745516   1.000000
   80        5.818752   1.000000
   81        5.907670   1.000004
   82        5.965526   1.000025
   83        6.035552   1.000186
   84        6.067670   1.000425
   85        6.125817   1.001628
   86        6.185599   1.005262
   87        6.216941   1.008894
   88        6.305526   1.026587
   89        6.343080   1.033830
   90        6.361958   1.035416
   91        6.435879   1.006217
   92        6.498448   0.900773
   93        6.531692   0.805686
   94        6.648439   0.341633
   95        6.681444   0.218873
   96        6.719388   0.105850
   97        6.811646  -0.025836
   98        6.852363  -0.035426
   99        7.044870  -0.004394
  100        7.119262  -0.000945
  101        7.196501  -0.000136
  102        7.287572  -0.000009
  103        7.343370  -0.000001
  104        7.438680  -0.000000
  105        7.548250  -0.000000
  106        7.592325  -0.000000
  107        7.684761  -0.000000
  108        7.853245  -0.000000
  109        8.005410  -0.000000
  110        8.049113  -0.000000
  111        8.198927  -0.000000
  112        8.325283  -0.000000
  113        8.385522  -0.000000
  114        8.487733  -0.000000
  115        8.510042  -0.000000
  116        8.540847  -0.000000
  117        8.645429  -0.000000
  118        8.659692  -0.000000
  119        8.710904  -0.000000
  120        8.738338  -0.000000
 
  0.1428571E+00  0.0000000E+00 -0.1561251E-16  0.5830904E-02
    1      -47.582652   1.000000
    2      -47.442717   1.000000
    3      -47.440285   1.000000
    4      -47.262612   1.000000
    5      -47.218347   1.000000
    6      -47.167900   1.000000
    7      -24.120345   1.000000
    8      -24.082262   1.000000
    9      -23.877397   1.000000
   10      -23.826007   1.000000
   11      -23.757447   1.000000
   12      -23.724639   1.000000
   13      -23.620198   1.000000
   14      -23.613496   1.000000
   15      -23.526627   1.000000
   16      -23.472677   1.000000
   17      -23.431708   1.000000
   18      -23.406871   1.000000
   19      -23.357531   1.000000
   20      -23.320108   1.000000
   21      -23.235703   1.000000
   22      -23.166973   1.000000
   23      -23.101927   1.000000
   24      -22.895613   1.000000
   25       -0.040693   1.000000
   26        1.259694   1.000000
   27        1.591598   1.000000
   28        2.259771   1.000000
   29        2.477336   1.000000
   30        2.552875   1.000000
   31        2.658156   1.000000
   32        2.768413   1.000000
   33        2.819158   1.000000
   34        2.835095   1.000000
   35        2.961773   1.000000
   36        3.041344   1.000000
   37        3.086319   1.000000
   38        3.154511   1.000000
   39        3.207514   1.000000
   40        3.261625   1.000000
   41        3.381443   1.000000
   42        3.452866   1.000000
   43        3.467935   1.000000
   44        3.547591   1.000000
   45        3.641549   1.000000
   46        3.708398   1.000000
   47        3.790729   1.000000
   48        3.867838   1.000000
   49        3.879598   1.000000
   50        3.978013   1.000000
   51        4.007894   1.000000
   52        4.084803   1.000000
   53        4.187416   1.000000
   54        4.271428   1.000000
   55        4.354823   1.000000
   56        4.404377   1.000000
   57        4.460403   1.000000
   58        4.564461   1.000000
   59        4.640368   1.000000
   60        4.726857   1.000000
   61        4.750218   1.000000
   62        4.810571   1.000000
   63        4.889363   1.000000
   64        4.930867   1.000000
   65        4.988434   1.000000
   66        5.048450   1.000000
   67        5.110208   1.000000
   68        5.152105   1.000000
   69        5.194270   1.000000
   70        5.257972   1.000000
   71        5.290008   1.000000
   72        5.339045   1.000000
   73        5.369831   1.000000
   74        5.420397   1.000000
   75        5.481025   1.000000
   76        5.524839   1.000000
   77        5.606811   1.000000
   78        5.633747   1.000000
   79        5.760936   1.000000
   80        5.793825   1.000000
   81        5.882803   1.000002
   82        5.942188   1.000012
   83        6.009303   1.000091
   84        6.050657   1.000276
   85        6.101389   1.000948
   86        6.169678   1.003933
   87        6.191432   1.005830
   88        6.258838   1.016135
   89        6.321252   1.030019
   90        6.351706   1.034810
   91        6.386647   1.033437
   92        6.467890   0.963927
   93        6.521031   0.839074
   94        6.547625   0.751139
   95        6.591918   0.577215
   96        6.621328   0.453207
   97        6.720763   0.102411
   98        6.765956   0.015652
   99        6.896352  -0.030605
  100        7.023978  -0.006364
  101        7.067556  -0.002848
  102        7.121764  -0.000892
  103        7.207769  -0.000100
  104        7.259494  -0.000022
  105        7.308274  -0.000005
  106        7.484516  -0.000000
  107        7.560523  -0.000000
  108        7.699684  -0.000000
  109        7.864701  -0.000000
  110        7.932651  -0.000000
  111        8.067994  -0.000000
  112        8.094116  -0.000000
  113        8.200025  -0.000000
  114        8.226908  -0.000000
  115        8.305524  -0.000000
  116        8.363292  -0.000000
  117        8.435459  -0.000000
  118        8.514798  -0.000000
  119        8.532714  -0.000000
  120        8.577557  -0.000000
 
  0.2857143E+00  0.1387779E-16  0.3469447E-17  0.5830904E-02
    1      -47.582540   1.000000
    2      -47.441485   1.000000
    3      -47.430251   1.000000
    4      -47.262263   1.000000
    5      -47.218472   1.000000
    6      -47.179068   1.000000
    7      -24.100262   1.000000
    8      -23.959888   1.000000
    9      -23.864727   1.000000
   10      -23.807645   1.000000
   11      -23.756555   1.000000
   12      -23.725258   1.000000
   13      -23.625279   1.000000
   14      -23.603631   1.000000
   15      -23.528761   1.000000
   16      -23.480032   1.000000
   17      -23.432092   1.000000
   18      -23.410765   1.000000
   19      -23.368973   1.000000
   20      -23.324271   1.000000
   21      -23.241700   1.000000
   22      -23.174386   1.000000
   23      -23.110896   1.000000
   24      -23.068065   1.000000
   25        0.425741   1.000000
   26        1.650560   1.000000
   27        1.967553   1.000000
   28        2.376959   1.000000
   29        2.635404   1.000000
   30        2.740890   1.000000
   31        2.826159   1.000000
   32        2.958683   1.000000
   33        2.996414   1.000000
   34        3.068510   1.000000
   35        3.196856   1.000000
   36        3.233664   1.000000
   37        3.278344   1.000000
   38        3.337765   1.000000
   39        3.422643   1.000000
   40        3.466542   1.000000
   41        3.509320   1.000000
   42        3.570190   1.000000
   43        3.620900   1.000000
   44        3.659416   1.000000
   45        3.706932   1.000000
   46        3.850024   1.000000
   47        3.860153   1.000000
   48        3.959777   1.000000
   49        4.063069   1.000000
   50        4.090391   1.000000
   51        4.215437   1.000000
   52        4.235183   1.000000
   53        4.298010   1.000000
   54        4.401731   1.000000
   55        4.453794   1.000000
   56        4.503707   1.000000
   57        4.541241   1.000000
   58        4.623937   1.000000
   59        4.716635   1.000000
   60        4.764787   1.000000
   61        4.822415   1.000000
   62        4.881433   1.000000
   63        4.927213   1.000000
   64        5.000465   1.000000
   65        5.021803   1.000000
   66        5.084315   1.000000
   67        5.144703   1.000000
   68        5.175749   1.000000
   69        5.264262   1.000000
   70        5.297369   1.000000
   71        5.363389   1.000000
   72        5.381064   1.000000
   73        5.435753   1.000000
   74        5.506638   1.000000
   75        5.563541   1.000000
   76        5.601848   1.000000
   77        5.641286   1.000000
   78        5.674023   1.000000
   79        5.730766   1.000000
   80        5.758711   1.000000
   81        5.820238   1.000000
   82        5.882137   1.000002
   83        5.904497   1.000004
   84        5.967636   1.000027
   85        6.024320   1.000138
   86        6.093287   1.000786
   87        6.117214   1.001351
   88        6.172064   1.004113
   89        6.254949   1.015351
   90        6.283961   1.021618
   91        6.331660   1.032027
   92        6.379555   1.034597
   93        6.412939   1.023676
   94        6.431585   1.010225
   95        6.517115   0.850668
   96        6.571222   0.661709
   97        6.635715   0.393213
   98        6.653383   0.322114
   99        6.715688   0.115338
  100        6.739767   0.059775
  101        6.833298  -0.033323
  102        6.894077  -0.031052
  103        6.952086  -0.018149
  104        6.977392  -0.013097
  105        7.079806  -0.002225
  106        7.138403  -0.000603
  107        7.268379  -0.000017
  108        7.404584  -0.000000
  109        7.458740  -0.000000
  110        7.529363  -0.000000
  111        7.619397  -0.000000
  112        7.735859  -0.000000
  113        7.777447  -0.000000
  114        7.868814  -0.000000
  115        7.961350  -0.000000
  116        8.061465  -0.000000
  117        8.128380  -0.000000
  118        8.171069  -0.000000
  119        8.236907  -0.000000
  120        8.390940  -0.000000
 
  0.4285714E+00  0.5551115E-16 -0.4163336E-16  0.5830904E-02
    1      -47.582451   1.000000
    2      -47.440792   1.000000
    3      -47.421187   1.000000
    4      -47.261974   1.000000
    5      -47.218578   1.000000
    6      -47.188750   1.000000
    7      -24.097502   1.000000
    8      -23.889834   1.000000
    9      -23.839593   1.000000
   10      -23.755917   1.000000
   11      -23.728019   1.000000
   12      -23.669396   1.000000
   13      -23.629987   1.000000
   14      -23.594283   1.000000
   15      -23.530470   1.000000
   16      -23.489404   1.000000
   17      -23.432463   1.000000
   18      -23.413910   1.000000
   19      -23.379352   1.000000
   20      -23.348596   1.000000
   21      -23.315063   1.000000
   22      -23.224605   1.000000
   23      -23.173395   1.000000
   24      -23.107890   1.000000
   25        1.107001   1.000000
   26        1.834159   1.000000
   27        2.333642   1.000000
   28        2.497920   1.000000
   29        2.563537   1.000000
   30        2.860986   1.000000
   31        2.909545   1.000000
   32        3.083114   1.000000
   33        3.176851   1.000000
   34        3.275892   1.000000
   35        3.327032   1.000000
   36        3.352891   1.000000
   37        3.415048   1.000000
   38        3.434468   1.000000
   39        3.555082   1.000000
   40        3.631076   1.000000
   41        3.696295   1.000000
   42        3.732691   1.000000
   43        3.767894   1.000000
   44        3.846271   1.000000
   45        3.881360   1.000000
   46        3.948361   1.000000
   47        4.034583   1.000000
   48        4.090353   1.000000
   49        4.145293   1.000000
   50        4.265969   1.000000
   51        4.284884   1.000000
   52        4.370704   1.000000
   53        4.434691   1.000000
   54        4.495497   1.000000
   55        4.572915   1.000000
   56        4.652963   1.000000
   57        4.681248   1.000000
   58        4.705675   1.000000
   59        4.743445   1.000000
   60        4.782199   1.000000
   61        4.856146   1.000000
   62        4.889270   1.000000
   63        4.931828   1.000000
   64        4.985139   1.000000
   65        5.007308   1.000000
   66        5.106680   1.000000
   67        5.166319   1.000000
   68        5.205894   1.000000
   69        5.247534   1.000000
   70        5.316245   1.000000
   71        5.344824   1.000000
   72        5.419786   1.000000
   73        5.431128   1.000000
   74        5.507799   1.000000
   75        5.555319   1.000000
   76        5.585373   1.000000
   77        5.620974   1.000000
   78        5.644196   1.000000
   79        5.708595   1.000000
   80        5.757204   1.000000
   81        5.852597   1.000001
   82        5.897398   1.000003
   83        5.965511   1.000025
   84        5.977585   1.000036
   85        6.022799   1.000132
   86        6.047816   1.000257
   87        6.063067   1.000379
   88        6.117140   1.001349
   89        6.161674   1.003378
   90        6.221097   1.009488
   91        6.242474   1.012982
   92        6.306220   1.026744
   93        6.330219   1.031766
   94        6.360055   1.035356
   95        6.429155   1.012335
   96        6.473135   0.954738
   97        6.518020   0.848022
   98        6.566045   0.682078
   99        6.636080   0.391711
  100        6.670922   0.255907
  101        6.717354   0.111024
  102        6.795525  -0.015703
  103        6.836041  -0.033853
  104        6.910997  -0.027485
  105        6.997824  -0.009721
  106        7.017200  -0.007134
  107        7.067526  -0.002850
  108        7.123449  -0.000858
  109        7.251074  -0.000029
  110        7.360476  -0.000001
  111        7.468041  -0.000000
  112        7.553961  -0.000000
  113        7.606548  -0.000000
  114        7.674175  -0.000000
  115        7.756581  -0.000000
  116        7.830883  -0.000000
  117        7.909481  -0.000000
  118        7.993345  -0.000000
  119        8.137356  -0.000000
  120        8.195942  -0.000000
 
 -0.6938894E-17  0.1428571E+00  0.1040834E-16  0.5830904E-02
    1      -47.582684   1.000000
    2      -47.445490   1.000000
    3      -47.442125   1.000000
    4      -47.262764   1.000000
    5      -47.218447   1.000000
    6      -47.163193   1.000000
    7      -24.163790   1.000000
    8      -24.093700   1.000000
    9      -23.878468   1.000000
   10      -23.829167   1.000000
   11      -23.757248   1.000000
   12      -23.724276   1.000000
   13      -23.620780   1.000000
   14      -23.614945   1.000000
   15      -23.525601   1.000000
   16      -23.469448   1.000000
   17      -23.431544   1.000000
   18      -23.405048   1.000000
   19      -23.352798   1.000000
   20      -23.318686   1.000000
   21      -23.234095   1.000000
   22      -23.167114   1.000000
   23      -23.101818   1.000000
   24      -22.829622   1.000000
   25       -0.133246   1.000000
   26        1.154246   1.000000
   27        1.513185   1.000000
   28        1.991677   1.000000
   29        2.375545   1.000000
   30        2.454063   1.000000
   31        2.564138   1.000000
   32        2.660177   1.000000
   33        2.707344   1.000000
   34        2.810810   1.000000
   35        2.854790   1.000000
   36        2.907320   1.000000
   37        2.998411   1.000000
   38        3.035358   1.000000
   39        3.098652   1.000000
   40        3.167855   1.000000
   41        3.335142   1.000000
   42        3.385404   1.000000
   43        3.445164   1.000000
   44        3.538908   1.000000
   45        3.612520   1.000000
   46        3.690236   1.000000
   47        3.739238   1.000000
   48        3.785371   1.000000
   49        3.875569   1.000000
   50        3.914216   1.000000
   51        4.010709   1.000000
   52        4.137927   1.000000
   53        4.168120   1.000000
   54        4.225176   1.000000
   55        4.311424   1.000000
   56        4.329381   1.000000
   57        4.463257   1.000000
   58        4.536166   1.000000
   59        4.630501   1.000000
   60        4.698692   1.000000
   61        4.728636   1.000000
   62        4.823883   1.000000
   63        4.862421   1.000000
   64        4.927986   1.000000
   65        4.964680   1.000000
   66        5.032515   1.000000
   67        5.052800   1.000000
   68        5.077620   1.000000
   69        5.180041   1.000000
   70        5.222280   1.000000
   71        5.279274   1.000000
   72        5.349645   1.000000
   73        5.400022   1.000000
   74        5.428102   1.000000
   75        5.468964   1.000000
   76        5.560195   1.000000
   77        5.622208   1.000000
   78        5.727218   1.000000
   79        5.769343   1.000000
   80        5.824544   1.000000
   81        5.861063   1.000001
   82        5.950543   1.000016
   83        6.034526   1.000181
   84        6.065376   1.000401
   85        6.094667   1.000812
   86        6.126131   1.001639
   87        6.179699   1.004733
   88        6.285879   1.022058
   89        6.325958   1.030961
   90        6.362752   1.035433
   91        6.417566   1.020903
   92        6.456816   0.981166
   93        6.519449   0.843802
   94        6.574394   0.649051
   95        6.602454   0.532963
   96        6.691639   0.185199
   97        6.751254   0.038388
   98        6.897857  -0.030303
   99        7.016291  -0.007243
  100        7.057068  -0.003494
  101        7.173643  -0.000250
  102        7.293464  -0.000008
  103        7.335364  -0.000002
  104        7.470460  -0.000000
  105        7.570122  -0.000000
  106        7.653076  -0.000000
  107        7.703128  -0.000000
  108        7.811015  -0.000000
  109        7.964476  -0.000000
  110        8.023802  -0.000000
  111        8.162318  -0.000000
  112        8.203430  -0.000000
  113        8.269605  -0.000000
  114        8.368195  -0.000000
  115        8.419560  -0.000000
  116        8.489483  -0.000000
  117        8.552636  -0.000000
  118        8.581966  -0.000000
  119        8.623392  -0.000000
  120        8.681246  -0.000000
 
  0.1428571E+00  0.1428571E+00 -0.1387779E-16  0.5830904E-02
    1      -47.582669   1.000000
    2      -47.442822   1.000000
    3      -47.440310   1.000000
    4      -47.262614   1.000000
    5      -47.218197   1.000000
    6      -47.167903   1.000000
    7      -24.120771   1.000000
    8      -24.083051   1.000000
    9      -23.879551   1.000000
   10      -23.826353   1.000000
   11      -23.757917   1.000000
   12      -23.724688   1.000000
   13      -23.620189   1.000000
   14      -23.613457   1.000000
   15      -23.526637   1.000000
   16      -23.472660   1.000000
   17      -23.431724   1.000000
   18      -23.406842   1.000000
   19      -23.357459   1.000000
   20      -23.320069   1.000000
   21      -23.235672   1.000000
   22      -23.164581   1.000000
   23      -23.099421   1.000000
   24      -22.895607   1.000000
   25       -0.041641   1.000000
   26        1.238258   1.000000
   27        1.601623   1.000000
   28        2.265747   1.000000
   29        2.451085   1.000000
   30        2.573727   1.000000
   31        2.648176   1.000000
   32        2.721342   1.000000
   33        2.763503   1.000000
   34        2.846123   1.000000
   35        2.900668   1.000000
   36        2.959916   1.000000
   37        3.066425   1.000000
   38        3.116991   1.000000
   39        3.214860   1.000000
   40        3.269890   1.000000
   41        3.395269   1.000000
   42        3.455622   1.000000
   43        3.506675   1.000000
   44        3.555327   1.000000
   45        3.627266   1.000000
   46        3.724911   1.000000
   47        3.787338   1.000000
   48        3.845082   1.000000
   49        3.903412   1.000000
   50        3.992761   1.000000
   51        4.035571   1.000000
   52        4.121975   1.000000
   53        4.223307   1.000000
   54        4.264188   1.000000
   55        4.373902   1.000000
   56        4.401968   1.000000
   57        4.477419   1.000000
   58        4.644096   1.000000
   59        4.653178   1.000000
   60        4.703222   1.000000
   61        4.760344   1.000000
   62        4.820695   1.000000
   63        4.856265   1.000000
   64        4.922817   1.000000
   65        4.954875   1.000000
   66        5.004110   1.000000
   67        5.060381   1.000000
   68        5.103911   1.000000
   69        5.191980   1.000000
   70        5.229700   1.000000
   71        5.259882   1.000000
   72        5.321061   1.000000
   73        5.357308   1.000000
   74        5.386788   1.000000
   75        5.446702   1.000000
   76        5.518935   1.000000
   77        5.627373   1.000000
   78        5.666893   1.000000
   79        5.748147   1.000000
   80        5.784201   1.000000
   81        5.838908   1.000000
   82        5.941312   1.000012
   83        5.976794   1.000036
   84        6.007861   1.000087
   85        6.049673   1.000269
   86        6.095601   1.000830
   87        6.182577   1.004985
   88        6.238038   1.012197
   89        6.305138   1.026498
   90        6.376859   1.034902
   91        6.431196   1.010570
   92        6.469793   0.960670
   93        6.548443   0.748198
   94        6.574313   0.649379
   95        6.657275   0.306995
   96        6.703499   0.149004
   97        6.760303   0.023795
   98        6.832986  -0.033258
   99        6.914169  -0.026770
  100        7.084188  -0.002032
  101        7.099088  -0.001480
  102        7.174553  -0.000245
  103        7.215840  -0.000080
  104        7.298249  -0.000006
  105        7.389287  -0.000000
  106        7.423454  -0.000000
  107        7.535778  -0.000000
  108        7.633402  -0.000000
  109        7.841558  -0.000000
  110        7.909035  -0.000000
  111        8.055893  -0.000000
  112        8.150873  -0.000000
  113        8.258998  -0.000000
  114        8.354224  -0.000000
  115        8.423294  -0.000000
  116        8.486472  -0.000000
  117        8.578696  -0.000000
  118        8.625887  -0.000000
  119        8.642391  -0.000000
  120        8.683240  -0.000000
 
  0.2857143E+00  0.1428571E+00  0.2775558E-16  0.5830904E-02
    1      -47.582578   1.000000
    2      -47.441775   1.000000
    3      -47.430258   1.000000
    4      -47.262267   1.000000
    5      -47.218131   1.000000
    6      -47.179075   1.000000
    7      -24.102763   1.000000
    8      -23.960482   1.000000
    9      -23.869774   1.000000
   10      -23.807895   1.000000
   11      -23.757798   1.000000
   12      -23.725374   1.000000
   13      -23.625238   1.000000
   14      -23.603505   1.000000
   15      -23.528769   1.000000
   16      -23.479981   1.000000
   17      -23.432128   1.000000
   18      -23.410774   1.000000
   19      -23.368808   1.000000
   20      -23.324195   1.000000
   21      -23.241589   1.000000
   22      -23.168512   1.000000
   23      -23.105667   1.000000
   24      -23.067894   1.000000
   25        0.358482   1.000000
   26        1.565013   1.000000
   27        1.921245   1.000000
   28        2.468421   1.000000
   29        2.567197   1.000000
   30        2.723480   1.000000
   31        2.842109   1.000000
   32        2.944468   1.000000
   33        3.001177   1.000000
   34        3.058039   1.000000
   35        3.145140   1.000000
   36        3.194947   1.000000
   37        3.249493   1.000000
   38        3.323871   1.000000
   39        3.400485   1.000000
   40        3.448582   1.000000
   41        3.485665   1.000000
   42        3.606273   1.000000
   43        3.667267   1.000000
   44        3.719428   1.000000
   45        3.766226   1.000000
   46        3.811208   1.000000
   47        3.879043   1.000000
   48        3.983675   1.000000
   49        4.036386   1.000000
   50        4.104250   1.000000
   51        4.182327   1.000000
   52        4.217503   1.000000
   53        4.266607   1.000000
   54        4.389216   1.000000
   55        4.416340   1.000000
   56        4.449565   1.000000
   57        4.556712   1.000000
   58        4.688144   1.000000
   59        4.727918   1.000000
   60        4.798193   1.000000
   61        4.818000   1.000000
   62        4.866410   1.000000
   63        4.936666   1.000000
   64        4.957249   1.000000
   65        5.047329   1.000000
   66        5.095188   1.000000
   67        5.111922   1.000000
   68        5.146746   1.000000
   69        5.183471   1.000000
   70        5.252561   1.000000
   71        5.296624   1.000000
   72        5.353171   1.000000
   73        5.380482   1.000000
   74        5.422469   1.000000
   75        5.441540   1.000000
   76        5.558796   1.000000
   77        5.601868   1.000000
   78        5.669097   1.000000
   79        5.711181   1.000000
   80        5.805158   1.000000
   81        5.874442   1.000001
   82        5.927296   1.000008
   83        5.941399   1.000012
   84        5.986514   1.000047
   85        6.019584   1.000121
   86        6.085892   1.000661
   87        6.113523   1.001245
   88        6.180497   1.004802
   89        6.244730   1.013393
   90        6.270182   1.018532
   91        6.321384   1.030046
   92        6.335274   1.032650
   93        6.382720   1.034146
   94        6.432399   1.009493
   95        6.502781   0.889917
   96        6.563701   0.691178
   97        6.641085   0.371233
   98        6.688986   0.193743
   99        6.736668   0.066106
  100        6.788657  -0.009992
  101        6.815464  -0.027625
  102        6.916771  -0.026177
  103        6.966792  -0.015105
  104        7.017472  -0.007102
  105        7.074531  -0.002477
  106        7.112849  -0.001092
  107        7.313778  -0.000004
  108        7.389737  -0.000000
  109        7.544054  -0.000000
  110        7.625550  -0.000000
  111        7.770575  -0.000000
  112        7.913329  -0.000000
  113        8.052141  -0.000000
  114        8.146941  -0.000000
  115        8.169253  -0.000000
  116        8.257252  -0.000000
  117        8.326032  -0.000000
  118        8.371428  -0.000000
  119        8.411210  -0.000000
  120        8.474777  -0.000000
 
  0.4285714E+00  0.1428571E+00 -0.2081668E-16  0.5830904E-02
    1      -47.582482   1.000000
    2      -47.441027   1.000000
    3      -47.421192   1.000000
    4      -47.261977   1.000000
    5      -47.218304   1.000000
    6      -47.188755   1.000000
    7      -24.099496   1.000000
    8      -23.892397   1.000000
    9      -23.841801   1.000000
   10      -23.757056   1.000000
   11      -23.728161   1.000000
   12      -23.669360   1.000000
   13      -23.629964   1.000000
   14      -23.594188   1.000000
   15      -23.530483   1.000000
   16      -23.489358   1.000000
   17      -23.432497   1.000000
   18      -23.413900   1.000000
   19      -23.379224   1.000000
   20      -23.348568   1.000000
   21      -23.315014   1.000000
   22      -23.224158   1.000000
   23      -23.167537   1.000000
   24      -23.104880   1.000000
   25        1.002983   1.000000
   26        1.860849   1.000000
   27        2.247820   1.000000
   28        2.410028   1.000000
   29        2.558083   1.000000
   30        2.681028   1.000000
   31        3.017639   1.000000
   32        3.133931   1.000000
   33        3.256795   1.000000
   34        3.307166   1.000000
   35        3.352270   1.000000
   36        3.376075   1.000000
   37        3.423774   1.000000
   38        3.469537   1.000000
   39        3.558173   1.000000
   40        3.584179   1.000000
   41        3.695192   1.000000
   42        3.730005   1.000000
   43        3.795554   1.000000
   44        3.841085   1.000000
   45        3.884600   1.000000
   46        3.933994   1.000000
   47        4.036519   1.000000