 running on   96 total cores
 distrk:  each k-point on   96 cores,    1 groups
 distr:  one band on    8 cores,   12 groups
 using from now: INCAR     
 vasp.5.4.4.18Apr17-6-g9f103f2a35 (build Aug 09 2018 16:20:53) complex          
  
 POSCAR found :  5 types and      29 ions
 scaLAPACK will be used

 ----------------------------------------------------------------------------- 
|                                                                             |
|  ADVICE TO THIS USER RUNNING 'VASP/VAMP'   (HEAR YOUR MASTER'S VOICE ...):  |
|                                                                             |
|      You enforced a specific xc-type in the INCAR file,                     |
|      a different type was found on the POTCAR file                          |
|          I HOPE YOU KNOW, WHAT YOU ARE  DOING                               |
|                                                                             |
 ----------------------------------------------------------------------------- 

 LDA part: xc-table for Pade appr. of Perdew
 POSCAR found :  5 types and      29 ions
 POSCAR, INCAR and KPOINTS ok, starting setup
 FFT: planning ...
 WAVECAR not read
 initial charge from wavefunction
 entering main loop
       N       E                     dE             d eps       ncg     rms          rms(c)
DAV:   1    -0.386521243444E+04   -0.38652E+04   -0.15925E+05 58704   0.193E+03
DAV:   2    -0.938605551668E+04   -0.55208E+04   -0.52882E+04 73896   0.114E+03
DAV:   3    -0.101910911592E+05   -0.80504E+03   -0.77516E+03 82560   0.501E+02
DAV:   4    -0.104281423131E+05   -0.23705E+03   -0.21352E+03 82560   0.228E+02
DAV:   5    -0.105873166339E+05   -0.15917E+03   -0.14241E+03 82560   0.167E+02BRMIX: very serious problems
 the old and the new charge density differ
 old charge density:   192.50000 new  193.00000
    0.567E+03
DAV:   6    -0.885121575917E+03    0.97022E+04   -0.27658E+04 65208   0.619E+02    0.260E+03
DAV:   7    -0.765537007183E+03    0.11958E+03   -0.17553E+04 74004   0.506E+02    0.200E+03
DAV:   8    -0.562333137407E+03    0.20320E+03   -0.46496E+03 71592   0.318E+02    0.179E+03
DAV:   9    -0.539969594789E+03    0.22364E+02   -0.77511E+02 76248   0.830E+01    0.174E+03
DAV:  10    -0.634857580632E+03   -0.94888E+02   -0.25285E+02 77208   0.458E+01    0.178E+03
DAV:  11    -0.490748051216E+03    0.14411E+03   -0.19426E+02 73584   0.381E+01    0.166E+03
DAV:  12    -0.420761485600E+03    0.69987E+02   -0.54613E+02 71952   0.640E+01    0.123E+03
DAV:  13    -0.516570897028E+03   -0.95809E+02   -0.32113E+03 76200   0.242E+02    0.760E+02
DAV:  14    -0.371637088899E+03    0.14493E+03   -0.17440E+03 68532   0.165E+02    0.539E+02
DAV:  15    -0.619251734322E+03   -0.24761E+03   -0.23826E+03 74712   0.143E+02    0.428E+02
DAV:  16    -0.574981144707E+03    0.44271E+02   -0.68696E+02 68112   0.727E+01    0.310E+02
DAV:  17    -0.500661000568E+03    0.74320E+02   -0.26435E+02 70224   0.707E+01    0.260E+02
DAV:  18    -0.436756697153E+03    0.63904E+02   -0.19268E+02 75324   0.614E+01    0.225E+02
DAV:  19    -0.400065669748E+03    0.36691E+02   -0.28160E+02 59256   0.710E+01    0.157E+02
DAV:  20    -0.340924639638E+03    0.59141E+02   -0.47118E+02 72936   0.120E+02    0.114E+02
DAV:  21    -0.319896491857E+03    0.21028E+02   -0.17724E+02 70932   0.635E+01    0.856E+01
DAV:  22    -0.320308738915E+03   -0.41225E+00   -0.63338E+01 66084   0.311E+01    0.801E+01
DAV:  23    -0.315612405911E+03    0.46963E+01   -0.18877E+01 74712   0.204E+01    0.727E+01
DAV:  24    -0.315524660458E+03    0.87745E-01   -0.28227E+01 66300   0.209E+01    0.662E+01
DAV:  25    -0.310882669655E+03    0.46420E+01   -0.32924E+01 66252   0.306E+01    0.437E+01
DAV:  26    -0.308810107561E+03    0.20726E+01   -0.19027E+01 70704   0.194E+01    0.349E+01
DAV:  27    -0.308860823743E+03   -0.50716E-01   -0.11326E+01 70380   0.142E+01    0.295E+01
DAV:  28    -0.307542567200E+03    0.13183E+01   -0.62292E+00 69816   0.112E+01    0.251E+01
DAV:  29    -0.307400598312E+03    0.14197E+00   -0.60573E-01 74256   0.295E+00    0.239E+01
DAV:  30    -0.308509042179E+03   -0.11084E+01   -0.56186E+00 68856   0.967E+00    0.227E+01
DAV:  31    -0.307639701837E+03    0.86934E+00   -0.22362E+00 72000   0.664E+00    0.196E+01
DAV:  32    -0.307467411479E+03    0.17229E+00   -0.26970E+00 67692   0.597E+00    0.155E+01
DAV:  33    -0.307355176435E+03    0.11224E+00   -0.44960E-01 73944   0.222E+00    0.136E+01
DAV:  34    -0.307052328353E+03    0.30285E+00   -0.81450E-01 69936   0.335E+00    0.114E+01
DAV:  35    -0.307035510598E+03    0.16818E-01   -0.17276E-01 71196   0.154E+00    0.103E+01
DAV:  36    -0.306953720581E+03    0.81790E-01   -0.14940E-01 73488   0.137E+00    0.907E+00
DAV:  37    -0.306942076415E+03    0.11644E-01   -0.16589E-02 68448   0.454E-01    0.877E+00
DAV:  38    -0.306921865047E+03    0.20211E-01   -0.28613E-02 67956   0.691E-01    0.820E+00
DAV:  39    -0.306898026929E+03    0.23838E-01   -0.41395E-02 69180   0.746E-01    0.711E+00
DAV:  40    -0.306868116881E+03    0.29910E-01   -0.11654E-01 72192   0.125E+00    0.589E+00
DAV:  41    -0.306864403874E+03    0.37130E-02   -0.15436E-02 68928   0.437E-01    0.548E+00
DAV:  42    -0.306860889065E+03    0.35148E-02   -0.16365E-02 67284   0.521E-01    0.505E+00
DAV:  43    -0.306855452873E+03    0.54362E-02   -0.91520E-03 65760   0.341E-01    0.447E+00
DAV:  44    -0.306854237995E+03    0.12149E-02   -0.20200E-02 65664   0.623E-01    0.404E+00
DAV:  45    -0.306850766399E+03    0.34716E-02   -0.25746E-03 61356   0.198E-01    0.358E+00
DAV:  46    -0.306848998219E+03    0.17682E-02   -0.14001E-03 59160   0.115E-01    0.327E+00
DAV:  47    -0.306847147728E+03    0.18505E-02   -0.85567E-04 51960   0.127E-01    0.284E+00
DAV:  48    -0.306844460395E+03    0.26873E-02   -0.26380E-03 69648   0.162E-01    0.201E+00
DAV:  49    -0.306843193411E+03    0.12670E-02   -0.14451E-03 60840   0.104E-01    0.146E+00
DAV:  50    -0.306842630834E+03    0.56258E-03   -0.52355E-04 43740   0.835E-02    0.105E+00
DAV:  51    -0.306842018743E+03    0.61209E-03   -0.13486E-03 60756   0.120E-01    0.703E-01
DAV:  52    -0.306841907163E+03    0.11158E-03   -0.99020E-05 26856   0.496E-02    0.546E-01
DAV:  53    -0.306841814930E+03    0.92233E-04   -0.12443E-04 31140   0.380E-02
   1 F= -.30684181E+03 E0= -.30683771E+03  d E =-.306842E+03
 curvature:   0.00 expect dE= 0.000E+00 dE for cont linesearch  0.000E+00
 trial: gam= 0.00000 g(F)=  0.738E+00 g(S)=  0.476E-01 ort = 0.000E+00 (trialstep = 0.100E+01)
 search vector abs. value=  0.786E+00
 bond charge predicted
       N       E                     dE             d eps       ncg     rms          rms(c)
DAV:   1    -0.307254418354E+03   -0.41251E+00   -0.83648E+01 42168   0.310E+01    0.455E+00
DAV:   2    -0.308624294220E+03   -0.13699E+01   -0.12679E+01 72396   0.203E+01    0.886E+00
DAV:   3    -0.307569705466E+03    0.10546E+01   -0.65829E+00 72732   0.106E+01    0.340E+00
DAV:   4    -0.307529518173E+03    0.40187E-01   -0.18939E+00 71580   0.586E+00    0.322E+00
DAV:   5    -0.307486401604E+03    0.43117E-01   -0.11439E+00 69300   0.522E+00    0.242E+00
DAV:   6    -0.307434086813E+03    0.52315E-01   -0.56666E-01 71172   0.345E+00    0.133E+00
DAV:   7    -0.307426000595E+03    0.80862E-02   -0.32358E-01 77148   0.240E+00    0.130E+00
DAV:   8    -0.307419742249E+03    0.62583E-02   -0.20623E-01 74052   0.199E+00    0.101E+00
DAV:   9    -0.307411519988E+03    0.82223E-02   -0.71247E-02 72036   0.114E+00    0.529E-01
DAV:  10    -0.307409713605E+03    0.18064E-02   -0.19582E-02 63636   0.567E-01    0.360E-01
DAV:  11    -0.307410420294E+03   -0.70669E-03   -0.87041E-03 67680   0.380E-01    0.331E-01
DAV:  12    -0.307411076338E+03   -0.65604E-03   -0.12900E-02 61224   0.528E-01    0.310E-01
DAV:  13    -0.307410473809E+03    0.60253E-03   -0.79403E-03 67104   0.392E-01    0.111E-01
DAV:  14    -0.307410381598E+03    0.92211E-04   -0.27684E-03 59748   0.183E-01    0.715E-02
DAV:  15    -0.307410342344E+03    0.39254E-04   -0.97265E-04 55380   0.134E-01
   2 F= -.30741034E+03 E0= -.30740727E+03  d E =-.568527E+00
 trial-energy change:   -0.568527  1 .order   -0.566720   -0.785993   -0.347447
 step:   1.7592(harm=  1.7923)  dis= 0.07291  next Energy=  -307.543032 (dE=-0.701E+00)
 bond charge predicted
       N       E                     dE             d eps       ncg     rms          rms(c)
DAV:   1    -0.307396017816E+03    0.14364E-01   -0.47927E+01 41280   0.235E+01    0.364E+00
DAV:   2    -0.308210057232E+03   -0.81404E+00   -0.77730E+00 71256   0.164E+01    0.681E+00
DAV:   3    -0.307619797646E+03    0.59026E+00   -0.40200E+00 71484   0.868E+00    0.260E+00
DAV:   4    -0.307595258343E+03    0.24539E-01   -0.10886E+00 69972   0.444E+00    0.239E+00
DAV:   5    -0.307570533080E+03    0.24725E-01   -0.65094E-01 68556   0.394E+00    0.186E+00
DAV:   6    -0.307540603119E+03    0.29930E-01   -0.33378E-01 70428   0.271E+00    0.958E-01
DAV:   7    -0.307538026635E+03    0.25765E-02   -0.17612E-01 78264   0.175E+00    0.978E-01
DAV:   8    -0.307534157926E+03    0.38687E-02   -0.11360E-01 73740   0.151E+00    0.766E-01
DAV:   9    -0.307529117125E+03    0.50408E-02   -0.38347E-02 69972   0.849E-01    0.392E-01
DAV:  10    -0.307528373903E+03    0.74322E-03   -0.10644E-02 61788   0.415E-01    0.292E-01
DAV:  11    -0.307528767029E+03   -0.39313E-03   -0.48851E-03 66972   0.285E-01    0.237E-01
DAV:  12    -0.307529285217E+03   -0.51819E-03   -0.78620E-03 58104   0.431E-01    0.255E-01
DAV:  13    -0.307528812212E+03    0.47301E-03   -0.54111E-03 60060   0.350E-01    0.937E-02
DAV:  14    -0.307528779638E+03    0.32574E-04   -0.18138E-03 59904   0.191E-01    0.857E-02
DAV:  15    -0.307528718080E+03    0.61558E-04   -0.69649E-04 46236   0.152E-01
   3 F= -.30752872E+03 E0= -.30752602E+03  d E =-.686903E+00
 curvature:  -0.89 expect dE=-0.730E+00 dE for cont linesearch -0.164E-02
 trial: gam= 1.08721 g(F)=  0.130E+00 g(S)=  0.686E+00 ort =-0.380E-01 (trialstep = 0.544E+00)
 search vector abs. value=  0.166E+01
 bond charge predicted
       N       E                     dE             d eps       ncg     rms          rms(c)
DAV:   1    -0.308043518928E+03   -0.51474E+00   -0.53967E+01 51732   0.300E+01    0.667E+00
DAV:   2    -0.308764749340E+03   -0.72123E+00   -0.11866E+01 71820   0.170E+01    0.857E+00
DAV:   3    -0.308116239007E+03    0.64851E+00   -0.10343E+01 73716   0.129E+01    0.561E+00
DAV:   4    -0.307933903393E+03    0.18234E+00   -0.32894E+00 72360   0.890E+00    0.360E+00
DAV:   5    -0.307848811274E+03    0.85092E-01   -0.17810E+00 70416   0.641E+00    0.313E+00
DAV:   6    -0.307743278432E+03    0.10553E+00   -0.97754E-01 68712   0.487E+00    0.158E+00
DAV:   7    -0.307733515194E+03    0.97632E-02   -0.40176E-01 75048   0.269E+00    0.136E+00
DAV:   8    -0.307727016076E+03    0.64991E-02   -0.20528E-01 71352   0.216E+00    0.995E-01
DAV:   9    -0.307719376626E+03    0.76395E-02   -0.51651E-02 67584   0.110E+00    0.523E-01
DAV:  10    -0.307720001521E+03   -0.62490E-03   -0.11955E-02 67824   0.426E-01    0.458E-01
DAV:  11    -0.307721352895E+03   -0.13514E-02   -0.12372E-02 66792   0.479E-01    0.400E-01
DAV:  12    -0.307723185703E+03   -0.18328E-02   -0.18018E-02 65916   0.623E-01    0.361E-01
DAV:  13    -0.307722218234E+03    0.96747E-03   -0.15193E-02 68172   0.517E-01    0.173E-01
DAV:  14    -0.307722107000E+03    0.11123E-03   -0.46535E-03 69300   0.269E-01    0.117E-01
DAV:  15    -0.307722024465E+03    0.82536E-04   -0.17885E-03 61248   0.188E-01    0.827E-02
DAV:  16    -0.307721975435E+03    0.49029E-04   -0.47678E-04 42492   0.124E-01
   4 F= -.30772198E+03 E0= -.30771964E+03  d E =-.193257E+00
 trial-energy change:   -0.193257  1 .order   -0.196710   -0.422054    0.028634
 step:   0.5082(harm=  0.5098)  dis= 0.03343  next Energy=  -307.722927 (dE=-0.194E+00)
 bond charge predicted
       N       E                     dE             d eps       ncg     rms          rms(c)
DAV:   1    -0.307724683493E+03   -0.26590E-02   -0.23533E-01 50940   0.196E+00    0.470E-01
DAV:   2    -0.307727758380E+03   -0.30749E-02   -0.55334E-02 72240   0.112E+00    0.573E-01
DAV:   3    -0.307725294883E+03    0.24635E-02   -0.50584E-02 71868   0.997E-01    0.417E-01
DAV:   4    -0.307723866903E+03    0.14280E-02   -0.13917E-02 63204   0.563E-01    0.241E-01
DAV:   5    -0.307723590282E+03    0.27662E-03   -0.87564E-03 62184   0.448E-01    0.230E-01
DAV:   6    -0.307723065171E+03    0.52511E-03   -0.51005E-03 68328   0.365E-01    0.106E-01
DAV:   7    -0.307723018125E+03    0.47046E-04   -0.19548E-03 61908   0.187E-01    0.920E-02
DAV:   8    -0.307722983849E+03    0.34276E-04   -0.98624E-04 52620   0.154E-01
   5 F= -.30772298E+03 E0= -.30772064E+03  d E =-.194266E+00
 curvature:  -0.55 expect dE=-0.585E-01 dE for cont linesearch -0.492E-05
 trial: gam= 0.02664 g(F)=  0.103E+00 g(S)=  0.385E-02 ort = 0.387E-02 (trialstep = 0.537E+00)
 search vector abs. value=  0.109E+00
 bond charge predicted
       N       E                     dE             d eps       ncg     rms          rms(c)
DAV:   1    -0.307756975335E+03   -0.33957E-01   -0.34740E+00 41280   0.592E+00    0.594E-01
DAV:   2    -0.307786030228E+03   -0.29055E-01   -0.29277E-01 69312   0.292E+00    0.115E+00
DAV:   3    -0.307775581201E+03    0.10449E-01   -0.12421E-01 68412   0.177E+00    0.572E-01
DAV:   4    -0.307773794301E+03    0.17869E-02   -0.29549E-02 66708   0.789E-01    0.348E-01
DAV:   5    -0.307772537898E+03    0.12564E-02   -0.10733E-02 64728   0.430E-01    0.242E-01
DAV:   6    -0.307772612255E+03   -0.74356E-04   -0.70474E-03 64308   0.379E-01    0.238E-01
DAV:   7    -0.307772277166E+03    0.33509E-03   -0.64056E-03 69900   0.349E-01    0.174E-01
DAV:   8    -0.307772061631E+03    0.21554E-03   -0.37941E-03 63000   0.275E-01    0.128E-01
DAV:   9    -0.307771893809E+03    0.16782E-03   -0.14952E-03 55728   0.183E-01    0.598E-02
DAV:  10    -0.307771855574E+03    0.38235E-04   -0.28892E-04 35100   0.991E-02
   6 F= -.30777186E+03 E0= -.30776961E+03  d E =-.488717E-01
 trial-energy change:   -0.048872  1 .order   -0.048870   -0.057647   -0.040093
 step:   1.7640(harm=  1.7640)  dis= 0.02520  next Energy=  -307.817641 (dE=-0.947E-01)
 bond charge predicted
       N       E                     dE             d eps       ncg     rms          rms(c)
DAV:   1    -0.307739930009E+03    0.31964E-01   -0.18127E+01 41280   0.135E+01    0.140E+00
DAV:   2    -0.307888963748E+03   -0.14903E+00   -0.15148E+00 69384   0.656E+00    0.255E+00
DAV:   3    -0.307839957131E+03    0.49007E-01   -0.65475E-01 68268   0.405E+00    0.136E+00
DAV:   4    -0.307829763649E+03    0.10193E-01   -0.16925E-01 69324   0.189E+00    0.807E-01
DAV:   5    -0.307822642515E+03    0.71211E-02   -0.61286E-02 70224   0.997E-01    0.543E-01
DAV:   6    -0.307823349922E+03   -0.70741E-03   -0.36893E-02 68664   0.882E-01    0.558E-01
DAV:   7    -0.307821052617E+03    0.22973E-02   -0.32070E-02 70944   0.780E-01    0.367E-01
DAV:   8    -0.307820066184E+03    0.98643E-03   -0.16485E-02 71520   0.574E-01    0.273E-01
DAV:   9    -0.307819320911E+03    0.74527E-03   -0.69408E-03 61128   0.377E-01    0.125E-01
DAV:  10    -0.307819239659E+03    0.81252E-04   -0.18896E-03 61080   0.195E-01    0.816E-02
DAV:  11    -0.307819198754E+03    0.40906E-04   -0.78316E-04 50232   0.129E-01
   7 F= -.30781920E+03 E0= -.30781700E+03  d E =-.962149E-01
 curvature:  -0.89 expect dE=-0.325E-01 dE for cont linesearch -0.361E-04
 trial: gam= 0.32339 g(F)=  0.244E-01 g(S)=  0.120E-01 ort = 0.210E-02 (trialstep = 0.783E+00)
 search vector abs. value=  0.491E-01
 bond charge predicted
       N       E                     dE             d eps       ncg     rms          rms(c)
DAV:   1    -0.307856062003E+03   -0.36822E-01   -0.27281E+00 41616   0.677E+00    0.165E+00
DAV:   2    -0.307867753103E+03   -0.11691E-01   -0.40929E-01 72960   0.321E+00    0.142E+00
DAV:   3    -0.307872084012E+03   -0.43309E-02   -0.42976E-01 71760   0.300E+00    0.165E+00
DAV:   4    -0.307849933330E+03    0.22151E-01   -0.24276E-01 69408   0.234E+00    0.872E-01
DAV:   5    -0.307840042217E+03    0.98911E-02   -0.10019E-01 70836   0.123E+00    0.519E-01
DAV:   6    -0.307839796799E+03    0.24542E-03   -0.49828E-02 70896   0.998E-01    0.538E-01
DAV:   7    -0.307837693002E+03    0.21038E-02   -0.25905E-02 64800   0.740E-01    0.263E-01
DAV:   8    -0.307837347571E+03    0.34543E-03   -0.75619E-03 61548   0.359E-01    0.181E-01
DAV:   9    -0.307837169317E+03    0.17825E-03   -0.24144E-03 63756   0.186E-01    0.129E-01
DAV:  10    -0.307837218438E+03   -0.49121E-04   -0.93303E-04 50856   0.153E-01
   8 F= -.30783722E+03 E0= -.30783511E+03  d E =-.180197E-01
 trial-energy change:   -0.018020  1 .order   -0.018815   -0.029014   -0.008616
 step:   1.3314(harm=  1.1130)  dis= 0.01670  next Energy=  -307.839966 (dE=-0.208E-01)
 bond charge predicted
       N       E                     dE             d eps       ncg     rms          rms(c)
DAV:   1    -0.307845468938E+03   -0.82996E-02   -0.13452E+00 41412   0.474E+00    0.115E+00
DAV:   2    -0.307850163232E+03   -0.46943E-02   -0.19470E-01 72012   0.226E+00    0.989E-01
DAV:   3    -0.307853072878E+03   -0.29096E-02   -0.21229E-01 70716   0.208E+00    0.117E+00
DAV:   4    -0.307842247245E+03    0.10826E-01   -0.12707E-01 69024   0.167E+00    0.630E-01
DAV:   5    -0.307837458337E+03    0.47889E-02   -0.50328E-02 70512   0.933E-01    0.385E-01
DAV:   6    -0.307837166895E+03    0.29144E-03   -0.23636E-02 68892   0.724E-01    0.354E-01
DAV:   7    -0.307836208337E+03    0.95856E-03   -0.10535E-02 65652   0.473E-01    0.173E-01
DAV:   8    -0.307836179278E+03    0.29059E-04   -0.30720E-03 61608   0.232E-01    0.146E-01
DAV:   9    -0.307836111972E+03    0.67306E-04   -0.11765E-03 57000   0.151E-01    0.108E-01
DAV:  10    -0.307836151870E+03   -0.39899E-04   -0.56224E-04 43704   0.124E-01
   9 F= -.30783615E+03 E0= -.30783411E+03  d E =-.169531E-01
 curvature:  -0.42 expect dE=-0.296E-01 dE for cont linesearch -0.845E-03
 trial: gam= 0.00000 g(F)=  0.132E-01 g(S)=  0.581E-01 ort =-0.999E-02 (trialstep = 0.615E+00)
 search vector abs. value=  0.713E-01
 bond charge predicted
       N       E                     dE             d eps       ncg     rms          rms(c)
DAV:   1    -0.307945703265E+03   -0.10959E+00   -0.40236E+00 57384   0.103E+01    0.287E+00
DAV:   2    -0.307954851364E+03   -0.91481E-02   -0.12608E+00 78264   0.467E+00    0.237E+00
DAV:   3    -0.307922684538E+03    0.32167E-01   -0.13425E+00 70320   0.383E+00    0.232E+00
DAV:   4    -0.307900017743E+03    0.22667E-01   -0.69566E-01 69756   0.380E+00    0.188E+00
DAV:   5    -0.307862596616E+03    0.37421E-01   -0.30351E-01 72480   0.241E+00    0.925E-01
DAV:   6    -0.307857830977E+03    0.47656E-02   -0.16432E-01 71628   0.183E+00    0.878E-01
DAV:   7    -0.307851852483E+03    0.59785E-02   -0.88952E-02 70080   0.137E+00    0.436E-01
DAV:   8    -0.307851016234E+03    0.83625E-03   -0.26240E-02 70836   0.672E-01    0.303E-01
DAV:   9    -0.307850284563E+03    0.73167E-03   -0.61286E-03 64032   0.329E-01    0.204E-01
DAV:  10    -0.307850281758E+03    0.28058E-05   -0.12475E-03 57540   0.168E-01    0.178E-01
DAV:  11    -0.307850345893E+03   -0.64135E-04   -0.23729E-04 29952   0.101E-01
  10 F= -.30785035E+03 E0= -.30784838E+03  d E =-.141940E-01
 trial-energy change:   -0.014194  1 .order   -0.014751   -0.043823    0.014322
 step:   0.4565(harm=  0.4633)  dis= 0.00325  next Energy=  -307.852198 (dE=-0.160E-01)
 bond charge predicted
       N       E                     dE             d eps       ncg     rms          rms(c)
DAV:   1    -0.307859140168E+03   -0.88584E-02   -0.26099E-01 56508   0.265E+00    0.742E-01
DAV:   2    -0.307860931355E+03   -0.17912E-02   -0.91029E-02 78108   0.125E+00    0.640E-01
DAV:   3    -0.307858457226E+03    0.24741E-02   -0.90149E-02 70128   0.112E+00    0.646E-01
DAV:   4    -0.307856124054E+03    0.23332E-02   -0.45786E-02 59940   0.100E+00    0.473E-01
DAV:   5    -0.307853976038E+03    0.21480E-02   -0.21090E-02 74928   0.647E-01    0.235E-01
DAV:   6    -0.307853852196E+03    0.12384E-03   -0.11221E-02 66852   0.483E-01    0.270E-01
DAV:   7    -0.307853275798E+03    0.57640E-03   -0.76842E-03 64140   0.397E-01    0.128E-01
DAV:   8    -0.307853223358E+03    0.52440E-04   -0.26637E-03 58884   0.220E-01    0.992E-02
DAV:   9    -0.307853128073E+03    0.95285E-04   -0.84265E-04 50760   0.137E-01
  11 F= -.30785313E+03 E0= -.30785115E+03  d E =-.169762E-01
 curvature:  -0.23 expect dE=-0.275E-02 dE for cont linesearch -0.318E-04
 trial: gam= 0.21077 g(F)=  0.872E-02 g(S)=  0.318E-02 ort =-0.313E-02 (trialstep = 0.583E+00)
 search vector abs. value=  0.137E-01
 bond charge predicted
       N       E                     dE             d eps       ncg     rms          rms(c)
DAV:   1    -0.307857259614E+03   -0.40363E-02   -0.38695E-01 41280   0.201E+00    0.187E-01
DAV:   2    -0.307860040744E+03   -0.27811E-02   -0.29387E-02 68808   0.914E-01    0.291E-01
DAV:   3    -0.307859431579E+03    0.60917E-03   -0.95089E-03 68928   0.482E-01    0.158E-01
DAV:   4    -0.307859260718E+03    0.17086E-03   -0.23926E-03 58896   0.233E-01    0.105E-01
DAV:   5    -0.307859156981E+03    0.10374E-03   -0.11003E-03 52428   0.160E-01    0.741E-02
DAV:   6    -0.307859124999E+03    0.31981E-04   -0.44041E-04 40236   0.123E-01
  12 F= -.30785912E+03 E0= -.30785720E+03  d E =-.599693E-02
 ZBRENT: can't locate minimum, use default step
 trial-energy change:   -0.005997  1 .order   -0.006094   -0.006552   -0.005635
 step:   2.3321(harm=  4.1670)  dis= 0.01904  next Energy=  -307.876543 (dE=-0.234E-01)
 bond charge predicted
       N       E                     dE             d eps       ncg     rms          rms(c)
DAV:   1    -0.307854260772E+03    0.48962E-02   -0.34730E+00 41280   0.602E+00    0.523E-01
DAV:   2    -0.307879320909E+03   -0.25060E-01   -0.26606E-01 68628   0.281E+00    0.910E-01
DAV:   3    -0.307872772594E+03    0.65483E-02   -0.81287E-02 68772   0.141E+00    0.438E-01
DAV:   4    -0.307871734154E+03    0.10384E-02   -0.19254E-02 65988   0.652E-01    0.332E-01
DAV:   5    -0.307870749940E+03    0.98421E-03   -0.95677E-03 63996   0.459E-01    0.230E-01
DAV:   6    -0.307870589817E+03    0.16012E-03   -0.52819E-03 63588   0.336E-01    0.192E-01
DAV:   7    -0.307870416679E+03    0.17314E-03   -0.51440E-03 67368   0.290E-01    0.158E-01
DAV:   8    -0.307870148076E+03    0.26860E-03   -0.26336E-03 60024   0.239E-01    0.101E-01
DAV:   9    -0.307870049561E+03    0.98515E-04   -0.95295E-04 50376   0.153E-01
  13 F= -.30787005E+03 E0= -.30786824E+03  d E =-.169215E-01
 curvature:  -1.88 expect dE=-0.160E-01 dE for cont linesearch -0.150E-02
 ZBRENT: increasing intervall
 opt :   5.8302  next Energy=  -307.859369 (dE=-0.624E-02)
 bond charge predicted
       N       E                     dE             d eps       ncg     rms          rms(c)
DAV:   1    -0.307795202784E+03    0.74945E-01   -0.13912E+01 41316   0.121E+01    0.105E+00
DAV:   2    -0.307897240219E+03   -0.10204E+00   -0.10880E+00 68484   0.571E+00    0.184E+00
DAV:   3    -0.307869796295E+03    0.27444E-01   -0.32993E-01 68424   0.281E+00    0.850E-01
DAV:   4    -0.307865465051E+03    0.43312E-02   -0.73757E-02 69708   0.128E+00    0.641E-01
DAV:   5    -0.307862142389E+03    0.33227E-02   -0.38049E-02 70692   0.920E-01    0.456E-01
DAV:   6    -0.307861057796E+03    0.10846E-02   -0.18355E-02 68760   0.646E-01    0.357E-01
DAV:   7    -0.307861134100E+03   -0.76304E-04   -0.21404E-02 75060   0.619E-01    0.375E-01
DAV:   8    -0.307859842932E+03    0.12912E-02   -0.13316E-02 62424   0.551E-01    0.222E-01
DAV:   9    -0.307859291976E+03    0.55096E-03   -0.38108E-03 60672   0.296E-01    0.839E-02
DAV:  10    -0.307859278367E+03    0.13609E-04   -0.11333E-03 57060   0.135E-01    0.631E-02
DAV:  11    -0.307859254470E+03    0.23897E-04   -0.52627E-04 43764   0.101E-01
  14 F= -.30785925E+03 E0= -.30785762E+03  d E =-.612640E-02
 curvature:  13.43 expect dE= 0.728E+00 dE for cont linesearch  0.893E-01
 ZBRENT: bracketing found
 ZBRENT: interpolating
 opt :   3.2311  next Energy=  -307.871536 (dE=-0.184E-01)
 bond charge predicted
       N       E                     dE             d eps       ncg     rms          rms(c)
DAV:   1    -0.307834947644E+03    0.24331E-01   -0.76683E+00 41280   0.898E+00    0.836E-01
DAV:   2    -0.307891296601E+03   -0.56349E-01   -0.60194E-01 68628   0.418E+00    0.136E+00
DAV:   3    -0.307879080241E+03    0.12216E-01   -0.20178E-01 68472   0.225E+00    0.735E-01
DAV:   4    -0.307874892368E+03    0.41879E-02   -0.45267E-02 69768   0.101E+00    0.467E-01
DAV:   5    -0.307873142578E+03    0.17498E-02   -0.20463E-02 66024   0.657E-01    0.361E-01
DAV:   6    -0.307872669494E+03    0.47308E-03   -0.10486E-02 66744   0.492E-01    0.293E-01
DAV:   7    -0.307872534175E+03    0.13532E-03   -0.11314E-02 68400   0.442E-01    0.275E-01
DAV:   8    -0.307871890885E+03    0.64329E-03   -0.77498E-03 66012   0.414E-01    0.188E-01
DAV:   9    -0.307871508570E+03    0.38231E-03   -0.30208E-03 59604   0.262E-01    0.701E-02
DAV:  10    -0.307871491956E+03    0.16614E-04   -0.69012E-04 48456   0.112E-01
  15 F= -.30787149E+03 E0= -.30786973E+03  d E =-.183639E-01
 curvature:  -0.22 expect dE=-0.320E-02 dE for cont linesearch -0.152E-08
 trial: gam= 1.15077 g(F)=  0.139E-01 g(S)=  0.420E-03 ort =-0.965E-05 (trialstep = 0.471E+00)
 search vector abs. value=  0.325E-01
 bond charge predicted
       N       E                     dE             d eps       ncg     rms          rms(c)
DAV:   1    -0.307875543515E+03   -0.40349E-02   -0.49837E-01 42084   0.224E+00    0.216E-01
DAV:   2    -0.307880127764E+03   -0.45842E-02   -0.46151E-02 67440   0.112E+00    0.462E-01
DAV:   3    -0.307878258385E+03    0.18694E-02   -0.16586E-02 67944   0.613E-01    0.166E-01
DAV:   4    -0.307878137727E+03    0.12066E-03   -0.30573E-03 61380   0.259E-01    0.145E-01
DAV:   5    -0.307877922523E+03    0.21520E-03   -0.17418E-03 60060   0.204E-01    0.886E-02
DAV:   6    -0.307877921115E+03    0.14079E-05   -0.92866E-04 51228   0.152E-01
  16 F= -.30787792E+03 E0= -.30787615E+03  d E =-.642916E-02
 ZBRENT: can't locate minimum, use default step
 trial-energy change:   -0.006429  1 .order   -0.006538   -0.006726   -0.006349
 step:   1.8839(harm=  8.4127)  dis= 0.02499  next Energy=  -307.931561 (dE=-0.601E-01)
 bond charge predicted
       N       E                     dE             d eps       ncg     rms          rms(c)
DAV:   1    -0.307873471160E+03    0.44514E-02   -0.44931E+00 42672   0.671E+00    0.623E-01
DAV:   2    -0.307910745437E+03   -0.37274E-01   -0.38676E-01 67248   0.317E+00    0.130E+00
DAV:   3    -0.307896008760E+03    0.14737E-01   -0.13633E-01 68904   0.176E+00    0.486E-01
DAV:   4    -0.307895247083E+03    0.76168E-03   -0.27842E-02 69516   0.785E-01    0.444E-01
DAV:   5    -0.307893167028E+03    0.20801E-02   -0.15751E-02 67440   0.603E-01    0.255E-01
DAV:   6    -0.307893352725E+03   -0.18570E-03   -0.92475E-03 69108   0.441E-01    0.274E-01
DAV:   7    -0.307892640058E+03    0.71267E-03   -0.88142E-03 65988   0.428E-01    0.173E-01
DAV:   8    -0.307892449612E+03    0.19045E-03   -0.39779E-03 63348   0.309E-01    0.129E-01
DAV:   9    -0.307892242352E+03    0.20726E-03   -0.11962E-03 53820   0.166E-01    0.460E-02
DAV:  10    -0.307892234308E+03    0.80441E-05   -0.21581E-04 30984   0.773E-02
  17 F= -.30789223E+03 E0= -.30789053E+03  d E =-.207424E-01
 curvature:  -3.10 expect dE=-0.204E-01 dE for cont linesearch -0.565E-02
 ZBRENT: increasing intervall
 opt :   4.7099  next Energy=  -307.897624 (dE=-0.261E-01)
 bond charge predicted
       N       E                     dE             d eps       ncg     rms          rms(c)
DAV:   1    -0.307825796420E+03    0.66446E-01   -0.18032E+01 42636   0.134E+01    0.129E+00
DAV:   2    -0.307981906770E+03   -0.15611E+00   -0.16102E+00 66948   0.661E+00    0.268E+00
DAV:   3    -0.307915571946E+03    0.66335E-01   -0.58113E-01 67368   0.353E+00    0.971E-01
DAV:   4    -0.307912600802E+03    0.29711E-02   -0.11798E-01 69852   0.160E+00    0.881E-01
DAV:   5    -0.307904436950E+03    0.81639E-02   -0.62151E-02 69072   0.119E+00    0.505E-01
DAV:   6    -0.307904985863E+03   -0.54891E-03   -0.35154E-02 69792   0.885E-01    0.548E-01
DAV:   7    -0.307902467926E+03    0.25179E-02   -0.34408E-02 71580   0.861E-01    0.352E-01
DAV:   8    -0.307901691993E+03    0.77593E-03   -0.16844E-02 70500   0.624E-01    0.272E-01
DAV:   9    -0.307900798596E+03    0.89340E-03   -0.55851E-03 63132   0.339E-01    0.957E-02
DAV:  10    -0.307900809609E+03   -0.11013E-04   -0.15415E-03 61488   0.147E-01    0.876E-02
DAV:  11    -0.307900796978E+03    0.12631E-04   -0.10092E-03 53892   0.144E-01    0.780E-02
DAV:  12    -0.307900771284E+03    0.25694E-04   -0.58694E-04 46224   0.126E-01
  18 F= -.30790077E+03 E0= -.30789916E+03  d E =-.292793E-01
 curvature:  -2.96 expect dE=-0.589E-01 dE for cont linesearch -0.443E-03
 trial: gam= 1.62108 g(F)=  0.983E-02 g(S)=  0.101E-01 ort =-0.221E-02 (trialstep = 0.436E+00)
 search vector abs. value=  0.981E-01
 bond charge predicted
       N       E                     dE             d eps       ncg     rms          rms(c)
DAV:   1    -0.307902303279E+03   -0.15063E-02   -0.14873E+00 41280   0.448E+00    0.771E-01
DAV:   2    -0.307914402812E+03   -0.12100E-01   -0.19443E-01 68316   0.198E+00    0.761E-01
DAV:   3    -0.307913912609E+03    0.49020E-03   -0.12277E-01 68352   0.152E+00    0.843E-01
DAV:   4    -0.307908973147E+03    0.49395E-02   -0.60627E-02 65256   0.118E+00    0.449E-01
DAV:   5    -0.307906524127E+03    0.24490E-02   -0.19685E-02 68520   0.575E-01    0.238E-01
DAV:   6    -0.307906267532E+03    0.25659E-03   -0.10534E-02 71232   0.483E-01    0.236E-01
DAV:   7    -0.307905945790E+03    0.32174E-03   -0.70921E-03 59904   0.398E-01    0.165E-01
DAV:   8    -0.307905752676E+03    0.19311E-03   -0.30866E-03 59520   0.263E-01    0.102E-01
DAV:   9    -0.307905675664E+03    0.77012E-04   -0.88579E-04 50856   0.151E-01
  19 F= -.30790568E+03 E0= -.30790404E+03  d E =-.490438E-02
 trial-energy change:   -0.004904  1 .order   -0.005069   -0.007141   -0.002997
 step:   0.7520(harm=  0.7520)  dis= 0.01724  next Energy=  -307.906924 (dE=-0.615E-02)
 bond charge predicted
       N       E                     dE             d eps       ncg     rms          rms(c)
DAV:   1    -0.307904327502E+03    0.14252E-02   -0.77573E-01 41280   0.323E+00    0.544E-01
DAV:   2    -0.307910932528E+03   -0.66050E-02   -0.10159E-01 68364   0.144E+00    0.570E-01
DAV:   3    -0.307910210507E+03    0.72202E-03   -0.63730E-02 67392   0.110E+00    0.596E-01
DAV:   4    -0.307907740666E+03    0.24698E-02   -0.29980E-02 60912   0.818E-01    0.309E-01
DAV:   5    -0.307906545326E+03    0.11953E-02   -0.99148E-03 69216   0.398E-01    0.162E-01
DAV:   6    -0.307906423101E+03    0.12223E-03   -0.48969E-03 68328   0.327E-01    0.165E-01
DAV:   7    -0.307906297858E+03    0.12524E-03   -0.34998E-03 59904   0.283E-01    0.123E-01
DAV:   8    -0.307906190302E+03    0.10756E-03   -0.14670E-03 57732   0.186E-01    0.729E-02
DAV:   9    -0.307906145581E+03    0.44721E-04   -0.23718E-04 31848   0.107E-01
  20 F= -.30790615E+03 E0= -.30790449E+03  d E =-.537430E-02
 curvature:  -2.25 expect dE=-0.331E-01 dE for cont linesearch -0.421E-04
 trial: gam= 0.63730 g(F)=  0.887E-02 g(S)=  0.580E-02 ort =-0.135E-02 (trialstep = 0.500E+00)
 search vector abs. value=  0.528E-01
 bond charge predicted
       N       E                     dE             d eps       ncg     rms          rms(c)
DAV:   1    -0.307903732068E+03    0.24582E-02   -0.12469E+00 41376   0.388E+00    0.357E-01
DAV:   2    -0.307915241791E+03   -0.11510E-01   -0.12718E-01 67848   0.178E+00    0.522E-01
DAV:   3    -0.307913535932E+03    0.17059E-02   -0.31756E-02 69540   0.861E-01    0.322E-01
DAV:   4    -0.307912810659E+03    0.72527E-03   -0.86997E-03 64800   0.445E-01    0.221E-01
DAV:   5    -0.307912352090E+03    0.45857E-03   -0.33470E-03 65496   0.245E-01    0.141E-01
DAV:   6    -0.307912463846E+03   -0.11176E-03   -0.26089E-03 65508   0.245E-01    0.168E-01
DAV:   7    -0.307912286507E+03    0.17734E-03   -0.31630E-03 64572   0.284E-01    0.115E-01
DAV:   8    -0.307912147015E+03    0.13949E-03   -0.12762E-03 55224   0.181E-01    0.624E-02
DAV:   9    -0.307912094843E+03    0.52172E-04   -0.27514E-04 33744   0.104E-01
  21 F= -.30791209E+03 E0= -.30791040E+03  d E =-.594926E-02
 trial-energy change:   -0.005949  1 .order   -0.005889   -0.006897   -0.004881
 step:   1.7090(harm=  1.7090)  dis= 0.02637  next Energy=  -307.917944 (dE=-0.118E-01)
 bond charge predicted
       N       E                     dE             d eps       ncg     rms          rms(c)
DAV:   1    -0.307868508217E+03    0.43639E-01   -0.73056E+00 41292   0.938E+00    0.860E-01
DAV:   2    -0.307934894396E+03   -0.66386E-01   -0.73482E-01 67824   0.432E+00    0.120E+00
DAV:   3    -0.307926302496E+03    0.85919E-02   -0.17568E-01 69480   0.200E+00    0.747E-01
DAV:   4    -0.307922368611E+03    0.39339E-02   -0.51434E-02 69612   0.109E+00    0.527E-01
DAV:   5    -0.307919721835E+03    0.26468E-02   -0.20127E-02 70008   0.613E-01    0.315E-01
DAV:   6    -0.307920343462E+03   -0.62163E-03   -0.14730E-02 68064   0.575E-01    0.385E-01
DAV:   7    -0.307919268591E+03    0.10749E-02   -0.15972E-02 72504   0.621E-01    0.242E-01
DAV:   8    -0.307918709204E+03    0.55939E-03   -0.56576E-03 63324   0.368E-01    0.148E-01
DAV:   9    -0.307918517827E+03    0.19138E-03   -0.19753E-03 60996   0.205E-01    0.757E-02
DAV:  10    -0.307918486482E+03    0.31345E-04   -0.39732E-04 38472   0.110E-01
  22 F= -.30791849E+03 E0= -.30791668E+03  d E =-.123409E-01
 curvature:  -3.27 expect dE=-0.195E-01 dE for cont linesearch -0.234E-05
 trial: gam= 0.38722 g(F)=  0.562E-02 g(S)=  0.364E-03 ort = 0.195E-03 (trialstep = 0.741E+00)
 search vector abs. value=  0.140E-01
 bond charge predicted
       N       E                     dE             d eps       ncg     rms          rms(c)
DAV:   1    -0.307917953810E+03    0.56402E-03   -0.75103E-01 41280   0.286E+00    0.241E-01
DAV:   2    -0.307924057630E+03   -0.61038E-02   -0.65302E-02 68148   0.130E+00    0.353E-01
DAV:   3    -0.307923212833E+03    0.84480E-03   -0.17862E-02 69012   0.678E-01    0.237E-01
DAV:   4    -0.307922851818E+03    0.36101E-03   -0.53097E-03 59664   0.353E-01    0.155E-01
DAV:   5    -0.307922641608E+03    0.21021E-03   -0.17058E-03 56076   0.192E-01    0.975E-02
DAV:   6    -0.307922618602E+03    0.23007E-04   -0.79294E-04 47016   0.134E-01
  23 F= -.30792262E+03 E0= -.30792068E+03  d E =-.413212E-02
 ZBRENT: can't locate minimum, use default step
 trial-energy change:   -0.004132  1 .order   -0.004168   -0.004490   -0.003845
 step:   2.9658(harm=  5.1605)  dis= 0.02064  next Energy=  -307.934113 (dE=-0.156E-01)
 bond charge predicted
       N       E                     dE             d eps       ncg     rms          rms(c)
DAV:   1    -0.307887006288E+03    0.35635E-01   -0.67252E+00 41484   0.854E+00    0.740E-01
DAV:   2    -0.307939925759E+03   -0.52919E-01   -0.56595E-01 68052   0.372E+00    0.101E+00
DAV:   3    -0.307934067203E+03    0.58586E-02   -0.15749E-01 69372   0.196E+00    0.746E-01
DAV:   4    -0.307930891306E+03    0.31759E-02   -0.50521E-02 68472   0.111E+00    0.486E-01
DAV:   5    -0.307928428797E+03    0.24625E-02   -0.15317E-02 68148   0.531E-01    0.268E-01
DAV:   6    -0.307928588351E+03   -0.15955E-03   -0.83318E-03 70248   0.387E-01    0.285E-01
DAV:   7    -0.307928331487E+03    0.25686E-03   -0.10307E-02 65340   0.464E-01    0.247E-01
DAV:   8    -0.307927648531E+03    0.68296E-03   -0.59119E-03 72480   0.360E-01    0.135E-01
DAV:   9    -0.307927469789E+03    0.17874E-03   -0.17148E-03 59868   0.194E-01    0.631E-02
DAV:  10    -0.307927429829E+03    0.39960E-04   -0.30767E-04 34212   0.103E-01
  24 F= -.30792743E+03 E0= -.30792517E+03  d E =-.894335E-02
 curvature:  -4.51 expect dE=-0.147E-01 dE for cont linesearch -0.478E-04
 trial: gam= 0.63463 g(F)=  0.300E-02 g(S)=  0.253E-03 ort =-0.386E-03 (trialstep = 0.119E+01)
 search vector abs. value=  0.842E-02
 bond charge predicted
       N       E                     dE             d eps       ncg     rms          rms(c)
DAV:   1    -0.307920406930E+03    0.70629E-02   -0.13223E+00 41280   0.407E+00    0.396E-01
DAV:   2    -0.307934850611E+03   -0.14444E-01   -0.15304E-01 67716   0.206E+00    0.673E-01
DAV:   3    -0.307931616119E+03    0.32345E-02   -0.48513E-02 67284   0.118E+00    0.359E-01
DAV:   4    -0.307930581404E+03    0.10347E-02   -0.11433E-02 65376   0.515E-01    0.212E-01
DAV:   5    -0.307930235896E+03    0.34551E-03   -0.45375E-03 63612   0.306E-01    0.169E-01
DAV:   6    -0.307930141355E+03    0.94541E-04   -0.24677E-03 62040   0.224E-01    0.128E-01
DAV:   7    -0.307930094485E+03    0.46870E-04   -0.24344E-03 68700   0.207E-01    0.114E-01
DAV:   8    -0.307929993677E+03    0.10081E-03   -0.16404E-03 59448   0.190E-01    0.818E-02
DAV:   9    -0.307929911905E+03    0.81772E-04   -0.40695E-04 38688   0.117E-01
  25 F= -.30792991E+03 E0= -.30792754E+03  d E =-.248208E-02
 trial-energy change:   -0.002482  1 .order   -0.002417   -0.003569   -0.001265
 step:   1.8375(harm=  1.8375)  dis= 0.00987  next Energy=  -307.930194 (dE=-0.276E-02)
 bond charge predicted
       N       E                     dE             d eps       ncg     rms          rms(c)
DAV:   1    -0.307927394443E+03    0.25992E-02   -0.39792E-01 41352   0.224E+00    0.212E-01
DAV:   2    -0.307931667200E+03   -0.42728E-02   -0.45333E-02 67536   0.112E+00    0.360E-01
DAV:   3    -0.307930770407E+03    0.89679E-03   -0.13734E-02 67140   0.627E-01    0.197E-01
DAV:   4    -0.307930478114E+03    0.29229E-03   -0.33545E-03 60720   0.279E-01    0.116E-01
DAV:   5    -0.307930373910E+03    0.10420E-03   -0.13853E-03 56052   0.176E-01    0.947E-02
DAV:   6    -0.307930340717E+03    0.33193E-04   -0.69812E-04 46752   0.130E-01
  26 F= -.30793034E+03 E0= -.30792791E+03  d E =-.291089E-02
 curvature:  -2.57 expect dE=-0.104E-01 dE for cont linesearch -0.763E-04
 trial: gam= 1.05629 g(F)=  0.104E-02 g(S)=  0.299E-02 ort = 0.500E-03 (trialstep = 0.766E+00)
 search vector abs. value=  0.145E-01
 bond charge predicted
       N       E                     dE             d eps       ncg     rms          rms(c)
DAV:   1    -0.307928035049E+03    0.23389E-02   -0.10417E+00 41304   0.403E+00    0.717E-01
DAV:   2    -0.307938704207E+03   -0.10669E-01   -0.17395E-01 69624   0.197E+00    0.744E-01
DAV:   3    -0.307938441306E+03    0.26290E-03   -0.10914E-01 68016   0.158E+00    0.784E-01
DAV:   4    -0.307933392282E+03    0.50490E-02   -0.43685E-02 63924   0.103E+00    0.364E-01
DAV:   5    -0.307931946672E+03    0.14456E-02   -0.17240E-02 70128   0.512E-01    0.235E-01
DAV:   6    -0.307931634055E+03    0.31262E-03   -0.86262E-03 69984   0.436E-01    0.200E-01
DAV:   7    -0.307931354601E+03    0.27945E-03   -0.42476E-03 66636   0.296E-01    0.111E-01
DAV:   8    -0.307931288393E+03    0.66207E-04   -0.17021E-03 60804   0.170E-01    0.889E-02
DAV:   9    -0.307931232290E+03    0.56104E-04   -0.67893E-04 47208   0.133E-01
  27 F= -.30793123E+03 E0= -.30792874E+03  d E =-.891573E-03
 trial-energy change:   -0.000892  1 .order   -0.001387   -0.003488    0.000714
 step:   0.5167(harm=  0.6357)  dis= 0.00387  next Energy=  -307.931365 (dE=-0.102E-02)
 bond charge predicted
       N       E                     dE             d eps       ncg     rms          rms(c)
DAV:   1    -0.307930963095E+03    0.32530E-03   -0.11073E-01 41568   0.132E+00    0.250E-01
DAV:   2    -0.307932235897E+03   -0.12728E-02   -0.19568E-02 69984   0.660E-01    0.259E-01
DAV:   3    -0.307932297611E+03   -0.61714E-04   -0.13608E-02 68340   0.548E-01    0.284E-01
DAV:   4    -0.307931622122E+03    0.67549E-03   -0.55231E-03 58932   0.359E-01    0.119E-01
DAV:   5    -0.307931500041E+03    0.12208E-03   -0.21326E-03 58860   0.190E-01    0.968E-02
DAV:   6    -0.307931430613E+03    0.69428E-04   -0.10590E-03 50136   0.172E-01    0.648E-02
DAV:   7    -0.307931373324E+03    0.57289E-04   -0.23348E-04 30096   0.109E-01
  28 F= -.30793137E+03 E0= -.30792888E+03  d E =-.103261E-02
 curvature:  -0.16 expect dE=-0.156E-03 dE for cont linesearch -0.357E-06
 trial: gam= 0.20089 g(F)=  0.820E-03 g(S)=  0.128E-03 ort =-0.177E-03 (trialstep = 0.716E+00)
 search vector abs. value=  0.146E-02
 reached required accuracy - stopping structural energy minimisation
 writing wavefunctions
VASP is done!
