<?xml version="1.0" encoding="ISO-8859-1"?>
<modeling>
 <generator>
  <i name="program" type="string">vasp </i>
  <i name="version" type="string">5.4.4.18Apr17-6-g9f103f2a35  </i>
  <i name="subversion" type="string">(build Aug 09 2018 16:20:53) complex            parallel </i>
  <i name="platform" type="string">LinuxIFC </i>
  <i name="date" type="string">2020 04 30 </i>
  <i name="time" type="string">18:23:49 </i>
 </generator>
 <incar>
  <i type="string" name="SYSTEM"> Nb - Mo - Ta - Ti - V SQS</i>
  <i type="string" name="PREC">normal</i>
  <i type="int" name="ICHARG">     0</i>
  <i type="int" name="IBRION">     2</i>
  <i type="int" name="NSW">    50</i>
  <i type="int" name="ISIF">     3</i>
  <i name="ENCUT">    600.00000000</i>
  <i type="string" name="LREAL"> Auto</i>
  <i type="int" name="ISMEAR">     1</i>
  <i name="SIGMA">      0.20000000</i>
  <v type="int" name="KPOINT_BSE">    -1     0     0     0</v>
  <i type="string" name="GGA"> PS</i>
 </incar>
 <structure name="primitive_cell" >
  <crystal>
   <varray name="basis" >
    <v>      -3.16000000      -3.16000000      -3.16000000 </v>
    <v>       1.58000000       1.58000000      -7.90000000 </v>
    <v>       7.90000000      -7.90000000      -1.58000000 </v>
   </varray>
   <i name="volume">    473.31744000 </i>
   <varray name="rec_basis" >
    <v>      -0.13713080      -0.12658228      -0.05274262 </v>
    <v>       0.04219409       0.06329114      -0.10548523 </v>
    <v>       0.06329114      -0.06329114       0.00000000 </v>
   </varray>
  </crystal>
  <varray name="positions" >
   <v>      -0.03333333      -0.06666667       0.40000000 </v>
   <v>       0.30000000      -0.40000000       0.40000000 </v>
   <v>      -0.10000000      -0.20000000       0.20000000 </v>
   <v>       0.06666667       0.13333333       0.20000000 </v>
   <v>       0.46666667      -0.06666667       0.40000000 </v>
   <v>      -0.13333333      -0.26666667      -0.40000000 </v>
   <v>       0.03333333       0.06666667      -0.40000000 </v>
   <v>      -0.36666667       0.26666667       0.40000000 </v>
   <v>       0.40000000      -0.20000000       0.20000000 </v>
   <v>      -0.20000000      -0.40000000       0.40000000 </v>
   <v>      -0.43333333       0.13333333       0.20000000 </v>
   <v>       0.36666667      -0.26666667      -0.40000000 </v>
   <v>       0.13333333       0.26666667       0.40000000 </v>
   <v>       0.23333333       0.46666667       0.20000000 </v>
   <v>       0.20000000       0.40000000      -0.40000000 </v>
   <v>       0.00000000       0.00000000       0.00000000 </v>
   <v>      -0.06666667      -0.13333333      -0.20000000 </v>
   <v>      -0.30000000       0.40000000      -0.40000000 </v>
   <v>      -0.26666667       0.46666667       0.20000000 </v>
   <v>       0.33333333      -0.33333333       0.00000000 </v>
   <v>       0.43333333      -0.13333333      -0.20000000 </v>
   <v>      -0.50000000       0.00000000       0.00000000 </v>
   <v>       0.26666667      -0.46666667      -0.20000000 </v>
   <v>      -0.33333333       0.33333333       0.00000000 </v>
   <v>      -0.40000000       0.20000000      -0.20000000 </v>
   <v>      -0.16666667      -0.33333333       0.00000000 </v>
   <v>      -0.23333333      -0.46666667      -0.20000000 </v>
   <v>       0.16666667       0.33333333       0.00000000 </v>
   <v>       0.10000000       0.20000000      -0.20000000 </v>
  </varray>
 </structure>
 <varray name="primitive_index" >
  <v type="int" >        1 </v>
  <v type="int" >       18 </v>
  <v type="int" >        7 </v>
  <v type="int" >       24 </v>
  <v type="int" >       20 </v>
  <v type="int" >       19 </v>
  <v type="int" >        6 </v>
  <v type="int" >        2 </v>
  <v type="int" >       16 </v>
  <v type="int" >        8 </v>
  <v type="int" >       15 </v>
  <v type="int" >       11 </v>
  <v type="int" >       12 </v>
  <v type="int" >       29 </v>
  <v type="int" >       23 </v>
  <v type="int" >        4 </v>
  <v type="int" >       14 </v>
  <v type="int" >       26 </v>
  <v type="int" >        9 </v>
  <v type="int" >       28 </v>
  <v type="int" >       17 </v>
  <v type="int" >        3 </v>
  <v type="int" >       22 </v>
  <v type="int" >       10 </v>
  <v type="int" >       27 </v>
  <v type="int" >       13 </v>
  <v type="int" >       25 </v>
  <v type="int" >       21 </v>
  <v type="int" >        5 </v>
 </varray>
 <kpoints>
  <generation param="Gamma">
   <v type="int" name="divisions">       7        7        7 </v>
   <v name="usershift">      0.00000000       0.00000000       0.00000000 </v>
   <v name="genvec1">      0.14285714       0.00000000       0.00000000 </v>
   <v name="genvec2">     -0.00000000       0.14285714       0.00000000 </v>
   <v name="genvec3">      0.00000000       0.00000000       0.14285714 </v>
   <v name="shift">      0.00000000       0.00000000       0.00000000 </v>
  </generation>
  <varray name="kpointlist" >
   <v>       0.00000000       0.00000000       0.00000000 </v>
   <v>       0.14285714       0.00000000      -0.00000000 </v>
   <v>       0.28571429       0.00000000       0.00000000 </v>
   <v>       0.42857143       0.00000000      -0.00000000 </v>
   <v>      -0.00000000       0.14285714       0.00000000 </v>
   <v>       0.14285714       0.14285714      -0.00000000 </v>
   <v>       0.28571429       0.14285714       0.00000000 </v>
   <v>       0.42857143       0.14285714      -0.00000000 </v>
   <v>      -0.42857143       0.14285714       0.00000000 </v>
   <v>      -0.28571429       0.14285714       0.00000000 </v>
   <v>      -0.14285714       0.14285714       0.00000000 </v>
   <v>       0.00000000       0.28571429      -0.00000000 </v>
   <v>       0.14285714       0.28571429      -0.00000000 </v>
   <v>       0.28571429       0.28571429      -0.00000000 </v>
   <v>       0.42857143       0.28571429      -0.00000000 </v>
   <v>      -0.42857143       0.28571429      -0.00000000 </v>
   <v>      -0.28571429       0.28571429      -0.00000000 </v>
   <v>      -0.14285714       0.28571429      -0.00000000 </v>
   <v>      -0.00000000       0.42857143      -0.00000000 </v>
   <v>       0.14285714       0.42857143       0.00000000 </v>
   <v>       0.28571429       0.42857143       0.00000000 </v>
   <v>       0.42857143       0.42857143      -0.00000000 </v>
   <v>      -0.42857143       0.42857143       0.00000000 </v>
   <v>      -0.28571429       0.42857143      -0.00000000 </v>
   <v>      -0.14285714       0.42857143      -0.00000000 </v>
   <v>       0.00000000       0.00000000       0.14285714 </v>
   <v>       0.14285714       0.00000000       0.14285714 </v>
   <v>       0.28571429       0.00000000       0.14285714 </v>
   <v>       0.42857143       0.00000000       0.14285714 </v>
   <v>      -0.42857143       0.00000000       0.14285714 </v>
   <v>      -0.28571429       0.00000000       0.14285714 </v>
   <v>      -0.14285714      -0.00000000       0.14285714 </v>
   <v>      -0.00000000       0.14285714       0.14285714 </v>
   <v>       0.14285714       0.14285714       0.14285714 </v>
   <v>       0.28571429       0.14285714       0.14285714 </v>
   <v>       0.42857143       0.14285714       0.14285714 </v>
   <v>      -0.42857143       0.14285714       0.14285714 </v>
   <v>      -0.28571429       0.14285714       0.14285714 </v>
   <v>      -0.14285714       0.14285714       0.14285714 </v>
   <v>      -0.00000000       0.28571429       0.14285714 </v>
   <v>       0.14285714       0.28571429       0.14285714 </v>
   <v>       0.28571429       0.28571429       0.14285714 </v>
   <v>       0.42857143       0.28571429       0.14285714 </v>
   <v>      -0.42857143       0.28571429       0.14285714 </v>
   <v>      -0.28571429       0.28571429       0.14285714 </v>
   <v>      -0.14285714       0.28571429       0.14285714 </v>
   <v>       0.00000000       0.42857143       0.14285714 </v>
   <v>       0.14285714       0.42857143       0.14285714 </v>
   <v>       0.28571429       0.42857143       0.14285714 </v>
   <v>       0.42857143       0.42857143       0.14285714 </v>
   <v>      -0.42857143       0.42857143       0.14285714 </v>
   <v>      -0.28571429       0.42857143       0.14285714 </v>
   <v>      -0.14285714       0.42857143       0.14285714 </v>
   <v>       0.00000000      -0.42857143       0.14285714 </v>
   <v>       0.14285714      -0.42857143       0.14285714 </v>
   <v>       0.28571429      -0.42857143       0.14285714 </v>
   <v>       0.42857143      -0.42857143       0.14285714 </v>
   <v>      -0.42857143      -0.42857143       0.14285714 </v>
   <v>      -0.28571429      -0.42857143       0.14285714 </v>
   <v>      -0.14285714      -0.42857143       0.14285714 </v>
   <v>       0.00000000      -0.28571429       0.14285714 </v>
   <v>       0.14285714      -0.28571429       0.14285714 </v>
   <v>       0.28571429      -0.28571429       0.14285714 </v>
   <v>       0.42857143      -0.28571429       0.14285714 </v>
   <v>      -0.42857143      -0.28571429       0.14285714 </v>
   <v>      -0.28571429      -0.28571429       0.14285714 </v>
   <v>      -0.14285714      -0.28571429       0.14285714 </v>
   <v>       0.00000000      -0.14285714       0.14285714 </v>
   <v>       0.14285714      -0.14285714       0.14285714 </v>
   <v>       0.28571429      -0.14285714       0.14285714 </v>
   <v>       0.42857143      -0.14285714       0.14285714 </v>
   <v>      -0.42857143      -0.14285714       0.14285714 </v>
   <v>      -0.28571429      -0.14285714       0.14285714 </v>
   <v>      -0.14285714      -0.14285714       0.14285714 </v>
   <v>       0.00000000       0.00000000       0.28571429 </v>
   <v>       0.14285714       0.00000000       0.28571429 </v>
   <v>       0.28571429       0.00000000       0.28571429 </v>
   <v>       0.42857143       0.00000000       0.28571429 </v>
   <v>      -0.42857143      -0.00000000       0.28571429 </v>
   <v>      -0.28571429      -0.00000000       0.28571429 </v>
   <v>      -0.14285714      -0.00000000       0.28571429 </v>
   <v>      -0.00000000       0.14285714       0.28571429 </v>
   <v>       0.14285714       0.14285714       0.28571429 </v>
   <v>       0.28571429       0.14285714       0.28571429 </v>
   <v>       0.42857143       0.14285714       0.28571429 </v>
   <v>      -0.42857143       0.14285714       0.28571429 </v>
   <v>      -0.28571429       0.14285714       0.28571429 </v>
   <v>      -0.14285714       0.14285714       0.28571429 </v>
   <v>      -0.00000000       0.28571429       0.28571429 </v>
   <v>       0.14285714       0.28571429       0.28571429 </v>
   <v>       0.28571429       0.28571429       0.28571429 </v>
   <v>       0.42857143       0.28571429       0.28571429 </v>
   <v>      -0.42857143       0.28571429       0.28571429 </v>
   <v>      -0.28571429       0.28571429       0.28571429 </v>
   <v>      -0.14285714       0.28571429       0.28571429 </v>
   <v>       0.00000000       0.42857143       0.28571429 </v>
   <v>       0.14285714       0.42857143       0.28571429 </v>
   <v>       0.28571429       0.42857143       0.28571429 </v>
   <v>       0.42857143       0.42857143       0.28571429 </v>
   <v>      -0.42857143       0.42857143       0.28571429 </v>
   <v>      -0.28571429       0.42857143       0.28571429 </v>
   <v>      -0.14285714       0.42857143       0.28571429 </v>
   <v>      -0.00000000      -0.42857143       0.28571429 </v>
   <v>       0.14285714      -0.42857143       0.28571429 </v>
   <v>       0.28571429      -0.42857143       0.28571429 </v>
   <v>       0.42857143      -0.42857143       0.28571429 </v>
   <v>      -0.42857143      -0.42857143       0.28571429 </v>
   <v>      -0.28571429      -0.42857143       0.28571429 </v>
   <v>      -0.14285714      -0.42857143       0.28571429 </v>
   <v>       0.00000000      -0.28571429       0.28571429 </v>
   <v>       0.14285714      -0.28571429       0.28571429 </v>
   <v>       0.28571429      -0.28571429       0.28571429 </v>
   <v>       0.42857143      -0.28571429       0.28571429 </v>
   <v>      -0.42857143      -0.28571429       0.28571429 </v>
   <v>      -0.28571429      -0.28571429       0.28571429 </v>
   <v>      -0.14285714      -0.28571429       0.28571429 </v>
   <v>       0.00000000      -0.14285714       0.28571429 </v>
   <v>       0.14285714      -0.14285714       0.28571429 </v>
   <v>       0.28571429      -0.14285714       0.28571429 </v>
   <v>       0.42857143      -0.14285714       0.28571429 </v>
   <v>      -0.42857143      -0.14285714       0.28571429 </v>
   <v>      -0.28571429      -0.14285714       0.28571429 </v>
   <v>      -0.14285714      -0.14285714       0.28571429 </v>
   <v>       0.00000000       0.00000000       0.42857143 </v>
   <v>       0.14285714       0.00000000       0.42857143 </v>
   <v>       0.28571429       0.00000000       0.42857143 </v>
   <v>       0.42857143      -0.00000000       0.42857143 </v>
   <v>      -0.42857143      -0.00000000       0.42857143 </v>
   <v>      -0.28571429       0.00000000       0.42857143 </v>
   <v>      -0.14285714      -0.00000000       0.42857143 </v>
   <v>      -0.00000000       0.14285714       0.42857143 </v>
   <v>       0.14285714       0.14285714       0.42857143 </v>
   <v>       0.28571429       0.14285714       0.42857143 </v>
   <v>       0.42857143       0.14285714       0.42857143 </v>
   <v>      -0.42857143       0.14285714       0.42857143 </v>
   <v>      -0.28571429       0.14285714       0.42857143 </v>
   <v>      -0.14285714       0.14285714       0.42857143 </v>
   <v>       0.00000000       0.28571429       0.42857143 </v>
   <v>       0.14285714       0.28571429       0.42857143 </v>
   <v>       0.28571429       0.28571429       0.42857143 </v>
   <v>       0.42857143       0.28571429       0.42857143 </v>
   <v>      -0.42857143       0.28571429       0.42857143 </v>
   <v>      -0.28571429       0.28571429       0.42857143 </v>
   <v>      -0.14285714       0.28571429       0.42857143 </v>
   <v>       0.00000000       0.42857143       0.42857143 </v>
   <v>       0.14285714       0.42857143       0.42857143 </v>
   <v>       0.28571429       0.42857143       0.42857143 </v>
   <v>       0.42857143       0.42857143       0.42857143 </v>
   <v>      -0.42857143       0.42857143       0.42857143 </v>
   <v>      -0.28571429       0.42857143       0.42857143 </v>
   <v>      -0.14285714       0.42857143       0.42857143 </v>
   <v>       0.00000000      -0.42857143       0.42857143 </v>
   <v>       0.14285714      -0.42857143       0.42857143 </v>
   <v>       0.28571429      -0.42857143       0.42857143 </v>
   <v>       0.42857143      -0.42857143       0.42857143 </v>
   <v>      -0.42857143      -0.42857143       0.42857143 </v>
   <v>      -0.28571429      -0.42857143       0.42857143 </v>
   <v>      -0.14285714      -0.42857143       0.42857143 </v>
   <v>      -0.00000000      -0.28571429       0.42857143 </v>
   <v>       0.14285714      -0.28571429       0.42857143 </v>
   <v>       0.28571429      -0.28571429       0.42857143 </v>
   <v>       0.42857143      -0.28571429       0.42857143 </v>
   <v>      -0.42857143      -0.28571429       0.42857143 </v>
   <v>      -0.28571429      -0.28571429       0.42857143 </v>
   <v>      -0.14285714      -0.28571429       0.42857143 </v>
   <v>       0.00000000      -0.14285714       0.42857143 </v>
   <v>       0.14285714      -0.14285714       0.42857143 </v>
   <v>       0.28571429      -0.14285714       0.42857143 </v>
   <v>       0.42857143      -0.14285714       0.42857143 </v>
   <v>      -0.42857143      -0.14285714       0.42857143 </v>
   <v>      -0.28571429      -0.14285714       0.42857143 </v>
   <v>      -0.14285714      -0.14285714       0.42857143 </v>
  </varray>
  <varray name="weights" >
   <v>       0.00291545 </v>
   <v>       0.00583090 </v>
   <v>       0.00583090 </v>
   <v>       0.00583090 </v>
   <v>       0.00583090 </v>
   <v>       0.00583090 </v>
   <v>       0.00583090 </v>
   <v>       0.00583090 </v>
   <v>       0.00583090 </v>
   <v>       0.00583090 </v>
   <v>       0.00583090 </v>
   <v>       0.00583090 </v>
   <v>       0.00583090 </v>
   <v>       0.00583090 </v>
   <v>       0.00583090 </v>
   <v>       0.00583090 </v>
   <v>       0.00583090 </v>
   <v>       0.00583090 </v>
   <v>       0.00583090 </v>
   <v>       0.00583090 </v>
   <v>       0.00583090 </v>
   <v>       0.00583090 </v>
   <v>       0.00583090 </v>
   <v>       0.00583090 </v>
   <v>       0.00583090 </v>
   <v>       0.00583090 </v>
   <v>       0.00583090 </v>
   <v>       0.00583090 </v>
   <v>       0.00583090 </v>
   <v>       0.00583090 </v>
   <v>       0.00583090 </v>
   <v>       0.00583090 </v>
   <v>       0.00583090 </v>
   <v>       0.00583090 </v>
   <v>       0.00583090 </v>
   <v>       0.00583090 </v>
   <v>       0.00583090 </v>
   <v>       0.00583090 </v>
   <v>       0.00583090 </v>
   <v>       0.00583090 </v>
   <v>       0.00583090 </v>
   <v>       0.00583090 </v>
   <v>       0.00583090 </v>
   <v>       0.00583090 </v>
   <v>       0.00583090 </v>
   <v>       0.00583090 </v>
   <v>       0.00583090 </v>
   <v>       0.00583090 </v>
   <v>       0.00583090 </v>
   <v>       0.00583090 </v>
   <v>       0.00583090 </v>
   <v>       0.00583090 </v>
   <v>       0.00583090 </v>
   <v>       0.00583090 </v>
   <v>       0.00583090 </v>
   <v>       0.00583090 </v>
   <v>       0.00583090 </v>
   <v>       0.00583090 </v>
   <v>       0.00583090 </v>
   <v>       0.00583090 </v>
   <v>       0.00583090 </v>
   <v>       0.00583090 </v>
   <v>       0.00583090 </v>
   <v>       0.00583090 </v>
   <v>       0.00583090 </v>
   <v>       0.00583090 </v>
   <v>       0.00583090 </v>
   <v>       0.00583090 </v>
   <v>       0.00583090 </v>
   <v>       0.00583090 </v>
   <v>       0.00583090 </v>
   <v>       0.00583090 </v>
   <v>       0.00583090 </v>
   <v>       0.00583090 </v>
   <v>       0.00583090 </v>
   <v>       0.00583090 </v>
   <v>       0.00583090 </v>
   <v>       0.00583090 </v>
   <v>       0.00583090 </v>
   <v>       0.00583090 </v>
   <v>       0.00583090 </v>
   <v>       0.00583090 </v>
   <v>       0.00583090 </v>
   <v>       0.00583090 </v>
   <v>       0.00583090 </v>
   <v>       0.00583090 </v>
   <v>       0.00583090 </v>
   <v>       0.00583090 </v>
   <v>       0.00583090 </v>
   <v>       0.00583090 </v>
   <v>       0.00583090 </v>
   <v>       0.00583090 </v>
   <v>       0.00583090 </v>
   <v>       0.00583090 </v>
   <v>       0.00583090 </v>
   <v>       0.00583090 </v>
   <v>       0.00583090 </v>
   <v>       0.00583090 </v>
   <v>       0.00583090 </v>
   <v>       0.00583090 </v>
   <v>       0.00583090 </v>
   <v>       0.00583090 </v>
   <v>       0.00583090 </v>
   <v>       0.00583090 </v>
   <v>       0.00583090 </v>
   <v>       0.00583090 </v>
   <v>       0.00583090 </v>
   <v>       0.00583090 </v>
   <v>       0.00583090 </v>
   <v>       0.00583090 </v>
   <v>       0.00583090 </v>
   <v>       0.00583090 </v>
   <v>       0.00583090 </v>
   <v>       0.00583090 </v>
   <v>       0.00583090 </v>
   <v>       0.00583090 </v>
   <v>       0.00583090 </v>
   <v>       0.00583090 </v>
   <v>       0.00583090 </v>
   <v>       0.00583090 </v>
   <v>       0.00583090 </v>
   <v>       0.00583090 </v>
   <v>       0.00583090 </v>
   <v>       0.00583090 </v>
   <v>       0.00583090 </v>
   <v>       0.00583090 </v>
   <v>       0.00583090 </v>
   <v>       0.00583090 </v>
   <v>       0.00583090 </v>
   <v>       0.00583090 </v>
   <v>       0.00583090 </v>
   <v>       0.00583090 </v>
   <v>       0.00583090 </v>
   <v>       0.00583090 </v>
   <v>       0.00583090 </v>
   <v>       0.00583090 </v>
   <v>       0.00583090 </v>
   <v>       0.00583090 </v>
   <v>       0.00583090 </v>
   <v>       0.00583090 </v>
   <v>       0.00583090 </v>
   <v>       0.00583090 </v>
   <v>       0.00583090 </v>
   <v>       0.00583090 </v>
   <v>       0.00583090 </v>
   <v>       0.00583090 </v>
   <v>       0.00583090 </v>
   <v>       0.00583090 </v>
   <v>       0.00583090 </v>
   <v>       0.00583090 </v>
   <v>       0.00583090 </v>
   <v>       0.00583090 </v>
   <v>       0.00583090 </v>
   <v>       0.00583090 </v>
   <v>       0.00583090 </v>
   <v>       0.00583090 </v>
   <v>       0.00583090 </v>
   <v>       0.00583090 </v>
   <v>       0.00583090 </v>
   <v>       0.00583090 </v>
   <v>       0.00583090 </v>
   <v>       0.00583090 </v>
   <v>       0.00583090 </v>
   <v>       0.00583090 </v>
   <v>       0.00583090 </v>
   <v>       0.00583090 </v>
   <v>       0.00583090 </v>
   <v>       0.00583090 </v>
   <v>       0.00583090 </v>
   <v>       0.00583090 </v>
   <v>       0.00583090 </v>
   <v>       0.00583090 </v>
  </varray>
 </kpoints>
 <parameters>
  <separator name="general" >
   <i type="string" name="SYSTEM">Nb - Mo - Ta - Ti - V SQS</i>
   <i type="logical" name="LCOMPAT"> F  </i>
  </separator>
  <separator name="electronic" >
   <i type="string" name="PREC">normal</i>
   <i name="ENMAX">    600.00000000</i>
   <i name="ENAUG">    455.65900000</i>
   <i name="EDIFF">      0.00010000</i>
   <i type="int" name="IALGO">    38</i>
   <i type="int" name="IWAVPR">    11</i>
   <i type="int" name="NBANDS">   120</i>
   <i name="NELECT">    193.00000000</i>
   <i type="int" name="TURBO">     0</i>
   <i type="int" name="IRESTART">     0</i>
   <i type="int" name="NREBOOT">     0</i>
   <i type="int" name="NMIN">     0</i>
   <i name="EREF">      0.00000000</i>
   <separator name="electronic smearing" >
    <i type="int" name="ISMEAR">     1</i>
    <i name="SIGMA">      0.20000000</i>
    <i name="KSPACING">      0.50000000</i>
    <i type="logical" name="KGAMMA"> T  </i>
   </separator>
   <separator name="electronic projectors" >
    <i type="logical" name="LREAL"> T  </i>
    <v name="ROPT">     -0.00050000     -0.00050000     -0.00050000     -0.00050000     -0.00050000</v>
    <i type="int" name="LMAXPAW">  -100</i>
    <i type="int" name="LMAXMIX">     2</i>
    <i type="logical" name="NLSPLINE"> F  </i>
   </separator>
   <separator name="electronic startup" >
    <i type="int" name="ISTART">     0</i>
    <i type="int" name="ICHARG">     0</i>
    <i type="int" name="INIWAV">     1</i>
   </separator>
   <separator name="electronic spin" >
    <i type="int" name="ISPIN">     1</i>
    <i type="logical" name="LNONCOLLINEAR"> F  </i>
    <v name="MAGMOM">      1.00000000      1.00000000      1.00000000      1.00000000      1.00000000      1.00000000      1.00000000      1.00000000      1.00000000      1.00000000      1.00000000      1.00000000      1.00000000      1.00000000      1.00000000      1.00000000      1.00000000      1.00000000      1.00000000      1.00000000
      1.00000000      1.00000000      1.00000000      1.00000000      1.00000000      1.00000000      1.00000000      1.00000000      1.00000000</v>
    <i name="NUPDOWN">     -1.00000000</i>
    <i type="logical" name="LSORBIT"> F  </i>
    <v name="SAXIS">      0.00000000      0.00000000      1.00000000</v>
    <i type="logical" name="LSPIRAL"> F  </i>
    <v name="QSPIRAL">      0.00000000      0.00000000      0.00000000</v>
    <i type="logical" name="LZEROZ"> F  </i>
   </separator>
   <separator name="electronic exchange-correlation" >
    <i type="logical" name="LASPH"> F  </i>
    <i type="logical" name="LMETAGGA"> F  </i>
   </separator>
   <separator name="electronic convergence" >
    <i type="int" name="NELM">    60</i>
    <i type="int" name="NELMDL">    -5</i>
    <i type="int" name="NELMIN">     2</i>
    <i name="ENINI">    600.00000000</i>
    <separator name="electronic convergence detail" >
     <i type="logical" name="LDIAG"> T  </i>
     <i type="logical" name="LSUBROT"> F  </i>
     <i name="WEIMIN">      0.00100000</i>
     <i name="EBREAK">      0.00000021</i>
     <i name="DEPER">      0.30000000</i>
     <i type="int" name="NRMM">     4</i>
     <i name="TIME">      0.40000000</i>
    </separator>
   </separator>
   <separator name="electronic mixer" >
    <i name="AMIX">      0.40000000</i>
    <i name="BMIX">      1.00000000</i>
    <i name="AMIN">      0.10000000</i>
    <i name="AMIX_MAG">      1.60000000</i>
    <i name="BMIX_MAG">      1.00000000</i>
    <separator name="electronic mixer details" >
     <i type="int" name="IMIX">     4</i>
     <i type="logical" name="MIXFIRST"> F  </i>
     <i type="int" name="MAXMIX">   -45</i>
     <i name="WC">    100.00000000</i>
     <i type="int" name="INIMIX">     1</i>
     <i type="int" name="MIXPRE">     1</i>
     <i type="int" name="MREMOVE">     5</i>
    </separator>
   </separator>
   <separator name="electronic dipolcorrection" >
    <i type="logical" name="LDIPOL"> F  </i>
    <i type="logical" name="LMONO"> F  </i>
    <i type="int" name="IDIPOL">     0</i>
    <i name="EPSILON">      1.00000000</i>
    <v name="DIPOL">   -100.00000000   -100.00000000   -100.00000000</v>
    <i name="EFIELD">      0.00000000</i>
   </separator>
  </separator>
  <separator name="grids" >
   <i type="int" name="NGX">    36</i>
   <i type="int" name="NGY">    50</i>
   <i type="int" name="NGZ">    70</i>
   <i type="int" name="NGXF">    72</i>
   <i type="int" name="NGYF">   100</i>
   <i type="int" name="NGZF">   140</i>
   <i type="logical" name="ADDGRID"> F  </i>
  </separator>
  <separator name="ionic" >
   <i type="int" name="NSW">    50</i>
   <i type="int" name="IBRION">     2</i>
   <i type="int" name="MDALGO">     0</i>
   <i type="int" name="ISIF">     3</i>
   <i name="PSTRESS">      0.00000000</i>
   <i name="EDIFFG">      0.00100000</i>
   <i type="int" name="NFREE">     1</i>
   <i name="POTIM">      0.50000000</i>
   <i name="SMASS">     -3.00000000</i>
   <i name="SCALEE">      1.00000000</i>
  </separator>
  <separator name="ionic md" >
   <i name="TEBEG">      0.00010000</i>
   <i name="TEEND">      0.00010000</i>
   <i type="int" name="NBLOCK">     1</i>
   <i type="int" name="KBLOCK">    50</i>
   <i type="int" name="NPACO">   256</i>
   <i name="APACO">     16.00000000</i>
  </separator>
  <separator name="symmetry" >
   <i type="int" name="ISYM">     2</i>
   <i name="SYMPREC">      0.00001000</i>
  </separator>
  <separator name="dos" >
   <i type="int" name="LORBIT">     0</i>
   <v name="RWIGS">     -1.00000000     -1.00000000     -1.00000000     -1.00000000     -1.00000000</v>
   <i type="int" name="NEDOS">   301</i>
   <i name="EMIN">     10.00000000</i>
   <i name="EMAX">    -10.00000000</i>
   <i name="EFERMI">      0.00000000</i>
  </separator>
  <separator name="writing" >
   <i type="int" name="NWRITE">     2</i>
   <i type="logical" name="LWAVE"> T  </i>
   <i type="logical" name="LDOWNSAMPLE"> F  </i>
   <i type="logical" name="LCHARG"> T  </i>
   <i type="logical" name="LPARD"> F  </i>
   <i type="logical" name="LVTOT"> F  </i>
   <i type="logical" name="LVHAR"> F  </i>
   <i type="logical" name="LELF"> F  </i>
   <i type="logical" name="LOPTICS"> F  </i>
   <v name="STM">      0.00000000      0.00000000      0.00000000      0.00000000      0.00000000      0.00000000      0.00000000</v>
  </separator>
  <separator name="performance" >
   <i type="int" name="NPAR">    12</i>
   <i type="int" name="NSIM">     4</i>
   <i type="int" name="NBLK">    -1</i>
   <i type="logical" name="LPLANE"> T  </i>
   <i type="logical" name="LSCALAPACK"> T  </i>
   <i type="logical" name="LSCAAWARE"> F  </i>
   <i type="logical" name="LSCALU"> F  </i>
   <i type="logical" name="LASYNC"> F  </i>
   <i type="logical" name="LORBITALREAL"> F  </i>
  </separator>
  <separator name="miscellaneous" >
   <i type="int" name="IDIOT">     3</i>
   <i type="int" name="ISPECIAL">     0</i>
   <i type="logical" name="LMUSIC"> F  </i>
   <v name="POMASS">     92.91000000     95.94000000    180.94800000     47.88000000     50.94100000</v>
   <v name="DARWINR">      0.00000000      0.00000000      0.00000000      0.00000000      0.00000000</v>
   <v name="DARWINV">      1.00000000      1.00000000      1.00000000      1.00000000      1.00000000</v>
   <i type="logical" name="LCORR"> T  </i>
  </separator>
  <i type="logical" name="GGA_COMPAT"> T  </i>
  <i type="logical" name="LBERRY"> F  </i>
  <i type="int" name="ICORELEVEL">     0</i>
  <i type="logical" name="LDAU"> F  </i>
  <i type="int" name="I_CONSTRAINED_M">     0</i>
  <separator name="electronic exchange-correlation" >
   <i type="string" name="GGA">PS</i>
   <i type="int" name="VOSKOWN">     0</i>
   <i type="logical" name="LHFCALC"> F  </i>
   <i type="string" name="PRECFOCK"></i>
   <i type="logical" name="LSYMGRAD"> F  </i>
   <i type="logical" name="LHFONE"> F  </i>
   <i type="logical" name="LRHFCALC"> F  </i>
   <i type="logical" name="LTHOMAS"> F  </i>
   <i type="logical" name="LMODELHF"> F  </i>
   <i name="ENCUT4O">     -1.00000000</i>
   <i type="int" name="EXXOEP">     0</i>
   <i type="int" name="FOURORBIT">     0</i>
   <i name="AEXX">      0.00000000</i>
   <i name="HFALPHA">      0.00000000</i>
   <i name="MCALPHA">      0.00000000</i>
   <i name="ALDAX">      1.00000000</i>
   <i name="AGGAX">      1.00000000</i>
   <i name="ALDAC">      1.00000000</i>
   <i name="AGGAC">      1.00000000</i>
   <i type="int" name="NKREDX">     1</i>
   <i type="int" name="NKREDY">     1</i>
   <i type="int" name="NKREDZ">     1</i>
   <i type="logical" name="SHIFTRED"> F  </i>
   <i type="logical" name="ODDONLY"> F  </i>
   <i type="logical" name="EVENONLY"> F  </i>
   <i type="int" name="LMAXFOCK">     0</i>
   <i type="int" name="NMAXFOCKAE">     0</i>
   <i type="logical" name="LFOCKAEDFT"> F  </i>
   <i name="HFSCREEN">      0.00000000</i>
   <i name="HFSCREENC">      0.00000000</i>
   <i type="int" name="NBANDSGWLOW">     0</i>
  </separator>
  <separator name="vdW DFT" >
   <i type="logical" name="LUSE_VDW"> F  </i>
   <i name="Zab_VDW">     -0.84910000</i>
   <i name="PARAM1">      0.12340000</i>
   <i name="PARAM2">      1.00000000</i>
   <i name="PARAM3">      0.00000000</i>
  </separator>
  <separator name="model GW" >
   <i type="int" name="MODEL_GW">     0</i>
   <i name="MODEL_EPS0">      9.79277462</i>
   <i name="MODEL_ALPHA">      1.00000000</i>
  </separator>
  <separator name="linear response parameters" >
   <i type="logical" name="LEPSILON"> F  </i>
   <i type="logical" name="LRPA"> F  </i>
   <i type="logical" name="LNABLA"> F  </i>
   <i type="logical" name="LVEL"> F  </i>
   <i type="int" name="KINTER">     0</i>
   <i name="CSHIFT">      0.10000000</i>
   <i name="OMEGAMAX">     -1.00000000</i>
   <i name="DEG_THRESHOLD">      0.00200000</i>
   <i name="RTIME">     -0.10000000</i>
   <i name="WPLASMAI">      0.00000000</i>
   <v name="DFIELD">      0.00000000      0.00000000      0.00000000</v>
   <v name="WPLASMA">      0.00000000      0.00000000      0.00000000      0.00000000      0.00000000      0.00000000      0.00000000      0.00000000      0.00000000</v>
  </separator>
  <separator name="orbital magnetization" >
   <i type="logical" name="NUCIND"> F  </i>
   <v name="MAGPOS">      0.00000000      0.00000000      0.00000000</v>
   <i type="logical" name="LNICSALL"> T  </i>
   <i type="logical" name="ORBITALMAG"> F  </i>
   <i type="logical" name="LMAGBLOCH"> F  </i>
   <i type="logical" name="LCHIMAG"> F  </i>
   <i type="logical" name="LGAUGE"> T  </i>
   <i type="int" name="MAGATOM">     0</i>
   <v name="MAGDIPOL">      0.00000000      0.00000000      0.00000000</v>
   <v name="AVECCONST">      0.00000000      0.00000000      0.00000000</v>
  </separator>
  <separator name="response functions" >
   <i type="logical" name="LADDER"> F  </i>
   <i type="logical" name="LRPAFORCE"> F  </i>
   <i type="logical" name="LFXC"> F  </i>
   <i type="logical" name="LHARTREE"> T  </i>
   <i type="int" name="IBSE">     0</i>
   <v type="int" name="KPOINT">    -1     0     0     0</v>
   <i type="logical" name="LTCTE"> F  </i>
   <i type="logical" name="LTETE"> F  </i>
   <i type="logical" name="LTRIPLET"> F  </i>
   <i type="logical" name="LFXCEPS"> F  </i>
   <i type="logical" name="LFXHEG"> F  </i>
   <i type="int" name="NATURALO">     2</i>
   <i type="logical" name="L2ORDER"> F  </i>
   <i type="logical" name="LMP2LT"> F  </i>
   <i type="logical" name="LUSEW"> F  </i>
   <i name="ENCUTGW">     -2.00000000</i>
   <i name="ENCUTGWSOFT">     -2.00000000</i>
   <i name="ENCUTLF">     -1.00000000</i>
   <i type="int" name="LMAXMP2">    -1</i>
   <i name="SCISSOR">      0.00000000</i>
   <i type="int" name="NOMEGA">     0</i>
   <i type="int" name="NOMEGAR">     0</i>
   <i type="int" name="NBANDSGW">    -1</i>
   <i type="int" name="NBANDSO">    -1</i>
   <i type="int" name="NBANDSV">    -1</i>
   <i type="int" name="NELM">     1</i>
   <i type="int" name="NELMHF">     1</i>
   <i type="int" name="DIM">     3</i>
   <i type="int" name="ANTIRES">     0</i>
   <i name="OMEGAMAX">    -30.00000000</i>
   <i name="OMEGAMIN">    -30.00000000</i>
   <i name="OMEGATL">   -200.00000000</i>
   <i type="int" name="OMEGAGRID">   140</i>
   <i name="CSHIFT">     -0.10000000</i>
   <i type="logical" name="SELFENERGY"> F  </i>
   <i type="logical" name="LSPECTRAL"> F  </i>
   <i type="logical" name="LSPECTRALGW"> F  </i>
   <i type="logical" name="LSINGLES"> F  </i>
   <i type="logical" name="LFERMIGW"> F  </i>
   <i type="logical" name="ODDONLYGW"> F  </i>
   <i type="logical" name="EVENONLYGW"> F  </i>
   <i type="int" name="NKREDLFX">     1</i>
   <i type="int" name="NKREDLFY">     1</i>
   <i type="int" name="NKREDLFZ">     1</i>
   <i type="int" name="MAXMEM">  2800</i>
   <i type="int" name="TELESCOPE">     0</i>
   <i type="int" name="TAUPAR">     1</i>
   <i type="int" name="OMEGAPAR">    -1</i>
   <i name="LAMBDA">      1.00000000</i>
  </separator>
  <separator name="External order field" >
   <i name="OFIELD_KAPPA">      0.00000000</i>
   <v name="OFIELD_K">      0.00000000      0.00000000      0.00000000</v>
   <i name="OFIELD_Q6_NEAR">      0.00000000</i>
   <i name="OFIELD_Q6_FAR">      0.00000000</i>
   <i name="OFIELD_A">      0.00000000</i>
  </separator>
  <separator name="solvation model" >
   <i type="logical" name="LSOL"> F  </i>
  </separator>
 </parameters>
 <atominfo>
  <atoms>      29 </atoms>
  <types>       5 </types>
  <array name="atoms" >
   <dimension dim="1">ion</dimension>
   <field type="string">element</field>
   <field type="int">atomtype</field>
   <set>
    <rc><c>Nb</c><c>   1</c></rc>
    <rc><c>Nb</c><c>   1</c></rc>
    <rc><c>Nb</c><c>   1</c></rc>
    <rc><c>Nb</c><c>   1</c></rc>
    <rc><c>Nb</c><c>   1</c></rc>
    <rc><c>Nb</c><c>   1</c></rc>
    <rc><c>Mo</c><c>   2</c></rc>
    <rc><c>Mo</c><c>   2</c></rc>
    <rc><c>Mo</c><c>   2</c></rc>
    <rc><c>Mo</c><c>   2</c></rc>
    <rc><c>Mo</c><c>   2</c></rc>
    <rc><c>Mo</c><c>   2</c></rc>
    <rc><c>Ta</c><c>   3</c></rc>
    <rc><c>Ta</c><c>   3</c></rc>
    <rc><c>Ta</c><c>   3</c></rc>
    <rc><c>Ta</c><c>   3</c></rc>
    <rc><c>Ta</c><c>   3</c></rc>
    <rc><c>Ta</c><c>   3</c></rc>
    <rc><c>Ti</c><c>   4</c></rc>
    <rc><c>Ti</c><c>   4</c></rc>
    <rc><c>Ti</c><c>   4</c></rc>
    <rc><c>Ti</c><c>   4</c></rc>
    <rc><c>Ti</c><c>   4</c></rc>
    <rc><c>Ti</c><c>   4</c></rc>
    <rc><c>V </c><c>   5</c></rc>
    <rc><c>V </c><c>   5</c></rc>
    <rc><c>V </c><c>   5</c></rc>
    <rc><c>V </c><c>   5</c></rc>
    <rc><c>V </c><c>   5</c></rc>
   </set>
  </array>
  <array name="atomtypes" >
   <dimension dim="1">type</dimension>
   <field type="int">atomspertype</field>
   <field type="string">element</field>
   <field>mass</field>
   <field>valence</field>
   <field type="string">pseudopotential</field>
   <set>
    <rc><c>   6</c><c>Nb</c><c>     92.91000000</c><c>     13.00000000</c><c>  PAW_PBE Nb_sv 25May2007               </c></rc>
    <rc><c>   6</c><c>Mo</c><c>     95.94000000</c><c>      6.00000000</c><c>  PAW_PBE Mo 08Apr2002                  </c></rc>
    <rc><c>   6</c><c>Ta</c><c>    180.94800000</c><c>      5.00000000</c><c>  PAW_PBE Ta 17Jan2003                  </c></rc>
    <rc><c>   6</c><c>Ti</c><c>     47.88000000</c><c>      4.00000000</c><c>  PAW_PBE Ti 08Apr2002                  </c></rc>
    <rc><c>   5</c><c>V </c><c>     50.94100000</c><c>      5.00000000</c><c>  PAW_PBE V 08Apr2002                   </c></rc>
   </set>
  </array>
 </atominfo>
 <structure name="initialpos" >
  <crystal>
   <varray name="basis" >
    <v>      -3.16000000      -3.16000000      -3.16000000 </v>
    <v>       1.58000000       1.58000000      -7.90000000 </v>
    <v>       7.90000000      -7.90000000      -1.58000000 </v>
   </varray>
   <i name="volume">    473.31744000 </i>
   <varray name="rec_basis" >
    <v>      -0.13713080      -0.12658228      -0.05274262 </v>
    <v>       0.04219409       0.06329114      -0.10548523 </v>
    <v>       0.06329114      -0.06329114       0.00000000 </v>
   </varray>
  </crystal>
  <varray name="positions" >
   <v>       0.96666667       0.93333333       0.40000000 </v>
   <v>       0.63333333       0.26666667       0.40000000 </v>
   <v>       0.50000000       0.00000000       0.00000000 </v>
   <v>       0.00000000       0.00000000       0.00000000 </v>
   <v>       0.10000000       0.20000000       0.80000000 </v>
   <v>       0.03333333       0.06666667       0.60000000 </v>
   <v>       0.90000000       0.80000000       0.20000000 </v>
   <v>       0.80000000       0.60000000       0.40000000 </v>
   <v>       0.73333333       0.46666667       0.20000000 </v>
   <v>       0.66666667       0.33333333       0.00000000 </v>
   <v>       0.36666667       0.73333333       0.60000000 </v>
   <v>       0.13333333       0.26666667       0.40000000 </v>
   <v>       0.83333333       0.66666667       0.00000000 </v>
   <v>       0.93333333       0.86666667       0.80000000 </v>
   <v>       0.56666667       0.13333333       0.20000000 </v>
   <v>       0.40000000       0.80000000       0.20000000 </v>
   <v>       0.43333333       0.86666667       0.80000000 </v>
   <v>       0.30000000       0.60000000       0.40000000 </v>
   <v>       0.86666667       0.73333333       0.60000000 </v>
   <v>       0.46666667       0.93333333       0.40000000 </v>
   <v>       0.16666667       0.33333333       0.00000000 </v>
   <v>       0.26666667       0.53333333       0.80000000 </v>
   <v>       0.20000000       0.40000000       0.60000000 </v>
   <v>       0.06666667       0.13333333       0.20000000 </v>
   <v>       0.76666667       0.53333333       0.80000000 </v>
   <v>       0.70000000       0.40000000       0.60000000 </v>
   <v>       0.60000000       0.20000000       0.80000000 </v>
   <v>       0.33333333       0.66666667       0.00000000 </v>
   <v>       0.23333333       0.46666667       0.20000000 </v>
  </varray>
 </structure>
 <calculation>
  <scstep>
   <time name="dav">   43.17   43.23</time>
   <time name="total">   43.28   43.48</time>
   <energy>
    <i name="alphaZ">   1173.71499705 </i>
    <i name="ewald"> -11197.74696961 </i>
    <i name="hartreedc">   -108.51785714 </i>
    <i name="XCdc">   -935.88935759 </i>
    <i name="pawpsdc"> 577305.29019749 </i>
    <i name="pawaedc">-576044.38246512 </i>
    <i name="eentropy">     -0.00057976 </i>
    <i name="bandstr">  -6892.99516466 </i>
    <i name="atom">  12835.31476492 </i>
    <i name="e_fr_energy">  -3865.21243444 </i>
    <i name="e_wo_entrp">  -3865.21185468 </i>
    <i name="e_0_energy">  -3865.21224119 </i>
   </energy>
  </scstep>
  <scstep>
   <time name="dav">   51.70   51.79</time>
   <time name="total">   51.71   51.80</time>
   <energy>
    <i name="e_fr_energy">  -9386.05551668 </i>
    <i name="e_wo_entrp">  -9386.05542575 </i>
    <i name="e_0_energy">  -9386.05548637 </i>
   </energy>
  </scstep>
  <scstep>
   <time name="dav">   57.35   57.42</time>
   <time name="total">   57.36   57.43</time>
   <energy>
    <i name="e_fr_energy"> -10191.09115916 </i>
    <i name="e_wo_entrp"> -10191.09202539 </i>
    <i name="e_0_energy"> -10191.09144790 </i>
   </energy>
  </scstep>
  <scstep>
   <time name="dav">   56.95   57.11</time>
   <time name="total">   56.95   57.11</time>
   <energy>
    <i name="e_fr_energy"> -10428.14231308 </i>
    <i name="e_wo_entrp"> -10428.14468600 </i>
    <i name="e_0_energy"> -10428.14310405 </i>
   </energy>
  </scstep>
  <scstep>
   <time name="dav">   57.06   57.15</time>
   <time name="total">   57.72   57.81</time>
   <energy>
    <i name="e_fr_energy"> -10587.31663387 </i>
    <i name="e_wo_entrp"> -10587.30853024 </i>
    <i name="e_0_energy"> -10587.31393266 </i>
   </energy>
  </scstep>
  <scstep>
   <time name="dav">   46.81   46.88</time>
   <time name="total">   47.55   47.63</time>
   <energy>
    <i name="e_fr_energy">   -885.12157592 </i>
    <i name="e_wo_entrp">   -885.12122889 </i>
    <i name="e_0_energy">   -885.12146024 </i>
   </energy>
  </scstep>
  <scstep>
   <time name="dav">   51.97   52.05</time>
   <time name="total">   52.70   52.78</time>
   <energy>
    <i name="e_fr_energy">   -765.53700718 </i>
    <i name="e_wo_entrp">   -765.53661179 </i>
    <i name="e_0_energy">   -765.53687538 </i>
   </energy>
  </scstep>
  <scstep>
   <time name="dav">   50.39   50.46</time>
   <time name="total">   51.06   51.15</time>
   <energy>
    <i name="e_fr_energy">   -562.33313741 </i>
    <i name="e_wo_entrp">   -562.33591244 </i>
    <i name="e_0_energy">   -562.33406242 </i>
   </energy>
  </scstep>
  <scstep>
   <time name="dav">   53.15   53.23</time>
   <time name="total">   53.82   53.90</time>
   <energy>
    <i name="e_fr_energy">   -539.96959479 </i>
    <i name="e_wo_entrp">   -539.96850824 </i>
    <i name="e_0_energy">   -539.96923261 </i>
   </energy>
  </scstep>
  <scstep>
   <time name="dav">   53.83   53.91</time>
   <time name="total">   54.55   54.64</time>
   <energy>
    <i name="e_fr_energy">   -634.85758063 </i>
    <i name="e_wo_entrp">   -634.85266725 </i>
    <i name="e_0_energy">   -634.85594284 </i>
   </energy>
  </scstep>
  <scstep>
   <time name="dav">   51.63   51.71</time>
   <time name="total">   52.30   52.38</time>
   <energy>
    <i name="e_fr_energy">   -490.74805122 </i>
    <i name="e_wo_entrp">   -490.76499772 </i>
    <i name="e_0_energy">   -490.75370005 </i>
   </energy>
  </scstep>
  <scstep>
   <time name="dav">   50.96   51.02</time>
   <time name="total">   51.64   51.71</time>
   <energy>
    <i name="e_fr_energy">   -420.76148560 </i>
    <i name="e_wo_entrp">   -420.76393762 </i>
    <i name="e_0_energy">   -420.76230294 </i>
   </energy>
  </scstep>
  <scstep>
   <time name="dav">   53.49   53.56</time>
   <time name="total">   54.16   54.23</time>
   <energy>
    <i name="e_fr_energy">   -516.57089703 </i>
    <i name="e_wo_entrp">   -516.56839023 </i>
    <i name="e_0_energy">   -516.57006143 </i>
   </energy>
  </scstep>
  <scstep>
   <time name="dav">   49.71   49.77</time>
   <time name="total">   50.38   50.45</time>
   <energy>
    <i name="e_fr_energy">   -371.63708890 </i>
    <i name="e_wo_entrp">   -371.63590845 </i>
    <i name="e_0_energy">   -371.63669542 </i>
   </energy>
  </scstep>
  <scstep>
   <time name="dav">   52.50   52.57</time>
   <time name="total">   53.17   53.25</time>
   <energy>
    <i name="e_fr_energy">   -619.25173432 </i>
    <i name="e_wo_entrp">   -619.25266375 </i>
    <i name="e_0_energy">   -619.25204413 </i>
   </energy>
  </scstep>
  <scstep>
   <time name="dav">   48.94   49.01</time>
   <time name="total">   49.63   49.71</time>
   <energy>
    <i name="e_fr_energy">   -574.98114471 </i>
    <i name="e_wo_entrp">   -574.97500011 </i>
    <i name="e_0_energy">   -574.97909651 </i>
   </energy>
  </scstep>
  <scstep>
   <time name="dav">   49.88   49.94</time>
   <time name="total">   50.54   50.61</time>
   <energy>
    <i name="e_fr_energy">   -500.66100057 </i>
    <i name="e_wo_entrp">   -500.66532769 </i>
    <i name="e_0_energy">   -500.66244294 </i>
   </energy>
  </scstep>
  <scstep>
   <time name="dav">   52.79   52.86</time>
   <time name="total">   53.46   53.54</time>
   <energy>
    <i name="e_fr_energy">   -436.75669715 </i>
    <i name="e_wo_entrp">   -436.74995355 </i>
    <i name="e_0_energy">   -436.75444928 </i>
   </energy>
  </scstep>
  <scstep>
   <time name="dav">   43.57   43.62</time>
   <time name="total">   44.23   44.29</time>
   <energy>
    <i name="e_fr_energy">   -400.06566975 </i>
    <i name="e_wo_entrp">   -400.06906033 </i>
    <i name="e_0_energy">   -400.06679994 </i>
   </energy>
  </scstep>
  <scstep>
   <time name="dav">   51.37   51.43</time>
   <time name="total">   52.05   52.14</time>
   <energy>
    <i name="e_fr_energy">   -340.92463964 </i>
    <i name="e_wo_entrp">   -340.92637817 </i>
    <i name="e_0_energy">   -340.92521915 </i>
   </energy>
  </scstep>
  <scstep>
   <time name="dav">   50.13   50.20</time>
   <time name="total">   50.80   50.87</time>
   <energy>
    <i name="e_fr_energy">   -319.89649186 </i>
    <i name="e_wo_entrp">   -319.88866247 </i>
    <i name="e_0_energy">   -319.89388206 </i>
   </energy>
  </scstep>
  <scstep>
   <time name="dav">   47.27   47.33</time>
   <time name="total">   47.94   48.01</time>
   <energy>
    <i name="e_fr_energy">   -320.30873891 </i>
    <i name="e_wo_entrp">   -320.30600654 </i>
    <i name="e_0_energy">   -320.30782812 </i>
   </energy>
  </scstep>
  <scstep>
   <time name="dav">   52.52   52.58</time>
   <time name="total">   53.20   53.27</time>
   <energy>
    <i name="e_fr_energy">   -315.61240591 </i>
    <i name="e_wo_entrp">   -315.60481014 </i>
    <i name="e_0_energy">   -315.60987399 </i>
   </energy>
  </scstep>
  <scstep>
   <time name="dav">   47.34   47.40</time>
   <time name="total">   48.01   48.07</time>
   <energy>
    <i name="e_fr_energy">   -315.52466046 </i>
    <i name="e_wo_entrp">   -315.52147195 </i>
    <i name="e_0_energy">   -315.52359762 </i>
   </energy>
  </scstep>
  <scstep>
   <time name="dav">   47.43   47.49</time>
   <time name="total">   48.11   48.17</time>
   <energy>
    <i name="e_fr_energy">   -310.88266966 </i>
    <i name="e_wo_entrp">   -310.86809588 </i>
    <i name="e_0_energy">   -310.87781173 </i>
   </energy>
  </scstep>
  <scstep>
   <time name="dav">   50.00   50.06</time>
   <time name="total">   50.68   50.75</time>
   <energy>
    <i name="e_fr_energy">   -308.81010756 </i>
    <i name="e_wo_entrp">   -308.80128009 </i>
    <i name="e_0_energy">   -308.80716507 </i>
   </energy>
  </scstep>
  <scstep>
   <time name="dav">   49.83   49.90</time>
   <time name="total">   50.50   50.57</time>
   <energy>
    <i name="e_fr_energy">   -308.86082374 </i>
    <i name="e_wo_entrp">   -308.84199697 </i>
    <i name="e_0_energy">   -308.85454815 </i>
   </energy>
  </scstep>
  <scstep>
   <time name="dav">   49.53   49.59</time>
   <time name="total">   50.21   50.29</time>
   <energy>
    <i name="e_fr_energy">   -307.54256720 </i>
    <i name="e_wo_entrp">   -307.52532363 </i>
    <i name="e_0_energy">   -307.53681934 </i>
   </energy>
  </scstep>
  <scstep>
   <time name="dav">   52.24   52.31</time>
   <time name="total">   52.91   52.98</time>
   <energy>
    <i name="e_fr_energy">   -307.40059831 </i>
    <i name="e_wo_entrp">   -307.38351477 </i>
    <i name="e_0_energy">   -307.39490380 </i>
   </energy>
  </scstep>
  <scstep>
   <time name="dav">   49.01   49.07</time>
   <time name="total">   49.69   49.76</time>
   <energy>
    <i name="e_fr_energy">   -308.50904218 </i>
    <i name="e_wo_entrp">   -308.48748817 </i>
    <i name="e_0_energy">   -308.50185751 </i>
   </energy>
  </scstep>
  <scstep>
   <time name="dav">   50.75   50.82</time>
   <time name="total">   51.42   51.49</time>
   <energy>
    <i name="e_fr_energy">   -307.63970184 </i>
    <i name="e_wo_entrp">   -307.62098038 </i>
    <i name="e_0_energy">   -307.63346135 </i>
   </energy>
  </scstep>
  <scstep>
   <time name="dav">   48.23   48.29</time>
   <time name="total">   48.91   48.98</time>
   <energy>
    <i name="e_fr_energy">   -307.46741148 </i>
    <i name="e_wo_entrp">   -307.45342605 </i>
    <i name="e_0_energy">   -307.46274967 </i>
   </energy>
  </scstep>
  <scstep>
   <time name="dav">   51.84   51.91</time>
   <time name="total">   52.51   52.58</time>
   <energy>
    <i name="e_fr_energy">   -307.35517644 </i>
    <i name="e_wo_entrp">   -307.34047283 </i>
    <i name="e_0_energy">   -307.35027523 </i>
   </energy>
  </scstep>
  <scstep>
   <time name="dav">   49.54   49.60</time>
   <time name="total">   50.21   50.28</time>
   <energy>
    <i name="e_fr_energy">   -307.05232835 </i>
    <i name="e_wo_entrp">   -307.03979593 </i>
    <i name="e_0_energy">   -307.04815088 </i>
   </energy>
  </scstep>
  <scstep>
   <time name="dav">   50.22   50.28</time>
   <time name="total">   50.90   50.97</time>
   <energy>
    <i name="e_fr_energy">   -307.03551060 </i>
    <i name="e_wo_entrp">   -307.02318918 </i>
    <i name="e_0_energy">   -307.03140346 </i>
   </energy>
  </scstep>
  <scstep>
   <time name="dav">   51.48   51.62</time>
   <time name="total">   52.13   52.32</time>
   <energy>
    <i name="e_fr_energy">   -306.95372058 </i>
    <i name="e_wo_entrp">   -306.94198789 </i>
    <i name="e_0_energy">   -306.94980968 </i>
   </energy>
  </scstep>
  <scstep>
   <time name="dav">   48.64   48.70</time>
   <time name="total">   49.32   49.40</time>
   <energy>
    <i name="e_fr_energy">   -306.94207641 </i>
    <i name="e_wo_entrp">   -306.93021615 </i>
    <i name="e_0_energy">   -306.93812299 </i>
   </energy>
  </scstep>
  <scstep>
   <time name="dav">   48.48   48.54</time>
   <time name="total">   49.17   49.24</time>
   <energy>
    <i name="e_fr_energy">   -306.92186505 </i>
    <i name="e_wo_entrp">   -306.90990997 </i>
    <i name="e_0_energy">   -306.91788002 </i>
   </energy>
  </scstep>
  <scstep>
   <time name="dav">   49.04   49.10</time>
   <time name="total">   49.72   49.78</time>
   <energy>
    <i name="e_fr_energy">   -306.89802693 </i>
    <i name="e_wo_entrp">   -306.88571953 </i>
    <i name="e_0_energy">   -306.89392446 </i>
   </energy>
  </scstep>
  <scstep>
   <time name="dav">   50.89   50.95</time>
   <time name="total">   51.57   51.64</time>
   <energy>
    <i name="e_fr_energy">   -306.86811688 </i>
    <i name="e_wo_entrp">   -306.85597420 </i>
    <i name="e_0_energy">   -306.86406932 </i>
   </energy>
  </scstep>
  <scstep>
   <time name="dav">   48.96   49.03</time>
   <time name="total">   49.64   49.70</time>
   <energy>
    <i name="e_fr_energy">   -306.86440387 </i>
    <i name="e_wo_entrp">   -306.85216800 </i>
    <i name="e_0_energy">   -306.86032525 </i>
   </energy>
  </scstep>
  <scstep>
   <time name="dav">   48.02   48.08</time>
   <time name="total">   48.70   48.78</time>
   <energy>
    <i name="e_fr_energy">   -306.86088906 </i>
    <i name="e_wo_entrp">   -306.84844818 </i>
    <i name="e_0_energy">   -306.85674210 </i>
   </energy>
  </scstep>
  <scstep>
   <time name="dav">   47.26   47.39</time>
   <time name="total">   47.90   48.07</time>
   <energy>
    <i name="e_fr_energy">   -306.85545287 </i>
    <i name="e_wo_entrp">   -306.84295612 </i>
    <i name="e_0_energy">   -306.85128729 </i>
   </energy>
  </scstep>
  <scstep>
   <time name="dav">   47.02   47.08</time>
   <time name="total">   47.70   47.77</time>
   <energy>
    <i name="e_fr_energy">   -306.85423800 </i>
    <i name="e_wo_entrp">   -306.84157113 </i>
    <i name="e_0_energy">   -306.85001571 </i>
   </energy>
  </scstep>
  <scstep>
   <time name="dav">   44.71   44.76</time>
   <time name="total">   45.38   45.44</time>
   <energy>
    <i name="e_fr_energy">   -306.85076640 </i>
    <i name="e_wo_entrp">   -306.83807720 </i>
    <i name="e_0_energy">   -306.84653667 </i>
   </energy>
  </scstep>
  <scstep>
   <time name="dav">   43.39   43.45</time>
   <time name="total">   44.07   44.13</time>
   <energy>
    <i name="e_fr_energy">   -306.84899822 </i>
    <i name="e_wo_entrp">   -306.83632150 </i>
    <i name="e_0_energy">   -306.84477265 </i>
   </energy>
  </scstep>
  <scstep>
   <time name="dav">   39.37   39.42</time>
   <time name="total">   40.04   40.09</time>
   <energy>
    <i name="e_fr_energy">   -306.84714773 </i>
    <i name="e_wo_entrp">   -306.83448609 </i>
    <i name="e_0_energy">   -306.84292718 </i>
   </energy>
  </scstep>
  <scstep>
   <time name="dav">   49.23   49.29</time>
   <time name="total">   49.91   49.98</time>
   <energy>
    <i name="e_fr_energy">   -306.84446040 </i>
    <i name="e_wo_entrp">   -306.83187400 </i>
    <i name="e_0_energy">   -306.84026493 </i>
   </energy>
  </scstep>
  <scstep>
   <time name="dav">   44.37   44.42</time>
   <time name="total">   45.05   45.10</time>
   <energy>
    <i name="e_fr_energy">   -306.84319341 </i>
    <i name="e_wo_entrp">   -306.83066082 </i>
    <i name="e_0_energy">   -306.83901588 </i>
   </energy>
  </scstep>
  <scstep>
   <time name="dav">   34.91   34.95</time>
   <time name="total">   35.60   35.66</time>
   <energy>
    <i name="e_fr_energy">   -306.84263083 </i>
    <i name="e_wo_entrp">   -306.83014833 </i>
    <i name="e_0_energy">   -306.83847000 </i>
   </energy>
  </scstep>
  <scstep>
   <time name="dav">   44.26   44.32</time>
   <time name="total">   44.94   45.01</time>
   <energy>
    <i name="e_fr_energy">   -306.84201874 </i>
    <i name="e_wo_entrp">   -306.82962394 </i>
    <i name="e_0_energy">   -306.83788714 </i>
   </energy>
  </scstep>
  <scstep>
   <time name="dav">   25.73   25.77</time>
   <time name="total">   26.41   26.45</time>
   <energy>
    <i name="e_fr_energy">   -306.84190716 </i>
    <i name="e_wo_entrp">   -306.82954995 </i>
    <i name="e_0_energy">   -306.83778809 </i>
   </energy>
  </scstep>
  <scstep>
   <time name="dav">   28.05   28.09</time>
   <time name="total">   28.13   28.16</time>
   <energy>
    <i name="alphaZ">   1173.71499705 </i>
    <i name="ewald"> -11197.74696961 </i>
    <i name="hartreedc">  -2975.26372451 </i>
    <i name="XCdc">   -843.04895247 </i>
    <i name="pawpsdc">  18871.53220081 </i>
    <i name="pawaedc"> -17409.63466891 </i>
    <i name="eentropy">     -0.01231973 </i>
    <i name="bandstr">   -761.69714246 </i>
    <i name="atom">  12835.31476492 </i>
    <i name="e_fr_energy">   -306.84181493 </i>
    <i name="e_wo_entrp">   -306.82949520 </i>
    <i name="e_0_energy">   -306.83770835 </i>
   </energy>
  </scstep>
  <structure>
   <crystal>
    <varray name="basis" >
     <v>      -3.16000000      -3.16000000      -3.16000000 </v>
     <v>       1.58000000       1.58000000      -7.90000000 </v>
     <v>       7.90000000      -7.90000000      -1.58000000 </v>
    </varray>
    <i name="volume">    473.31744000 </i>
    <varray name="rec_basis" >
     <v>      -0.13713080      -0.12658228      -0.05274262 </v>
     <v>       0.04219409       0.06329114      -0.10548523 </v>
     <v>       0.06329114      -0.06329114       0.00000000 </v>
    </varray>
   </crystal>
   <varray name="positions" >
    <v>       0.96666667       0.93333333       0.40000000 </v>
    <v>       0.63333333       0.26666667       0.40000000 </v>
    <v>       0.50000000       0.00000000       0.00000000 </v>
    <v>       0.00000000       0.00000000       0.00000000 </v>
    <v>       0.10000000       0.20000000       0.80000000 </v>
    <v>       0.03333333       0.06666667       0.60000000 </v>
    <v>       0.90000000       0.80000000       0.20000000 </v>
    <v>       0.80000000       0.60000000       0.40000000 </v>
    <v>       0.73333333       0.46666667       0.20000000 </v>
    <v>       0.66666667       0.33333333       0.00000000 </v>
    <v>       0.36666667       0.73333333       0.60000000 </v>
    <v>       0.13333333       0.26666667       0.40000000 </v>
    <v>       0.83333333       0.66666667       0.00000000 </v>
    <v>       0.93333333       0.86666667       0.80000000 </v>
    <v>       0.56666667       0.13333333       0.20000000 </v>
    <v>       0.40000000       0.80000000       0.20000000 </v>
    <v>       0.43333333       0.86666667       0.80000000 </v>
    <v>       0.30000000       0.60000000       0.40000000 </v>
    <v>       0.86666667       0.73333333       0.60000000 </v>
    <v>       0.46666667       0.93333333       0.40000000 </v>
    <v>       0.16666667       0.33333333       0.00000000 </v>
    <v>       0.26666667       0.53333333       0.80000000 </v>
    <v>       0.20000000       0.40000000       0.60000000 </v>
    <v>       0.06666667       0.13333333       0.20000000 </v>
    <v>       0.76666667       0.53333333       0.80000000 </v>
    <v>       0.70000000       0.40000000       0.60000000 </v>
    <v>       0.60000000       0.20000000       0.80000000 </v>
    <v>       0.33333333       0.66666667       0.00000000 </v>
    <v>       0.23333333       0.46666667       0.20000000 </v>
   </varray>
  </structure>
  <varray name="forces" >
   <v>      -0.35484638       0.32656235       0.06010113 </v>
   <v>       0.42968058      -0.40194320       0.08493397 </v>
   <v>      -0.23524544       0.49108950      -0.26746462 </v>
   <v>       0.04150684       0.10945488      -0.03180154 </v>
   <v>       0.37671344       0.78879907      -0.45513493 </v>
   <v>      -0.21419630       0.18568294      -0.37778867 </v>
   <v>       0.12296277      -0.57405719       0.18560828 </v>
   <v>      -0.38411704      -0.41456120       0.52568063 </v>
   <v>      -0.32541377       0.38509878       0.01987045 </v>
   <v>       0.24615283       0.59205075      -0.61322457 </v>
   <v>      -0.04876036      -0.32107628       0.68321071 </v>
   <v>       0.25435443       0.57868008      -0.56987072 </v>
   <v>       0.05050614      -0.40521455       0.51006140 </v>
   <v>       0.12440650      -0.14775357      -0.17931453 </v>
   <v>      -0.03252476       0.42389549      -0.17581558 </v>
   <v>      -0.74577136      -0.11161922       0.71503465 </v>
   <v>      -0.84139260       0.18488018       0.67320393 </v>
   <v>       0.44790179      -0.43601366      -0.17233318 </v>
   <v>       0.05925575       0.10208656       0.37356769 </v>
   <v>       0.78448976      -0.48827483       0.15588710 </v>
   <v>      -0.14127114      -0.18205446      -0.38403453 </v>
   <v>      -0.50636448       0.04624363      -0.29411956 </v>
   <v>      -0.33852067      -0.14770807       0.85912918 </v>
   <v>       0.76136204      -0.26210566      -0.82059858 </v>
   <v>      -0.09009259      -0.16261946       0.50423644 </v>
   <v>       0.45912734       0.03412672      -1.05075214 </v>
   <v>       0.10992915      -0.05186420      -0.48709080 </v>
   <v>      -0.20396051      -0.38070719       0.69527783 </v>
   <v>       0.19412804       0.23892181      -0.16645944 </v>
  </varray>
  <varray name="stress" >
   <v>     -11.05015172      -2.25517584       2.57680711 </v>
   <v>      -2.25517577     -11.32926718       0.48088206 </v>
   <v>       2.57680708       0.48088207      -7.30064641 </v>
  </varray>
  <energy>
   <i name="e_fr_energy">   -306.84181493 </i>
   <i name="e_wo_entrp">   -306.83770835 </i>
   <i name="e_0_energy">     -0.01231973 </i>
  </energy>
  <time name="totalsc"> 2620.00 2624.25</time>
 </calculation>
 <calculation>
  <scstep>
   <time name="dav">   33.74   33.79</time>
   <time name="total">   34.42   34.47</time>
   <energy>
    <i name="alphaZ">   1191.00773100 </i>
    <i name="ewald"> -11293.18712241 </i>
    <i name="hartreedc">  -2951.36889120 </i>
    <i name="XCdc">   -841.26212698 </i>
    <i name="pawpsdc">  18870.51898282 </i>
    <i name="pawaedc"> -17408.61601884 </i>
    <i name="eentropy">     -0.01103415 </i>
    <i name="bandstr">   -709.65070350 </i>
    <i name="atom">  12835.31476492 </i>
    <i name="e_fr_energy">   -307.25441835 </i>
    <i name="e_wo_entrp">   -307.24338420 </i>
    <i name="e_0_energy">   -307.25074030 </i>
   </energy>
  </scstep>
  <scstep>
   <time name="dav">   51.12   51.18</time>
   <time name="total">   51.79   51.86</time>
   <energy>
    <i name="e_fr_energy">   -308.62429422 </i>
    <i name="e_wo_entrp">   -308.61352473 </i>
    <i name="e_0_energy">   -308.62070439 </i>
   </energy>
  </scstep>
  <scstep>
   <time name="dav">   51.18   51.25</time>
   <time name="total">   51.86   51.93</time>
   <energy>
    <i name="e_fr_energy">   -307.56970547 </i>
    <i name="e_wo_entrp">   -307.56242401 </i>
    <i name="e_0_energy">   -307.56727831 </i>
   </energy>
  </scstep>
  <scstep>
   <time name="dav">   50.41   50.48</time>
   <time name="total">   51.16   51.23</time>
   <energy>
    <i name="e_fr_energy">   -307.52951817 </i>
    <i name="e_wo_entrp">   -307.51687818 </i>
    <i name="e_0_energy">   -307.52530484 </i>
   </energy>
  </scstep>
  <scstep>
   <time name="dav">   49.25   49.31</time>
   <time name="total">   49.93   50.00</time>
   <energy>
    <i name="e_fr_energy">   -307.48640160 </i>
    <i name="e_wo_entrp">   -307.48011380 </i>
    <i name="e_0_energy">   -307.48430567 </i>
   </energy>
  </scstep>
  <scstep>
   <time name="dav">   50.22   50.29</time>
   <time name="total">   50.89   50.97</time>
   <energy>
    <i name="e_fr_energy">   -307.43408681 </i>
    <i name="e_wo_entrp">   -307.42487391 </i>
    <i name="e_0_energy">   -307.43101585 </i>
   </energy>
  </scstep>
  <scstep>
   <time name="dav">   53.66   53.73</time>
   <time name="total">   54.34   54.41</time>
   <energy>
    <i name="e_fr_energy">   -307.42600060 </i>
    <i name="e_wo_entrp">   -307.41747991 </i>
    <i name="e_0_energy">   -307.42316037 </i>
   </energy>
  </scstep>
  <scstep>
   <time name="dav">   51.86   51.92</time>
   <time name="total">   52.53   52.60</time>
   <energy>
    <i name="e_fr_energy">   -307.41974225 </i>
    <i name="e_wo_entrp">   -307.40974531 </i>
    <i name="e_0_energy">   -307.41640994 </i>
   </energy>
  </scstep>
  <scstep>
   <time name="dav">   50.58   50.65</time>
   <time name="total">   51.26   51.34</time>
   <energy>
    <i name="e_fr_energy">   -307.41151999 </i>
    <i name="e_wo_entrp">   -307.40267452 </i>
    <i name="e_0_energy">   -307.40857150 </i>
   </energy>
  </scstep>
  <scstep>
   <time name="dav">   46.00   46.06</time>
   <time name="total">   46.67   46.73</time>
   <energy>
    <i name="e_fr_energy">   -307.40971360 </i>
    <i name="e_wo_entrp">   -307.40042222 </i>
    <i name="e_0_energy">   -307.40661648 </i>
   </energy>
  </scstep>
  <scstep>
   <time name="dav">   48.21   48.27</time>
   <time name="total">   48.88   48.96</time>
   <energy>
    <i name="e_fr_energy">   -307.41042029 </i>
    <i name="e_wo_entrp">   -307.40121030 </i>
    <i name="e_0_energy">   -307.40735030 </i>
   </energy>
  </scstep>
  <scstep>
   <time name="dav">   44.55   44.67</time>
   <time name="total">   45.20   45.35</time>
   <energy>
    <i name="e_fr_energy">   -307.41107634 </i>
    <i name="e_wo_entrp">   -307.40185428 </i>
    <i name="e_0_energy">   -307.40800232 </i>
   </energy>
  </scstep>
  <scstep>
   <time name="dav">   47.82   47.88</time>
   <time name="total">   48.50   48.57</time>
   <energy>
    <i name="e_fr_energy">   -307.41047381 </i>
    <i name="e_wo_entrp">   -307.40128874 </i>
    <i name="e_0_energy">   -307.40741212 </i>
   </energy>
  </scstep>
  <scstep>
   <time name="dav">   43.74   43.80</time>
   <time name="total">   44.41   44.47</time>
   <energy>
    <i name="e_fr_energy">   -307.41038160 </i>
    <i name="e_wo_entrp">   -307.40116784 </i>
    <i name="e_0_energy">   -307.40731035 </i>
   </energy>
  </scstep>
  <scstep>
   <time name="dav">   41.42   41.47</time>
   <time name="total">   41.50   41.59</time>
   <energy>
    <i name="alphaZ">   1191.00773100 </i>
    <i name="ewald"> -11293.18712241 </i>
    <i name="hartreedc">  -2921.98224485 </i>
    <i name="XCdc">   -842.13248384 </i>
    <i name="pawpsdc">  19151.34015663 </i>
    <i name="pawaedc"> -17690.25878821 </i>
    <i name="eentropy">     -0.00922586 </i>
    <i name="bandstr">   -737.50312972 </i>
    <i name="atom">  12835.31476492 </i>
    <i name="e_fr_energy">   -307.41034234 </i>
    <i name="e_wo_entrp">   -307.40111648 </i>
    <i name="e_0_energy">   -307.40726706 </i>
   </energy>
  </scstep>
  <structure>
   <crystal>
    <varray name="basis" >
     <v>      -3.14333896      -3.13965060      -3.15341083 </v>
     <v>       1.55966439       1.56758492      -7.86928160 </v>
     <v>       7.86385339      -7.86514399      -1.56619391 </v>
    </varray>
    <i name="volume">    466.44514828 </i>
    <varray name="rec_basis" >
     <v>      -0.13795443      -0.12743222      -0.05272698 </v>
     <v>       0.04263037       0.06371819      -0.10593435 </v>
     <v>       0.06356596      -0.06357464      -0.00006571 </v>
    </varray>
   </crystal>
   <varray name="positions" >
    <v>       0.96686704       0.93330228       0.39791943 </v>
    <v>       0.63272918       0.26588182       0.40253922 </v>
    <v>       0.49923791       0.00238170      -0.00221774 </v>
    <v>      -0.00086208       0.00058053      -0.00020747 </v>
    <v>       0.09384897       0.20549142       0.79874177 </v>
    <v>       0.03457772       0.06872014       0.59877904 </v>
    <v>       0.90221984       0.79755297       0.20212823 </v>
    <v>       0.80373517       0.59527719       0.40009296 </v>
    <v>       0.73308389       0.46707899       0.19783057 </v>
    <v>       0.66298309       0.33876275      -0.00105614 </v>
    <v>       0.36721156       0.72877694       0.60083147 </v>
    <v>       0.12956683       0.27185133       0.39900973 </v>
    <v>       0.83417589       0.66293658       0.00139147 </v>
    <v>       0.93386885       0.86738128       0.80083100 </v>
    <v>       0.56474060       0.13545612       0.19860640 </v>
    <v>       0.40379595       0.79450240       0.19806372 </v>
    <v>       0.43605768       0.86209261       0.79686645 </v>
    <v>       0.30013796       0.60045742       0.40269889 </v>
    <v>       0.86470073       0.73186461       0.59986922 </v>
    <v>       0.46406192       0.93264604       0.40388617 </v>
    <v>       0.16969016       0.33444420       0.00012453 </v>
    <v>       0.27048253       0.53394054       0.79831270 </v>
    <v>       0.20095550       0.39448791       0.59941739 </v>
    <v>       0.06531840       0.13825876       0.20312499 </v>
    <v>       0.76697274       0.53008741       0.80022145 </v>
    <v>       0.69942780       0.40638594       0.60129767 </v>
    <v>       0.60082885       0.20254416       0.80049401 </v>
    <v>       0.33523840       0.66155088       0.00053967 </v>
    <v>       0.23101360       0.46863843       0.19986323 </v>
   </varray>
  </structure>
  <varray name="forces" >
   <v>      -0.05723944       0.16915607       0.06497156 </v>
   <v>       0.34183786      -0.22061692       0.15239821 </v>
   <v>      -0.27747033       0.25911046      -0.03241943 </v>
   <v>       0.08885183       0.03804166      -0.13062198 </v>
   <v>       0.16803284       0.39954850      -0.18477805 </v>
   <v>      -0.14534099       0.14290840      -0.19774580 </v>
   <v>      -0.02596597      -0.20518765       0.10047118 </v>
   <v>      -0.10174963      -0.20386247       0.15242843 </v>
   <v>      -0.10303725       0.12494865       0.14326588 </v>
   <v>       0.08961127       0.43777517      -0.31688936 </v>
   <v>      -0.07985080      -0.26233566       0.41261652 </v>
   <v>       0.14552046       0.26758026      -0.27309067 </v>
   <v>      -0.01701492      -0.10410303       0.05140330 </v>
   <v>       0.10776993      -0.01342204      -0.07513389 </v>
   <v>       0.06017158       0.19754375      -0.05628689 </v>
   <v>      -0.28510482      -0.07002954       0.22736006 </v>
   <v>      -0.42704932       0.21814247       0.30445405 </v>
   <v>       0.13643502      -0.35803164      -0.00998055 </v>
   <v>       0.08597613       0.09577796       0.24279833 </v>
   <v>       0.47135348      -0.38275991       0.01682987 </v>
   <v>      -0.15553225      -0.13870323      -0.31483172 </v>
   <v>      -0.36847050      -0.02951582      -0.10995109 </v>
   <v>      -0.34369895      -0.20545701       0.64418551 </v>
   <v>       0.41581796      -0.08150984      -0.50411166 </v>
   <v>      -0.10802272      -0.11068006       0.37626487 </v>
   <v>       0.44846683      -0.02014680      -0.69773883 </v>
   <v>       0.09362080       0.06854054      -0.43514770 </v>
   <v>      -0.24723292      -0.18420522       0.59845005 </v>
   <v>       0.08931479       0.17149297      -0.14917021 </v>
  </varray>
  <varray name="stress" >
   <v>      17.75599006      -1.72804885       2.51673399 </v>
   <v>      -1.72804887      15.06822052       2.11780840 </v>
   <v>       2.51673399       2.11780844      19.36256074 </v>
  </varray>
  <energy>
   <i name="e_fr_energy">   -307.41034234 </i>
   <i name="e_wo_entrp">   -307.40726706 </i>
   <i name="e_0_energy">     -0.00922586 </i>
  </energy>
  <time name="totalsc">  742.75  744.05</time>
 </calculation>
 <calculation>
  <scstep>
   <time name="dav">   33.21   33.26</time>
   <time name="total">   33.88   33.99</time>
   <energy>
    <i name="alphaZ">   1204.37146223 </i>
    <i name="ewald"> -11360.99083989 </i>
    <i name="hartreedc">  -2907.77238713 </i>
    <i name="XCdc">   -840.76875414 </i>
    <i name="pawpsdc">  19151.36642649 </i>
    <i name="pawaedc"> -17690.28020977 </i>
    <i name="eentropy">     -0.01057953 </i>
    <i name="bandstr">   -698.62590098 </i>
    <i name="atom">  12835.31476492 </i>
    <i name="e_fr_energy">   -307.39601782 </i>
    <i name="e_wo_entrp">   -307.38543828 </i>
    <i name="e_0_energy">   -307.39249130 </i>
   </energy>
  </scstep>
  <scstep>
   <time name="dav">   50.28   50.36</time>
   <time name="total">   50.95   51.02</time>
   <energy>
    <i name="e_fr_energy">   -308.21005723 </i>
    <i name="e_wo_entrp">   -308.20208622 </i>
    <i name="e_0_energy">   -308.20740023 </i>
   </energy>
  </scstep>
  <scstep>
   <time name="dav">   50.46   50.53</time>
   <time name="total">   51.13   51.21</time>
   <energy>
    <i name="e_fr_energy">   -307.61979765 </i>
    <i name="e_wo_entrp">   -307.61242168 </i>
    <i name="e_0_energy">   -307.61733899 </i>
   </energy>
  </scstep>
  <scstep>
   <time name="dav">   49.47   49.54</time>
   <time name="total">   50.12   50.23</time>
   <energy>
    <i name="e_fr_energy">   -307.59525834 </i>
    <i name="e_wo_entrp">   -307.58481964 </i>
    <i name="e_0_energy">   -307.59177877 </i>
   </energy>
  </scstep>
  <scstep>
   <time name="dav">   48.82   48.89</time>
   <time name="total">   49.50   49.58</time>
   <energy>
    <i name="e_fr_energy">   -307.57053308 </i>
    <i name="e_wo_entrp">   -307.56463160 </i>
    <i name="e_0_energy">   -307.56856592 </i>
   </energy>
  </scstep>
  <scstep>
   <time name="dav">   50.06   50.13</time>
   <time name="total">   50.74   50.81</time>
   <energy>
    <i name="e_fr_energy">   -307.54060312 </i>
    <i name="e_wo_entrp">   -307.53217428 </i>
    <i name="e_0_energy">   -307.53779351 </i>
   </energy>
  </scstep>
  <scstep>
   <time name="dav">   54.59   54.67</time>
   <time name="total">   55.27   55.35</time>
   <energy>
    <i name="e_fr_energy">   -307.53802663 </i>
    <i name="e_wo_entrp">   -307.53041842 </i>
    <i name="e_0_energy">   -307.53549056 </i>
   </energy>
  </scstep>
  <scstep>
   <time name="dav">   51.88   51.95</time>
   <time name="total">   52.55   52.63</time>
   <energy>
    <i name="e_fr_energy">   -307.53415793 </i>
    <i name="e_wo_entrp">   -307.52577305 </i>
    <i name="e_0_energy">   -307.53136297 </i>
   </energy>
  </scstep>
  <scstep>
   <time name="dav">   49.91   49.99</time>
   <time name="total">   50.62   50.71</time>
   <energy>
    <i name="e_fr_energy">   -307.52911712 </i>
    <i name="e_wo_entrp">   -307.52127726 </i>
    <i name="e_0_energy">   -307.52650384 </i>
   </energy>
  </scstep>
  <scstep>
   <time name="dav">   45.24   45.31</time>
   <time name="total">   45.91   45.98</time>
   <energy>
    <i name="e_fr_energy">   -307.52837390 </i>
    <i name="e_wo_entrp">   -307.52023724 </i>
    <i name="e_0_energy">   -307.52566168 </i>
   </energy>
  </scstep>
  <scstep>
   <time name="dav">   48.03   48.10</time>
   <time name="total">   48.71   48.78</time>
   <energy>
    <i name="e_fr_energy">   -307.52876703 </i>
    <i name="e_wo_entrp">   -307.52064364 </i>
    <i name="e_0_energy">   -307.52605923 </i>
   </energy>
  </scstep>
  <scstep>
   <time name="dav">   43.18   43.25</time>
   <time name="total">   43.85   43.92</time>
   <energy>
    <i name="e_fr_energy">   -307.52928522 </i>
    <i name="e_wo_entrp">   -307.52128425 </i>
    <i name="e_0_energy">   -307.52661823 </i>
   </energy>
  </scstep>
  <scstep>
   <time name="dav">   44.18   44.25</time>
   <time name="total">   44.87   44.94</time>
   <energy>
    <i name="e_fr_energy">   -307.52881221 </i>
    <i name="e_wo_entrp">   -307.52067471 </i>
    <i name="e_0_energy">   -307.52609971 </i>
   </energy>
  </scstep>
  <scstep>
   <time name="dav">   44.03   44.09</time>
   <time name="total">   44.70   44.76</time>
   <energy>
    <i name="e_fr_energy">   -307.52877964 </i>
    <i name="e_wo_entrp">   -307.52071258 </i>
    <i name="e_0_energy">   -307.52609062 </i>
   </energy>
  </scstep>
  <scstep>
   <time name="dav">   36.53   36.57</time>
   <time name="total">   36.60   36.66</time>
   <energy>
    <i name="alphaZ">   1204.37146223 </i>
    <i name="ewald"> -11360.99083989 </i>
    <i name="hartreedc">  -2886.17281609 </i>
    <i name="XCdc">   -841.42285301 </i>
    <i name="pawpsdc">  19402.72830437 </i>
    <i name="pawaedc"> -17942.18614187 </i>
    <i name="eentropy">     -0.00809749 </i>
    <i name="bandstr">   -719.16250124 </i>
    <i name="atom">  12835.31476492 </i>
    <i name="e_fr_energy">   -307.52871808 </i>
    <i name="e_wo_entrp">   -307.52062059 </i>
    <i name="e_0_energy">   -307.52601892 </i>
   </energy>
  </scstep>
  <structure>
   <crystal>
    <varray name="basis" >
     <v>      -3.13068915      -3.12420042      -3.14840803 </v>
     <v>       1.54422468       1.55815883      -7.84595880 </v>
     <v>       7.83640924      -7.83867972      -1.55571171 </v>
    </varray>
    <i name="volume">    461.26946305 </i>
    <varray name="rec_basis" >
     <v>      -0.13858711      -0.12808517      -0.05271334 </v>
     <v>       0.04296622       0.06404643      -0.10627840 </v>
     <v>       0.06377632      -0.06379158      -0.00011630 </v>
    </varray>
   </crystal>
   <varray name="positions" >
    <v>       0.96701975       0.93327715       0.39633266 </v>
    <v>       0.63227008       0.26528511       0.40447541 </v>
    <v>       0.49865095       0.00419832      -0.00390838 </v>
    <v>      -0.00152128       0.00102419      -0.00036563 </v>
    <v>       0.08914264       0.20968660       0.79778315 </v>
    <v>       0.03552297       0.07028492       0.59784885 </v>
    <v>       0.90391951       0.79568501       0.20375084 </v>
    <v>       0.80659587       0.59167014       0.40016271 </v>
    <v>       0.73289235       0.46739254       0.19617612 </v>
    <v>       0.66016014       0.34290829      -0.00186021 </v>
    <v>       0.36763712       0.72530048       0.60146396 </v>
    <v>       0.12668112       0.27581026       0.39825579 </v>
    <v>       0.83482698       0.66009060       0.00245142 </v>
    <v>       0.93427618       0.86792647       0.80146514 </v>
    <v>       0.56326593       0.13707685       0.19754400 </v>
    <v>       0.40670438       0.79030295       0.19658554 </v>
    <v>       0.43814614       0.85859815       0.79447530 </v>
    <v>       0.30024267       0.60080788       0.40475746 </v>
    <v>       0.86320335       0.73074589       0.59976857 </v>
    <v>       0.46207590       0.93212656       0.40684932 </v>
    <v>       0.17199543       0.33528884       0.00022046 </v>
    <v>       0.27339337       0.53439902       0.79702676 </v>
    <v>       0.20169626       0.39028103       0.59897110 </v>
    <v>       0.06427945       0.14201994       0.20550998 </v>
    <v>       0.76721320       0.52761068       0.80038915 </v>
    <v>       0.69897784       0.41125959       0.60228971 </v>
    <v>       0.60145617       0.20448476       0.80087190 </v>
    <v>       0.33670321       0.65764609       0.00094963 </v>
    <v>       0.22923896       0.47014506       0.19975926 </v>
   </varray>
  </structure>
  <varray name="forces" >
   <v>       0.19516702       0.02721515       0.05321518 </v>
   <v>       0.26785559      -0.08435973       0.20329038 </v>
   <v>      -0.30066370       0.08389616       0.15815136 </v>
   <v>       0.13086592      -0.02755678      -0.20195117 </v>
   <v>      -0.01794349       0.07901747       0.01910121 </v>
   <v>      -0.07980376       0.08423938      -0.03556711 </v>
   <v>      -0.14538537       0.09676695       0.02985216 </v>
   <v>       0.16771470       0.00596205      -0.19803039 </v>
   <v>       0.10955289      -0.14888232       0.25720762 </v>
   <v>      -0.04843261       0.26726312      -0.02335817 </v>
   <v>      -0.08086747      -0.17428699       0.17261531 </v>
   <v>       0.02320500      -0.01404371       0.00924912 </v>
   <v>      -0.08426157       0.15032232      -0.34712374 </v>
   <v>       0.06422007       0.05986915       0.02214373 </v>
   <v>       0.12712701       0.03403661       0.03985378 </v>
   <v>       0.09910686       0.01390658      -0.14986681 </v>
   <v>      -0.13693834       0.23922471      -0.03119155 </v>
   <v>      -0.10975672      -0.25704016       0.11880308 </v>
   <v>       0.09840211       0.07737444       0.10698432 </v>
   <v>       0.22107215      -0.30066407      -0.10328108 </v>
   <v>      -0.15061587      -0.10257055      -0.22976578 </v>
   <v>      -0.22975386      -0.07043447       0.06187053 </v>
   <v>      -0.34833419      -0.28052804       0.42946259 </v>
   <v>       0.13144460       0.05576118      -0.22123348 </v>
   <v>      -0.11493657      -0.04244768       0.20997121 </v>
   <v>       0.40226128      -0.06512518      -0.33826161 </v>
   <v>       0.06306882       0.19206669      -0.36482915 </v>
   <v>      -0.25291471       0.01446591       0.48827682 </v>
   <v>      -0.00045581       0.08655179      -0.13558839 </v>
  </varray>
  <varray name="stress" >
   <v>      41.81773877      -0.89430485       1.70432621 </v>
   <v>      -0.89430488      37.92275159       3.23361639 </v>
   <v>       1.70432629       3.23361647      41.95819784 </v>
  </varray>
  <energy>
   <i name="e_fr_energy">   -307.52871808 </i>
   <i name="e_wo_entrp">   -307.52601892 </i>
   <i name="e_0_energy">     -0.00809749 </i>
  </energy>
  <time name="totalsc">  728.91  730.30</time>
 </calculation>
 <calculation>
  <scstep>
   <time name="dav">   38.94   39.00</time>
   <time name="total">   39.61   39.67</time>
   <energy>
    <i name="alphaZ">   1176.98244395 </i>
    <i name="ewald"> -11293.61177994 </i>
    <i name="hartreedc">  -2844.68029670 </i>
    <i name="XCdc">   -844.50007755 </i>
    <i name="pawpsdc">  19402.79096048 </i>
    <i name="pawaedc"> -17942.24848564 </i>
    <i name="eentropy">     -0.00768307 </i>
    <i name="bandstr">   -798.08336536 </i>
    <i name="atom">  12835.31476492 </i>
    <i name="e_fr_energy">   -308.04351893 </i>
    <i name="e_wo_entrp">   -308.03583586 </i>
    <i name="e_0_energy">   -308.04095790 </i>
   </energy>
  </scstep>
  <scstep>
   <time name="dav">   50.53   50.64</time>
   <time name="total">   51.21   51.33</time>
   <energy>
    <i name="e_fr_energy">   -308.76474934 </i>
    <i name="e_wo_entrp">   -308.76183801 </i>
    <i name="e_0_energy">   -308.76377890 </i>
   </energy>
  </scstep>
  <scstep>
   <time name="dav">   51.62   51.73</time>
   <time name="total">   52.28   52.39</time>
   <energy>
    <i name="e_fr_energy">   -308.11623901 </i>
    <i name="e_wo_entrp">   -308.10885967 </i>
[...]
       <r>    4.7259    1.0000 </r>
       <r>    4.7637    1.0000 </r>
       <r>    4.8361    1.0000 </r>
       <r>    4.8746    1.0000 </r>
       <r>    4.9625    1.0000 </r>
       <r>    5.0014    1.0000 </r>
       <r>    5.0460    1.0000 </r>
       <r>    5.0767    1.0000 </r>
       <r>    5.1044    1.0000 </r>
       <r>    5.1512    1.0000 </r>
       <r>    5.2432    1.0000 </r>
       <r>    5.2997    1.0000 </r>
       <r>    5.3652    1.0000 </r>
       <r>    5.4174    1.0000 </r>
       <r>    5.4549    1.0000 </r>
       <r>    5.5092    1.0000 </r>
       <r>    5.5802    1.0000 </r>
       <r>    5.6622    1.0000 </r>
       <r>    5.6831    1.0000 </r>
       <r>    5.7449    1.0000 </r>
       <r>    5.8045    1.0000 </r>
       <r>    5.8328    1.0000 </r>
       <r>    5.9018    1.0000 </r>
       <r>    5.9777    1.0000 </r>
       <r>    6.0447    1.0002 </r>
       <r>    6.1071    1.0011 </r>
       <r>    6.1461    1.0025 </r>
       <r>    6.2004    1.0068 </r>
       <r>    6.2330    1.0113 </r>
       <r>    6.2913    1.0233 </r>
       <r>    6.3456    1.0342 </r>
       <r>    6.3667    1.0355 </r>
       <r>    6.4182    1.0205 </r>
       <r>    6.4560    0.9823 </r>
       <r>    6.4992    0.8990 </r>
       <r>    6.5705    0.6647 </r>
       <r>    6.6423    0.3662 </r>
       <r>    6.7272    0.0869 </r>
       <r>    6.7707    0.0094 </r>
       <r>    6.8263   -0.0316 </r>
       <r>    6.9633   -0.0158 </r>
       <r>    7.0238   -0.0064 </r>
       <r>    7.0734   -0.0025 </r>
       <r>    7.1926   -0.0002 </r>
       <r>    7.2724   -0.0000 </r>
       <r>    7.3739   -0.0000 </r>
       <r>    7.4030   -0.0000 </r>
       <r>    7.5349   -0.0000 </r>
       <r>    7.6021   -0.0000 </r>
       <r>    7.7853   -0.0000 </r>
       <r>    7.9386   -0.0000 </r>
       <r>    8.0257   -0.0000 </r>
       <r>    8.0883   -0.0000 </r>
       <r>    8.2421   -0.0000 </r>
       <r>    8.2706   -0.0000 </r>
       <r>    8.4622   -0.0000 </r>
       <r>    8.4898   -0.0000 </r>
       <r>    8.5562   -0.0000 </r>
       <r>    8.6289   -0.0000 </r>
       <r>    8.6729   -0.0000 </r>
       <r>    8.7642   -0.0000 </r>
      </set>
     </set>
    </set>
   </array>
  </eigenvalues>
  <separator name="orbital magnetization" >
   <v name="MAGDIPOLOUT">      0.00000000      0.00000000      0.00000000</v>
  </separator>
  <dos>
   <i name="efermi">      6.61025091 </i>
   <total>
    <array>
     <dimension dim="1">gridpoints</dimension>
     <dimension dim="2">spin</dimension>
     <field>energy</field>
     <field>total</field>
     <field>integrated</field>
     <set>
      <set comment="spin 1">
       <r>   -50.4035     0.0000     0.0000 </r>
       <r>   -50.1966     0.0000     0.0000 </r>
       <r>   -49.9897     0.0000     0.0000 </r>
       <r>   -49.7829     0.0000     0.0000 </r>
       <r>   -49.5760     0.0000     0.0000 </r>
       <r>   -49.3692    -0.0000    -0.0000 </r>
       <r>   -49.1623    -0.0000    -0.0000 </r>
       <r>   -48.9555    -0.0000    -0.0000 </r>
       <r>   -48.7486    -0.0000    -0.0000 </r>
       <r>   -48.5418    -0.0000    -0.0000 </r>
       <r>   -48.3349    -0.0000    -0.0000 </r>
       <r>   -48.1280    -0.0039    -0.0008 </r>
       <r>   -47.9212    -0.2107    -0.0444 </r>
       <r>   -47.7143     0.0793    -0.0280 </r>
       <r>   -47.5075    11.2897     2.3074 </r>
       <r>   -47.3006    23.0076     7.0666 </r>
       <r>   -47.0938    21.7729    11.5704 </r>
       <r>   -46.8869     2.6821    12.1252 </r>
       <r>   -46.6801    -0.5870    12.0038 </r>
       <r>   -46.4732    -0.0184    12.0000 </r>
       <r>   -46.2664    -0.0001    12.0000 </r>
       <r>   -46.0595    -0.0000    12.0000 </r>
       <r>   -45.8526    -0.0000    12.0000 </r>
       <r>   -45.6458     0.0000    12.0000 </r>
       <r>   -45.4389     0.0000    12.0000 </r>
       <r>   -45.2321     0.0000    12.0000 </r>
       <r>   -45.0252     0.0000    12.0000 </r>
       <r>   -44.8184     0.0000    12.0000 </r>
       <r>   -44.6115     0.0000    12.0000 </r>
       <r>   -44.4047     0.0000    12.0000 </r>
       <r>   -44.1978     0.0000    12.0000 </r>
       <r>   -43.9909     0.0000    12.0000 </r>
       <r>   -43.7841     0.0000    12.0000 </r>
       <r>   -43.5772     0.0000    12.0000 </r>
       <r>   -43.3704     0.0000    12.0000 </r>
       <r>   -43.1635     0.0000    12.0000 </r>
       <r>   -42.9567     0.0000    12.0000 </r>
       <r>   -42.7498     0.0000    12.0000 </r>
       <r>   -42.5430     0.0000    12.0000 </r>
       <r>   -42.3361     0.0000    12.0000 </r>
       <r>   -42.1292     0.0000    12.0000 </r>
       <r>   -41.9224     0.0000    12.0000 </r>
       <r>   -41.7155     0.0000    12.0000 </r>
       <r>   -41.5087     0.0000    12.0000 </r>
       <r>   -41.3018     0.0000    12.0000 </r>
       <r>   -41.0950     0.0000    12.0000 </r>
       <r>   -40.8881     0.0000    12.0000 </r>
       <r>   -40.6813     0.0000    12.0000 </r>
       <r>   -40.4744     0.0000    12.0000 </r>
       <r>   -40.2676     0.0000    12.0000 </r>
       <r>   -40.0607     0.0000    12.0000 </r>
       <r>   -39.8538     0.0000    12.0000 </r>
       <r>   -39.6470     0.0000    12.0000 </r>
       <r>   -39.4401     0.0000    12.0000 </r>
       <r>   -39.2333     0.0000    12.0000 </r>
       <r>   -39.0264     0.0000    12.0000 </r>
       <r>   -38.8196     0.0000    12.0000 </r>
       <r>   -38.6127     0.0000    12.0000 </r>
       <r>   -38.4059     0.0000    12.0000 </r>
       <r>   -38.1990     0.0000    12.0000 </r>
       <r>   -37.9921     0.0000    12.0000 </r>
       <r>   -37.7853     0.0000    12.0000 </r>
       <r>   -37.5784     0.0000    12.0000 </r>
       <r>   -37.3716     0.0000    12.0000 </r>
       <r>   -37.1647     0.0000    12.0000 </r>
       <r>   -36.9579     0.0000    12.0000 </r>
       <r>   -36.7510     0.0000    12.0000 </r>
       <r>   -36.5442     0.0000    12.0000 </r>
       <r>   -36.3373     0.0000    12.0000 </r>
       <r>   -36.1305     0.0000    12.0000 </r>
       <r>   -35.9236     0.0000    12.0000 </r>
       <r>   -35.7167     0.0000    12.0000 </r>
       <r>   -35.5099     0.0000    12.0000 </r>
       <r>   -35.3030     0.0000    12.0000 </r>
       <r>   -35.0962     0.0000    12.0000 </r>
       <r>   -34.8893     0.0000    12.0000 </r>
       <r>   -34.6825     0.0000    12.0000 </r>
       <r>   -34.4756     0.0000    12.0000 </r>
       <r>   -34.2688     0.0000    12.0000 </r>
       <r>   -34.0619     0.0000    12.0000 </r>
       <r>   -33.8550     0.0000    12.0000 </r>
       <r>   -33.6482     0.0000    12.0000 </r>
       <r>   -33.4413     0.0000    12.0000 </r>
       <r>   -33.2345     0.0000    12.0000 </r>
       <r>   -33.0276     0.0000    12.0000 </r>
       <r>   -32.8208     0.0000    12.0000 </r>
       <r>   -32.6139     0.0000    12.0000 </r>
       <r>   -32.4071     0.0000    12.0000 </r>
       <r>   -32.2002     0.0000    12.0000 </r>
       <r>   -31.9933     0.0000    12.0000 </r>
       <r>   -31.7865     0.0000    12.0000 </r>
       <r>   -31.5796     0.0000    12.0000 </r>
       <r>   -31.3728     0.0000    12.0000 </r>
       <r>   -31.1659     0.0000    12.0000 </r>
       <r>   -30.9591     0.0000    12.0000 </r>
       <r>   -30.7522     0.0000    12.0000 </r>
       <r>   -30.5454     0.0000    12.0000 </r>
       <r>   -30.3385     0.0000    12.0000 </r>
       <r>   -30.1317     0.0000    12.0000 </r>
       <r>   -29.9248     0.0000    12.0000 </r>
       <r>   -29.7179     0.0000    12.0000 </r>
       <r>   -29.5111     0.0000    12.0000 </r>
       <r>   -29.3042     0.0000    12.0000 </r>
       <r>   -29.0974     0.0000    12.0000 </r>
       <r>   -28.8905     0.0000    12.0000 </r>
       <r>   -28.6837     0.0000    12.0000 </r>
       <r>   -28.4768     0.0000    12.0000 </r>
       <r>   -28.2700     0.0000    12.0000 </r>
       <r>   -28.0631     0.0000    12.0000 </r>
       <r>   -27.8562     0.0000    12.0000 </r>
       <r>   -27.6494     0.0000    12.0000 </r>
       <r>   -27.4425     0.0000    12.0000 </r>
       <r>   -27.2357     0.0000    12.0000 </r>
       <r>   -27.0288     0.0000    12.0000 </r>
       <r>   -26.8220     0.0000    12.0000 </r>
       <r>   -26.6151     0.0000    12.0000 </r>
       <r>   -26.4083     0.0000    12.0000 </r>
       <r>   -26.2014     0.0000    12.0000 </r>
       <r>   -25.9946     0.0000    12.0000 </r>
       <r>   -25.7877    -0.0000    12.0000 </r>
       <r>   -25.5808    -0.0000    12.0000 </r>
       <r>   -25.3740    -0.0000    12.0000 </r>
       <r>   -25.1671    -0.0000    12.0000 </r>
       <r>   -24.9603    -0.0000    12.0000 </r>
       <r>   -24.7534    -0.0004    11.9999 </r>
       <r>   -24.5466    -0.0587    11.9878 </r>
       <r>   -24.3397    -0.4492    11.8948 </r>
       <r>   -24.1329     5.0659    12.9427 </r>
       <r>   -23.9260    14.3410    15.9093 </r>
       <r>   -23.7191    29.2495    21.9597 </r>
       <r>   -23.5123    39.3276    30.0948 </r>
       <r>   -23.3054    44.4550    39.2905 </r>
       <r>   -23.0986    30.3668    45.5720 </r>
       <r>   -22.8917    10.2630    47.6950 </r>
       <r>   -22.6849     1.6145    48.0290 </r>
       <r>   -22.4780    -0.1006    48.0082 </r>
       <r>   -22.2712    -0.0390    48.0001 </r>
       <r>   -22.0643    -0.0005    48.0000 </r>
       <r>   -21.8574    -0.0000    48.0000 </r>
       <r>   -21.6506    -0.0000    48.0000 </r>
       <r>   -21.4437    -0.0000    48.0000 </r>
       <r>   -21.2369     0.0000    48.0000 </r>
       <r>   -21.0300     0.0000    48.0000 </r>
       <r>   -20.8232     0.0000    48.0000 </r>
       <r>   -20.6163     0.0000    48.0000 </r>
       <r>   -20.4095     0.0000    48.0000 </r>
       <r>   -20.2026     0.0000    48.0000 </r>
       <r>   -19.9958     0.0000    48.0000 </r>
       <r>   -19.7889     0.0000    48.0000 </r>
       <r>   -19.5820     0.0000    48.0000 </r>
       <r>   -19.3752     0.0000    48.0000 </r>
       <r>   -19.1683     0.0000    48.0000 </r>
       <r>   -18.9615     0.0000    48.0000 </r>
       <r>   -18.7546     0.0000    48.0000 </r>
       <r>   -18.5478     0.0000    48.0000 </r>
       <r>   -18.3409     0.0000    48.0000 </r>
       <r>   -18.1341     0.0000    48.0000 </r>
       <r>   -17.9272     0.0000    48.0000 </r>
       <r>   -17.7203     0.0000    48.0000 </r>
       <r>   -17.5135     0.0000    48.0000 </r>
       <r>   -17.3066     0.0000    48.0000 </r>
       <r>   -17.0998     0.0000    48.0000 </r>
       <r>   -16.8929     0.0000    48.0000 </r>
       <r>   -16.6861     0.0000    48.0000 </r>
       <r>   -16.4792     0.0000    48.0000 </r>
       <r>   -16.2724     0.0000    48.0000 </r>
       <r>   -16.0655     0.0000    48.0000 </r>
       <r>   -15.8586     0.0000    48.0000 </r>
       <r>   -15.6518     0.0000    48.0000 </r>
       <r>   -15.4449     0.0000    48.0000 </r>
       <r>   -15.2381     0.0000    48.0000 </r>
       <r>   -15.0312     0.0000    48.0000 </r>
       <r>   -14.8244     0.0000    48.0000 </r>
       <r>   -14.6175     0.0000    48.0000 </r>
       <r>   -14.4107     0.0000    48.0000 </r>
       <r>   -14.2038     0.0000    48.0000 </r>
       <r>   -13.9970     0.0000    48.0000 </r>
       <r>   -13.7901     0.0000    48.0000 </r>
       <r>   -13.5832     0.0000    48.0000 </r>
       <r>   -13.3764     0.0000    48.0000 </r>
       <r>   -13.1695     0.0000    48.0000 </r>
       <r>   -12.9627     0.0000    48.0000 </r>
       <r>   -12.7558     0.0000    48.0000 </r>
       <r>   -12.5490     0.0000    48.0000 </r>
       <r>   -12.3421     0.0000    48.0000 </r>
       <r>   -12.1353     0.0000    48.0000 </r>
       <r>   -11.9284     0.0000    48.0000 </r>
       <r>   -11.7215     0.0000    48.0000 </r>
       <r>   -11.5147     0.0000    48.0000 </r>
       <r>   -11.3078     0.0000    48.0000 </r>
       <r>   -11.1010     0.0000    48.0000 </r>
       <r>   -10.8941     0.0000    48.0000 </r>
       <r>   -10.6873     0.0000    48.0000 </r>
       <r>   -10.4804     0.0000    48.0000 </r>
       <r>   -10.2736     0.0000    48.0000 </r>
       <r>   -10.0667     0.0000    48.0000 </r>
       <r>    -9.8599     0.0000    48.0000 </r>
       <r>    -9.6530     0.0000    48.0000 </r>
       <r>    -9.4461     0.0000    48.0000 </r>
       <r>    -9.2393     0.0000    48.0000 </r>
       <r>    -9.0324     0.0000    48.0000 </r>
       <r>    -8.8256     0.0000    48.0000 </r>
       <r>    -8.6187     0.0000    48.0000 </r>
       <r>    -8.4119     0.0000    48.0000 </r>
       <r>    -8.2050     0.0000    48.0000 </r>
       <r>    -7.9982     0.0000    48.0000 </r>
       <r>    -7.7913     0.0000    48.0000 </r>
       <r>    -7.5844     0.0000    48.0000 </r>
       <r>    -7.3776     0.0000    48.0000 </r>
       <r>    -7.1707     0.0000    48.0000 </r>
       <r>    -6.9639     0.0000    48.0000 </r>
       <r>    -6.7570     0.0000    48.0000 </r>
       <r>    -6.5502     0.0000    48.0000 </r>
       <r>    -6.3433     0.0000    48.0000 </r>
       <r>    -6.1365     0.0000    48.0000 </r>
       <r>    -5.9296     0.0000    48.0000 </r>
       <r>    -5.7227     0.0000    48.0000 </r>
       <r>    -5.5159     0.0000    48.0000 </r>
       <r>    -5.3090     0.0000    48.0000 </r>
       <r>    -5.1022     0.0000    48.0000 </r>
       <r>    -4.8953     0.0000    48.0000 </r>
       <r>    -4.6885     0.0000    48.0000 </r>
       <r>    -4.4816     0.0000    48.0000 </r>
       <r>    -4.2748     0.0000    48.0000 </r>
       <r>    -4.0679     0.0000    48.0000 </r>
       <r>    -3.8611     0.0000    48.0000 </r>
       <r>    -3.6542     0.0000    48.0000 </r>
       <r>    -3.4473     0.0000    48.0000 </r>
       <r>    -3.2405     0.0000    48.0000 </r>
       <r>    -3.0336     0.0000    48.0000 </r>
       <r>    -2.8268     0.0000    48.0000 </r>
       <r>    -2.6199     0.0000    48.0000 </r>
       <r>    -2.4131     0.0000    48.0000 </r>
       <r>    -2.2062     0.0000    48.0000 </r>
       <r>    -1.9994    -0.0000    48.0000 </r>
       <r>    -1.7925    -0.0000    48.0000 </r>
       <r>    -1.5856    -0.0000    48.0000 </r>
       <r>    -1.3788    -0.0000    48.0000 </r>
       <r>    -1.1719    -0.0000    48.0000 </r>
       <r>    -0.9651    -0.0000    48.0000 </r>
       <r>    -0.7582    -0.0000    48.0000 </r>
       <r>    -0.5514    -0.0022    47.9995 </r>
       <r>    -0.3445    -0.0185    47.9957 </r>
       <r>    -0.1377     0.1595    48.0287 </r>
       <r>     0.0692     0.8996    48.2148 </r>
       <r>     0.2760     1.2612    48.4757 </r>
       <r>     0.4829     1.6984    48.8270 </r>
       <r>     0.6898     2.1078    49.2630 </r>
       <r>     0.8966     1.7717    49.6295 </r>
       <r>     1.1035     2.8828    50.2258 </r>
       <r>     1.3103     3.1980    50.8873 </r>
       <r>     1.5172     3.2968    51.5693 </r>
       <r>     1.7240     3.7385    52.3426 </r>
       <r>     1.9309     4.5790    53.2898 </r>
       <r>     2.1377     5.2584    54.3776 </r>
       <r>     2.3446     6.5176    55.7258 </r>
       <r>     2.5515    10.7847    57.9566 </r>
       <r>     2.7583    17.3400    61.5435 </r>
       <r>     2.9652    22.0014    66.0946 </r>
       <r>     3.1720    25.1841    71.3041 </r>
       <r>     3.3789    28.7648    77.2542 </r>
       <r>     3.5857    30.9911    83.6649 </r>
       <r>     3.7926    30.6277    90.0004 </r>
       <r>     3.9994    30.7615    96.3635 </r>
       <r>     4.2063    29.9583   102.5606 </r>
       <r>     4.4132    28.2528   108.4048 </r>
       <r>     4.6200    27.2774   114.0473 </r>
       <r>     4.8269    32.5472   120.7798 </r>
       <r>     5.0337    38.7588   128.7973 </r>
       <r>     5.2406    42.4890   137.5864 </r>
       <r>     5.4474    40.4219   145.9478 </r>
       <r>     5.6543    38.1109   153.8313 </r>
       <r>     5.8611    39.3417   161.9693 </r>
       <r>     6.0680    42.7569   170.8138 </r>
       <r>     6.2748    42.6714   179.6406 </r>
       <r>     6.4817    40.7812   188.0764 </r>
       <r>     6.6886    37.1308   195.7571 </r>
       <r>     6.8954    31.0645   202.1829 </r>
       <r>     7.1023    26.6940   207.7047 </r>
       <r>     7.3091    21.6433   212.1817 </r>
       <r>     7.5160    18.7587   216.0621 </r>
       <r>     7.7228    18.6268   219.9151 </r>
       <r>     7.9297    20.9372   224.2461 </r>
       <r>     8.1365    24.8831   229.3933 </r>
       <r>     8.3434    25.7534   234.7205 </r>
       <r>     8.5503    18.3554   238.5174 </r>
       <r>     8.7571     6.9079   239.9464 </r>
       <r>     8.9640     0.4029   240.0297 </r>
       <r>     9.1708    -0.1351   240.0017 </r>
       <r>     9.3777    -0.0084   240.0000 </r>
       <r>     9.5845    -0.0001   240.0000 </r>
       <r>     9.7914    -0.0000   240.0000 </r>
       <r>     9.9982    -0.0000   240.0000 </r>
       <r>    10.2051    -0.0000   240.0000 </r>
       <r>    10.4119     0.0000   240.0000 </r>
       <r>    10.6188     0.0000   240.0000 </r>
       <r>    10.8257     0.0000   240.0000 </r>
       <r>    11.0325     0.0000   240.0000 </r>
       <r>    11.2394     0.0000   240.0000 </r>
       <r>    11.4462     0.0000   240.0000 </r>
       <r>    11.6531     0.0000   240.0000 </r>
      </set>
     </set>
    </array>
   </total>
  </dos>
 </calculation>
 <structure name="finalpos" >
  <crystal>
   <varray name="basis" >
    <v>      -3.17073470      -3.14360231      -3.20704096 </v>
    <v>       1.53073237       1.48559763      -7.87796442 </v>
    <v>       7.94301350      -7.87114785      -1.60675709 </v>
   </varray>
   <i name="volume">    469.64379181 </i>
   <varray name="rec_basis" >
    <v>      -0.13711587      -0.12800183      -0.05078049 </v>
    <v>       0.04299448       0.06508799      -0.10630822 </v>
    <v>       0.06287650      -0.06363984       0.00021629 </v>
   </varray>
  </crystal>
  <varray name="positions" >
   <v>       0.96475108       0.92983191       0.39635446 </v>
   <v>       0.63122320       0.26411684       0.40185182 </v>
   <v>       0.49709011       0.00830264      -0.00817206 </v>
   <v>      -0.00282060       0.00762102       0.00036345 </v>
   <v>       0.08694567       0.21278790       0.79772498 </v>
   <v>       0.00602116       0.06748532       0.59704383 </v>
   <v>       0.90437067       0.79987510       0.20261011 </v>
   <v>       0.80897613       0.59138104       0.40204860 </v>
   <v>       0.72917021       0.47361075       0.19795796 </v>
   <v>       0.65871094       0.35039751      -0.00408524 </v>
   <v>       0.36750855       0.71798052       0.60218738 </v>
   <v>       0.12544984       0.27279883       0.39940472 </v>
   <v>       0.82975442       0.67067528       0.00018904 </v>
   <v>       0.93243199       0.86994486       0.80032500 </v>
   <v>       0.55844083       0.14005453       0.19720809 </v>
   <v>       0.40586129       0.79696995       0.19884451 </v>
   <v>       0.43423868       0.86825579       0.78422812 </v>
   <v>       0.30492718       0.59553652       0.40697180 </v>
   <v>       0.87140344       0.71057915       0.60099069 </v>
   <v>       0.46077938       0.93411017       0.41990869 </v>
   <v>       0.17454091       0.34510117       0.00133127 </v>
   <v>       0.27768717       0.53027249       0.79306584 </v>
   <v>       0.25655336       0.33853454       0.59771536 </v>
   <v>       0.05700540       0.15310853       0.20645681 </v>
   <v>       0.76082025       0.52635668       0.80510218 </v>
   <v>       0.70077102       0.40990639       0.60641520 </v>
   <v>       0.60033501       0.21278439       0.79980092 </v>
   <v>       0.33611245       0.65655013      -0.00331919 </v>
   <v>       0.22760692       0.47840338       0.19947567 </v>
  </varray>
 </structure>
</modeling>
