Nb - Mo - Ta - Ti - V SQS               
           1
    -3.160000   -3.160000   -3.160000
     1.580000    1.580000   -7.900000
     7.900000   -7.900000   -1.580000
   Nb   Mo   Ta   Ti   V 
   6   6   6   6   5
Direct configuration=     1
   0.96666667  0.93333333  0.40000000
   0.63333333  0.26666667  0.40000000
   0.50000000  0.00000000  0.00000000
   0.00000000  0.00000000  0.00000000
   0.10000000  0.20000000  0.80000000
   0.03333333  0.06666667  0.60000000
   0.90000000  0.80000000  0.20000000
   0.80000000  0.60000000  0.40000000
   0.73333333  0.46666667  0.20000000
   0.66666667  0.33333333  0.00000000
   0.36666667  0.73333333  0.60000000
   0.13333333  0.26666667  0.40000000
   0.83333333  0.66666667  0.00000000
   0.93333333  0.86666667  0.80000000
   0.56666667  0.13333333  0.20000000
   0.40000000  0.80000000  0.20000000
   0.43333333  0.86666667  0.80000000
   0.30000000  0.60000000  0.40000000
   0.86666667  0.73333333  0.60000000
   0.46666667  0.93333333  0.40000000
   0.16666667  0.33333333  0.00000000
   0.26666667  0.53333333  0.80000000
   0.20000000  0.40000000  0.60000000
   0.06666667  0.13333333  0.20000000
   0.76666667  0.53333333  0.80000000
   0.70000000  0.40000000  0.60000000
   0.60000000  0.20000000  0.80000000
   0.33333333  0.66666667  0.00000000
   0.23333333  0.46666667  0.20000000
Nb - Mo - Ta - Ti - V SQS               
           1
    -3.143339   -3.139651   -3.153411
     1.559664    1.567585   -7.869282
     7.863853   -7.865144   -1.566194
   Nb   Mo   Ta   Ti   V 
   6   6   6   6   5
Direct configuration=     2
   0.96686704  0.93330228  0.39791943
   0.63272918  0.26588182  0.40253922
   0.49923791  0.00238170 -0.00221774
  -0.00086208  0.00058053 -0.00020747
   0.09384897  0.20549142  0.79874177
   0.03457772  0.06872014  0.59877904
   0.90221984  0.79755297  0.20212823
   0.80373517  0.59527719  0.40009296
   0.73308389  0.46707899  0.19783057
   0.66298309  0.33876275 -0.00105614
   0.36721156  0.72877694  0.60083147
   0.12956683  0.27185133  0.39900973
   0.83417589  0.66293658  0.00139147
   0.93386885  0.86738128  0.80083100
   0.56474060  0.13545612  0.19860640
   0.40379595  0.79450240  0.19806372
   0.43605768  0.86209261  0.79686645
   0.30013796  0.60045742  0.40269889
   0.86470073  0.73186461  0.59986922
   0.46406192  0.93264604  0.40388617
   0.16969016  0.33444420  0.00012453
   0.27048253  0.53394054  0.79831270
   0.20095550  0.39448791  0.59941739
   0.06531840  0.13825876  0.20312499
   0.76697274  0.53008741  0.80022145
   0.69942780  0.40638594  0.60129767
   0.60082885  0.20254416  0.80049401
   0.33523840  0.66155088  0.00053967
   0.23101360  0.46863843  0.19986323
Nb - Mo - Ta - Ti - V SQS               
           1
    -3.130689   -3.124200   -3.148408
     1.544225    1.558159   -7.845959
     7.836409   -7.838680   -1.555712
   Nb   Mo   Ta   Ti   V 
   6   6   6   6   5
Direct configuration=     3
   0.96701975  0.93327715  0.39633266
   0.63227008  0.26528511  0.40447541
   0.49865095  0.00419832 -0.00390838
  -0.00152128  0.00102419 -0.00036563
   0.08914264  0.20968660  0.79778315
   0.03552297  0.07028492  0.59784885
   0.90391951  0.79568501  0.20375084
   0.80659587  0.59167014  0.40016271
   0.73289235  0.46739254  0.19617612
   0.66016014  0.34290829 -0.00186021
   0.36763712  0.72530048  0.60146396
   0.12668112  0.27581026  0.39825579
   0.83482698  0.66009060  0.00245142
   0.93427618  0.86792647  0.80146514
   0.56326593  0.13707685  0.19754400
   0.40670438  0.79030295  0.19658554
   0.43814614  0.85859815  0.79447530
   0.30024267  0.60080788  0.40475746
   0.86320335  0.73074589  0.59976857
   0.46207590  0.93212656  0.40684932
   0.17199543  0.33528884  0.00022046
   0.27339337  0.53439902  0.79702676
   0.20169626  0.39028103  0.59897110
   0.06427945  0.14201994  0.20550998
   0.76721320  0.52761068  0.80038915
   0.69897784  0.41125959  0.60228971
   0.60145617  0.20448476  0.80087190
   0.33670321  0.65764609  0.00094963
   0.22923896  0.47014506  0.19975926
Nb - Mo - Ta - Ti - V SQS               
           1
    -3.155741   -3.145106   -3.182973
     1.545345    1.559345   -7.911753
     7.901773   -7.898849   -1.567776
   Nb   Mo   Ta   Ti   V 
   6   6   6   6   5
Direct configuration=     4
   0.96626359  0.93337410  0.39537262
   0.63093941  0.26441243  0.40657902
   0.49878154  0.00497983 -0.00587496
  -0.00214199  0.00203675 -0.00022333
   0.08522530  0.21303168  0.79687143
   0.03631642  0.07165902  0.59684717
   0.90541532  0.79413824  0.20461402
   0.80848442  0.58959761  0.40048810
   0.73248775  0.46679255  0.19531418
   0.65725344  0.34661387 -0.00301710
   0.36861763  0.72171411  0.60211372
   0.12436600  0.27888656  0.39772920
   0.83562294  0.65899038  0.00288785
   0.93412837  0.86846439  0.80196860
   0.56147664  0.13843510  0.19686906
   0.40878741  0.78756765  0.19557160
   0.43952304  0.85619609  0.79197413
   0.30142391  0.60019520  0.40661424
   0.86126674  0.72981424  0.59972415
   0.46087247  0.93175503  0.41004099
   0.17500955  0.33624679  0.00021635
   0.27665811  0.53420448  0.79575443
   0.20389982  0.38492499  0.59850607
   0.06310066  0.14582439  0.20750395
   0.76767593  0.52488551  0.80039758
   0.69784102  0.41636227  0.60385099
   0.60157341  0.20741536  0.80095314
   0.33805203  0.65296595  0.00082001
   0.22774578  0.47184876  0.19953279
Nb - Mo - Ta - Ti - V SQS               
           1
    -3.154078   -3.143719   -3.180678
     1.545271    1.559266   -7.907386
     7.897434   -7.894855   -1.566975
   Nb   Mo   Ta   Ti   V 
   6   6   6   6   5
Direct configuration=     5
   0.96631345  0.93336763  0.39543586
   0.63102677  0.26446987  0.40644051
   0.49877319  0.00492830 -0.00574545
  -0.00210091  0.00196996 -0.00023269
   0.08548402  0.21281086  0.79693154
   0.03626450  0.07156850  0.59691312
   0.90531645  0.79424033  0.20455715
   0.80835960  0.58973438  0.40046664
   0.73251432  0.46683205  0.19537095
   0.65744569  0.34636936 -0.00294086
   0.36855228  0.72195059  0.60207092
   0.12451913  0.27868359  0.39776392
   0.83557028  0.65906297  0.00285910
   0.93413819  0.86842892  0.80193544
   0.56159479  0.13834541  0.19691353
   0.40864971  0.78774810  0.19563833
   0.43943199  0.85635449  0.79213882
   0.30134590  0.60023571  0.40649194
   0.86139409  0.72987549  0.59972711
   0.46095150  0.93177947  0.40983083
   0.17481125  0.33618390  0.00021657
   0.27644312  0.53421756  0.79583816
   0.20375361  0.38527820  0.59853666
   0.06317899  0.14557356  0.20737266
   0.76764489  0.52506518  0.80039702
   0.69791687  0.41602587  0.60374820
   0.60156629  0.20722221  0.80094779
   0.33796224  0.65327454  0.00082852
   0.22784448  0.47173634  0.19954773
Nb - Mo - Ta - Ti - V SQS               
           1
    -3.156843   -3.144582   -3.185101
     1.543918    1.552390   -7.908475
     7.902013   -7.892459   -1.571339
   Nb   Mo   Ta   Ti   V 
   6   6   6   6   5
Direct configuration=     6
   0.96578061  0.93328644  0.39586277
   0.63032166  0.26437047  0.40649644
   0.49967933  0.00394240 -0.00613279
  -0.00231947  0.00251035  0.00001946
   0.08601288  0.21186096  0.79706303
   0.03630336  0.07126352  0.59683775
   0.90511505  0.79451898  0.20389265
   0.80758863  0.59117742  0.40058900
   0.73202754  0.46635596  0.19613680
   0.65752648  0.34590343 -0.00319790
   0.36878968  0.72180434  0.60209285
   0.12460375  0.27804600  0.39796760
   0.83542822  0.66077750  0.00235943
   0.93377700  0.86872672  0.80192653
   0.56152928  0.13807570  0.19720578
   0.40832729  0.78866672  0.19608753
   0.43853567  0.85715643  0.79203568
   0.30220152  0.59943092  0.40630142
   0.86117761  0.72975673  0.59970243
   0.46148174  0.93181141  0.41015168
   0.17556954  0.33636498  0.00017973
   0.27691249  0.53347842  0.79576072
   0.20537900  0.38390938  0.59836835
   0.06274769  0.14594634  0.20712973
   0.76771458  0.52494057  0.80032016
   0.69723532  0.41648197  0.60427929
   0.60121516  0.20835983  0.80078021
   0.33793601  0.65242361  0.00027910
   0.22806904  0.47198583  0.19950454
Nb - Mo - Ta - Ti - V SQS               
           1
    -3.163159   -3.146553   -3.195201
     1.540829    1.536684   -7.910965
     7.912471   -7.886986   -1.581305
   Nb   Mo   Ta   Ti   V 
   6   6   6   6   5
Direct configuration=     7
   0.96456536  0.93310049  0.39683765
   0.62871267  0.26414372  0.40662407
   0.50174943  0.00168980 -0.00701632
  -0.00281931  0.00374478  0.00059483
   0.08722261  0.20968992  0.79736423
   0.03639272  0.07056677  0.59666589
   0.90465358  0.79515704  0.20237484
   0.80582547  0.59447498  0.40086708
   0.73091897  0.46526703  0.19788605
   0.65771165  0.34483921 -0.00378450
   0.36933194  0.72146999  0.60214312
   0.12479885  0.27658871  0.39843330
   0.83509880  0.66469610  0.00121689
   0.93295184  0.86940743  0.80190584
   0.56138090  0.13745891  0.19787341
   0.40758977  0.79076510  0.19711257
   0.43648769  0.85898961  0.79179924
   0.30415617  0.59759180  0.40586719
   0.86068377  0.72948556  0.59964610
   0.46269242  0.93188344  0.41088456
   0.17729975  0.33677830  0.00009566
   0.27798553  0.53178938  0.79558460
   0.20909205  0.38078093  0.59798553
   0.06176194  0.14679887  0.20657453
   0.76787384  0.52465596  0.80014475
   0.69567944  0.41752361  0.60549163
   0.60041054  0.21095976  0.80039648
   0.33787742  0.65048030 -0.00097496
   0.22858089  0.47255584  0.19940575
Nb - Mo - Ta - Ti - V SQS               
           1
    -3.160128   -3.141193   -3.191829
     1.534162    1.528538   -7.892033
     7.902373   -7.872547   -1.578136
   Nb   Mo   Ta   Ti   V 
   6   6   6   6   5
Direct configuration=     8
   0.96498189  0.93288051  0.39685912
   0.62853278  0.26377604  0.40686360
   0.50157737  0.00200255 -0.00716350
  -0.00268655  0.00396123  0.00061575
   0.08774544  0.20919502  0.79749362
   0.03609468  0.07008507  0.59666679
   0.90452889  0.79559512  0.20221272
   0.80589346  0.59494855  0.40093801
   0.73017928  0.46626185  0.19793048
   0.65834654  0.34490716 -0.00386050
   0.36930962  0.72117033  0.60222590
   0.12417492  0.27642929  0.39866818
   0.83508149  0.66445193  0.00098990
   0.93237360  0.87028941  0.80148374
   0.56134445  0.13699486  0.19796178
   0.40739068  0.79112165  0.19748897
   0.43583362  0.85940012  0.79136781
   0.30419474  0.59750220  0.40571517
   0.86053744  0.72898488  0.59963634
   0.46276760  0.93188880  0.41146967
   0.17747022  0.33725150  0.00015346
   0.27847044  0.53099702  0.79519353
   0.21156761  0.37856606  0.59785858
   0.06096517  0.14738124  0.20671219
   0.76784102  0.52456242  0.80025672
   0.69521749  0.41805023  0.60601051
   0.60003596  0.21212908  0.80022283
   0.33819546  0.64987985 -0.00143047
   0.22870135  0.47266937  0.19945909
Nb - Mo - Ta - Ti - V SQS               
           1
    -3.158002   -3.137434   -3.189464
     1.529486    1.522824   -7.878755
     7.895290   -7.862419   -1.575913
   Nb   Mo   Ta   Ti   V 
   6   6   6   6   5
Direct configuration=     9
   0.96527459  0.93272575  0.39687427
   0.62840680  0.26351742  0.40703188
   0.50145625  0.00222256 -0.00726693
  -0.00259345  0.00411346  0.00063045
   0.08811301  0.20884686  0.79758460
   0.03588569  0.06974629  0.59666742
   0.90444095  0.79590328  0.20209879
   0.80594092  0.59528163  0.40098782
   0.72965915  0.46696163  0.19796155
   0.65879233  0.34495491 -0.00391382
   0.36929419  0.72095955  0.60228406
   0.12373696  0.27631719  0.39883313
   0.83506941  0.66428021  0.00083045
   0.93196672  0.87090985  0.80118711
   0.56131920  0.13666845  0.19802388
   0.40725078  0.79137240  0.19775334
   0.43537380  0.85968896  0.79106465
   0.30422183  0.59743918  0.40560839
   0.86043502  0.72863274  0.59962950
   0.46282065  0.93189250  0.41188071
   0.17758964  0.33758431  0.00019405
   0.27881137  0.53043971  0.79491891
   0.21330763  0.37700800  0.59776981
   0.06040526  0.14779092  0.20680876
   0.76781808  0.52449661  0.80033537
   0.69489294  0.41842062  0.60637493
   0.59977202  0.21295159  0.80010072
   0.33841903  0.64945754 -0.00175038
   0.22878590  0.47274921  0.19949657
Nb - Mo - Ta - Ti - V SQS               
           1
    -3.169427   -3.148396   -3.201324
     1.533165    1.527306   -7.905389
     7.923467   -7.890820   -1.580474
   Nb   Mo   Ta   Ti   V 
   6   6   6   6   5
Direct configuration=    10
   0.96551218  0.93270235  0.39679961
   0.62849397  0.26334649  0.40717241
   0.50111404  0.00264283 -0.00719488
  -0.00235141  0.00402546  0.00054315
   0.08838171  0.20908735  0.79760476
   0.03537181  0.06962272  0.59666354
   0.90448974  0.79601531  0.20225019
   0.80613754  0.59493474  0.40104760
   0.72968332  0.46739033  0.19778850
   0.65898521  0.34519854 -0.00383908
   0.36915031  0.72084315  0.60225670
   0.12352404  0.27637329  0.39890303
   0.83496289  0.66390167  0.00071024
   0.93156135  0.87101944  0.80095617
   0.56111385  0.13660901  0.19802744
   0.40708044  0.79152283  0.19764496
   0.43552330  0.85973571  0.79084748
   0.30394002  0.59760460  0.40569712
   0.86054520  0.72836474  0.59966106
   0.46276361  0.93196716  0.41220546
   0.17743821  0.33772176  0.00026772
   0.27867065  0.53035066  0.79471966
   0.21451086  0.37595755  0.59781184
   0.06012345  0.14805051  0.20694613
   0.76782394  0.52455017  0.80042407
   0.69513431  0.41829285  0.60642246
   0.59967788  0.21307861  0.79996189
   0.33851891  0.64963627 -0.00181735
   0.22878534  0.47278722  0.19951811
Nb - Mo - Ta - Ti - V SQS               
           1
    -3.166488   -3.145576   -3.198272
     1.532218    1.526153   -7.898537
     7.916218   -7.883513   -1.579301
   Nb   Mo   Ta   Ti   V 
   6   6   6   6   5
Direct configuration=    11
   0.96545127  0.93270836  0.39681875
   0.62847161  0.26339032  0.40713639
   0.50120180  0.00253504 -0.00721336
  -0.00241347  0.00404803  0.00056553
   0.08831284  0.20902568  0.79759959
   0.03550354  0.06965440  0.59666454
   0.90447724  0.79598658  0.20221137
   0.80608711  0.59502370  0.40103228
   0.72967715  0.46728039  0.19783286
   0.65893578  0.34513606 -0.00385825
   0.36918719  0.72087300  0.60226372
   0.12357863  0.27635890  0.39888511
   0.83499017  0.66399875  0.00074106
   0.93166528  0.87099134  0.80101538
   0.56116649  0.13662425  0.19802653
   0.40712412  0.79148425  0.19767275
   0.43548498  0.85972373  0.79090316
   0.30401228  0.59756217  0.40567437
   0.86051693  0.72843346  0.59965298
   0.46277824  0.93194800  0.41212220
   0.17747704  0.33768651  0.00024883
   0.27870672  0.53037350  0.79477074
   0.21420231  0.37622695  0.59780107
   0.06019572  0.14798393  0.20691092
   0.76782244  0.52453643  0.80040133
   0.69507242  0.41832562  0.60641027
   0.59970203  0.21304604  0.79999748
   0.33849332  0.64959044 -0.00180019
   0.22878549  0.47277747  0.19951259
Nb - Mo - Ta - Ti - V SQS               
           1
    -3.166356   -3.145145   -3.198686
     1.530860    1.525325   -7.897668
     7.916568   -7.884016   -1.578621
   Nb   Mo   Ta   Ti   V 
   6   6   6   6   5
Direct configuration=    12
   0.96569969  0.93264336  0.39670534
   0.62853165  0.26331474  0.40717599
   0.50101861  0.00287138 -0.00719183
  -0.00230661  0.00398543  0.00046603
   0.08850718  0.20919132  0.79766119
   0.03498695  0.06951345  0.59664727
   0.90448667  0.79609547  0.20233969
   0.80629050  0.59467736  0.40105797
   0.72961928  0.46772057  0.19769312
   0.65905101  0.34536767 -0.00378009
   0.36904202  0.72073682  0.60221749
   0.12330168  0.27646791  0.39894842
   0.83481232  0.66383315  0.00067691
   0.93134856  0.87112635  0.80088816
   0.56101100  0.13659699  0.19803074
   0.40709696  0.79156693  0.19758539
   0.43548673  0.85978102  0.79067437
   0.30382123  0.59767901  0.40578808
   0.86066278  0.72809190  0.59963693
   0.46275384  0.93198495  0.41243784
   0.17740250  0.33783460  0.00035394
   0.27863031  0.53027576  0.79457580
   0.21548097  0.37511125  0.59777718
   0.05984903  0.14830238  0.20706740
   0.76773281  0.52456581  0.80051708
   0.69528482  0.41823343  0.60644763
   0.59969913  0.21317697  0.79991947
   0.33860699  0.64972777 -0.00186029
   0.22875803  0.47285957  0.19954277
Nb - Mo - Ta - Ti - V SQS               
           1
    -3.165960   -3.143852   -3.199927
     1.526784    1.522842   -7.895061
     7.917617   -7.885525   -1.576582
   Nb   Mo   Ta   Ti   V 
   6   6   6   6   5
Direct configuration=    13
   0.96644503  0.93244824  0.39636513
   0.62871185  0.26308795  0.40729478
   0.50046876  0.00388065 -0.00712724
  -0.00198596  0.00379753  0.00016756
   0.08909012  0.20968832  0.79784602
   0.03343721  0.06909061  0.59659541
   0.90451490  0.79642226  0.20272464
   0.80690099  0.59363810  0.40113503
   0.72944531  0.46904132  0.19727397
   0.65939654  0.34606264 -0.00354559
   0.36860660  0.72032822  0.60207877
   0.12247073  0.27679508  0.39913832
   0.83427886  0.66333629  0.00048445
   0.93039822  0.87153151  0.80050653
   0.56054453  0.13651522  0.19804337
   0.40701541  0.79181498  0.19732333
   0.43549195  0.85995289  0.78998806
   0.30324797  0.59802965  0.40612917
   0.86110062  0.72706696  0.59958879
   0.46268062  0.93209590  0.41338472
   0.17717876  0.33827900  0.00066924
   0.27840114  0.52998246  0.79399100
   0.21931797  0.37176317  0.59770550
   0.05880870  0.14925803  0.20753685
   0.76746390  0.52465402  0.80086431
   0.69592211  0.41795677  0.60655972
   0.59969035  0.21356983  0.79968545
   0.33894793  0.65013982 -0.00204058
   0.22867558  0.47310592  0.19963331
Nb - Mo - Ta - Ti - V SQS               
           1
    -3.165168   -3.141267   -3.202408
     1.518634    1.517875   -7.889847
     7.919714   -7.888544   -1.572504
   Nb   Mo   Ta   Ti   V 
   6   6   6   6   5
Direct configuration=    14
   0.96793619  0.93205724  0.39568486
   0.62907265  0.26263407  0.40753231
   0.49936738  0.00590071 -0.00699793
  -0.00134432  0.00342118 -0.00042930
   0.09025546  0.21068275  0.79821579
   0.03033786  0.06824512  0.59649144
   0.90457091  0.79707643  0.20349449
   0.80812371  0.59155806  0.40128897
   0.72909531  0.47168431  0.19643605
   0.66008669  0.34745338 -0.00307649
   0.36773620  0.71951064  0.60180125
   0.12080809  0.27745030  0.39951802
   0.83321249  0.66234211  0.00009943
   0.92849660  0.87234255  0.79974338
   0.55961156  0.13635181  0.19806854
   0.40685189  0.79231128  0.19679934
   0.43550206  0.86029645  0.78861570
   0.30210080  0.59873181  0.40681124
   0.86197794  0.72501560  0.59949236
   0.46253411  0.93231849  0.41527817
   0.17673059  0.33916863  0.00129980
   0.27794308  0.52939529  0.79282151
   0.22699812  0.36506110  0.59756192
   0.05672634  0.15117125  0.20847566
   0.76692590  0.52483086  0.80155865
   0.69719733  0.41740286  0.60678386
   0.59967216  0.21435589  0.79921757
   0.33962928  0.65096415 -0.00240099
   0.22851030  0.47359901  0.19981440
Nb - Mo - Ta - Ti - V SQS               
           1
    -3.165756   -3.143188   -3.200564
     1.524690    1.521565   -7.893721
     7.918156   -7.886301   -1.575534
   Nb   Mo   Ta   Ti   V 
   6   6   6   6   5
Direct configuration=    15
   0.96682754  0.93234889  0.39619006
   0.62880397  0.26297174  0.40735592
   0.50018817  0.00439755 -0.00709418
  -0.00182157  0.00370160  0.00001402
   0.08939042  0.20994325  0.79794090
   0.03264045  0.06887306  0.59656905
   0.90452994  0.79658950  0.20292258
   0.80721264  0.59310577  0.40117483
   0.72935843  0.46971840  0.19705806
   0.65957525  0.34641885 -0.00342518
   0.36838222  0.72011865  0.60200757
   0.12204450  0.27696216  0.39923604
   0.83400397  0.66308147  0.00038564
   0.92991089  0.87173886  0.80031025
   0.56030478  0.13647304  0.19804994
   0.40697402  0.79194223  0.19718848
   0.43549504  0.86004142  0.78963497
   0.30295413  0.59820880  0.40630462
   0.86132363  0.72654196  0.59956421
   0.46264309  0.93215210  0.41387179
   0.17706462  0.33850643  0.00083136
   0.27828297  0.52983239  0.79369028
   0.22128264  0.37004949  0.59766891
   0.05827604  0.14974691  0.20777825
   0.76732589  0.52469885  0.80104295
   0.69624893  0.41781526  0.60661735
   0.59968658  0.21377132  0.79956497
   0.33912382  0.65035130 -0.00213348
   0.22863367  0.47323207  0.19967983
Nb - Mo - Ta - Ti - V SQS               
           1
    -3.165363   -3.142678   -3.201501
     1.523971    1.518725   -7.892960
     7.918919   -7.885548   -1.577206
   Nb   Mo   Ta   Ti   V 
   6   6   6   6   5
Direct configuration=    16
   0.96676895  0.93226091  0.39619299
   0.62873205  0.26304047  0.40724434
   0.50024208  0.00446115 -0.00717724
  -0.00180079  0.00379127 -0.00000517
   0.08958971  0.21000377  0.79803849
   0.03167876  0.06871367  0.59660274
   0.90453175  0.79666746  0.20282940
   0.80712995  0.59313496  0.40123876
   0.72925049  0.46983712  0.19718571
   0.65951893  0.34651355 -0.00341871
   0.36829520  0.71998274  0.60196378
   0.12205758  0.27681480  0.39932408
   0.83377818  0.66366552  0.00020221
   0.92972782  0.87174238  0.80021079
   0.56014028  0.13661188  0.19815044
   0.40687507  0.79224178  0.19723950
   0.43523456  0.86032072  0.78941267
   0.30305810  0.59802409  0.40628713
   0.86160343  0.72600774  0.59955727
   0.46278761  0.93220306  0.41420623
   0.17710468  0.33872555  0.00096703
   0.27821203  0.52969946  0.79357331
   0.22310472  0.36852802  0.59762500
   0.05793961  0.15012316  0.20778271
   0.76713625  0.52475323  0.80116108
   0.69655386  0.41752439  0.60668887
   0.59976226  0.21392933  0.79947889
   0.33903566  0.65052826 -0.00226357
   0.22861789  0.47348288  0.19970127
Nb - Mo - Ta - Ti - V SQS               
           1
    -3.164182   -3.141147   -3.204310
     1.521816    1.510203   -7.890678
     7.921211   -7.883288   -1.582224
   Nb   Mo   Ta   Ti   V 
   6   6   6   6   5
Direct configuration=    17
   0.96659328  0.93199693  0.39620183
   0.62851614  0.26324684  0.40690959
   0.50040371  0.00465205 -0.00742644
  -0.00173855  0.00406034 -0.00006278
   0.09018759  0.21018523  0.79833126
   0.02879371  0.06823576  0.59670384
   0.90453703  0.79690146  0.20254982
   0.80688185  0.59322254  0.40143052
   0.72892655  0.47019335  0.19756864
   0.65934982  0.34679772 -0.00339935
   0.36803429  0.71957497  0.60183246
   0.12209704  0.27637254  0.39958828
   0.83309994  0.66541843 -0.00034834
   0.92917853  0.87175310  0.79991238
   0.55964659  0.13702853  0.19845188
   0.40657785  0.79314071  0.19739245
   0.43445263  0.86115916  0.78874565
   0.30337026  0.59746974  0.40623472
   0.86244358  0.72440451  0.59953666
   0.46322124  0.93235565  0.41520956
   0.17722465  0.33938300  0.00137397
   0.27799934  0.52930064  0.79322244
   0.22857325  0.36396149  0.59749393
   0.05692976  0.15125238  0.20779594
   0.76656728  0.52491643  0.80151543
   0.69746911  0.41665133  0.60690355
   0.59998906  0.21440355  0.79922060
   0.33877088  0.65105943 -0.00265394
   0.22857026  0.47423554  0.19976547
Nb - Mo - Ta - Ti - V SQS               
           1
    -3.161821   -3.138086   -3.209928
     1.517505    1.493161   -7.886113
     7.925793   -7.878768   -1.592259
   Nb   Mo   Ta   Ti   V 
   6   6   6   6   5
Direct configuration=    18
   0.96624253  0.93146864  0.39621970
   0.62808348  0.26366067  0.40623989
   0.50072637  0.00503442 -0.00792499
  -0.00161477  0.00459899 -0.00017822
   0.09138334  0.21054748  0.79891668
   0.02302366  0.06728153  0.59690631
   0.90454682  0.79737030  0.20199048
   0.80638544  0.59339778  0.40181396
   0.72827788  0.47090613  0.19833418
   0.65901082  0.34736670 -0.00336086
   0.36751328  0.71875913  0.60157013
   0.12217729  0.27548679  0.40011704
   0.83173834  0.66892882 -0.00145089
   0.92807948  0.87177552  0.79931553
   0.55865817  0.13786253  0.19905439
   0.40598111  0.79494018  0.19769762
   0.43288585  0.86283925  0.78741088
   0.30399609  0.59635987  0.40613038
   0.86412828  0.72119447  0.59949679
   0.46408901  0.93265916  0.41721610
   0.17746327  0.34069832  0.00218731
   0.27757463  0.52850305  0.79252103
   0.23952417  0.35481563  0.59723574
   0.05490678  0.15351372  0.20782142
   0.76542892  0.52524307  0.80222398
   0.69930238  0.41490251  0.60733366
   0.60044138  0.21535303  0.79870363
   0.33823958  0.65212354 -0.00343511
   0.22847310  0.47574212  0.19989326
Nb - Mo - Ta - Ti - V SQS               
           1
    -3.165506   -3.140964   -3.213649
     1.518418    1.490726   -7.890693
     7.935893   -7.885134   -1.595795
   Nb   Mo   Ta   Ti   V 
   6   6   6   6   5
Direct configuration=    19
   0.96617289  0.93130386  0.39618880
   0.62833919  0.26362894  0.40596316
   0.50042799  0.00535531 -0.00799928
  -0.00162218  0.00490620 -0.00007855
   0.09135750  0.21069351  0.79895525
   0.02121498  0.06719214  0.59699848
   0.90448468  0.79764242  0.20186613
   0.80648691  0.59344262  0.40187498
   0.72805873  0.47133534  0.19839532
   0.65907134  0.34763854 -0.00341243
   0.36741945  0.71851710  0.60157655
   0.12234545  0.27508942  0.40022621
   0.83160071  0.66928768 -0.00153408
   0.92804331  0.87179631  0.79911382
   0.55841750  0.13811280  0.19909879
   0.40583642  0.79532325  0.19787196
   0.43263616  0.86330465  0.78700337
   0.30404789  0.59619423  0.40610105
   0.86472539  0.72016348  0.59953897
   0.46403206  0.93278825  0.41769497
   0.17725287  0.34125123  0.00231832
   0.27750609  0.52842892  0.79245659
   0.24230553  0.35240331  0.59729234
   0.05464675  0.15385451  0.20774895
   0.76499522  0.52531408  0.80246609
   0.69980137  0.41428140  0.60737045
   0.60065639  0.21542472  0.79865699
   0.33804042  0.65250974 -0.00362534
   0.22836565  0.47614937  0.19987215
Nb - Mo - Ta - Ti - V SQS               
           1
    -3.168171   -3.143045   -3.216340
     1.519078    1.488966   -7.894005
     7.943197   -7.889739   -1.598352
   Nb   Mo   Ta   Ti   V 
   6   6   6   6   5
Direct configuration=    20
   0.96612262  0.93118476  0.39616650
   0.62852385  0.26360607  0.40576327
   0.50021233  0.00558732 -0.00805301
  -0.00162760  0.00512825 -0.00000661
   0.09133881  0.21079907  0.79898309
   0.01990846  0.06712757  0.59706501
   0.90443968  0.79783917  0.20177626
   0.80656021  0.59347501  0.40191906
   0.72790031  0.47164560  0.19843942
   0.65911497  0.34783506 -0.00344973
   0.36735173  0.71834214  0.60158121
   0.12246708  0.27480213  0.40030515
   0.83150116  0.66954713 -0.00159423
   0.92801712  0.87181140  0.79896811
   0.55824359  0.13829371  0.19913082
   0.40573183  0.79560013  0.19799784
   0.43245553  0.86364121  0.78670890
   0.30408536  0.59607449  0.40607989
   0.86515705  0.71941815  0.59956963
   0.46399101  0.93288144  0.41804089
   0.17710074  0.34165090  0.00241286
   0.27745659  0.52837535  0.79241005
   0.24431550  0.35065934  0.59733369
   0.05445878  0.15410089  0.20769653
   0.76468196  0.52536536  0.80264097
   0.70016204  0.41383237  0.60739714
   0.60081168  0.21547655  0.79862329
   0.33789638  0.65278898 -0.00376283
   0.22828790  0.47644378  0.19985683
Nb - Mo - Ta - Ti - V SQS               
           1
    -3.169343   -3.142892   -3.215271
     1.518794    1.486838   -7.888539
     7.944047   -7.886707   -1.598351
   Nb   Mo   Ta   Ti   V 
   6   6   6   6   5
Direct configuration=    21
   0.96614676  0.93097040  0.39606084
   0.62908991  0.26349930  0.40538780
   0.49969821  0.00604751 -0.00806416
  -0.00177557  0.00550788  0.00014592
   0.09093705  0.21097035  0.79892048
   0.01819171  0.06722382  0.59713008
   0.90432885  0.79820940  0.20176903
   0.80693426  0.59334992  0.40189872
   0.72771725  0.47224739  0.19832390
   0.65929590  0.34817446 -0.00353048
   0.36733480  0.71812988  0.60164606
   0.12268013  0.27445750  0.40033616
   0.83147367  0.66933709 -0.00141654
   0.92826383  0.87181766  0.79887682
   0.55812609  0.13848804  0.19899024
   0.40581204  0.79573434  0.19816852
   0.43249884  0.86401981  0.78636368
   0.30398667  0.59612286  0.40611787
   0.86574491  0.71841854  0.59965739
   0.46360159  0.93301523  0.41834187
   0.17669927  0.34227234  0.00243170
   0.27746319  0.52848861  0.79246798
   0.24626590  0.34886086  0.59746960
   0.05454761  0.15411568  0.20759734
   0.76417961  0.52540160  0.80290793
   0.70048644  0.41325213  0.60733040
   0.60109691  0.21528680  0.79871596
   0.33773523  0.65317224 -0.00385054
   0.22810558  0.47674167  0.19980542
Nb - Mo - Ta - Ti - V SQS               
           1
    -3.172180   -3.142522   -3.212682
     1.518107    1.481685   -7.875304
     7.946104   -7.879366   -1.598350
   Nb   Mo   Ta   Ti   V 
   6   6   6   6   5
Direct configuration=    22
   0.96620509  0.93045110  0.39580506
   0.63045987  0.26324104  0.40447876
   0.49845349  0.00716233 -0.00809139
  -0.00213364  0.00642757  0.00051513
   0.08996433  0.21138523  0.79876873
   0.01403561  0.06745637  0.59728727
   0.90406050  0.79910642  0.20175138
   0.80783983  0.59304699  0.40184957
   0.72727387  0.47370549  0.19804395
   0.65973381  0.34899690 -0.00372608
   0.36729392  0.71761556  0.60180313
   0.12319599  0.27362255  0.40041140
   0.83140737  0.66882806 -0.00098619
   0.92886100  0.87183297  0.79865582
   0.55784144  0.13895891  0.19864976
   0.40600642  0.79605947  0.19858179
   0.43260323  0.86493735  0.78552762
   0.30374780  0.59623999  0.40620982
   0.86716829  0.71599673  0.59987033
   0.46265916  0.93333907  0.41907059
   0.17572730  0.34377791  0.00247704
   0.27747924  0.52876300  0.79260822
   0.25098805  0.34450391  0.59779961
   0.05476253  0.15415159  0.20735717
   0.76296377  0.52548906  0.80355427
   0.70127177  0.41184642  0.60716901
   0.60178758  0.21482709  0.79894048
   0.33734495  0.65410085 -0.00406307
   0.22766411  0.47746340  0.19968082
Nb - Mo - Ta - Ti - V SQS               
           1
    -3.172503   -3.143148   -3.212224
     1.519156    1.482319   -7.875399
     7.944788   -7.878088   -1.598807
   Nb   Mo   Ta   Ti   V 
   6   6   6   6   5
Direct configuration=    23
   0.96601975  0.93039046  0.39580803
   0.63062108  0.26337875  0.40407745
   0.49838363  0.00726147 -0.00806493
  -0.00242967  0.00664422  0.00048038