  29  29   0   0
  0.1632129E+02  0.5473281E-09  0.8209921E-09  0.1128346E-08  0.5000000E-15
  1.000000000000000E-004
  CAR 
 Nb - Mo - Ta - Ti - V SQS               
     11.80569559    -50.49255836  301      6.79856393      1.00000000
    -50.493  0.0000E+00  0.0000E+00
    -50.285  0.0000E+00  0.0000E+00
    -50.077  0.0000E+00  0.0000E+00
    -49.870  0.0000E+00  0.0000E+00
    -49.662  0.0000E+00  0.0000E+00
    -49.454 -0.5786E-35 -0.1202E-35
    -49.247 -0.2130E-27 -0.4422E-28
    -49.039 -0.8919E-21 -0.1852E-21
    -48.831 -0.4119E-15 -0.8554E-16
    -48.624 -0.2150E-10 -0.4465E-11
    -48.416 -0.1227E-06 -0.2549E-07
    -48.208 -0.7211E-04 -0.1500E-04
    -48.001 -0.3507E-02 -0.7433E-03
    -47.793  0.1333E-01  0.2026E-02
    -47.585  0.1285E+00  0.2872E-01
    -47.378  0.1416E+00  0.5813E-01
    -47.170  0.4613E+00  0.1539E+00
    -46.962  0.3538E+00  0.2274E+00
    -46.755  0.7074E-01  0.2421E+00
    -46.547 -0.9404E-02  0.2401E+00
    -46.339 -0.7175E-03  0.2400E+00
    -46.132 -0.3981E-05  0.2400E+00
    -45.924 -0.2310E-08  0.2400E+00
    -45.716 -0.1485E-12  0.2400E+00
    -45.509  0.0000E+00  0.2400E+00
    -45.301  0.0000E+00  0.2400E+00
    -45.093  0.0000E+00  0.2400E+00
    -44.886  0.0000E+00  0.2400E+00
    -44.678  0.0000E+00  0.2400E+00
    -44.470  0.0000E+00  0.2400E+00
    -44.263  0.0000E+00  0.2400E+00
    -44.055  0.0000E+00  0.2400E+00
    -43.847  0.0000E+00  0.2400E+00
    -43.640  0.0000E+00  0.2400E+00
    -43.432  0.0000E+00  0.2400E+00
    -43.224  0.0000E+00  0.2400E+00
    -43.017  0.0000E+00  0.2400E+00
    -42.809  0.0000E+00  0.2400E+00
    -42.601  0.0000E+00  0.2400E+00
    -42.394  0.0000E+00  0.2400E+00
    -42.186  0.0000E+00  0.2400E+00
    -41.978  0.0000E+00  0.2400E+00
    -41.771  0.0000E+00  0.2400E+00
    -41.563  0.0000E+00  0.2400E+00
    -41.355  0.0000E+00  0.2400E+00
    -41.148  0.0000E+00  0.2400E+00
    -40.940  0.0000E+00  0.2400E+00
    -40.732  0.0000E+00  0.2400E+00
    -40.525  0.0000E+00  0.2400E+00
    -40.317  0.0000E+00  0.2400E+00
    -40.110  0.0000E+00  0.2400E+00
    -39.902  0.0000E+00  0.2400E+00
    -39.694  0.0000E+00  0.2400E+00
    -39.487  0.0000E+00  0.2400E+00
    -39.279  0.0000E+00  0.2400E+00
    -39.071  0.0000E+00  0.2400E+00
    -38.864  0.0000E+00  0.2400E+00
    -38.656  0.0000E+00  0.2400E+00
    -38.448  0.0000E+00  0.2400E+00
    -38.241  0.0000E+00  0.2400E+00
    -38.033  0.0000E+00  0.2400E+00
    -37.825  0.0000E+00  0.2400E+00
    -37.618  0.0000E+00  0.2400E+00
    -37.410  0.0000E+00  0.2400E+00
    -37.202  0.0000E+00  0.2400E+00
    -36.995  0.0000E+00  0.2400E+00
    -36.787  0.0000E+00  0.2400E+00
    -36.579  0.0000E+00  0.2400E+00
    -36.372  0.0000E+00  0.2400E+00
    -36.164  0.0000E+00  0.2400E+00
    -35.956  0.0000E+00  0.2400E+00
    -35.749  0.0000E+00  0.2400E+00
    -35.541  0.0000E+00  0.2400E+00
    -35.333  0.0000E+00  0.2400E+00
    -35.126  0.0000E+00  0.2400E+00
    -34.918  0.0000E+00  0.2400E+00
    -34.710  0.0000E+00  0.2400E+00
    -34.503  0.0000E+00  0.2400E+00
    -34.295  0.0000E+00  0.2400E+00
    -34.087  0.0000E+00  0.2400E+00
    -33.880  0.0000E+00  0.2400E+00
    -33.672  0.0000E+00  0.2400E+00
    -33.464  0.0000E+00  0.2400E+00
    -33.257  0.0000E+00  0.2400E+00
    -33.049  0.0000E+00  0.2400E+00
    -32.841  0.0000E+00  0.2400E+00
    -32.634  0.0000E+00  0.2400E+00
    -32.426  0.0000E+00  0.2400E+00
    -32.218  0.0000E+00  0.2400E+00
    -32.011  0.0000E+00  0.2400E+00
    -31.803  0.0000E+00  0.2400E+00
    -31.595  0.0000E+00  0.2400E+00
    -31.388  0.0000E+00  0.2400E+00
    -31.180  0.0000E+00  0.2400E+00
    -30.972  0.0000E+00  0.2400E+00
    -30.765  0.0000E+00  0.2400E+00
    -30.557  0.0000E+00  0.2400E+00
    -30.349  0.0000E+00  0.2400E+00
    -30.142  0.0000E+00  0.2400E+00
    -29.934  0.0000E+00  0.2400E+00
    -29.726  0.0000E+00  0.2400E+00
    -29.519  0.0000E+00  0.2400E+00
    -29.311  0.0000E+00  0.2400E+00
    -29.103  0.0000E+00  0.2400E+00
    -28.896  0.0000E+00  0.2400E+00
    -28.688  0.0000E+00  0.2400E+00
    -28.481  0.0000E+00  0.2400E+00
    -28.273  0.0000E+00  0.2400E+00
    -28.065  0.0000E+00  0.2400E+00
    -27.858  0.0000E+00  0.2400E+00
    -27.650  0.0000E+00  0.2400E+00
    -27.442  0.0000E+00  0.2400E+00
    -27.235  0.0000E+00  0.2400E+00
    -27.027  0.0000E+00  0.2400E+00
    -26.819  0.0000E+00  0.2400E+00
    -26.612  0.0000E+00  0.2400E+00
    -26.404  0.0000E+00  0.2400E+00
    -26.196  0.0000E+00  0.2400E+00
    -25.989  0.0000E+00  0.2400E+00
    -25.781 -0.1892E-29  0.2400E+00
    -25.573 -0.1149E-22  0.2400E+00
    -25.366 -0.7951E-17  0.2400E+00
    -25.158 -0.6024E-12  0.2400E+00
    -24.950 -0.5316E-08  0.2400E+00
    -24.743 -0.5354E-05  0.2400E+00
    -24.535 -0.6223E-03  0.2399E+00
    -24.327 -0.6381E-02  0.2385E+00
    -24.120  0.5218E-01  0.2494E+00
    -23.912  0.2623E+00  0.3039E+00
    -23.704  0.4210E+00  0.3913E+00
    -23.497  0.6825E+00  0.5330E+00
    -23.289  0.8786E+00  0.7154E+00
    -23.081  0.8139E+00  0.8845E+00
    -22.874  0.2559E+00  0.9376E+00
    -22.666  0.3188E-01  0.9442E+00
    -22.458  0.5799E-01  0.9563E+00
    -22.251  0.2026E-01  0.9605E+00
    -22.043 -0.2142E-02  0.9600E+00
    -21.835 -0.1757E-03  0.9600E+00
    -21.628 -0.9928E-06  0.9600E+00
    -21.420 -0.5913E-09  0.9600E+00
    -21.212 -0.3892E-13  0.9600E+00
    -21.005  0.0000E+00  0.9600E+00
    -20.797  0.0000E+00  0.9600E+00
    -20.589  0.0000E+00  0.9600E+00
    -20.382  0.0000E+00  0.9600E+00
    -20.174  0.0000E+00  0.9600E+00
    -19.966  0.0000E+00  0.9600E+00
    -19.759  0.0000E+00  0.9600E+00
    -19.551  0.0000E+00  0.9600E+00
    -19.343  0.0000E+00  0.9600E+00
    -19.136  0.0000E+00  0.9600E+00
    -18.928  0.0000E+00  0.9600E+00
    -18.720  0.0000E+00  0.9600E+00
    -18.513  0.0000E+00  0.9600E+00
    -18.305  0.0000E+00  0.9600E+00
    -18.097  0.0000E+00  0.9600E+00
    -17.890  0.0000E+00  0.9600E+00
    -17.682  0.0000E+00  0.9600E+00
    -17.474  0.0000E+00  0.9600E+00
    -17.267  0.0000E+00  0.9600E+00
    -17.059  0.0000E+00  0.9600E+00
    -16.852  0.0000E+00  0.9600E+00
    -16.644  0.0000E+00  0.9600E+00
    -16.436  0.0000E+00  0.9600E+00
    -16.229  0.0000E+00  0.9600E+00
    -16.021  0.0000E+00  0.9600E+00
    -15.813  0.0000E+00  0.9600E+00
    -15.606  0.0000E+00  0.9600E+00
    -15.398  0.0000E+00  0.9600E+00
    -15.190  0.0000E+00  0.9600E+00
    -14.983  0.0000E+00  0.9600E+00
    -14.775  0.0000E+00  0.9600E+00
    -14.567  0.0000E+00  0.9600E+00
    -14.360  0.0000E+00  0.9600E+00
    -14.152  0.0000E+00  0.9600E+00
    -13.944  0.0000E+00  0.9600E+00
    -13.737  0.0000E+00  0.9600E+00
    -13.529  0.0000E+00  0.9600E+00
    -13.321  0.0000E+00  0.9600E+00
    -13.114  0.0000E+00  0.9600E+00
    -12.906  0.0000E+00  0.9600E+00
    -12.698  0.0000E+00  0.9600E+00
    -12.491  0.0000E+00  0.9600E+00
    -12.283  0.0000E+00  0.9600E+00
    -12.075  0.0000E+00  0.9600E+00
    -11.868  0.0000E+00  0.9600E+00
    -11.660  0.0000E+00  0.9600E+00
    -11.452  0.0000E+00  0.9600E+00
    -11.245  0.0000E+00  0.9600E+00
    -11.037  0.0000E+00  0.9600E+00
    -10.829  0.0000E+00  0.9600E+00
    -10.622  0.0000E+00  0.9600E+00
    -10.414  0.0000E+00  0.9600E+00
    -10.206  0.0000E+00  0.9600E+00
     -9.999  0.0000E+00  0.9600E+00
     -9.791  0.0000E+00  0.9600E+00
     -9.583  0.0000E+00  0.9600E+00
     -9.376  0.0000E+00  0.9600E+00
     -9.168  0.0000E+00  0.9600E+00
     -8.960  0.0000E+00  0.9600E+00
     -8.753  0.0000E+00  0.9600E+00
     -8.545  0.0000E+00  0.9600E+00
     -8.337  0.0000E+00  0.9600E+00
     -8.130  0.0000E+00  0.9600E+00
     -7.922  0.0000E+00  0.9600E+00
     -7.714  0.0000E+00  0.9600E+00
     -7.507  0.0000E+00  0.9600E+00
     -7.299  0.0000E+00  0.9600E+00
     -7.091  0.0000E+00  0.9600E+00
     -6.884  0.0000E+00  0.9600E+00
     -6.676  0.0000E+00  0.9600E+00
     -6.468  0.0000E+00  0.9600E+00
     -6.261  0.0000E+00  0.9600E+00
     -6.053  0.0000E+00  0.9600E+00
     -5.845  0.0000E+00  0.9600E+00
     -5.638  0.0000E+00  0.9600E+00
     -5.430  0.0000E+00  0.9600E+00
     -5.222  0.0000E+00  0.9600E+00
     -5.015  0.0000E+00  0.9600E+00
     -4.807  0.0000E+00  0.9600E+00
     -4.600  0.0000E+00  0.9600E+00
     -4.392  0.0000E+00  0.9600E+00
     -4.184  0.0000E+00  0.9600E+00
     -3.977  0.0000E+00  0.9600E+00
     -3.769  0.0000E+00  0.9600E+00
     -3.561  0.0000E+00  0.9600E+00
     -3.354  0.0000E+00  0.9600E+00
     -3.146  0.0000E+00  0.9600E+00
     -2.938  0.0000E+00  0.9600E+00
     -2.731  0.0000E+00  0.9600E+00
     -2.523  0.0000E+00  0.9600E+00
     -2.315  0.0000E+00  0.9600E+00
     -2.108  0.0000E+00  0.9600E+00
     -1.900  0.0000E+00  0.9600E+00
     -1.692 -0.1902E-31  0.9600E+00
     -1.485 -0.1356E-24  0.9600E+00
     -1.277 -0.1122E-18  0.9600E+00
     -1.069 -0.1042E-13  0.9600E+00
     -0.862 -0.1155E-09  0.9600E+00
     -0.654 -0.1490E-06  0.9600E+00
     -0.446 -0.2202E-04  0.9600E+00
     -0.239 -0.3062E-03  0.9599E+00
     -0.031  0.1646E-02  0.9603E+00
      0.177  0.1443E-01  0.9633E+00
      0.384  0.2495E-01  0.9685E+00
      0.592  0.3096E-01  0.9749E+00
      0.800  0.4231E-01  0.9837E+00
      1.007  0.3746E-01  0.9914E+00
      1.215  0.4983E-01  0.1002E+01
      1.423  0.6065E-01  0.1014E+01
      1.630  0.6474E-01  0.1028E+01
      1.838  0.7245E-01  0.1043E+01
      2.046  0.8545E-01  0.1061E+01
      2.253  0.1039E+00  0.1082E+01
      2.461  0.1311E+00  0.1109E+01
      2.669  0.1866E+00  0.1148E+01
      2.876  0.3226E+00  0.1215E+01
      3.084  0.4490E+00  0.1308E+01
      3.292  0.5316E+00  0.1419E+01
      3.499  0.5547E+00  0.1534E+01
      3.707  0.5995E+00  0.1659E+01
      3.915  0.6274E+00  0.1789E+01
      4.122  0.6230E+00  0.1918E+01
      4.330  0.6003E+00  0.2043E+01
      4.538  0.5502E+00  0.2157E+01
      4.745  0.5699E+00  0.2275E+01
      4.953  0.6445E+00  0.2409E+01
      5.161  0.7019E+00  0.2555E+01
      5.368  0.7890E+00  0.2719E+01
      5.576  0.8204E+00  0.2889E+01
      5.784  0.8130E+00  0.3058E+01
      5.991  0.8098E+00  0.3226E+01
      6.199  0.8299E+00  0.3399E+01
      6.407  0.8517E+00  0.3575E+01
      6.614  0.8236E+00  0.3746E+01
      6.822  0.7194E+00  0.3896E+01
      7.029  0.6487E+00  0.4031E+01
      7.237  0.5491E+00  0.4145E+01
      7.445  0.4662E+00  0.4241E+01
      7.652  0.3949E+00  0.4323E+01
      7.860  0.3703E+00  0.4400E+01
      8.068  0.3785E+00  0.4479E+01
      8.275  0.4327E+00  0.4569E+01
      8.483  0.4707E+00  0.4666E+01
      8.691  0.3903E+00  0.4748E+01
      8.898  0.2200E+00  0.4793E+01
      9.106  0.3810E-01  0.4801E+01
      9.314 -0.4959E-02  0.4800E+01
      9.521 -0.4893E-03  0.4800E+01
      9.729 -0.4249E-05  0.4800E+01
      9.937 -0.4402E-08  0.4800E+01
     10.144 -0.5489E-12  0.4800E+01
     10.352 -0.7606E-17  0.4800E+01
     10.560  0.0000E+00  0.4800E+01
     10.767  0.0000E+00  0.4800E+01
     10.975  0.0000E+00  0.4800E+01
     11.183  0.0000E+00  0.4800E+01
     11.390  0.0000E+00  0.4800E+01
     11.598  0.0000E+00  0.4800E+01
     11.806  0.0000E+00  0.4800E+01
