   29   29   50    1
  0.1632129E+02  0.5473281E-09  0.8209921E-09  0.1128346E-08  0.5000000E-15
  1.000000000000000E-004
  CAR 
 Nb - Mo - Ta - Ti - V SQS               
    194    172    120
 
  0.0000000E+00  0.0000000E+00  0.0000000E+00  0.2915452E-02
    1      -47.660820   1.000000
    2      -47.334076   1.000000
    3      -47.278141   1.000000
    4      -47.249336   1.000000
    5      -47.110436   1.000000
    6      -46.968201   1.000000
    7      -24.160074   1.000000
    8      -24.010694   1.000000
    9      -23.851894   1.000000
   10      -23.762258   1.000000
   11      -23.655384   1.000000
   12      -23.596673   1.000000
   13      -23.552408   1.000000
   14      -23.473253   1.000000
   15      -23.447233   1.000000
   16      -23.410323   1.000000
   17      -23.348734   1.000000
   18      -23.293445   1.000000
   19      -23.247563   1.000000
   20      -23.198790   1.000000
   21      -23.161280   1.000000
   22      -23.108101   1.000000
   23      -23.039063   1.000000
   24      -22.471865   1.000000
   25       -0.060970   1.000000
   26        1.244534   1.000000
   27        1.584846   1.000000
   28        2.366026   1.000000
   29        2.479396   1.000000
   30        2.559636   1.000000
   31        2.658792   1.000000
   32        2.801730   1.000000
   33        2.849786   1.000000
   34        2.918645   1.000000
   35        3.020088   1.000000
   36        3.059258   1.000000
   37        3.081226   1.000000
   38        3.140132   1.000000
   39        3.159561   1.000000
   40        3.332566   1.000000
   41        3.362290   1.000000
   42        3.507043   1.000000
   43        3.588665   1.000000
   44        3.607629   1.000000
   45        3.749184   1.000000
   46        3.784707   1.000000
   47        3.897439   1.000000
   48        3.905849   1.000000
   49        3.972002   1.000000
   50        4.057319   1.000000
   51        4.104797   1.000000
   52        4.181938   1.000000
   53        4.219797   1.000000
   54        4.326914   1.000000
   55        4.378524   1.000000
   56        4.531151   1.000000
   57        4.575319   1.000000
   58        4.623709   1.000000
   59        4.669240   1.000000
   60        4.756070   1.000000
   61        4.769753   1.000000
   62        4.858688   1.000000
   63        4.957052   1.000000
   64        5.030901   1.000000
   65        5.048361   1.000000
   66        5.145475   1.000000
   67        5.202910   1.000000
   68        5.234589   1.000000
   69        5.308696   1.000000
   70        5.350993   1.000000
   71        5.396360   1.000000
   72        5.457925   1.000000
   73        5.470391   1.000000
   74        5.537280   1.000000
   75        5.644407   1.000000
   76        5.717197   1.000000
   77        5.756869   1.000000
   78        5.863183   1.000000
   79        5.953633   1.000000
   80        6.020750   1.000000
   81        6.049316   1.000001
   82        6.099347   1.000004
   83        6.159037   1.000030
   84        6.200090   1.000097
   85        6.238573   1.000274
   86        6.274463   1.000665
   87        6.317964   1.001767
   88        6.406662   1.009092
   89        6.446098   1.015921
   90        6.554433   1.035455
   91        6.590048   1.029000
   92        6.620737   1.009470
   93        6.700496   0.864747
   94        6.749669   0.700193
   95        6.876797   0.195377
   96        6.916408   0.084881
   97        6.942416   0.033583
   98        7.004028  -0.027735
   99        7.038564  -0.035360
  100        7.110479  -0.024937
  101        7.156419  -0.014847
  102        7.278009  -0.001810
  103        7.331472  -0.000538
  104        7.467804  -0.000012
  105        7.576525  -0.000000
  106        7.664395  -0.000000
  107        7.740367  -0.000000
  108        7.895643  -0.000000
  109        7.993565  -0.000000
  110        8.221003  -0.000000
  111        8.396306  -0.000000
  112        8.484064  -0.000000
  113        8.570435  -0.000000
  114        8.661276  -0.000000
  115        8.746886  -0.000000
  116        8.817505  -0.000000
  117        8.862970  -0.000000
  118        8.883206  -0.000000
  119        8.901883  -0.000000
  120        8.937910  -0.000000
 
  0.1428571E+00  0.0000000E+00 -0.1561251E-16  0.5830904E-02
    1      -47.660797   1.000000
    2      -47.333756   1.000000
    3      -47.277698   1.000000
    4      -47.240626   1.000000
    5      -47.109726   1.000000
    6      -46.977977   1.000000
    7      -24.085358   1.000000
    8      -24.010587   1.000000
    9      -23.852433   1.000000
   10      -23.762403   1.000000
   11      -23.653225   1.000000
   12      -23.595936   1.000000
   13      -23.554432   1.000000
   14      -23.475572   1.000000
   15      -23.451346   1.000000
   16      -23.401699   1.000000
   17      -23.349240   1.000000
   18      -23.297749   1.000000
   19      -23.247957   1.000000
   20      -23.199280   1.000000
   21      -23.169253   1.000000
   22      -23.113518   1.000000
   23      -23.039635   1.000000
   24      -22.560914   1.000000
   25        0.111983   1.000000
   26        1.399494   1.000000
   27        1.734103   1.000000
   28        2.400684   1.000000
   29        2.605328   1.000000
   30        2.667126   1.000000
   31        2.764040   1.000000
   32        2.909455   1.000000
   33        2.965927   1.000000
   34        2.991723   1.000000
   35        3.144943   1.000000
   36        3.152226   1.000000
   37        3.179785   1.000000
   38        3.211350   1.000000
   39        3.316472   1.000000
   40        3.411761   1.000000
   41        3.460602   1.000000
   42        3.523344   1.000000
   43        3.647897   1.000000
   44        3.686619   1.000000
   45        3.777862   1.000000
   46        3.807742   1.000000
   47        3.907009   1.000000
   48        4.021972   1.000000
   49        4.048335   1.000000
   50        4.115312   1.000000
   51        4.150665   1.000000
   52        4.266101   1.000000
   53        4.300526   1.000000
   54        4.378418   1.000000
   55        4.448206   1.000000
   56        4.541452   1.000000
   57        4.637395   1.000000
   58        4.687326   1.000000
   59        4.713895   1.000000
   60        4.771278   1.000000
   61        4.811598   1.000000
   62        4.913120   1.000000
   63        5.010152   1.000000
   64        5.055965   1.000000
   65        5.128227   1.000000
   66        5.160364   1.000000
   67        5.224862   1.000000
   68        5.306693   1.000000
   69        5.372664   1.000000
   70        5.406499   1.000000
   71        5.438289   1.000000
   72        5.498526   1.000000
   73        5.548608   1.000000
   74        5.590323   1.000000
   75        5.646223   1.000000
   76        5.702177   1.000000
   77        5.809855   1.000000
   78        5.840458   1.000000
   79        5.914797   1.000000
   80        5.974193   1.000000
   81        6.030732   1.000000
   82        6.079582   1.000002
   83        6.118442   1.000008
   84        6.155954   1.000027
   85        6.224711   1.000190
   86        6.271848   1.000625
   87        6.312157   1.001560
   88        6.362605   1.004286
   89        6.412119   1.009890
   90        6.459933   1.018847
   91        6.507944   1.029683
   92        6.559497   1.035319
   93        6.621629   1.008653
   94        6.653735   0.968021
   95        6.711722   0.831854
   96        6.750130   0.698429
   97        6.895933   0.137212
   98        7.014039  -0.031406
   99        7.070072  -0.033205
  100        7.099433  -0.027457
  101        7.147518  -0.016641
  102        7.193610  -0.008654
  103        7.280371  -0.001722
  104        7.374278  -0.000181
  105        7.421981  -0.000048
  106        7.506111  -0.000003
  107        7.587827  -0.000000
  108        7.756526  -0.000000
  109        7.870001  -0.000000
  110        8.100023  -0.000000
  111        8.256417  -0.000000
  112        8.332016  -0.000000
  113        8.373895  -0.000000
  114        8.435881  -0.000000
  115        8.506063  -0.000000
  116        8.554541  -0.000000
  117        8.583371  -0.000000
  118        8.649237  -0.000000
  119        8.730514  -0.000000
  120        8.771927  -0.000000
 
  0.2857143E+00  0.1387779E-16  0.3469447E-17  0.5830904E-02
    1      -47.660746   1.000000
    2      -47.333046   1.000000
    3      -47.276706   1.000000
    4      -47.218510   1.000000
    5      -47.107439   1.000000
    6      -47.003165   1.000000
    7      -24.010447   1.000000
    8      -23.876971   1.000000
    9      -23.853024   1.000000
   10      -23.762602   1.000000
   11      -23.647237   1.000000
   12      -23.593881   1.000000
   13      -23.558465   1.000000
   14      -23.480840   1.000000
   15      -23.459903   1.000000
   16      -23.379863   1.000000
   17      -23.349267   1.000000
   18      -23.306575   1.000000
   19      -23.248890   1.000000
   20      -23.208895   1.000000
   21      -23.182378   1.000000
   22      -23.126756   1.000000
   23      -23.042818   1.000000
   24      -22.802306   1.000000
   25        0.600371   1.000000
   26        1.809322   1.000000
   27        2.129033   1.000000
   28        2.541297   1.000000
   29        2.792369   1.000000
   30        2.880102   1.000000
   31        3.001503   1.000000
   32        3.073638   1.000000
   33        3.139505   1.000000
   34        3.220899   1.000000
   35        3.307724   1.000000
   36        3.400792   1.000000
   37        3.405422   1.000000
   38        3.496685   1.000000
   39        3.551251   1.000000
   40        3.586033   1.000000
   41        3.625484   1.000000
   42        3.673679   1.000000
   43        3.748869   1.000000
   44        3.868270   1.000000
   45        3.918409   1.000000
   46        3.971166   1.000000
   47        4.041963   1.000000
   48        4.119341   1.000000
   49        4.220083   1.000000
   50        4.322670   1.000000
   51        4.354611   1.000000
   52        4.405005   1.000000
   53        4.500289   1.000000
   54        4.540968   1.000000
   55        4.604311   1.000000
   56        4.661037   1.000000
   57        4.705679   1.000000
   58        4.785611   1.000000
   59        4.801387   1.000000
   60        4.892408   1.000000
   61        4.919010   1.000000
   62        5.029182   1.000000
   63        5.095838   1.000000
   64        5.122284   1.000000
   65        5.236690   1.000000
   66        5.265661   1.000000
   67        5.291404   1.000000
   68        5.363419   1.000000
   69        5.412880   1.000000
   70        5.474175   1.000000
   71        5.507867   1.000000
   72        5.586262   1.000000
   73        5.609468   1.000000
   74        5.638147   1.000000
   75        5.689192   1.000000
   76        5.727602   1.000000
   77        5.773777   1.000000
   78        5.842568   1.000000
   79        5.882014   1.000000
   80        5.915602   1.000000
   81        5.966933   1.000000
   82        6.012446   1.000000
   83        6.058532   1.000001
   84        6.120432   1.000009
   85        6.165231   1.000036
   86        6.236347   1.000258
   87        6.278795   1.000736
   88        6.324874   1.002042
   89        6.380213   1.005877
   90        6.415468   1.010404
   91        6.480903   1.023607
   92        6.507133   1.029513
   93        6.553652   1.035458
   94        6.585132   1.030766
   95        6.625976   1.004443
   96        6.703551   0.856097
   97        6.774488   0.601059
   98        6.821973   0.401696
   99        6.873190   0.207282
  100        6.947780   0.025061
  101        7.002014  -0.026826
  102        7.109285  -0.025212
  103        7.137243  -0.018836
  104        7.229269  -0.004719
  105        7.262141  -0.002513
  106        7.371559  -0.000195
  107        7.443442  -0.000025
  108        7.543119  -0.000001
  109        7.591121  -0.000000
  110        7.728614  -0.000000
  111        7.807368  -0.000000
  112        7.923299  -0.000000
  113        7.992410  -0.000000
  114        8.056618  -0.000000
  115        8.133940  -0.000000
  116        8.182958  -0.000000
  117        8.198230  -0.000000
  118        8.280996  -0.000000
  119        8.454860  -0.000000
  120        8.538032  -0.000000
 
  0.4285714E+00  0.5551115E-16 -0.4163336E-16  0.5830904E-02
    1      -47.660706   1.000000
    2      -47.332485   1.000000
    3      -47.275911   1.000000
    4      -47.196942   1.000000
    5      -47.103643   1.000000
    6      -47.029149   1.000000
    7      -24.010289   1.000000
    8      -23.854893   1.000000
    9      -23.763708   1.000000
   10      -23.667162   1.000000
   11      -23.607818   1.000000
   12      -23.566080   1.000000
   13      -23.527424   1.000000
   14      -23.484612   1.000000
   15      -23.465899   1.000000
   16      -23.362887   1.000000
   17      -23.344418   1.000000
   18      -23.311828   1.000000
   19      -23.249680   1.000000
   20      -23.233823   1.000000
   21      -23.185509   1.000000
   22      -23.157431   1.000000
   23      -23.132809   1.000000
   24      -23.021189   1.000000
   25        1.304586   1.000000
   26        2.083436   1.000000
   27        2.449406   1.000000
   28        2.647197   1.000000
   29        2.735295   1.000000
   30        2.978145   1.000000
   31        3.092746   1.000000
   32        3.156071   1.000000
   33        3.337641   1.000000
   34        3.360394   1.000000
   35        3.441533   1.000000
   36        3.578105   1.000000
   37        3.619435   1.000000
   38        3.665789   1.000000
   39        3.728907   1.000000
   40        3.817615   1.000000
   41        3.864024   1.000000
   42        3.905495   1.000000
   43        3.997393   1.000000
   44        4.013957   1.000000
   45        4.151987   1.000000
   46        4.195838   1.000000
   47        4.204882   1.000000
   48        4.270037   1.000000
   49        4.338739   1.000000
   50        4.358477   1.000000
   51        4.421217   1.000000
   52        4.515521   1.000000
   53        4.539889   1.000000
   54        4.625474   1.000000
   55        4.708142   1.000000
   56        4.788211   1.000000
   57        4.813845   1.000000
   58        4.889428   1.000000
   59        4.914721   1.000000
   60        4.991122   1.000000
   61        5.040199   1.000000
   62        5.068731   1.000000
   63        5.099750   1.000000
   64        5.137944   1.000000
   65        5.224760   1.000000
   66        5.260881   1.000000
   67        5.327520   1.000000
   68        5.355391   1.000000
   69        5.399546   1.000000
   70        5.464793   1.000000
   71        5.560735   1.000000
   72        5.596153   1.000000
   73        5.651357   1.000000
   74        5.670334   1.000000
   75        5.690522   1.000000
   76        5.709035   1.000000
   77        5.791388   1.000000
   78        5.838625   1.000000
   79        5.876106   1.000000
   80        5.929361   1.000000
   81        5.955703   1.000000
   82        6.013225   1.000000
   83        6.084369   1.000003
   84        6.144321   1.000019
   85        6.195849   1.000087
   86        6.253075   1.000395
   87        6.276743   1.000701
   88        6.374403   1.005308
   89        6.401303   1.008354
   90        6.451872   1.017114
   91        6.479247   1.023224
   92        6.529317   1.033541
   93        6.547015   1.035297
   94        6.611818   1.016813
   95        6.660828   0.955859
   96        6.683023   0.909759
   97        6.740618   0.734153
   98        6.835362   0.347178
   99        6.853173   0.278205
  100        6.913916   0.090686
  101        6.958711   0.009765
  102        7.036718  -0.035272
  103        7.112552  -0.024457
  104        7.137953  -0.018681
  105        7.224400  -0.005152
  106        7.261541  -0.002543
  107        7.326895  -0.000601
  108        7.360081  -0.000263
  109        7.468446  -0.000012
  110        7.541184  -0.000001
  111        7.584242  -0.000000
  112        7.672624  -0.000000
  113        7.768560  -0.000000
  114        7.822490  -0.000000
  115        7.891612  -0.000000
  116        7.978913  -0.000000
  117        7.996683  -0.000000
  118        8.114229  -0.000000
  119        8.258599  -0.000000
  120        8.313355  -0.000000
 
 -0.6938894E-17  0.1428571E+00  0.1040834E-16  0.5830904E-02
    1      -47.660800   1.000000
    2      -47.334076   1.000000
    3      -47.278161   1.000000
    4      -47.249334   1.000000
    5      -47.110434   1.000000
    6      -46.968200   1.000000
    7      -24.160077   1.000000
    8      -24.009507   1.000000
    9      -23.851878   1.000000
   10      -23.762270   1.000000
   11      -23.655383   1.000000
   12      -23.596664   1.000000
   13      -23.552411   1.000000
   14      -23.473256   1.000000
   15      -23.447238   1.000000
   16      -23.410393   1.000000
   17      -23.348786   1.000000
   18      -23.293479   1.000000
   19      -23.248939   1.000000
   20      -23.198827   1.000000
   21      -23.161337   1.000000
   22      -23.108112   1.000000
   23      -23.039066   1.000000
   24      -22.471871   1.000000
   25        0.007396   1.000000
   26        1.275827   1.000000
   27        1.646431   1.000000
   28        2.100556   1.000000
   29        2.496494   1.000000
   30        2.591291   1.000000
   31        2.659100   1.000000
   32        2.795837   1.000000
   33        2.859926   1.000000
   34        2.936193   1.000000
   35        3.024185   1.000000
   36        3.061929   1.000000
   37        3.089797   1.000000
   38        3.144775   1.000000
   39        3.207282   1.000000
   40        3.276667   1.000000
   41        3.418605   1.000000
   42        3.468621   1.000000
   43        3.539704   1.000000
   44        3.584065   1.000000
   45        3.719931   1.000000
   46        3.767920   1.000000
   47        3.904731   1.000000
   48        3.910055   1.000000
   49        3.990984   1.000000
   50        4.050895   1.000000
   51        4.087998   1.000000
   52        4.187704   1.000000
   53        4.254610   1.000000
   54        4.371789   1.000000
   55        4.423130   1.000000
   56        4.553972   1.000000
   57        4.595137   1.000000
   58        4.660517   1.000000
   59        4.724578   1.000000
   60        4.776619   1.000000
   61        4.816804   1.000000
   62        4.856645   1.000000
   63        4.942406   1.000000
   64        5.051377   1.000000
   65        5.097599   1.000000
   66        5.161711   1.000000
   67        5.201298   1.000000
   68        5.248426   1.000000
   69        5.308548   1.000000
   70        5.366017   1.000000
   71        5.411038   1.000000
   72        5.454816   1.000000
   73        5.495439   1.000000
   74        5.549653   1.000000
   75        5.616506   1.000000
   76        5.671336   1.000000
   77        5.771491   1.000000
   78        5.874482   1.000000
   79        5.949185   1.000000
   80        5.977124   1.000000
   81        6.026717   1.000000
   82        6.085381   1.000003
   83        6.124092   1.000010
   84        6.155764   1.000027
   85        6.263259   1.000508
   86        6.295485   1.001081
   87        6.313710   1.001613
   88        6.377818   1.005637
   89        6.417395   1.010707
   90        6.479104   1.023191
   91        6.514634   1.031032
   92        6.534300   1.034202
   93        6.644093   0.982633
   94        6.712762   0.828655
   95        6.733818   0.758695
   96        6.905057   0.112594
   97        6.933132   0.049969
   98        7.007646  -0.029221
   99        7.069673  -0.033265
  100        7.198985  -0.007940
  101        7.259172  -0.002667
  102        7.344801  -0.000388
  103        7.391689  -0.000113
  104        7.460804  -0.000015
  105        7.600849  -0.000000
  106        7.673877  -0.000000
  107        7.732814  -0.000000
  108        7.801520  -0.000000
  109        7.957966  -0.000000
  110        8.142561  -0.000000
  111        8.350534  -0.000000
  112        8.473510  -0.000000
  113        8.508055  -0.000000
  114        8.564475  -0.000000
  115        8.667630  -0.000000
  116        8.746449  -0.000000
  117        8.815555  -0.000000
  118        8.831273  -0.000000
  119        8.857863  -0.000000
  120        8.889977  -0.000000
 
  0.1428571E+00  0.1428571E+00 -0.1387779E-16  0.5830904E-02
    1      -47.660790   1.000000
    2      -47.333758   1.000000
    3      -47.277705   1.000000
    4      -47.240627   1.000000
    5      -47.109728   1.000000
    6      -46.977979   1.000000
    7      -24.085349   1.000000
    8      -24.009956   1.000000
    9      -23.852408   1.000000
   10      -23.762405   1.000000
   11      -23.653206   1.000000
   12      -23.595906   1.000000
   13      -23.554393   1.000000
   14      -23.475568   1.000000
   15      -23.451437   1.000000
   16      -23.401666   1.000000
   17      -23.349285   1.000000
   18      -23.297726   1.000000
   19      -23.248581   1.000000
   20      -23.199262   1.000000
   21      -23.169192   1.000000
   22      -23.113512   1.000000
   23      -23.039630   1.000000
   24      -22.560910   1.000000
   25        0.114853   1.000000
   26        1.379386   1.000000
   27        1.752294   1.000000
   28        2.385365   1.000000
   29        2.613804   1.000000
   30        2.700354   1.000000
   31        2.754775   1.000000
   32        2.865494   1.000000
   33        2.933576   1.000000
   34        2.980829   1.000000
   35        3.077264   1.000000
   36        3.138722   1.000000
   37        3.174417   1.000000
   38        3.221282   1.000000
   39        3.297787   1.000000
   40        3.389567   1.000000
   41        3.461057   1.000000
   42        3.530624   1.000000
   43        3.629304   1.000000
   44        3.674852   1.000000
   45        3.752351   1.000000
   46        3.852825   1.000000
   47        3.946397   1.000000
   48        4.010251   1.000000
   49        4.040239   1.000000
   50        4.130440   1.000000
   51        4.151429   1.000000
   52        4.224242   1.000000
   53        4.304718   1.000000
   54        4.420678   1.000000
   55        4.454356   1.000000
   56        4.560948   1.000000
   57        4.649295   1.000000
   58        4.700274   1.000000
   59        4.753245   1.000000
   60        4.807532   1.000000
   61        4.852000   1.000000
   62        4.893776   1.000000
   63        4.977888   1.000000
   64        5.083192   1.000000
   65        5.123195   1.000000
   66        5.149152   1.000000
   67        5.213892   1.000000
   68        5.265764   1.000000
   69        5.327685   1.000000
   70        5.373157   1.000000
   71        5.407893   1.000000
   72        5.479315   1.000000
   73        5.536864   1.000000
   74        5.612279   1.000000
   75        5.663123   1.000000
   76        5.721322   1.000000
   77        5.782005   1.000000
   78        5.856938   1.000000
   79        5.912804   1.000000
   80        5.957416   1.000000
   81        5.966085   1.000000
   82        6.061179   1.000001
   83        6.110780   1.000007
   84        6.158862   1.000029
   85        6.247347   1.000342
   86        6.266215   1.000545
   87        6.302576   1.001266
   88        6.373184   1.005194
   89        6.413861   1.010155
   90        6.458912   1.018623
   91        6.545604   1.035224
   92        6.591394   1.028459
   93        6.677091   0.923292
   94        6.723553   0.794004
   95        6.811594   0.444995
   96        6.855412   0.269893
   97        6.892064   0.148270
   98        6.938601   0.040062
   99        7.013301  -0.031181
  100        7.070381  -0.033157
  101        7.104433  -0.026326
  102        7.246479  -0.003421
  103        7.286356  -0.001514
  104        7.352505  -0.000319
  105        7.411553  -0.000065
  106        7.526545  -0.000002
  107        7.556484  -0.000001
  108        7.763001  -0.000000
  109        7.903535  -0.000000
  110        8.044425  -0.000000
  111        8.263341  -0.000000
  112        8.335865  -0.000000
  113        8.426094  -0.000000
  114        8.496947  -0.000000
  115        8.617444  -0.000000
  116        8.688649  -0.000000
  117        8.740191  -0.000000
  118        8.797044  -0.000000
  119        8.828418  -0.000000
  120        8.886165  -0.000000
 
  0.2857143E+00  0.1428571E+00  0.2775558E-16  0.5830904E-02
    1      -47.660747   1.000000
    2      -47.333050   1.000000
    3      -47.276705   1.000000
    4      -47.218514   1.000000
    5      -47.107444   1.000000
    6      -47.003169   1.000000
    7      -24.010159   1.000000
    8      -23.876955   1.000000
    9      -23.852979   1.000000
   10      -23.762597   1.000000
   11      -23.647211   1.000000
   12      -23.593842   1.000000
   13      -23.558407   1.000000
   14      -23.480838   1.000000
   15      -23.460043   1.000000
   16      -23.379770   1.000000
   17      -23.349300   1.000000
   18      -23.306505   1.000000
   19      -23.249044   1.000000
   20      -23.208837   1.000000
   21      -23.182261   1.000000
   22      -23.126736   1.000000
   23      -23.042808   1.000000
   24      -22.802294   1.000000
   25        0.543358   1.000000
   26        1.734835   1.000000
   27        2.101998   1.000000
   28        2.648323   1.000000
   29        2.748285   1.000000
   30        2.907304   1.000000
   31        3.007571   1.000000
   32        3.070351   1.000000
   33        3.108451   1.000000
   34        3.199991   1.000000
   35        3.290851   1.000000
   36        3.369407   1.000000
   37        3.418954   1.000000
   38        3.441780   1.000000
   39        3.529656   1.000000
   40        3.592386   1.000000
   41        3.639462   1.000000
   42        3.692680   1.000000
   43        3.719148   1.000000
   44        3.839205   1.000000
   45        3.953001   1.000000
   46        3.995775   1.000000
   47        4.107657   1.000000
   48        4.152019   1.000000
   49        4.224732   1.000000
   50        4.279364   1.000000
   51        4.289880   1.000000
   52        4.370834   1.000000
   53        4.442777   1.000000
   54        4.523252   1.000000
   55        4.605378   1.000000
   56        4.649830   1.000000
   57        4.731523   1.000000
   58        4.807651   1.000000
   59        4.839239   1.000000
   60        4.902315   1.000000
   61        4.940651   1.000000
   62        4.995164   1.000000
   63        5.087218   1.000000
   64        5.127662   1.000000
   65        5.208696   1.000000
   66        5.226636   1.000000
   67        5.288638   1.000000
   68        5.374858   1.000000
   69        5.431592   1.000000
   70        5.474865   1.000000
   71        5.506306   1.000000
   72        5.534025   1.000000
   73        5.581244   1.000000
   74        5.666492   1.000000
   75        5.683586   1.000000
   76        5.716263   1.000000
   77        5.791989   1.000000
   78        5.856108   1.000000
   79        5.874943   1.000000
   80        5.967051   1.000000
   81        6.023548   1.000000
   82        6.057256   1.000001
   83        6.103024   1.000005
   84        6.181410   1.000057
   85        6.204453   1.000110
   86        6.232156   1.000232
   87        6.269549   1.000591
   88        6.289846   1.000951
   89        6.346172   1.003137
   90        6.397931   1.007913
   91        6.440557   1.014818
   92        6.478675   1.023092
   93        6.530919   1.033765
   94        6.619802   1.010310
   95        6.643392   0.983612
   96        6.703764   0.855485
   97        6.746212   0.713330
   98        6.793739   0.520409
   99        6.834020   0.352554
  100        6.920099   0.076572
  101        6.987613  -0.018472
  102        7.031294  -0.034833
  103        7.167681  -0.012742
  104        7.202855  -0.007455
  105        7.250602  -0.003159
  106        7.410758  -0.000066
  107        7.471200  -0.000011
  108        7.570852  -0.000000
  109        7.642515  -0.000000
  110        7.726713  -0.000000
  111        7.958480  -0.000000
  112        8.012101  -0.000000
  113        8.124503  -0.000000
  114        8.176764  -0.000000
  115        8.277344  -0.000000
  116        8.352507  -0.000000
  117        8.396683  -0.000000
  118        8.486415  -0.000000
  119        8.541250  -0.000000
  120        8.608392  -0.000000
 
  0.4285714E+00  0.1428571E+00 -0.2081668E-16  0.5830904E-02
    1      -47.660704   1.000000
    2      -47.332487   1.000000
    3      -47.275913   1.000000
    4      -47.196945   1.000000
    5      -47.103646   1.000000
    6      -47.029153   1.000000
    7      -24.009880   1.000000
    8      -23.854845   1.000000
    9      -23.763704   1.000000
   10      -23.667141   1.000000
   11      -23.607792   1.000000
   12      -23.566030   1.000000
   13      -23.527400   1.000000
   14      -23.484627   1.000000
   15      -23.466011   1.000000
   16      -23.362847   1.000000
   17      -23.344426   1.000000
   18      -23.311770   1.000000
   19      -23.249994   1.000000
   20      -23.233757   1.000000
   21      -23.185443   1.000000
   22      -23.157418   1.000000
   23      -23.132790   1.000000
   24      -23.021183   1.000000
   25        1.216095   1.000000
   26        2.106809   1.000000
   27        2.395162   1.000000
   28        2.572602   1.000000
   29        2.769349   1.000000
   30        2.838799   1.000000
   31        3.151194   1.000000
   32        3.289913   1.000000
   33        3.354450   1.000000
   34        3.408330   1.000000
   35        3.434688   1.000000
   36        3.521412   1.000000
   37        3.624188   1.000000
   38        3.669491   1.000000
   39        3.764523   1.000000
   40        3.786918   1.000000
   41        3.864395   1.000000
   42        3.932648   1.000000
   43        3.963880   1.000000
   44        4.074797   1.000000
   45        4.113690   1.000000
   46        4.155474   1.000000
   47        4.209410   1.000000