 running on   64 total cores
 distrk:  each k-point on   64 cores,    1 groups
 distr:  one band on    8 cores,    8 groups
 using from now: INCAR     
 vasp.5.4.4.18Apr17-6-g9f103f2a35 (build Aug 09 2018 16:20:53) complex          
  
 POSCAR found :  5 types and      29 ions
 scaLAPACK will be used

 ----------------------------------------------------------------------------- 
|                                                                             |
|  ADVICE TO THIS USER RUNNING 'VASP/VAMP'   (HEAR YOUR MASTER'S VOICE ...):  |
|                                                                             |
|      You enforced a specific xc-type in the INCAR file,                     |
|      a different type was found on the POTCAR file                          |
|          I HOPE YOU KNOW, WHAT YOU ARE  DOING                               |
|                                                                             |
 ----------------------------------------------------------------------------- 

 LDA part: xc-table for Pade appr. of Perdew
 POSCAR found :  5 types and      29 ions
 POSCAR, INCAR and KPOINTS ok, starting setup
 FFT: planning ...
 WAVECAR not read
 WARNING: random wavefunctions but no delay for mixing, default for NELMDL
 entering main loop
       N       E                     dE             d eps       ncg     rms          rms(c)
DAV:   1     0.258444392640E+04    0.25844E+04   -0.81746E+04 41280   0.183E+03
DAV:   2     0.268341971449E+03   -0.23161E+04   -0.22499E+04 47216   0.511E+02
DAV:   3    -0.246182154759E+03   -0.51452E+03   -0.48834E+03 69784   0.221E+02
DAV:   4    -0.325741675996E+03   -0.79560E+02   -0.72470E+02 71272   0.976E+01
DAV:   5    -0.336556486765E+03   -0.10815E+02   -0.10309E+02 80272   0.346E+01    0.687E+01
DAV:   6    -0.363486102899E+03   -0.26930E+02   -0.48082E+02 70840   0.866E+01    0.760E+01
DAV:   7    -0.326904668941E+03    0.36581E+02   -0.98332E+02 77360   0.184E+02    0.394E+01
DAV:   8    -0.331471004125E+03   -0.45663E+01   -0.31743E+02 66392   0.550E+01    0.280E+01
DAV:   9    -0.317022386292E+03    0.14449E+02   -0.98637E+01 66728   0.443E+01    0.220E+01
DAV:  10    -0.311781834101E+03    0.52406E+01   -0.28397E+01 67248   0.241E+01    0.173E+01
DAV:  11    -0.309611668982E+03    0.21702E+01   -0.80098E+00 73160   0.112E+01    0.140E+01
DAV:  12    -0.308473610431E+03    0.11381E+01   -0.35782E+00 68368   0.790E+00    0.115E+01
DAV:  13    -0.308172062687E+03    0.30155E+00   -0.61366E-01 71216   0.324E+00    0.103E+01
DAV:  14    -0.308101893859E+03    0.70169E-01   -0.21033E-01 71360   0.186E+00    0.991E+00
DAV:  15    -0.307995546429E+03    0.10635E+00   -0.85589E-01 66976   0.358E+00    0.888E+00
DAV:  16    -0.307540256689E+03    0.45529E+00   -0.30823E+00 65128   0.773E+00    0.570E+00
DAV:  17    -0.307346137000E+03    0.19412E+00   -0.27125E+00 73728   0.647E+00    0.282E+00
DAV:  18    -0.307313109456E+03    0.33028E-01   -0.10617E+00 72888   0.398E+00    0.226E+00
DAV:  19    -0.307292768890E+03    0.20341E-01   -0.60317E-01 71792   0.315E+00    0.191E+00
DAV:  20    -0.307275578780E+03    0.17190E-01   -0.28817E-01 67832   0.240E+00    0.129E+00
DAV:  21    -0.307263406673E+03    0.12172E-01   -0.15675E-01 68512   0.159E+00    0.704E-01
DAV:  22    -0.307262631538E+03    0.77514E-03   -0.63725E-02 65896   0.110E+00    0.712E-01
DAV:  23    -0.307258468896E+03    0.41626E-02   -0.29324E-02 61656   0.806E-01    0.349E-01
DAV:  24    -0.307257735511E+03    0.73339E-03   -0.10390E-02 67824   0.369E-01    0.221E-01
DAV:  25    -0.307257262384E+03    0.47313E-03   -0.60303E-03 64080   0.310E-01    0.106E-01
DAV:  26    -0.307257199404E+03    0.62980E-04   -0.10367E-03 55096   0.107E-01    0.778E-02
DAV:  27    -0.307257135418E+03    0.63986E-04   -0.20809E-04 29200   0.702E-02
   1 F= -.30725714E+03 E0= -.30725162E+03  d E =-.307257E+03
 curvature:   0.00 expect dE= 0.000E+00 dE for cont linesearch  0.000E+00
 trial: gam= 0.00000 g(F)=  0.524E+00 g(S)=  0.212E+00 ort = 0.000E+00 (trialstep = 0.100E+01)
 search vector abs. value=  0.735E+00
 bond charge predicted
       N       E                     dE             d eps       ncg     rms          rms(c)
DAV:   1    -0.308185478924E+03   -0.92828E+00   -0.87395E+01 47432   0.389E+01    0.941E+00
DAV:   2    -0.309001794984E+03   -0.81632E+00   -0.17327E+01 74136   0.217E+01    0.849E+00
DAV:   3    -0.308452322229E+03    0.54947E+00   -0.11661E+01 73504   0.149E+01    0.802E+00
DAV:   4    -0.308095561841E+03    0.35676E+00   -0.76808E+00 70056   0.136E+01    0.617E+00
DAV:   5    -0.307813591864E+03    0.28197E+00   -0.40581E+00 71616   0.956E+00    0.419E+00
DAV:   6    -0.307724895664E+03    0.88696E-01   -0.20524E+00 69800   0.672E+00    0.326E+00
DAV:   7    -0.307649628233E+03    0.75267E-01   -0.11085E+00 71392   0.488E+00    0.216E+00
DAV:   8    -0.307637936815E+03    0.11691E-01   -0.55467E-01 76624   0.331E+00    0.167E+00
DAV:   9    -0.307615971754E+03    0.21965E-01   -0.18183E-01 71960   0.197E+00    0.919E-01
DAV:  10    -0.307614046526E+03    0.19252E-02   -0.60413E-02 74256   0.101E+00    0.750E-01
DAV:  11    -0.307615203487E+03   -0.11570E-02   -0.26809E-02 66216   0.700E-01    0.627E-01
DAV:  12    -0.307617470073E+03   -0.22666E-02   -0.25007E-02 66776   0.696E-01    0.472E-01
DAV:  13    -0.307618574978E+03   -0.11049E-02   -0.23593E-02 74792   0.625E-01    0.259E-01
DAV:  14    -0.307618559212E+03    0.15766E-04   -0.13532E-02 70208   0.508E-01    0.270E-01
DAV:  15    -0.307618070802E+03    0.48841E-03   -0.69863E-03 62536   0.393E-01    0.132E-01
DAV:  16    -0.307617879774E+03    0.19103E-03   -0.12622E-03 54520   0.180E-01    0.789E-02
DAV:  17    -0.307617860261E+03    0.19513E-04   -0.28968E-04 33736   0.101E-01
   2 F= -.30761786E+03 E0= -.30761373E+03  d E =-.360725E+00
 trial-energy change:   -0.360725  1 .order   -0.352783   -0.735378    0.029811
 step:   0.9632(harm=  0.9610)  dis= 0.03705  next Energy=  -307.618408 (dE=-0.361E+00)
 bond charge predicted
       N       E                     dE             d eps       ncg     rms          rms(c)
DAV:   1    -0.307619586869E+03   -0.17071E-02   -0.11971E-01 51264   0.145E+00    0.358E-01
DAV:   2    -0.307620647221E+03   -0.10604E-02   -0.24892E-02 74968   0.783E-01    0.349E-01
DAV:   3    -0.307619785842E+03    0.86138E-03   -0.19264E-02 74632   0.603E-01    0.299E-01
DAV:   4    -0.307619299185E+03    0.48666E-03   -0.10735E-02 64200   0.467E-01    0.244E-01
DAV:   5    -0.307618913251E+03    0.38593E-03   -0.67792E-03 63200   0.382E-01    0.187E-01
DAV:   6    -0.307618682223E+03    0.23103E-03   -0.35637E-03 61832   0.286E-01    0.130E-01
DAV:   7    -0.307618549574E+03    0.13265E-03   -0.17798E-03 54520   0.215E-01    0.858E-02
DAV:   8    -0.307618517120E+03    0.32454E-04   -0.82545E-04 47960   0.149E-01
   3 F= -.30761852E+03 E0= -.30761436E+03  d E =-.361382E+00
 curvature:  -0.48 expect dE=-0.358E+00 dE for cont linesearch -0.812E-05
 trial: gam= 1.02213 g(F)=  0.216E+00 g(S)=  0.532E+00 ort =-0.353E-02 (trialstep = 0.484E+00)
 search vector abs. value=  0.151E+01
 bond charge predicted
       N       E                     dE             d eps       ncg     rms          rms(c)
DAV:   1    -0.307768680547E+03   -0.15013E+00   -0.36075E+01 41280   0.208E+01    0.314E+00
DAV:   2    -0.308089440090E+03   -0.32076E+00   -0.38321E+00 70112   0.949E+00    0.404E+00
DAV:   3    -0.307985628669E+03    0.10381E+00   -0.22102E+00 73160   0.723E+00    0.307E+00
DAV:   4    -0.307954671493E+03    0.30957E-01   -0.90791E-01 69408   0.468E+00    0.254E+00
DAV:   5    -0.307895617980E+03    0.59054E-01   -0.50018E-01 69808   0.340E+00    0.129E+00
DAV:   6    -0.307884282624E+03    0.11335E-01   -0.19454E-01 72208   0.206E+00    0.979E-01
DAV:   7    -0.307885511784E+03   -0.12292E-02   -0.15575E-01 72760   0.185E+00    0.106E+00
DAV:   8    -0.307875258022E+03    0.10254E-01   -0.73124E-02 72000   0.133E+00    0.366E-01
DAV:   9    -0.307874349090E+03    0.90893E-03   -0.15960E-02 69816   0.484E-01    0.283E-01
DAV:  10    -0.307874208760E+03    0.14033E-03   -0.59809E-03 62616   0.327E-01    0.241E-01
DAV:  11    -0.307874184226E+03    0.24534E-04   -0.27439E-03 59040   0.252E-01    0.181E-01
DAV:  12    -0.307874495348E+03   -0.31112E-03   -0.29553E-03 62336   0.242E-01    0.161E-01
DAV:  13    -0.307874369110E+03    0.12624E-03   -0.24624E-03 62656   0.224E-01    0.768E-02
DAV:  14    -0.307874350753E+03    0.18357E-04   -0.12319E-03 59208   0.155E-01    0.713E-02
DAV:  15    -0.307874293431E+03    0.57322E-04   -0.50192E-04 39984   0.136E-01
   4 F= -.30787429E+03 E0= -.30787180E+03  d E =-.255776E+00
 trial-energy change:   -0.255776  1 .order   -0.258304   -0.360110   -0.156498
 step:   0.9166(harm=  0.8555)  dis= 0.05808  next Energy=  -307.942509 (dE=-0.324E+00)
 bond charge predicted
       N       E                     dE             d eps       ncg     rms          rms(c)
DAV:   1    -0.307855127923E+03    0.19223E-01   -0.28796E+01 41280   0.186E+01    0.275E+00
DAV:   2    -0.308090848603E+03   -0.23572E+00   -0.29704E+00 69912   0.830E+00    0.337E+00
DAV:   3    -0.308027130722E+03    0.63718E-01   -0.16900E+00 73240   0.628E+00    0.276E+00
DAV:   4    -0.307995297309E+03    0.31833E-01   -0.69968E-01 69384   0.413E+00    0.218E+00
DAV:   5    -0.307952323717E+03    0.42974E-01   -0.37264E-01 70848   0.296E+00    0.111E+00
DAV:   6    -0.307943428026E+03    0.88957E-02   -0.13747E-01 70872   0.176E+00    0.824E-01
DAV:   7    -0.307944875792E+03   -0.14478E-02   -0.11694E-01 72512   0.160E+00    0.922E-01
DAV:   8    -0.307937190211E+03    0.76856E-02   -0.56814E-02 71968   0.117E+00    0.331E-01
DAV:   9    -0.307936370966E+03    0.81925E-03   -0.13080E-02 67200   0.439E-01    0.244E-01
DAV:  10    -0.307936284267E+03    0.86699E-04   -0.46864E-03 63320   0.287E-01    0.210E-01
DAV:  11    -0.307936290159E+03   -0.58918E-05   -0.25279E-03 58488   0.243E-01    0.162E-01
DAV:  12    -0.307936484327E+03   -0.19417E-03   -0.23602E-03 60880   0.225E-01    0.136E-01
DAV:  13    -0.307936414654E+03    0.69672E-04   -0.20385E-03 61016   0.203E-01    0.805E-02
DAV:  14    -0.307936402488E+03    0.12166E-04   -0.11864E-03 55696   0.169E-01    0.821E-02
DAV:  15    -0.307936325135E+03    0.77353E-04   -0.43116E-04 37024   0.142E-01
   5 F= -.30793633E+03 E0= -.30793496E+03  d E =-.317808E+00
 curvature:  -0.84 expect dE=-0.718E-01 dE for cont linesearch -0.478E-03
 trial: gam= 0.06802 g(F)=  0.836E-01 g(S)=  0.152E-02 ort =-0.292E-01 (trialstep = 0.570E+00)
 search vector abs. value=  0.881E-01
 bond charge predicted
       N       E                     dE             d eps       ncg     rms          rms(c)
DAV:   1    -0.307958286777E+03   -0.21884E-01   -0.31552E+00 41280   0.602E+00    0.677E-01
DAV:   2    -0.307988258534E+03   -0.29972E-01   -0.32714E-01 70264   0.300E+00    0.104E+00
DAV:   3    -0.307981187404E+03    0.70711E-02   -0.13370E-01 70256   0.187E+00    0.709E-01
DAV:   4    -0.307978518956E+03    0.26684E-02   -0.44360E-02 67216   0.989E-01    0.466E-01
DAV:   5    -0.307977126782E+03    0.13922E-02   -0.20844E-02 62784   0.659E-01    0.397E-01
DAV:   6    -0.307976042524E+03    0.10843E-02   -0.12693E-02 63776   0.508E-01    0.214E-01
DAV:   7    -0.307975976090E+03    0.66435E-04   -0.55160E-03 73080   0.348E-01    0.187E-01
DAV:   8    -0.307975766746E+03    0.20934E-03   -0.50932E-03 62520   0.317E-01    0.151E-01
DAV:   9    -0.307975528298E+03    0.23845E-03   -0.15192E-03 55920   0.204E-01    0.705E-02
DAV:  10    -0.307975480042E+03    0.48256E-04   -0.23491E-04 30904   0.947E-02
   6 F= -.30797548E+03 E0= -.30797446E+03  d E =-.391549E-01
 trial-energy change:   -0.039155  1 .order   -0.039134   -0.047405   -0.030863
 step:   1.6342(harm=  1.6342)  dis= 0.02803  next Energy=  -308.004248 (dE=-0.679E-01)
 bond charge predicted
       N       E                     dE             d eps       ncg     rms          rms(c)
DAV:   1    -0.307944267323E+03    0.31261E-01   -0.10995E+01 41280   0.113E+01    0.125E+00
DAV:   2    -0.308045050756E+03   -0.10078E+00   -0.11144E+00 70088   0.544E+00    0.184E+00
DAV:   3    -0.308024882447E+03    0.20168E-01   -0.44462E-01 70512   0.341E+00    0.132E+00
DAV:   4    -0.308015453038E+03    0.94294E-02   -0.15136E-01 70968   0.185E+00    0.859E-01
DAV:   5    -0.308010258953E+03    0.51941E-02   -0.69816E-02 67664   0.119E+00    0.712E-01
DAV:   6    -0.308007060352E+03    0.31986E-02   -0.43583E-02 69808   0.948E-01    0.413E-01
DAV:   7    -0.308006510158E+03    0.55019E-03   -0.19389E-02 73976   0.645E-01    0.337E-01
DAV:   8    -0.308005923965E+03    0.58619E-03   -0.16855E-02 73384   0.577E-01    0.285E-01
DAV:   9    -0.308005112475E+03    0.81149E-03   -0.53506E-03 61696   0.363E-01    0.129E-01
DAV:  10    -0.308005031479E+03    0.80996E-04   -0.13950E-03 59168   0.147E-01    0.910E-02
DAV:  11    -0.308005020543E+03    0.10936E-04   -0.36776E-04 36680   0.111E-01
   7 F= -.30800502E+03 E0= -.30800454E+03  d E =-.686954E-01
 curvature:  -0.87 expect dE=-0.431E-01 dE for cont linesearch -0.240E-04
 trial: gam= 0.53942 g(F)=  0.182E-01 g(S)=  0.315E-01 ort = 0.156E-02 (trialstep = 0.783E+00)
 search vector abs. value=  0.771E-01
 bond charge predicted
       N       E                     dE             d eps       ncg     rms          rms(c)
DAV:   1    -0.308055073717E+03   -0.50042E-01   -0.59082E+00 54896   0.106E+01    0.239E+00
DAV:   2    -0.308093703373E+03   -0.38630E-01   -0.11716E+00 75184   0.510E+00    0.211E+00
DAV:   3    -0.308088975893E+03    0.47275E-02   -0.95272E-01 72160   0.439E+00    0.231E+00
DAV:   4    -0.308054221951E+03    0.34754E-01   -0.43746E-01 68200   0.336E+00    0.152E+00
DAV:   5    -0.308031407974E+03    0.22814E-01   -0.23711E-01 71944   0.204E+00    0.943E-01
DAV:   6    -0.308028454084E+03    0.29539E-02   -0.13681E-01 66768   0.171E+00    0.890E-01
DAV:   7    -0.308022398577E+03    0.60555E-02   -0.75906E-02 71256   0.124E+00    0.407E-01
DAV:   8    -0.308022108997E+03    0.28958E-03   -0.27483E-02 65040   0.726E-01    0.351E-01
DAV:   9    -0.308021163315E+03    0.94568E-03   -0.84667E-03 59872   0.462E-01    0.195E-01
DAV:  10    -0.308021044990E+03    0.11833E-03   -0.20468E-03 61720   0.196E-01    0.156E-01
DAV:  11    -0.308021084535E+03   -0.39545E-04   -0.24044E-04 29776   0.110E-01
   8 F= -.30802108E+03 E0= -.30802083E+03  d E =-.160640E-01
 trial-energy change:   -0.016064  1 .order   -0.015996   -0.039650    0.007659
 step:   0.6563(harm=  0.6563)  dis= 0.00958  next Energy=  -308.021636 (dE=-0.166E-01)
 bond charge predicted
       N       E                     dE             d eps       ncg     rms          rms(c)
DAV:   1    -0.308023000488E+03   -0.19555E-02   -0.15200E-01 54264   0.170E+00    0.423E-01
DAV:   2    -0.308025003199E+03   -0.20027E-02   -0.36701E-02 76648   0.896E-01    0.455E-01
DAV:   3    -0.308024346197E+03    0.65700E-03   -0.32375E-02 72040   0.848E-01    0.430E-01
DAV:   4    -0.308023367578E+03    0.97862E-03   -0.15169E-02 61112   0.586E-01    0.286E-01
DAV:   5    -0.308022709348E+03    0.65823E-03   -0.83063E-03 65536   0.415E-01    0.201E-01
DAV:   6    -0.308022480427E+03    0.22892E-03   -0.50801E-03 61208   0.335E-01    0.155E-01
DAV:   7    -0.308022286203E+03    0.19422E-03   -0.27003E-03 58872   0.247E-01    0.820E-02
DAV:   8    -0.308022293028E+03   -0.68253E-05   -0.13488E-03 56088   0.177E-01    0.773E-02
DAV:   9    -0.308022213201E+03    0.79827E-04   -0.40111E-04 36816   0.135E-01
   9 F= -.30802221E+03 E0= -.30802190E+03  d E =-.171927E-01
 curvature:  -0.50 expect dE=-0.127E-01 dE for cont linesearch -0.319E-06
 trial: gam= 0.51864 g(F)=  0.165E-01 g(S)=  0.891E-02 ort =-0.222E-03 (trialstep = 0.758E+00)
 search vector abs. value=  0.459E-01
 bond charge predicted
       N       E                     dE             d eps       ncg     rms          rms(c)
DAV:   1    -0.308013173458E+03    0.91196E-02   -0.32898E+00 42168   0.632E+00    0.571E-01
DAV:   2    -0.308048008808E+03   -0.34835E-01   -0.33732E-01 67064   0.304E+00    0.106E+00
DAV:   3    -0.308040758673E+03    0.72501E-02   -0.99736E-02 67680   0.177E+00    0.498E-01
DAV:   4    -0.308039466523E+03    0.12921E-02   -0.17008E-02 65072   0.699E-01    0.377E-01
DAV:   5    -0.308038344505E+03    0.11220E-02   -0.87518E-03 62784   0.464E-01    0.226E-01
DAV:   6    -0.308038245756E+03    0.98749E-04   -0.40730E-03 67152   0.275E-01    0.194E-01
DAV:   7    -0.308038184198E+03    0.61558E-04   -0.36852E-03 67848   0.293E-01    0.181E-01
DAV:   8    -0.308037886058E+03    0.29814E-03   -0.27013E-03 63200   0.263E-01    0.922E-02
DAV:   9    -0.308037800240E+03    0.85817E-04   -0.76080E-04 47384   0.136E-01
  10 F= -.30803780E+03 E0= -.30803763E+03  d E =-.155870E-01
 trial-energy change:   -0.015587  1 .order   -0.015539   -0.019126   -0.011953
 step:   2.0203(harm=  2.0203)  dis= 0.02483  next Energy=  -308.047712 (dE=-0.255E-01)
 bond charge predicted
       N       E                     dE             d eps       ncg     rms          rms(c)
DAV:   1    -0.307976425338E+03    0.61461E-01   -0.91144E+00 41784   0.105E+01    0.987E-01
DAV:   2    -0.308071933532E+03   -0.95508E-01   -0.94273E-01 67016   0.508E+00    0.166E+00
DAV:   3    -0.308057049602E+03    0.14884E-01   -0.27828E-01 67344   0.300E+00    0.908E-01
DAV:   4    -0.308051360513E+03    0.56891E-02   -0.46691E-02 65592   0.120E+00    0.594E-01
DAV:   5    -0.308048796497E+03    0.25640E-02   -0.22299E-02 68880   0.738E-01    0.387E-01
DAV:   6    -0.308048504402E+03    0.29209E-03   -0.11288E-02 66824   0.468E-01    0.335E-01
DAV:   7    -0.308048379312E+03    0.12509E-03   -0.10953E-02 70752   0.501E-01    0.309E-01
DAV:   8    -0.308047508381E+03    0.87093E-03   -0.78610E-03 70648   0.439E-01    0.159E-01
DAV:   9    -0.308047311973E+03    0.19641E-03   -0.27505E-03 65696   0.228E-01    0.869E-02
DAV:  10    -0.308047272430E+03    0.39544E-04   -0.95111E-04 52656   0.142E-01
  11 F= -.30804727E+03 E0= -.30804729E+03  d E =-.250592E-01
 curvature:  -1.84 expect dE=-0.219E-01 dE for cont linesearch -0.351E-04
 trial: gam= 0.42600 g(F)=  0.114E-01 g(S)=  0.590E-03 ort =-0.936E-03 (trialstep = 0.101E+01)
 search vector abs. value=  0.195E-01
 bond charge predicted
       N       E                     dE             d eps       ncg     rms          rms(c)
DAV:   1    -0.308035674586E+03    0.11637E-01   -0.27022E+00 42376   0.595E+00    0.618E-01
DAV:   2    -0.308059692873E+03   -0.24018E-01   -0.29164E-01 65264   0.234E+00    0.541E-01
DAV:   3    -0.308063194867E+03   -0.35020E-02   -0.72169E-02 69440   0.134E+00    0.772E-01
DAV:   4    -0.308058132041E+03    0.50628E-02   -0.33448E-02 67656   0.921E-01    0.320E-01
DAV:   5    -0.308057210292E+03    0.92175E-03   -0.90064E-03 69760   0.402E-01    0.217E-01
DAV:   6    -0.308057633764E+03   -0.42347E-03   -0.80169E-03 67840   0.444E-01    0.288E-01
DAV:   7    -0.308056933952E+03    0.69981E-03   -0.64988E-03 66776   0.403E-01    0.139E-01
DAV:   8    -0.308056705013E+03    0.22894E-03   -0.21123E-03 66328   0.186E-01    0.675E-02
DAV:   9    -0.308056679931E+03    0.25082E-04   -0.50535E-04 42544   0.903E-02
  12 F= -.30805668E+03 E0= -.30805687E+03  d E =-.940750E-02
 trial-energy change:   -0.009408  1 .order   -0.009480   -0.011669   -0.007291
 step:   2.6924(harm=  2.6924)  dis= 0.02930  next Energy=  -308.062822 (dE=-0.155E-01)
 bond charge predicted
       N       E                     dE             d eps       ncg     rms          rms(c)
DAV:   1    -0.308002738821E+03    0.53966E-01   -0.74819E+00 42208   0.992E+00    0.104E+00
DAV:   2    -0.308069969825E+03   -0.67231E-01   -0.81702E-01 64968   0.392E+00    0.893E-01
DAV:   3    -0.308081008665E+03   -0.11039E-01   -0.20966E-01 69408   0.230E+00    0.132E+00
DAV:   4    -0.308065585573E+03    0.15423E-01   -0.95604E-02 67104   0.158E+00    0.511E-01
DAV:   5    -0.308063535056E+03    0.20505E-02   -0.25387E-02 73048   0.667E-01    0.377E-01
DAV:   6    -0.308064599943E+03   -0.10649E-02   -0.22588E-02 68952   0.764E-01    0.483E-01
DAV:   7    -0.308062560025E+03    0.20399E-02   -0.16789E-02 72384   0.658E-01    0.218E-01
DAV:   8    -0.308062032822E+03    0.52720E-03   -0.57473E-03 69384   0.306E-01    0.133E-01
DAV:   9    -0.308061999621E+03    0.33201E-04   -0.20589E-03 60624   0.199E-01    0.111E-01
DAV:  10    -0.308061965619E+03    0.34002E-04   -0.71835E-04 47768   0.139E-01
  13 F= -.30806197E+03 E0= -.30806242E+03  d E =-.146932E-01
 curvature:  -2.27 expect dE=-0.751E-01 dE for cont linesearch -0.692E-04
 trial: gam= 2.79793 g(F)=  0.739E-02 g(S)=  0.257E-01 ort =-0.771E-03 (trialstep = 0.145E+00)
 search vector abs. value=  0.181E+00
 bond charge predicted
       N       E                     dE             d eps       ncg     rms          rms(c)
DAV:   1    -0.308062368298E+03   -0.36868E-03   -0.52708E-01 42608   0.260E+00    0.295E-01
DAV:   2    -0.308067155548E+03   -0.47873E-02   -0.59635E-02 66920   0.109E+00    0.270E-01
DAV:   3    -0.308067237468E+03   -0.81920E-04   -0.13378E-02 70640   0.598E-01    0.291E-01
DAV:   4    -0.308066733091E+03    0.50438E-03   -0.73144E-03 61192   0.433E-01    0.204E-01
DAV:   5    -0.308066444059E+03    0.28903E-03   -0.30471E-03 62728   0.264E-01    0.137E-01
DAV:   6    -0.308066447216E+03   -0.31575E-05   -0.24143E-03 60544   0.239E-01    0.128E-01
DAV:   7    -0.308066318157E+03    0.12906E-03   -0.17160E-03 58832   0.197E-01    0.784E-02
DAV:   8    -0.308066277344E+03    0.40813E-04   -0.77480E-04 47728   0.146E-01
  14 F= -.30806628E+03 E0= -.30806682E+03  d E =-.431172E-02
 ZBRENT: can't locate minimum, use default step
 trial-energy change:   -0.004312  1 .order   -0.004252   -0.004478   -0.004027
 step:   0.5788(harm=  1.4362)  dis= 0.02029  next Energy=  -308.084187 (dE=-0.222E-01)
 bond charge predicted
       N       E                     dE             d eps       ncg     rms          rms(c)
DAV:   1    -0.308039198717E+03    0.27119E-01   -0.47169E+00 42760   0.776E+00    0.859E-01
DAV:   2    -0.308082542137E+03   -0.43343E-01   -0.53086E-01 67448   0.335E+00    0.815E-01
DAV:   3    -0.308081759881E+03    0.78226E-03   -0.11990E-01 69984   0.182E+00    0.787E-01
DAV:   4    -0.308078215991E+03    0.35439E-02   -0.66443E-02 70656   0.125E+00    0.599E-01
DAV:   5    -0.308075803798E+03    0.24122E-02   -0.29091E-02 68400   0.801E-01    0.398E-01
DAV:   6    -0.308075112407E+03    0.69139E-03   -0.16063E-02 70448   0.602E-01    0.270E-01
DAV:   7    -0.308074564847E+03    0.54756E-03   -0.10228E-02 75504   0.405E-01    0.189E-01
DAV:   8    -0.308074442615E+03    0.12223E-03   -0.46077E-03 71640   0.337E-01    0.174E-01
DAV:   9    -0.308074128134E+03    0.31448E-03   -0.18322E-03 60176   0.216E-01    0.742E-02
DAV:  10    -0.308074141673E+03   -0.13539E-04   -0.36964E-04 37824   0.980E-02
  15 F= -.30807414E+03 E0= -.30807485E+03  d E =-.121761E-01
 curvature:  -2.35 expect dE=-0.297E-01 dE for cont linesearch -0.130E-02
 ZBRENT: increasing intervall
 opt :   1.4470  next Energy=  -308.067367 (dE=-0.540E-02)
 bond charge predicted
       N       E                     dE             d eps       ncg     rms          rms(c)
DAV:   1    -0.307935169608E+03    0.13896E+00   -0.18962E+01 43072   0.155E+01    0.175E+00
DAV:   2    -0.308106248477E+03   -0.17108E+00   -0.21056E+00 68384   0.676E+00    0.169E+00
DAV:   3    -0.308094187976E+03    0.12061E-01   -0.48308E-01 70096   0.363E+00    0.148E+00
DAV:   4    -0.308083241104E+03    0.10947E-01   -0.27078E-01 71872   0.253E+00    0.122E+00
DAV:   5    -0.308073892186E+03    0.93489E-02   -0.12398E-01 67632   0.168E+00    0.818E-01
DAV:   6    -0.308070258988E+03    0.36332E-02   -0.63836E-02 70936   0.124E+00    0.541E-01
DAV:   7    -0.308068284212E+03    0.19748E-02   -0.41679E-02 77192   0.819E-01    0.381E-01
DAV:   8    -0.308067780920E+03    0.50329E-03   -0.18343E-02 77176   0.628E-01    0.347E-01
DAV:   9    -0.308066584705E+03    0.11962E-02   -0.77512E-03 69400   0.427E-01    0.165E-01
DAV:  10    -0.308066662371E+03   -0.77666E-04   -0.25441E-03 64320   0.212E-01    0.148E-01
DAV:  11    -0.308066678039E+03   -0.15668E-04   -0.15244E-03 57400   0.182E-01    0.106E-01
DAV:  12    -0.308066797642E+03   -0.11960E-03   -0.17736E-03 55184   0.214E-01    0.121E-01
DAV:  13    -0.308066669678E+03    0.12796E-03   -0.11530E-03 51424   0.175E-01    0.356E-02
DAV:  14    -0.308066666825E+03    0.28526E-05   -0.20386E-04 28000   0.945E-02
  16 F= -.30806667E+03 E0= -.30806755E+03  d E =-.470121E-02
 curvature:  12.25 expect dE= 0.846E+00 dE for cont linesearch  0.511E-01
 ZBRENT: bracketing found
 ZBRENT: interpolating
 opt :   0.8105  next Energy=  -308.075302 (dE=-0.133E-01)
 bond charge predicted
       N       E                     dE             d eps       ncg     rms          rms(c)
DAV:   1    -0.308001001970E+03    0.65668E-01   -0.10218E+01 42800   0.115E+01    0.127E+00
DAV:   2    -0.308089450111E+03   -0.88448E-01   -0.11090E+00 66016   0.468E+00    0.110E+00
DAV:   3    -0.308090425851E+03   -0.97574E-03   -0.22809E-01 71416   0.252E+00    0.102E+00
DAV:   4    -0.308081445519E+03    0.89803E-02   -0.10996E-01 71840   0.163E+00    0.715E-01
DAV:   5    -0.308078542639E+03    0.29029E-02   -0.54562E-02 69408   0.993E-01    0.561E-01
DAV:   6    -0.308079018138E+03   -0.47550E-03   -0.40965E-02 67944   0.101E+00    0.557E-01
DAV:   7    -0.308075924302E+03    0.30938E-02   -0.25768E-02 72680   0.686E-01    0.244E-01
DAV:   8    -0.308075757614E+03    0.16669E-03   -0.80618E-03 74624   0.425E-01    0.228E-01
DAV:   9    -0.308075232122E+03    0.52549E-03   -0.34123E-03 65256   0.296E-01    0.109E-01
DAV:  10    -0.308075242101E+03   -0.99786E-05   -0.10190E-03 53472   0.142E-01    0.936E-02
DAV:  11    -0.308075220837E+03    0.21264E-04   -0.39824E-04 38376   0.115E-01
  17 F= -.30807522E+03 E0= -.30807601E+03  d E =-.132552E-01
 curvature:  -0.28 expect dE=-0.509E-02 dE for cont linesearch -0.212E-06
 trial: gam= 0.53855 g(F)=  0.154E-01 g(S)=  0.290E-02 ort =-0.372E-03 (trialstep = 0.278E+00)
 search vector abs. value=  0.705E-01
 bond charge predicted
       N       E                     dE             d eps       ncg     rms          rms(c)
DAV:   1    -0.308072980324E+03    0.22618E-02   -0.80200E-01 43376   0.306E+00    0.247E-01
DAV:   2    -0.308080582924E+03   -0.76026E-02   -0.78772E-02 64832   0.120E+00    0.290E-01
DAV:   3    -0.308080742739E+03   -0.15982E-03   -0.17177E-02 68992   0.681E-01    0.293E-01
DAV:   4    -0.308080059767E+03    0.68297E-03   -0.48083E-03 61504   0.365E-01    0.134E-01
DAV:   5    -0.308079922274E+03    0.13749E-03   -0.11836E-03 53680   0.176E-01    0.898E-02
DAV:   6    -0.308079929062E+03   -0.67875E-05   -0.70911E-04 46728   0.153E-01
  18 F= -.30807993E+03 E0= -.30808074E+03  d E =-.470823E-02
 ZBRENT: can't locate minimum, use default step
 trial-energy change:   -0.004708  1 .order   -0.004911   -0.005027   -0.004796
 step:   1.1115(harm=  6.0431)  dis= 0.02765  next Energy=  -308.129883 (dE=-0.547E-01)
 bond charge predicted
       N       E                     dE             d eps       ncg     rms          rms(c)
DAV:   1    -0.308033247118E+03    0.46675E-01   -0.72651E+00 43504   0.916E+00    0.711E-01
DAV:   2    -0.308097573048E+03   -0.64326E-01   -0.66529E-01 65040   0.355E+00    0.881E-01
DAV:   3    -0.308096939037E+03    0.63401E-03   -0.13484E-01 68360   0.199E+00    0.760E-01
DAV:   4    -0.308092372274E+03    0.45668E-02   -0.33224E-02 67072   0.994E-01    0.403E-01
DAV:   5    -0.308091631708E+03    0.74057E-03   -0.10428E-02 66328   0.527E-01    0.313E-01
DAV:   6    -0.308091629128E+03    0.25799E-05   -0.76757E-03 64040   0.450E-01    0.299E-01
DAV:   7    -0.308091387752E+03    0.24138E-03   -0.96035E-03 65896   0.488E-01    0.255E-01
DAV:   8    -0.308090719304E+03    0.66845E-03   -0.43067E-03 66856   0.360E-01    0.103E-01
DAV:   9    -0.308090614386E+03    0.10492E-03   -0.13619E-03 60816   0.152E-01    0.615E-02
DAV:  10    -0.308090600109E+03    0.14277E-04   -0.51078E-04 41440   0.113E-01
  19 F= -.30809060E+03 E0= -.30809158E+03  d E =-.153793E-01
 curvature:  -3.16 expect dE=-0.271E-01 dE for cont linesearch -0.418E-02
 ZBRENT: increasing intervall
 opt :   2.7787  next Energy=  -308.094017 (dE=-0.188E-01)
 bond charge predicted
       N       E                     dE             d eps       ncg     rms          rms(c)
DAV:   1    -0.307837692826E+03    0.25292E+00   -0.29030E+01 42832   0.185E+01    0.173E+00
DAV:   2    -0.308126015673E+03   -0.28832E+00   -0.29940E+00 65336   0.776E+00    0.172E+00
DAV:   3    -0.308137371015E+03   -0.11355E-01   -0.65193E-01 67408   0.440E+00    0.189E+00
DAV:   4    -0.308104065018E+03    0.33306E-01   -0.21853E-01 68064   0.254E+00    0.788E-01
DAV:   5    -0.308102324432E+03    0.17406E-02   -0.46176E-02 67440   0.112E+00    0.687E-01
DAV:   6    -0.308100819298E+03    0.15051E-02   -0.27934E-02 63528   0.863E-01    0.580E-01
DAV:   7    -0.308101620309E+03   -0.80101E-03   -0.30853E-02 66024   0.856E-01    0.597E-01
DAV:   8    -0.308098695165E+03    0.29251E-02   -0.21397E-02 67456   0.817E-01    0.284E-01
DAV:   9    -0.308097893046E+03    0.80212E-03   -0.81413E-03 77976   0.399E-01    0.151E-01
DAV:  10    -0.308097805151E+03    0.87894E-04   -0.36189E-03 70856   0.232E-01    0.119E-01
DAV:  11    -0.308097737899E+03    0.67253E-04   -0.14964E-03 55288   0.182E-01    0.896E-02
DAV:  12    -0.308097671987E+03    0.65912E-04   -0.53598E-04 42376   0.120E-01
  20 F= -.30809767E+03 E0= -.30809892E+03  d E =-.224512E-01
 curvature:  -2.58 expect dE=-0.334E-01 dE for cont linesearch -0.284E-03
 trial: gam= 0.68527 g(F)=  0.121E-01 g(S)=  0.781E-03 ort =-0.279E-02 (trialstep = 0.778E+00)
 search vector abs. value=  0.422E-01
 bond charge predicted
       N       E                     dE             d eps       ncg     rms          rms(c)
DAV:   1    -0.308070613775E+03    0.27124E-01   -0.39136E+00 42960   0.670E+00    0.583E-01
DAV:   2    -0.308107309339E+03   -0.36696E-01   -0.39510E-01 64352   0.272E+00    0.485E-01
DAV:   3    -0.308109535040E+03   -0.22257E-02   -0.55393E-02 71120   0.124E+00    0.594E-01
DAV:   4    -0.308106481275E+03    0.30538E-02   -0.23078E-02 69120   0.802E-01    0.295E-01
DAV:   5    -0.308105989869E+03    0.49141E-03   -0.49502E-03 67376   0.327E-01    0.228E-01
DAV:   6    -0.308106242561E+03   -0.25269E-03   -0.53204E-03 66432   0.334E-01    0.267E-01
DAV:   7    -0.308105838377E+03    0.40418E-03   -0.57228E-03 65296   0.367E-01    0.170E-01
DAV:   8    -0.308105576596E+03    0.26178E-03   -0.27431E-03 66856   0.251E-01    0.996E-02
DAV:   9    -0.308105498330E+03    0.78267E-04   -0.94734E-04 52768   0.158E-01
  21 F= -.30810550E+03 E0= -.30810692E+03  d E =-.782634E-02
 ZBRENT: can't locate minimum, use default step
 trial-energy change:   -0.007826  1 .order   -0.007565   -0.008571   -0.006558
 step:   3.1121(harm=  3.3135)  dis= 0.06425  next Energy=  -308.115923 (dE=-0.183E-01)
 bond charge predicted
       N       E                     dE             d eps       ncg     rms          rms(c)
DAV:   1    -0.307809651361E+03    0.29593E+00   -0.35552E+01 43616   0.203E+01    0.176E+00
DAV:   2    -0.308135020428E+03   -0.32537E+00   -0.34736E+00 64352   0.781E+00    0.153E+00
DAV:   3    -0.308148196086E+03   -0.13176E-01   -0.55378E-01 69712   0.386E+00    0.183E+00
DAV:   4    -0.308119791551E+03    0.28405E-01   -0.22481E-01 69528   0.249E+00    0.896E-01
DAV:   5    -0.308115589888E+03    0.42017E-02   -0.46562E-02 69296   0.102E+00    0.700E-01
DAV:   6    -0.308116204106E+03   -0.61422E-03   -0.42857E-02 68192   0.959E-01    0.750E-01
DAV:   7    -0.308115242739E+03    0.96137E-03   -0.53220E-02 65880   0.109E+00    0.611E-01
DAV:   8    -0.308111714631E+03    0.35281E-02   -0.29152E-02 70360   0.817E-01    0.329E-01
DAV:   9    -0.308110800152E+03    0.91448E-03   -0.11398E-02 71856   0.544E-01    0.194E-01
DAV:  10    -0.308110624795E+03    0.17536E-03   -0.42283E-03 71096   0.275E-01    0.127E-01
DAV:  11    -0.308110526317E+03    0.98478E-04   -0.10118E-03 52416   0.148E-01    0.863E-02
DAV:  12    -0.308110527637E+03   -0.13197E-05   -0.52813E-04 44352   0.129E-01
  22 F= -.30811053E+03 E0= -.30811239E+03  d E =-.128557E-01
 curvature:  -6.31 expect dE=-0.109E+00 dE for cont linesearch -0.285E-02
 ZBRENT: interpolating
 opt :   2.3158  next Energy=  -308.112266 (dE=-0.146E-01)
 bond charge predicted
       N       E                     dE             d eps       ncg     rms          rms(c)
DAV:   1    -0.308075572163E+03    0.34954E-01   -0.40650E+00 42872   0.680E+00    0.618E-01
DAV:   2    -0.308115058532E+03   -0.39486E-01   -0.42481E-01 64736   0.286E+00    0.567E-01
DAV:   3    -0.308116858210E+03   -0.17997E-02   -0.76605E-02 71392   0.142E+00    0.644E-01
DAV:   4    -0.308113174444E+03    0.36838E-02   -0.28200E-02 67520   0.898E-01    0.307E-01
DAV:   5    -0.308112409371E+03    0.76507E-03   -0.68217E-03 66960   0.358E-01    0.215E-01
DAV:   6    -0.308112864588E+03   -0.45522E-03   -0.66777E-03 62960   0.391E-01    0.300E-01
DAV:   7    -0.308112100591E+03    0.76400E-03   -0.50709E-03 64712   0.361E-01    0.114E-01
DAV:   8    -0.308112036426E+03    0.64166E-04   -0.19023E-03 64264   0.213E-01    0.102E-01
DAV:   9    -0.308111936914E+03    0.99512E-04   -0.80255E-04 47944   0.158E-01
  23 F= -.30811194E+03 E0= -.30811364E+03  d E =-.142649E-01
 curvature:  -3.85 expect dE=-0.434E-01 dE for cont linesearch -0.333E-05
 trial: gam= 0.74791 g(F)=  0.493E-02 g(S)=  0.635E-02 ort = 0.191E-03 (trialstep = 0.109E+01)
 search vector abs. value=  0.352E-01
 bond charge predicted
       N       E                     dE             d eps       ncg     rms          rms(c)
DAV:   1    -0.308073164172E+03    0.38872E-01   -0.65774E+00 41472   0.965E+00    0.165E+00
DAV:   2    -0.308138209712E+03   -0.65046E-01   -0.96037E-01 69304   0.441E+00    0.116E+00
DAV:   3    -0.308133752304E+03    0.44574E-02   -0.28313E-01 71752   0.249E+00    0.109E+00
DAV:   4    -0.308126727774E+03    0.70245E-02   -0.17641E-01 71792   0.201E+00    0.973E-01
DAV:   5    -0.308117877490E+03    0.88503E-02   -0.98879E-02 69976   0.143E+00    0.512E-01
DAV:   6    -0.308115783653E+03    0.20938E-02   -0.34550E-02 72992   0.841E-01    0.349E-01
DAV:   7    -0.308116091023E+03   -0.30737E-03   -0.24184E-02 75016   0.664E-01    0.364E-01
DAV:   8    -0.308115159775E+03    0.93125E-03   -0.91607E-03 67696   0.480E-01    0.206E-01
DAV:   9    -0.308114807072E+03    0.35270E-03   -0.29166E-03 64640   0.247E-01    0.139E-01
DAV:  10    -0.308114903094E+03   -0.96022E-04   -0.15333E-03 57192   0.179E-01    0.136E-01
DAV:  11    -0.308114899633E+03    0.34608E-05   -0.98109E-04 51056   0.153E-01
  24 F= -.30811490E+03 E0= -.30811657E+03  d E =-.296272E-02
 trial-energy change:   -0.002963  1 .order   -0.003781   -0.012396    0.004834
 step:   0.7111(harm=  0.7810)  dis= 0.01351  next Energy=  -308.115767 (dE=-0.383E-02)
 bond charge predicted
       N       E                     dE             d eps       ncg     rms          rms(c)
DAV:   1    -0.308110759734E+03    0.41434E-02   -0.78788E-01 41544   0.339E+00    0.573E-01
DAV:   2    -0.308120276282E+03   -0.95165E-02   -0.12720E-01 68552   0.162E+00    0.545E-01
DAV:   3    -0.308119626125E+03    0.65016E-03   -0.59864E-02 70056   0.118E+00    0.543E-01
DAV:   4    -0.308117497855E+03    0.21283E-02   -0.26955E-02 63320   0.824E-01    0.322E-01
DAV:   5    -0.308116452781E+03    0.10451E-02   -0.10960E-02 65032   0.459E-01    0.182E-01
DAV:   6    -0.308116374529E+03    0.78252E-04   -0.48982E-03 64968   0.359E-01    0.185E-01
DAV:   7    -0.308116207696E+03    0.16683E-03   -0.38277E-03 62936   0.315E-01    0.122E-01
DAV:   8    -0.308116087493E+03    0.12020E-03   -0.15827E-03 58968   0.183E-01    0.773E-02
DAV:   9    -0.308116004988E+03    0.82505E-04   -0.33198E-04 34608   0.120E-01
  25 F= -.30811600E+03 E0= -.30811768E+03  d E =-.406807E-02
 curvature:  -1.14 expect dE=-0.101E-01 dE for cont linesearch -0.572E-05
 trial: gam= 0.86121 g(F)=  0.446E-02 g(S)=  0.442E-02 ort =-0.420E-03 (trialstep = 0.101E+01)
 search vector abs. value=  0.342E-01
 bond charge predicted
       N       E                     dE             d eps       ncg     rms          rms(c)
DAV:   1    -0.308070389791E+03    0.45698E-01   -0.56255E+00 42736   0.787E+00    0.746E-01
DAV:   2    -0.308126186846E+03   -0.55797E-01   -0.58576E-01 64960   0.331E+00    0.616E-01
DAV:   3    -0.308129466040E+03   -0.32792E-02   -0.98348E-02 67560   0.176E+00    0.769E-01
DAV:   4    -0.308123839195E+03    0.56268E-02   -0.38186E-02 69328   0.106E+00    0.324E-01
DAV:   5    -0.308123243904E+03    0.59529E-03   -0.69135E-03 69504   0.390E-01    0.259E-01
DAV:   6    -0.308123219607E+03    0.24297E-04   -0.54935E-03 67176   0.350E-01    0.267E-01
DAV:   7    -0.308123222790E+03   -0.31834E-05   -0.70500E-03 64960   0.394E-01    0.240E-01
DAV:   8    -0.308122672005E+03    0.55079E-03   -0.39440E-03 68088   0.300E-01    0.120E-01
DAV:   9    -0.308122563651E+03    0.10835E-03   -0.16237E-03 61024   0.188E-01    0.743E-02
DAV:  10    -0.308122522303E+03    0.41348E-04   -0.48078E-04 42264   0.112E-01
  26 F= -.30812252E+03 E0= -.30812422E+03  d E =-.651732E-02
 trial-energy change:   -0.006517  1 .order   -0.006537   -0.008605   -0.004468
 step:   2.1024(harm=  2.1024)  dis= 0.04155  next Energy=  -308.124955 (dE=-0.895E-02)
 bond charge predicted
       N       E                     dE             d eps       ncg     rms          rms(c)
DAV:   1    -0.308065209898E+03    0.57354E-01   -0.65756E+00 43136   0.850E+00    0.775E-01
DAV:   2    -0.308129545677E+03   -0.64336E-01   -0.67772E-01 65184   0.350E+00    0.670E-01
DAV:   3    -0.308132636101E+03   -0.30904E-02   -0.10787E-01 67680   0.184E+00    0.803E-01
DAV:   4    -0.308126689340E+03    0.59468E-02   -0.41187E-02 70144   0.110E+00    0.360E-01
DAV:   5    -0.308126009590E+03    0.67975E-03   -0.76668E-03 69984   0.406E-01    0.288E-01
DAV:   6    -0.308126026505E+03   -0.16915E-04   -0.62036E-03 68720   0.370E-01    0.300E-01
DAV:   7    -0.308126033166E+03   -0.66613E-05   -0.85506E-03 65280   0.436E-01    0.270E-01
DAV:   8    -0.308125347789E+03    0.68538E-03   -0.49602E-03 68368   0.338E-01    0.135E-01
DAV:   9    -0.308125211393E+03    0.13640E-03   -0.20825E-03 64928   0.208E-01    0.818E-02
DAV:  10    -0.308125166729E+03    0.44664E-04   -0.63605E-04 46336   0.121E-01
  27 F= -.30812517E+03 E0= -.30812691E+03  d E =-.916174E-02
 curvature:  -4.23 expect dE=-0.245E-01 dE for cont linesearch -0.243E-05
 trial: gam= 0.48768 g(F)=  0.548E-02 g(S)=  0.307E-03 ort = 0.140E-03 (trialstep = 0.123E+01)
 search vector abs. value=  0.141E-01
 bond charge predicted
       N       E                     dE             d eps       ncg     rms          rms(c)
DAV:   1    -0.308096731124E+03    0.28480E-01   -0.35833E+00 42680   0.642E+00    0.590E-01
DAV:   2    -0.308135911465E+03   -0.39180E-01   -0.41346E-01 64560   0.275E+00    0.678E-01
DAV:   3    -0.308136116707E+03   -0.20524E-03   -0.86746E-02 67312   0.153E+00    0.688E-01
DAV:   4    -0.308132069224E+03    0.40475E-02   -0.25724E-02 67720   0.842E-01    0.315E-01
DAV:   5    -0.308131543458E+03    0.52577E-03   -0.66237E-03 68312   0.406E-01    0.242E-01
DAV:   6    -0.308131404693E+03    0.13877E-03   -0.41814E-03 65040   0.333E-01    0.223E-01
DAV:   7    -0.308131541144E+03   -0.13645E-03   -0.56621E-03 67304   0.350E-01    0.222E-01
DAV:   8    -0.308131127850E+03    0.41329E-03   -0.40682E-03 65176   0.328E-01    0.128E-01
DAV:   9    -0.308130942783E+03    0.18507E-03   -0.13508E-03 59464   0.179E-01    0.529E-02
DAV:  10    -0.308130913911E+03    0.28872E-04   -0.19623E-04 30576   0.788E-02
  28 F= -.30813091E+03 E0= -.30813281E+03  d E =-.574718E-02
 trial-energy change:   -0.005747  1 .order   -0.005799   -0.007199   -0.004398
 step:   3.1593(harm=  3.1593)  dis= 0.03997  next Energy=  -308.134419 (dE=-0.925E-02)
 bond charge predicted
       N       E                     dE             d eps       ncg     rms          rms(c)
DAV:   1    -0.308050203370E+03    0.80739E-01   -0.88410E+00 42952   0.101E+01    0.941E-01
DAV:   2    -0.308146959983E+03   -0.96757E-01   -0.10184E+00 64808   0.429E+00    0.106E+00
DAV:   3    -0.308147456218E+03   -0.49624E-03   -0.21097E-01 67064   0.237E+00    0.110E+00
DAV:   4    -0.308137114928E+03    0.10341E-01   -0.67021E-02 68304   0.136E+00    0.497E-01
DAV:   5    -0.308135843207E+03    0.12717E-02   -0.16711E-02 69480   0.648E-01    0.382E-01
DAV:   6    -0.308135469374E+03    0.37383E-03   -0.10329E-02 67472   0.517E-01    0.350E-01
DAV:   7    -0.308135880497E+03   -0.41112E-03   -0.14081E-02 67352   0.552E-01    0.360E-01
DAV:   8    -0.308134816297E+03    0.10642E-02   -0.10331E-02 67176   0.523E-01    0.202E-01
DAV:   9    -0.308134364663E+03    0.45163E-03   -0.34763E-03 70504   0.276E-01    0.848E-02
DAV:  10    -0.308134330512E+03    0.34150E-04   -0.93321E-04 55928   0.111E-01
  29 F= -.30813433E+03 E0= -.30813645E+03  d E =-.916378E-02
 curvature:  -3.79 expect dE=-0.600E-01 dE for cont linesearch -0.711E-07
 trial: gam= 2.83120 g(F)=  0.555E-02 g(S)=  0.103E-01 ort = 0.162E-04 (trialstep = 0.177E+00)
 search vector abs. value=  0.129E+00
 bond charge predicted
       N       E                     dE             d eps       ncg     rms          rms(c)
DAV:   1    -0.308130423925E+03    0.39407E-02   -0.71925E-01 43256   0.292E+00    0.324E-01
DAV:   2    -0.308139478956E+03   -0.90550E-02   -0.99012E-02 68272   0.143E+00    0.452E-01
DAV:   3    -0.308137962712E+03    0.15162E-02   -0.24717E-02 69112   0.799E-01    0.289E-01
DAV:   4    -0.308137299396E+03    0.66332E-03   -0.77799E-03 65280   0.429E-01    0.198E-01
DAV:   5    -0.308137065966E+03    0.23343E-03   -0.32313E-03 64496   0.280E-01    0.147E-01
DAV:   6    -0.308136992454E+03    0.73513E-04   -0.20743E-03 61320   0.227E-01    0.119E-01
DAV:   7    -0.308136970602E+03    0.21852E-04   -0.18234E-03 60752   0.207E-01    0.104E-01
DAV:   8    -0.308136938562E+03    0.32039E-04   -0.13845E-03 54600   0.194E-01    0.904E-02
DAV:   9    -0.308136832703E+03    0.10586E-03   -0.42352E-04 38736   0.125E-01    0.311E-02
DAV:  10    -0.308136830134E+03    0.25692E-05   -0.12524E-04 24768   0.642E-02
  30 F= -.30813683E+03 E0= -.30813895E+03  d E =-.249962E-02
 ZBRENT: can't locate minimum, use default step
 trial-energy change:   -0.002500  1 .order   -0.002522   -0.002803   -0.002241
 step:   0.7062(harm=  0.8807)  dis= 0.02901  next Energy=  -308.141321 (dE=-0.699E-02)
 bond charge predicted
       N       E                     dE             d eps       ncg     rms          rms(c)
DAV:   1    -0.308082031815E+03    0.54801E-01   -0.64438E+00 43120   0.872E+00    0.990E-01
DAV:   2    -0.308163294130E+03   -0.81262E-01   -0.88187E-01 68368   0.435E+00    0.128E+00
DAV:   3    -0.308150824814E+03    0.12469E-01   -0.21009E-01 68616   0.235E+00    0.836E-01
DAV:   4    -0.308145258051E+03    0.55668E-02   -0.74141E-02 70352   0.132E+00    0.587E-01
DAV:   5    -0.308143060939E+03    0.21971E-02   -0.29394E-02 68872   0.839E-01    0.416E-01
DAV:   6    -0.308142285882E+03    0.77506E-03   -0.16687E-02 70496   0.633E-01    0.312E-01
DAV:   7    -0.308142241668E+03    0.44214E-04   -0.13822E-02 72344   0.536E-01    0.291E-01
DAV:   8    -0.308142009431E+03    0.23224E-03   -0.10164E-02 67632   0.498E-01    0.251E-01
DAV:   9    -0.308141314600E+03    0.69483E-03   -0.39636E-03 66824   0.303E-01    0.950E-02
DAV:  10    -0.308141291422E+03    0.23177E-04   -0.91681E-04 53976   0.116E-01
  31 F= -.30814129E+03 E0= -.30814348E+03  d E =-.696091E-02
 curvature:  -3.35 expect dE=-0.369E-01 dE for cont linesearch -0.444E-03
 trial: gam= 0.39021 g(F)=  0.103E-01 g(S)=  0.694E-03 ort = 0.413E-02 (trialstep = 0.282E+00)
 search vector abs. value=  0.338E-01
 bond charge predicted
       N       E                     dE             d eps       ncg     rms          rms(c)
DAV:   1    -0.308139878824E+03    0.14358E-02   -0.50287E-01 43280   0.233E+00    0.183E-01
DAV:   2    -0.308145498654E+03   -0.56198E-02   -0.56254E-02 65552   0.101E+00    0.279E-01
DAV:   3    -0.308145151994E+03    0.34666E-03   -0.89832E-03 68184   0.517E-01    0.174E-01
DAV:   4    -0.308144905888E+03    0.24611E-03   -0.17624E-03 58616   0.235E-01    0.107E-01
DAV:   5    -0.308144874667E+03    0.31221E-04   -0.55980E-04 44856   0.135E-01
  32 F= -.30814487E+03 E0= -.30814705E+03  d E =-.358324E-02
 ZBRENT: can't locate minimum, use default step
 trial-energy change:   -0.003583  1 .order   -0.003565   -0.003565   -0.003565
 step:   1.1300(harm=  1.1300)  dis= 0.02378  next Energy=  -308.155553 (dE=-0.143E-01)
 bond charge predicted
       N       E                     dE             d eps       ncg     rms          rms(c)
DAV:   1    -0.308109759868E+03    0.35146E-01   -0.44988E+00 43120   0.697E+00    0.600E-01
DAV:   2    -0.308160458959E+03   -0.50699E-01   -0.50613E-01 65744   0.310E+00    0.827E-01
DAV:   3    -0.308157586472E+03    0.28725E-02   -0.87712E-02 67816   0.163E+00    0.551E-01
DAV:   4    -0.308154791556E+03    0.27949E-02   -0.19330E-02 67400   0.760E-01    0.308E-01
DAV:   5    -0.308154604478E+03    0.18708E-03   -0.66974E-03 66928   0.435E-01    0.269E-01
DAV:   6    -0.308154416423E+03    0.18806E-03   -0.45097E-03 65392   0.340E-01    0.231E-01
DAV:   7    -0.308154540770E+03   -0.12435E-03   -0.51863E-03 65720   0.364E-01    0.234E-01
DAV:   8    -0.308154057796E+03    0.48297E-03   -0.35214E-03 66824   0.305E-01    0.110E-01
DAV:   9    -0.308153924744E+03    0.13305E-03   -0.11772E-03 61120   0.135E-01    0.559E-02
DAV:  10    -0.308153926387E+03   -0.16430E-05   -0.34585E-04 36216   0.104E-01
  33 F= -.30815393E+03 E0= -.30815604E+03  d E =-.126350E-01
 curvature:  -2.27 expect dE=-0.163E-01 dE for cont linesearch -0.604E-02
 ZBRENT: increasing intervall
 opt :   2.8250  next Energy=  -308.164688 (dE=-0.234E-01)
 bond charge predicted
       N       E                     dE             d eps       ncg     rms          rms(c)
DAV:   1    -0.307981842133E+03    0.17208E+00   -0.18065E+01 42744   0.140E+01    0.142E+00
DAV:   2    -0.308192748727E+03   -0.21091E+00   -0.21158E+00 65552   0.650E+00    0.160E+00
DAV:   3    -0.308187230400E+03    0.55183E-02   -0.40600E-01 68168   0.349E+00    0.133E+00
DAV:   4    -0.308170249773E+03    0.16981E-01   -0.12249E-01 67944   0.188E+00    0.682E-01
DAV:   5    -0.308168236201E+03    0.20136E-02   -0.34981E-02 67744   0.973E-01    0.546E-01
DAV:   6    -0.308167296392E+03    0.93981E-03   -0.16162E-02 67680   0.627E-01    0.451E-01
DAV:   7    -0.308167519056E+03   -0.22266E-03   -0.15226E-02 70240   0.589E-01    0.438E-01
DAV:   8    -0.308166524229E+03    0.99483E-03   -0.13051E-02 67432   0.587E-01    0.288E-01
DAV:   9    -0.308165597903E+03    0.92633E-03   -0.61565E-03 73560   0.325E-01    0.119E-01
DAV:  10    -0.308165680807E+03   -0.82904E-04   -0.23798E-03 68792   0.198E-01    0.127E-01
DAV:  11    -0.308165576801E+03    0.10401E-03   -0.12086E-03 52376   0.161E-01    0.621E-02
DAV:  12    -0.308165546704E+03    0.30096E-04   -0.18312E-04 29464   0.900E-02
  34 F= -.30816555E+03 E0= -.30816756E+03  d E =-.242553E-01
 curvature:  -4.05 expect dE=-0.628E-01 dE for cont linesearch -0.162E-02
 ZBRENT: increasing intervall
 opt :   6.2150  next Energy=  -308.158352 (dE=-0.171E-01)
 bond charge predicted
       N       E                     dE             d eps       ncg     rms          rms(c)
DAV:   1    -0.307488858646E+03    0.67672E+00   -0.74375E+01 43800   0.287E+01    0.274E+00
DAV:   2    -0.308282333627E+03   -0.79347E+00   -0.79323E+00 65656   0.119E+01    0.311E+00
DAV:   3    -0.308240482457E+03    0.41851E-01   -0.15230E+00 68440   0.661E+00    0.253E+00
DAV:   4    -0.308179463286E+03    0.61019E-01   -0.49198E-01 71680   0.365E+00    0.136E+00
DAV:   5    -0.308175149330E+03    0.43140E-02   -0.15616E-01 66216   0.203E+00    0.116E+00
DAV:   6    -0.308169241576E+03    0.59078E-02   -0.69059E-02 68424   0.132E+00    0.894E-01
DAV:   7    -0.308170275284E+03   -0.10337E-02   -0.54678E-02 71448   0.107E+00    0.886E-01
DAV:   8    -0.308167681075E+03    0.25942E-02   -0.50470E-02 65176   0.116E+00    0.650E-01
DAV:   9    -0.308162749657E+03    0.49314E-02   -0.27631E-02 73048   0.714E-01    0.258E-01
DAV:  10    -0.308162737988E+03    0.11669E-04   -0.11397E-02 78064   0.414E-01    0.241E-01
DAV:  11    -0.308162427264E+03    0.31072E-03   -0.64860E-03 67544   0.350E-01    0.137E-01
DAV:  12    -0.308162292434E+03    0.13483E-03   -0.15985E-03 57704   0.181E-01    0.781E-02
DAV:  13    -0.308162269895E+03    0.22538E-04   -0.54403E-04 44024   0.116E-01
  35 F= -.30816227E+03 E0= -.30816405E+03  d E =-.209785E-01
 curvature:  17.96 expect dE= 0.160E+01 dE for cont linesearch  0.256E-01
 ZBRENT: bracketing found
 ZBRENT: interpolating
 opt :   4.0002  next Energy=  -308.167710 (dE=-0.264E-01)
 bond charge predicted
       N       E                     dE             d eps       ncg     rms          rms(c)
DAV:   1    -0.307875388937E+03    0.28690E+00   -0.31197E+01 43184   0.183E+01    0.173E+00
DAV:   2    -0.308200382323E+03   -0.32499E+00   -0.32665E+00 64760   0.766E+00    0.196E+00
DAV:   3    -0.308204845175E+03   -0.44629E-02   -0.63973E-01 68960   0.437E+00    0.171E+00
DAV:   4    -0.308175407502E+03    0.29438E-01   -0.15888E-01 67168   0.221E+00    0.820E-01
DAV:   5    -0.308172275386E+03    0.31321E-02   -0.42866E-02 67528   0.105E+00    0.658E-01
DAV:   6    -0.308171946832E+03    0.32855E-03   -0.20663E-02 68344   0.708E-01    0.581E-01
DAV:   7    -0.308170232625E+03    0.17142E-02   -0.22438E-02 69248   0.740E-01    0.421E-01
DAV:   8    -0.308169180973E+03    0.10517E-02   -0.15843E-02 69320   0.596E-01    0.286E-01
DAV:   9    -0.308168651350E+03    0.52962E-03   -0.85703E-03 73784   0.391E-01    0.155E-01
DAV:  10    -0.308168601311E+03    0.50039E-04   -0.31397E-03 63368   0.250E-01    0.132E-01
DAV:  11    -0.308168460918E+03    0.14039E-03   -0.11372E-03 52464   0.162E-01    0.681E-02
DAV:  12    -0.308168434257E+03    0.26661E-04   -0.21997E-04 31176   0.972E-02
  36 F= -.30816843E+03 E0= -.30817035E+03  d E =-.271428E-01
 curvature:  -1.52 expect dE=-0.509E-01 dE for cont linesearch -0.657E-04
 trial: gam= 3.43290 g(F)=  0.273E-01 g(S)=  0.617E-02 ort = 0.121E-02 (trialstep = 0.788E-01)
 search vector abs. value=  0.440E+00
 bond charge predicted
       N       E                     dE             d eps       ncg     rms          rms(c)
DAV:   1    -0.308165670590E+03    0.27903E-02   -0.52780E-01 43248   0.238E+00    0.229E-01
DAV:   2    -0.308171956877E+03   -0.62863E-02   -0.63503E-02 65120   0.102E+00    0.271E-01
DAV:   3    -0.308171835133E+03    0.12174E-03   -0.11795E-02 69856   0.587E-01    0.228E-01
DAV:   4    -0.308171357056E+03    0.47808E-03   -0.29584E-03 60696   0.305E-01    0.110E-01
DAV:   5    -0.308171277549E+03    0.79507E-04   -0.88590E-04 49528   0.156E-01
  37 F= -.30817128E+03 E0= -.30817320E+03  d E =-.284329E-02
 ZBRENT: can't locate minimum, use default step
 trial-energy change:   -0.002843  1 .order   -0.002991   -0.002965   -0.003017
 step:   0.3152(harm=  0.3152)  dis= 0.02510  next Energy=  -308.180708 (dE=-0.123E-01)
 bond charge predicted
       N       E                     dE             d eps       ncg     rms          rms(c)
DAV:   1    -0.308129368080E+03    0.41989E-01   -0.47725E+00 43248   0.715E+00    0.655E-01
DAV:   2    -0.308184281569E+03   -0.54913E-01   -0.56043E-01 65064   0.298E+00    0.758E-01
DAV:   3    -0.308185056785E+03   -0.77522E-03   -0.95561E-02 68224   0.163E+00    0.724E-01
DAV:   4    -0.308180166682E+03    0.48901E-02   -0.24876E-02 66440   0.865E-01    0.318E-01
DAV:   5    -0.308180025937E+03    0.14075E-03   -0.68091E-03 67600   0.416E-01    0.289E-01
DAV:   6    -0.308179865050E+03    0.16089E-03   -0.61725E-03 64776   0.398E-01    0.257E-01
DAV:   7    -0.308179764757E+03    0.10029E-03   -0.68686E-03 69032   0.386E-01    0.223E-01
DAV:   8    -0.308179266222E+03    0.49853E-03   -0.34578E-03 67616   0.295E-01    0.883E-02
DAV:   9    -0.308179206951E+03    0.59271E-04   -0.87841E-04 56608   0.134E-01
  38 F= -.30817921E+03 E0= -.30818110E+03  d E =-.107727E-01
 curvature:  -2.79 expect dE=-0.952E-01 dE for cont linesearch -0.727E-02
 ZBRENT: increasing intervall
 opt :   0.7881  next Energy=  -308.193149 (dE=-0.247E-01)
 bond charge predicted
       N       E                     dE             d eps       ncg     rms          rms(c)
DAV:   1    -0.307985063584E+03    0.19420E+00   -0.19213E+01 42640   0.144E+01    0.143E+00
DAV:   2    -0.308212875407E+03   -0.22781E+00   -0.23364E+00 64264   0.620E+00    0.146E+00
DAV:   3    -0.308223461750E+03   -0.10586E-01   -0.42885E-01 68424   0.337E+00    0.165E+00
DAV:   4    -0.308197754175E+03    0.25708E-01   -0.14089E-01 66352   0.202E+00    0.661E-01
DAV:   5    -0.308196354579E+03    0.13996E-02   -0.29465E-02 68912   0.839E-01    0.560E-01
DAV:   6    -0.308195649356E+03    0.70522E-03   -0.19139E-02 66416   0.689E-01    0.497E-01
DAV:   7    -0.308195688029E+03   -0.38673E-04   -0.21637E-02 69672   0.684E-01    0.456E-01
DAV:   8    -0.308193864157E+03    0.18239E-02   -0.14474E-02 69464   0.614E-01    0.212E-01
DAV:   9    -0.308193463763E+03    0.40039E-03   -0.49266E-03 74776   0.309E-01    0.118E-01
DAV:  10    -0.308193436018E+03    0.27746E-04   -0.14401E-03 64896   0.148E-01    0.870E-02
DAV:  11    -0.308193410686E+03    0.25331E-04   -0.35558E-04 38056   0.108E-01
  39 F= -.30819341E+03 E0= -.30819528E+03  d E =-.249764E-01
 curvature:  -5.35 expect dE=-0.245E+00 dE for cont linesearch -0.734E-02
 ZBRENT: increasing intervall
 opt :   1.7337  next Energy=  -308.207853 (dE=-0.394E-01)
 bond charge predicted
       N       E                     dE             d eps       ncg     rms          rms(c)
DAV:   1    -0.307426044093E+03    0.76739E+00   -0.79621E+01 43272   0.296E+01    0.270E+00
DAV:   2    -0.308302122338E+03   -0.87608E+00   -0.89420E+00 64352   0.118E+01    0.290E+00
DAV:   3    -0.308313690139E+03   -0.11568E-01   -0.16033E+00 68728   0.631E+00    0.308E+00
DAV:   4    -0.308228477754E+03    0.85212E-01   -0.55101E-01 69880   0.389E+00    0.133E+00
DAV:   5    -0.308225431386E+03    0.30464E-02   -0.13078E-01 67160   0.181E+00    0.117E+00
DAV:   6    -0.308219420326E+03    0.60111E-02   -0.73223E-02 67928   0.134E+00    0.929E-01
DAV:   7    -0.308223579297E+03   -0.41590E-02   -0.83506E-02 68872   0.135E+00    0.105E+00
DAV:   8    -0.308214241302E+03    0.93380E-02   -0.68228E-02 66912   0.136E+00    0.452E-01
DAV:   9    -0.308211858900E+03    0.23824E-02   -0.21242E-02 75664   0.628E-01    0.232E-01
DAV:  10    -0.308211770841E+03    0.88059E-04   -0.80860E-03 76912   0.320E-01    0.180E-01
DAV:  11    -0.308211750408E+03    0.20433E-04   -0.25561E-03 61552   0.233E-01    0.154E-01
DAV:  12    -0.308211676335E+03    0.74073E-04   -0.12799E-03 53472   0.177E-01    0.112E-01
DAV:  13    -0.308211731133E+03   -0.54798E-04   -0.81151E-04 50000   0.132E-01
  40 F= -.30821173E+03 E0= -.30821361E+03  d E =-.432969E-01
 curvature: -10.53 expect dE=-0.123E+01 dE for cont linesearch -0.113E-02
 trial: gam= 2.78881 g(F)=  0.651E-01 g(S)=  0.515E-01 ort = 0.688E-02 (trialstep = 0.504E-01)
 search vector abs. value=  0.358E+01
 bond charge predicted
       N       E                     dE             d eps       ncg     rms          rms(c)
DAV:   1    -0.308200213191E+03    0.11463E-01   -0.18073E+00 43296   0.423E+00    0.381E-01
DAV:   2    -0.308220713522E+03   -0.20500E-01   -0.20841E-01 64072   0.186E+00    0.506E-01
DAV:   3    -0.308220884259E+03   -0.17074E-03   -0.41885E-02 66440   0.104E+00    0.421E-01
DAV:   4    -0.308219317377E+03    0.15669E-02   -0.97277E-03 64048   0.520E-01    0.197E-01
DAV:   5    -0.308219115449E+03    0.20193E-03   -0.25848E-03 63848   0.264E-01    0.148E-01
DAV:   6    -0.308219124196E+03   -0.87472E-05   -0.15524E-03 60280   0.191E-01    0.145E-01
DAV:   7    -0.308219048494E+03    0.75702E-04   -0.17452E-03 60288   0.223E-01    0.116E-01
DAV:   8    -0.308218936451E+03    0.11204E-03   -0.10106E-03 55280   0.156E-01    0.547E-02
DAV:   9    -0.308218901919E+03    0.34532E-04   -0.18314E-04 32336   0.724E-02
  41 F= -.30821890E+03 E0= -.30822081E+03  d E =-.717079E-02
 ZBRENT: can't locate minimum, use default step
 trial-energy change:   -0.007171  1 .order   -0.007096   -0.006844   -0.007348
 step:   0.2016(harm=  0.2016)  dis= 0.04684  next Energy=  -308.243138 (dE=-0.314E-01)
 bond charge predicted
       N       E                     dE             d eps       ncg     rms          rms(c)
DAV:   1    -0.308071460778E+03    0.14748E+00   -0.16333E+01 42976   0.128E+01    0.130E+00
DAV:   2    -0.308254853149E+03   -0.18339E+00   -0.18678E+00 64448   0.574E+00    0.138E+00
DAV:   3    -0.308261856130E+03   -0.70030E-02   -0.36311E-01 67032   0.312E+00    0.140E+00
DAV:   4    -0.308243073605E+03    0.18783E-01   -0.11590E-01 66728   0.181E+00    0.606E-01
DAV:   5    -0.308241401227E+03    0.16724E-02   -0.25143E-02 67760   0.837E-01    0.480E-01
DAV:   6    -0.308240884989E+03    0.51624E-03   -0.11931E-02 65344   0.536E-01    0.411E-01
DAV:   7    -0.308240891119E+03   -0.61308E-05   -0.13890E-02 66208   0.603E-01    0.390E-01
DAV:   8    -0.308239690278E+03    0.12008E-02   -0.89663E-03 68560   0.475E-01    0.179E-01
DAV:   9    -0.308239445303E+03    0.24497E-03   -0.32434E-03 73112   0.200E-01    0.945E-02
DAV:  10    -0.308239455179E+03   -0.98758E-05   -0.93545E-04 56328   0.128E-01
  42 F= -.30823946E+03 E0= -.30824140E+03  d E =-.277240E-01
 curvature:  -4.10 expect dE=-0.442E+00 dE for cont linesearch -0.186E-01
 ZBRENT: increasing intervall
 opt :   0.5041  next Energy=  -308.272461 (dE=-0.607E-01)
 bond charge predicted
       N       E                     dE             d eps       ncg     rms          rms(c)
DAV:   1    -0.307649655542E+03    0.58979E+00   -0.67599E+01 43856   0.261E+01    0.248E+00
DAV:   2    -0.308336491564E+03   -0.68684E+00   -0.69784E+00 64040   0.108E+01    0.266E+00
DAV:   3    -0.308343745063E+03   -0.72535E-02   -0.13459E+00 67832   0.593E+00    0.253E+00
DAV:   4    -0.308285041039E+03    0.58704E-01   -0.44523E-01 69544   0.348E+00    0.121E+00
DAV:   5    -0.308280782425E+03    0.42586E-02   -0.10725E-01 66592   0.172E+00    0.103E+00
DAV:   6    -0.308276587744E+03    0.41947E-02   -0.48436E-02 66968   0.110E+00    0.814E-01
DAV:   7    -0.308277939381E+03   -0.13516E-02   -0.47174E-02 67712   0.105E+00    0.835E-01
DAV:   8    -0.308274116017E+03    0.38234E-02   -0.42265E-02 65096   0.108E+00    0.513E-01
DAV:   9    -0.308271158991E+03    0.29570E-02   -0.19250E-02 75136   0.573E-01    0.203E-01
DAV:  10    -0.308271177676E+03   -0.18685E-04   -0.70965E-03 77936   0.287E-01    0.167E-01
DAV:  11    -0.308271089268E+03    0.88408E-04   -0.33222E-03 67944   0.236E-01    0.128E-01
DAV:  12    -0.308270992807E+03    0.96461E-04   -0.12033E-03 51640   0.177E-01    0.843E-02
DAV:  13    -0.308270971341E+03    0.21467E-04   -0.56356E-04 43352   0.117E-01
  43 F= -.30827097E+03 E0= -.30827294E+03  d E =-.592402E-01
 curvature:  -7.27 expect dE=-0.703E+00 dE for cont linesearch -0.982E-02
 ZBRENT: increasing intervall
 opt :   1.1090  next Energy=  -308.278000 (dE=-0.663E-01)
 bond charge predicted
       N       E                     dE             d eps       ncg     rms          rms(c)
DAV:   1    -0.305311051653E+03    0.29599E+01   -0.29110E+02 49696   0.559E+01    0.586E+00
DAV:   2    -0.308640338352E+03   -0.33293E+01   -0.33322E+01 66152   0.247E+01    0.556E+00
DAV:   3    -0.308584927341E+03    0.55411E-01   -0.60901E+00 69512   0.122E+01    0.537E+00
DAV:   4    -0.308335275446E+03    0.24965E+00   -0.24856E+00 70416   0.804E+00    0.270E+00
DAV:   5    -0.308309486909E+03    0.25789E-01   -0.54526E-01 67736   0.378E+00    0.215E+00
DAV:   6    -0.308289506428E+03    0.19980E-01   -0.20374E-01 68816   0.224E+00    0.169E+00
DAV:   7    -0.308293834118E+03   -0.43277E-02   -0.16828E-01 71016   0.189E+00    0.166E+00
DAV:   8    -0.308286889769E+03    0.69443E-02   -0.16172E-01 63912   0.214E+00    0.124E+00
DAV:   9    -0.308271018708E+03    0.15871E-01   -0.94337E-02 72872   0.143E+00    0.518E-01
DAV:  10    -0.308269851089E+03    0.11676E-02   -0.34849E-02 81808   0.651E-01    0.367E-01
DAV:  11    -0.308269380273E+03    0.47082E-03   -0.14728E-02 74512   0.460E-01    0.276E-01
DAV:  12    -0.308269078691E+03    0.30158E-03   -0.51461E-03 60584   0.350E-01    0.207E-01
DAV:  13    -0.308269014940E+03    0.63751E-04   -0.26833E-03 64144   0.230E-01    0.161E-01
DAV:  14    -0.308269086309E+03   -0.71369E-04   -0.17186E-03 64096   0.178E-01    0.126E-01
DAV:  15    -0.308269106332E+03   -0.20023E-04   -0.17395E-03 58032   0.198E-01    0.114E-01
DAV:  16    -0.308268974668E+03    0.13166E-03   -0.82440E-04 46816   0.158E-01    0.549E-02
DAV:  17    -0.308268930442E+03    0.44226E-04   -0.21220E-04 31616   0.913E-02
  44 F= -.30826893E+03 E0= -.30827072E+03  d E =-.571993E-01
 curvature:  -5.20 expect dE=-0.630E+00 dE for cont linesearch -0.134E-01
 ZBRENT: bracketing found
 ZBRENT: interpolating
 opt :   0.7581  next Energy=  -308.279803 (dE=-0.681E-01)
 bond charge predicted
       N       E                     dE             d eps       ncg     rms          rms(c)
DAV:   1    -0.307339567861E+03    0.92941E+00   -0.91451E+01 43088   0.304E+01    0.314E+00
DAV:   2    -0.308338377281E+03   -0.99881E+00   -0.10227E+01 63008   0.129E+01    0.269E+00
DAV:   3    -0.308431510483E+03   -0.93133E-01   -0.18954E+00 68064   0.740E+00    0.341E+00
DAV:   4    -0.308296523498E+03    0.13499E+00   -0.59243E-01 69480   0.389E+00    0.121E+00
DAV:   5    -0.308295879922E+03    0.64358E-03   -0.11475E-01 67640   0.169E+00    0.122E+00
DAV:   6    -0.308289348637E+03    0.65313E-02   -0.58274E-02 68816   0.130E+00    0.882E-01
DAV:   7    -0.308290889465E+03   -0.15408E-02   -0.55651E-02 65776   0.121E+00    0.874E-01
DAV:   8    -0.308284078076E+03    0.68114E-02   -0.48574E-02 68248   0.109E+00    0.426E-01
DAV:   9    -0.308282941243E+03    0.11368E-02   -0.17790E-02 80296   0.513E-01    0.225E-01
DAV:  10    -0.308282853357E+03    0.87886E-04   -0.56188E-03 74272   0.287E-01    0.189E-01
DAV:  11    -0.308282712936E+03    0.14042E-03   -0.23530E-03 58096   0.228E-01    0.143E-01
DAV:  12    -0.308282666834E+03    0.46102E-04   -0.11294E-03 52832   0.155E-01    0.105E-01
DAV:  13    -0.308282739581E+03   -0.72747E-04   -0.97976E-04 51560   0.146E-01
  45 F= -.30828274E+03 E0= -.30828462E+03  d E =-.710084E-01
 curvature:  -3.43 expect dE=-0.330E+00 dE for cont linesearch -0.472E-03
 trial: gam= 0.09374 g(F)=  0.810E-01 g(S)=  0.152E-01 ort = 0.222E-01 (trialstep = 0.192E+00)
 search vector abs. value=  0.132E+00
 bond charge predicted
       N       E                     dE             d eps       ncg     rms          rms(c)
DAV:   1    -0.308295384852E+03   -0.12718E-01   -0.75191E-01 42152   0.316E+00    0.505E-01
DAV:   2    -0.308302779013E+03   -0.73942E-02   -0.10160E-01 67200   0.153E+00    0.493E-01
DAV:   3    -0.308303457583E+03   -0.67857E-03   -0.48750E-02 67792   0.115E+00    0.535E-01
DAV:   4    -0.308300871049E+03    0.25865E-02   -0.19601E-02 67768   0.741E-01    0.216E-01
DAV:   5    -0.308300214297E+03    0.65675E-03   -0.60494E-03 69168   0.321E-01    0.131E-01
DAV:   6    -0.308300188492E+03    0.25805E-04   -0.29099E-03 67624   0.239E-01    0.128E-01
DAV:   7    -0.308300075912E+03    0.11258E-03   -0.24427E-03 62360   0.219E-01    0.970E-02
DAV:   8    -0.308300023629E+03    0.52284E-04   -0.82442E-04 48992   0.150E-01
  46 F= -.30830002E+03 E0= -.30830195E+03  d E =-.172840E-01
 ZBRENT: can't locate minimum, use default step
 trial-energy change:   -0.017284  1 .order   -0.017555   -0.018856   -0.016255
 step:   0.7678(harm=  1.3916)  dis= 0.02223  next Energy=  -308.351090 (dE=-0.684E-01)
 bond charge predicted
       N       E                     dE             d eps       ncg     rms          rms(c)
DAV:   1    -0.308295759319E+03    0.43166E-02   -0.68000E+00 42800   0.947E+00    0.149E+00
DAV:   2    -0.308353248804E+03   -0.57489E-01   -0.83555E-01 67032   0.415E+00    0.118E+00
DAV:   3    -0.308360397557E+03   -0.71488E-02   -0.31628E-01 69560   0.283E+00    0.141E+00
DAV:   4    -0.308344637917E+03    0.15760E-01   -0.17543E-01 69928   0.226E+00    0.790E-01
DAV:   5    -0.308337519340E+03    0.71186E-02   -0.59742E-02 75104   0.115E+00    0.418E-01
DAV:   6    -0.308337783604E+03   -0.26426E-03   -0.28883E-02 73288   0.794E-01    0.446E-01
DAV:   7    -0.308336325093E+03    0.14585E-02   -0.22726E-02 70112   0.687E-01    0.299E-01
DAV:   8    -0.308335911803E+03    0.41329E-03   -0.78791E-03 66928   0.408E-01    0.208E-01
DAV:   9    -0.308335656833E+03    0.25497E-03   -0.31391E-03 63600   0.256E-01    0.128E-01
DAV:  10    -0.308335774331E+03   -0.11750E-03   -0.19042E-03 59960   0.188E-01    0.121E-01
DAV:  11    -0.308335776997E+03   -0.26658E-05   -0.12813E-03 54640   0.169E-01    0.849E-02
DAV:  12    -0.308335789109E+03   -0.12112E-04   -0.90205E-04 50112   0.165E-01
  47 F= -.30833579E+03 E0= -.30833776E+03  d E =-.530495E-01
 curvature:  -0.68 expect dE=-0.420E-01 dE for cont linesearch -0.885E-02
 ZBRENT: increasing intervall
 opt :   1.9195  next Energy=  -308.333603 (dE=-0.509E-01)
 bond charge predicted
       N       E                     dE             d eps       ncg     rms          rms(c)
DAV:   1    -0.308191756629E+03    0.14402E+00   -0.27424E+01 43576   0.189E+01    0.304E+00
DAV:   2    -0.308407197353E+03   -0.21544E+00   -0.32209E+00 67536   0.812E+00    0.239E+00
DAV:   3    -0.308421802061E+03   -0.14605E-01   -0.12735E+00 69352   0.550E+00    0.271E+00
DAV:   4    -0.308371041203E+03    0.50761E-01   -0.76391E-01 69856   0.461E+00    0.171E+00
DAV:   5    -0.308338342934E+03    0.32698E-01   -0.26765E-01 74288   0.251E+00    0.776E-01
DAV:   6    -0.308336917290E+03    0.14256E-02   -0.97017E-02 74504   0.145E+00    0.749E-01
DAV:   7    -0.308333834093E+03    0.30832E-02   -0.77703E-02 74400   0.121E+00    0.583E-01
DAV:   8    -0.308332169691E+03    0.16644E-02   -0.26178E-02 71840   0.745E-01    0.395E-01
DAV:   9    -0.308331315917E+03    0.85377E-03   -0.10291E-02 66760   0.488E-01    0.263E-01
DAV:  10    -0.308331786558E+03   -0.47064E-03   -0.74429E-03 61584   0.379E-01    0.248E-01
DAV:  11    -0.308331798691E+03   -0.12132E-04   -0.56069E-03 63544   0.341E-01    0.169E-01
DAV:  12    -0.308331849277E+03   -0.50586E-04   -0.38506E-03 64080   0.313E-01    0.144E-01
DAV:  13    -0.308331695363E+03    0.15391E-03   -0.20775E-03 62984   0.217E-01    0.586E-02
DAV:  14    -0.308331700559E+03   -0.51956E-05   -0.52836E-04 42320   0.129E-01
  48 F= -.30833170E+03 E0= -.30833366E+03  d E =-.489610E-01
 curvature:   0.17 expect dE= 0.545E-01 dE for cont linesearch  0.279E-02
 ZBRENT: bracketing found
 ZBRENT: interpolating
 opt :   1.3087  next Energy=  -308.346983 (dE=-0.642E-01)
 bond charge predicted
       N       E                     dE             d eps       ncg     rms          rms(c)
DAV:   1    -0.308295804053E+03    0.35891E-01   -0.76683E+00 41392   0.102E+01    0.163E+00
DAV:   2    -0.308365175143E+03   -0.69371E-01   -0.10088E+00 66288   0.457E+00    0.126E+00
DAV:   3    -0.308379546235E+03   -0.14371E-01   -0.41240E-01 69424   0.321E+00    0.162E+00
DAV:   4    -0.308355932759E+03    0.23613E-01   -0.20600E-01 66680   0.245E+00    0.784E-01
DAV:   5    -0.308348150933E+03    0.77818E-02   -0.61110E-02 75184   0.112E+00    0.391E-01
DAV:   6    -0.308348630415E+03   -0.47948E-03   -0.28918E-02 74224   0.743E-01    0.449E-01
DAV:   7    -0.308347210440E+03    0.14200E-02   -0.25248E-02 70688   0.718E-01    0.321E-01
DAV:   8    -0.308346595968E+03    0.61447E-03   -0.83754E-03 66408   0.424E-01    0.190E-01
DAV:   9    -0.308346453183E+03    0.14279E-03   -0.31801E-03 64400   0.262E-01    0.142E-01
DAV:  10    -0.308346486931E+03   -0.33748E-04   -0.22044E-03 57048   0.227E-01    0.126E-01
DAV:  11    -0.308346442914E+03    0.44017E-04   -0.12679E-03 53888   0.176E-01    0.822E-02
DAV:  12    -0.308346448333E+03   -0.54194E-05   -0.73647E-04 45944   0.151E-01
  49 F= -.30834645E+03 E0= -.30834838E+03  d E =-.637088E-01
 curvature:  -0.67 expect dE=-0.959E-01 dE for cont linesearch -0.547E-05
 trial: gam= 1.48270 g(F)=  0.359E-01 g(S)=  0.106E+00 ort =-0.103E-02 (trialstep = 0.128E+00)
 search vector abs. value=  0.429E+00
 bond charge predicted
       N       E                     dE             d eps       ncg     rms          rms(c)
DAV:   1    -0.308355053638E+03   -0.86107E-02   -0.10410E+00 42520   0.358E+00    0.432E-01
DAV:   2    -0.308365117734E+03   -0.10064E-01   -0.12080E-01 66704   0.156E+00    0.414E-01
DAV:   3    -0.308365263908E+03   -0.14617E-03   -0.32810E-02 70832   0.950E-01    0.413E-01
DAV:   4    -0.308363766050E+03    0.14979E-02   -0.14697E-02 67360   0.609E-01    0.210E-01
DAV:   5    -0.308363241949E+03    0.52410E-03   -0.48611E-03 66968   0.287E-01    0.121E-01
DAV:   6    -0.308363393532E+03   -0.15158E-03   -0.26156E-03 64976   0.266E-01    0.160E-01
DAV:   7    -0.308363189100E+03    0.20443E-03   -0.23406E-03 63272   0.253E-01    0.845E-02
DAV:   8    -0.308363105708E+03    0.83392E-04   -0.41671E-04 38848   0.110E-01
  50 F= -.30836311E+03 E0= -.30836515E+03  d E =-.166574E-01
 ZBRENT: can't locate minimum, use default step
 trial-energy change:   -0.016657  1 .order   -0.016796   -0.017937   -0.015656
 step:   0.5107(harm=  1.0043)  dis= 0.02644  next Energy=  -308.416995 (dE=-0.705E-01)
 writing wavefunctions
VASP is done!
