<?xml version="1.0" encoding="ISO-8859-1"?>
<modeling>
 <generator>
  <i name="program" type="string">vasp </i>
  <i name="version" type="string">5.4.4.18Apr17-6-g9f103f2a35  </i>
  <i name="subversion" type="string">(build Aug 09 2018 16:20:53) complex            parallel </i>
  <i name="platform" type="string">LinuxIFC </i>
  <i name="date" type="string">2020 05 02 </i>
  <i name="time" type="string">00:52:12 </i>
 </generator>
 <incar>
  <i type="string" name="SYSTEM"> Nb - Mo - Ta - Ti - V SQS</i>
  <i type="string" name="PREC">normal</i>
  <i type="int" name="ICHARG">     0</i>
  <i type="int" name="IBRION">     2</i>
  <i type="int" name="NSW">    50</i>
  <i type="int" name="ISIF">     3</i>
  <i name="ENCUT">    600.00000000</i>
  <i type="string" name="LREAL"> Auto</i>
  <i type="int" name="ISMEAR">     1</i>
  <i name="SIGMA">      0.20000000</i>
  <v type="int" name="KPOINT_BSE">    -1     0     0     0</v>
  <i type="string" name="GGA"> PS</i>
 </incar>
 <structure name="primitive_cell" >
  <crystal>
   <varray name="basis" >
    <v>      -3.16000000      -3.16000000      -3.16000000 </v>
    <v>       1.58000000       1.58000000      -7.90000000 </v>
    <v>       7.90000000      -7.90000000      -1.58000000 </v>
   </varray>
   <i name="volume">    473.31744000 </i>
   <varray name="rec_basis" >
    <v>      -0.13713080      -0.12658228      -0.05274262 </v>
    <v>       0.04219409       0.06329114      -0.10548523 </v>
    <v>       0.06329114      -0.06329114       0.00000000 </v>
   </varray>
  </crystal>
  <varray name="positions" >
   <v>      -0.03333333      -0.06666667       0.40000000 </v>
   <v>       0.30000000      -0.40000000       0.40000000 </v>
   <v>      -0.10000000      -0.20000000       0.20000000 </v>
   <v>       0.06666667       0.13333333       0.20000000 </v>
   <v>      -0.13333333      -0.26666667      -0.40000000 </v>
   <v>       0.03333333       0.06666667      -0.40000000 </v>
   <v>      -0.36666667       0.26666667       0.40000000 </v>
   <v>       0.40000000      -0.20000000       0.20000000 </v>
   <v>      -0.20000000      -0.40000000       0.40000000 </v>
   <v>      -0.43333333       0.13333333       0.20000000 </v>
   <v>       0.36666667      -0.26666667      -0.40000000 </v>
   <v>       0.13333333       0.26666667       0.40000000 </v>
   <v>      -0.46666667       0.06666667      -0.40000000 </v>
   <v>       0.23333333       0.46666667       0.20000000 </v>
   <v>       0.20000000       0.40000000      -0.40000000 </v>
   <v>       0.00000000       0.00000000       0.00000000 </v>
   <v>      -0.06666667      -0.13333333      -0.20000000 </v>
   <v>      -0.30000000       0.40000000      -0.40000000 </v>
   <v>      -0.26666667       0.46666667       0.20000000 </v>
   <v>       0.33333333      -0.33333333       0.00000000 </v>
   <v>       0.43333333      -0.13333333      -0.20000000 </v>
   <v>      -0.50000000       0.00000000       0.00000000 </v>
   <v>       0.26666667      -0.46666667      -0.20000000 </v>
   <v>      -0.33333333       0.33333333       0.00000000 </v>
   <v>      -0.40000000       0.20000000      -0.20000000 </v>
   <v>      -0.16666667      -0.33333333       0.00000000 </v>
   <v>      -0.23333333      -0.46666667      -0.20000000 </v>
   <v>       0.16666667       0.33333333       0.00000000 </v>
   <v>       0.10000000       0.20000000      -0.20000000 </v>
  </varray>
 </structure>
 <varray name="primitive_index" >
  <v type="int" >        1 </v>
  <v type="int" >       18 </v>
  <v type="int" >        7 </v>
  <v type="int" >       23 </v>
  <v type="int" >       19 </v>
  <v type="int" >        6 </v>
  <v type="int" >        2 </v>
  <v type="int" >       16 </v>
  <v type="int" >        8 </v>
  <v type="int" >       15 </v>
  <v type="int" >       11 </v>
  <v type="int" >       12 </v>
  <v type="int" >       27 </v>
  <v type="int" >       29 </v>
  <v type="int" >       22 </v>
  <v type="int" >        4 </v>
  <v type="int" >       14 </v>
  <v type="int" >       25 </v>
  <v type="int" >        9 </v>
  <v type="int" >       28 </v>
  <v type="int" >       17 </v>
  <v type="int" >        3 </v>
  <v type="int" >       21 </v>
  <v type="int" >       10 </v>
  <v type="int" >       26 </v>
  <v type="int" >       13 </v>
  <v type="int" >       24 </v>
  <v type="int" >       20 </v>
  <v type="int" >        5 </v>
 </varray>
 <kpoints>
  <generation param="Gamma">
   <v type="int" name="divisions">       7        7        7 </v>
   <v name="usershift">      0.00000000       0.00000000       0.00000000 </v>
   <v name="genvec1">      0.14285714       0.00000000       0.00000000 </v>
   <v name="genvec2">     -0.00000000       0.14285714       0.00000000 </v>
   <v name="genvec3">      0.00000000       0.00000000       0.14285714 </v>
   <v name="shift">      0.00000000       0.00000000       0.00000000 </v>
  </generation>
  <varray name="kpointlist" >
   <v>       0.00000000       0.00000000       0.00000000 </v>
   <v>       0.14285714       0.00000000      -0.00000000 </v>
   <v>       0.28571429       0.00000000       0.00000000 </v>
   <v>       0.42857143       0.00000000      -0.00000000 </v>
   <v>      -0.00000000       0.14285714       0.00000000 </v>
   <v>       0.14285714       0.14285714      -0.00000000 </v>
   <v>       0.28571429       0.14285714       0.00000000 </v>
   <v>       0.42857143       0.14285714      -0.00000000 </v>
   <v>      -0.42857143       0.14285714       0.00000000 </v>
   <v>      -0.28571429       0.14285714       0.00000000 </v>
   <v>      -0.14285714       0.14285714       0.00000000 </v>
   <v>       0.00000000       0.28571429      -0.00000000 </v>
   <v>       0.14285714       0.28571429      -0.00000000 </v>
   <v>       0.28571429       0.28571429      -0.00000000 </v>
   <v>       0.42857143       0.28571429      -0.00000000 </v>
   <v>      -0.42857143       0.28571429      -0.00000000 </v>
   <v>      -0.28571429       0.28571429      -0.00000000 </v>
   <v>      -0.14285714       0.28571429      -0.00000000 </v>
   <v>      -0.00000000       0.42857143      -0.00000000 </v>
   <v>       0.14285714       0.42857143       0.00000000 </v>
   <v>       0.28571429       0.42857143       0.00000000 </v>
   <v>       0.42857143       0.42857143      -0.00000000 </v>
   <v>      -0.42857143       0.42857143       0.00000000 </v>
   <v>      -0.28571429       0.42857143      -0.00000000 </v>
   <v>      -0.14285714       0.42857143      -0.00000000 </v>
   <v>       0.00000000       0.00000000       0.14285714 </v>
   <v>       0.14285714       0.00000000       0.14285714 </v>
   <v>       0.28571429       0.00000000       0.14285714 </v>
   <v>       0.42857143       0.00000000       0.14285714 </v>
   <v>      -0.42857143       0.00000000       0.14285714 </v>
   <v>      -0.28571429       0.00000000       0.14285714 </v>
   <v>      -0.14285714      -0.00000000       0.14285714 </v>
   <v>      -0.00000000       0.14285714       0.14285714 </v>
   <v>       0.14285714       0.14285714       0.14285714 </v>
   <v>       0.28571429       0.14285714       0.14285714 </v>
   <v>       0.42857143       0.14285714       0.14285714 </v>
   <v>      -0.42857143       0.14285714       0.14285714 </v>
   <v>      -0.28571429       0.14285714       0.14285714 </v>
   <v>      -0.14285714       0.14285714       0.14285714 </v>
   <v>      -0.00000000       0.28571429       0.14285714 </v>
   <v>       0.14285714       0.28571429       0.14285714 </v>
   <v>       0.28571429       0.28571429       0.14285714 </v>
   <v>       0.42857143       0.28571429       0.14285714 </v>
   <v>      -0.42857143       0.28571429       0.14285714 </v>
   <v>      -0.28571429       0.28571429       0.14285714 </v>
   <v>      -0.14285714       0.28571429       0.14285714 </v>
   <v>       0.00000000       0.42857143       0.14285714 </v>
   <v>       0.14285714       0.42857143       0.14285714 </v>
   <v>       0.28571429       0.42857143       0.14285714 </v>
   <v>       0.42857143       0.42857143       0.14285714 </v>
   <v>      -0.42857143       0.42857143       0.14285714 </v>
   <v>      -0.28571429       0.42857143       0.14285714 </v>
   <v>      -0.14285714       0.42857143       0.14285714 </v>
   <v>       0.00000000      -0.42857143       0.14285714 </v>
   <v>       0.14285714      -0.42857143       0.14285714 </v>
   <v>       0.28571429      -0.42857143       0.14285714 </v>
   <v>       0.42857143      -0.42857143       0.14285714 </v>
   <v>      -0.42857143      -0.42857143       0.14285714 </v>
   <v>      -0.28571429      -0.42857143       0.14285714 </v>
   <v>      -0.14285714      -0.42857143       0.14285714 </v>
   <v>       0.00000000      -0.28571429       0.14285714 </v>
   <v>       0.14285714      -0.28571429       0.14285714 </v>
   <v>       0.28571429      -0.28571429       0.14285714 </v>
   <v>       0.42857143      -0.28571429       0.14285714 </v>
   <v>      -0.42857143      -0.28571429       0.14285714 </v>
   <v>      -0.28571429      -0.28571429       0.14285714 </v>
   <v>      -0.14285714      -0.28571429       0.14285714 </v>
   <v>       0.00000000      -0.14285714       0.14285714 </v>
   <v>       0.14285714      -0.14285714       0.14285714 </v>
   <v>       0.28571429      -0.14285714       0.14285714 </v>
   <v>       0.42857143      -0.14285714       0.14285714 </v>
   <v>      -0.42857143      -0.14285714       0.14285714 </v>
   <v>      -0.28571429      -0.14285714       0.14285714 </v>
   <v>      -0.14285714      -0.14285714       0.14285714 </v>
   <v>       0.00000000       0.00000000       0.28571429 </v>
   <v>       0.14285714       0.00000000       0.28571429 </v>
   <v>       0.28571429       0.00000000       0.28571429 </v>
   <v>       0.42857143       0.00000000       0.28571429 </v>
   <v>      -0.42857143      -0.00000000       0.28571429 </v>
   <v>      -0.28571429      -0.00000000       0.28571429 </v>
   <v>      -0.14285714      -0.00000000       0.28571429 </v>
   <v>      -0.00000000       0.14285714       0.28571429 </v>
   <v>       0.14285714       0.14285714       0.28571429 </v>
   <v>       0.28571429       0.14285714       0.28571429 </v>
   <v>       0.42857143       0.14285714       0.28571429 </v>
   <v>      -0.42857143       0.14285714       0.28571429 </v>
   <v>      -0.28571429       0.14285714       0.28571429 </v>
   <v>      -0.14285714       0.14285714       0.28571429 </v>
   <v>      -0.00000000       0.28571429       0.28571429 </v>
   <v>       0.14285714       0.28571429       0.28571429 </v>
   <v>       0.28571429       0.28571429       0.28571429 </v>
   <v>       0.42857143       0.28571429       0.28571429 </v>
   <v>      -0.42857143       0.28571429       0.28571429 </v>
   <v>      -0.28571429       0.28571429       0.28571429 </v>
   <v>      -0.14285714       0.28571429       0.28571429 </v>
   <v>       0.00000000       0.42857143       0.28571429 </v>
   <v>       0.14285714       0.42857143       0.28571429 </v>
   <v>       0.28571429       0.42857143       0.28571429 </v>
   <v>       0.42857143       0.42857143       0.28571429 </v>
   <v>      -0.42857143       0.42857143       0.28571429 </v>
   <v>      -0.28571429       0.42857143       0.28571429 </v>
   <v>      -0.14285714       0.42857143       0.28571429 </v>
   <v>      -0.00000000      -0.42857143       0.28571429 </v>
   <v>       0.14285714      -0.42857143       0.28571429 </v>
   <v>       0.28571429      -0.42857143       0.28571429 </v>
   <v>       0.42857143      -0.42857143       0.28571429 </v>
   <v>      -0.42857143      -0.42857143       0.28571429 </v>
   <v>      -0.28571429      -0.42857143       0.28571429 </v>
   <v>      -0.14285714      -0.42857143       0.28571429 </v>
   <v>       0.00000000      -0.28571429       0.28571429 </v>
   <v>       0.14285714      -0.28571429       0.28571429 </v>
   <v>       0.28571429      -0.28571429       0.28571429 </v>
   <v>       0.42857143      -0.28571429       0.28571429 </v>
   <v>      -0.42857143      -0.28571429       0.28571429 </v>
   <v>      -0.28571429      -0.28571429       0.28571429 </v>
   <v>      -0.14285714      -0.28571429       0.28571429 </v>
   <v>       0.00000000      -0.14285714       0.28571429 </v>
   <v>       0.14285714      -0.14285714       0.28571429 </v>
   <v>       0.28571429      -0.14285714       0.28571429 </v>
   <v>       0.42857143      -0.14285714       0.28571429 </v>
   <v>      -0.42857143      -0.14285714       0.28571429 </v>
   <v>      -0.28571429      -0.14285714       0.28571429 </v>
   <v>      -0.14285714      -0.14285714       0.28571429 </v>
   <v>       0.00000000       0.00000000       0.42857143 </v>
   <v>       0.14285714       0.00000000       0.42857143 </v>
   <v>       0.28571429       0.00000000       0.42857143 </v>
   <v>       0.42857143      -0.00000000       0.42857143 </v>
   <v>      -0.42857143      -0.00000000       0.42857143 </v>
   <v>      -0.28571429       0.00000000       0.42857143 </v>
   <v>      -0.14285714      -0.00000000       0.42857143 </v>
   <v>      -0.00000000       0.14285714       0.42857143 </v>
   <v>       0.14285714       0.14285714       0.42857143 </v>
   <v>       0.28571429       0.14285714       0.42857143 </v>
   <v>       0.42857143       0.14285714       0.42857143 </v>
   <v>      -0.42857143       0.14285714       0.42857143 </v>
   <v>      -0.28571429       0.14285714       0.42857143 </v>
   <v>      -0.14285714       0.14285714       0.42857143 </v>
   <v>       0.00000000       0.28571429       0.42857143 </v>
   <v>       0.14285714       0.28571429       0.42857143 </v>
   <v>       0.28571429       0.28571429       0.42857143 </v>
   <v>       0.42857143       0.28571429       0.42857143 </v>
   <v>      -0.42857143       0.28571429       0.42857143 </v>
   <v>      -0.28571429       0.28571429       0.42857143 </v>
   <v>      -0.14285714       0.28571429       0.42857143 </v>
   <v>       0.00000000       0.42857143       0.42857143 </v>
   <v>       0.14285714       0.42857143       0.42857143 </v>
   <v>       0.28571429       0.42857143       0.42857143 </v>
   <v>       0.42857143       0.42857143       0.42857143 </v>
   <v>      -0.42857143       0.42857143       0.42857143 </v>
   <v>      -0.28571429       0.42857143       0.42857143 </v>
   <v>      -0.14285714       0.42857143       0.42857143 </v>
   <v>       0.00000000      -0.42857143       0.42857143 </v>
   <v>       0.14285714      -0.42857143       0.42857143 </v>
   <v>       0.28571429      -0.42857143       0.42857143 </v>
   <v>       0.42857143      -0.42857143       0.42857143 </v>
   <v>      -0.42857143      -0.42857143       0.42857143 </v>
   <v>      -0.28571429      -0.42857143       0.42857143 </v>
   <v>      -0.14285714      -0.42857143       0.42857143 </v>
   <v>      -0.00000000      -0.28571429       0.42857143 </v>
   <v>       0.14285714      -0.28571429       0.42857143 </v>
   <v>       0.28571429      -0.28571429       0.42857143 </v>
   <v>       0.42857143      -0.28571429       0.42857143 </v>
   <v>      -0.42857143      -0.28571429       0.42857143 </v>
   <v>      -0.28571429      -0.28571429       0.42857143 </v>
   <v>      -0.14285714      -0.28571429       0.42857143 </v>
   <v>       0.00000000      -0.14285714       0.42857143 </v>
   <v>       0.14285714      -0.14285714       0.42857143 </v>
   <v>       0.28571429      -0.14285714       0.42857143 </v>
   <v>       0.42857143      -0.14285714       0.42857143 </v>
   <v>      -0.42857143      -0.14285714       0.42857143 </v>
   <v>      -0.28571429      -0.14285714       0.42857143 </v>
   <v>      -0.14285714      -0.14285714       0.42857143 </v>
  </varray>
  <varray name="weights" >
   <v>       0.00291545 </v>
   <v>       0.00583090 </v>
   <v>       0.00583090 </v>
   <v>       0.00583090 </v>
   <v>       0.00583090 </v>
   <v>       0.00583090 </v>
   <v>       0.00583090 </v>
   <v>       0.00583090 </v>
   <v>       0.00583090 </v>
   <v>       0.00583090 </v>
   <v>       0.00583090 </v>
   <v>       0.00583090 </v>
   <v>       0.00583090 </v>
   <v>       0.00583090 </v>
   <v>       0.00583090 </v>
   <v>       0.00583090 </v>
   <v>       0.00583090 </v>
   <v>       0.00583090 </v>
   <v>       0.00583090 </v>
   <v>       0.00583090 </v>
   <v>       0.00583090 </v>
   <v>       0.00583090 </v>
   <v>       0.00583090 </v>
   <v>       0.00583090 </v>
   <v>       0.00583090 </v>
   <v>       0.00583090 </v>
   <v>       0.00583090 </v>
   <v>       0.00583090 </v>
   <v>       0.00583090 </v>
   <v>       0.00583090 </v>
   <v>       0.00583090 </v>
   <v>       0.00583090 </v>
   <v>       0.00583090 </v>
   <v>       0.00583090 </v>
   <v>       0.00583090 </v>
   <v>       0.00583090 </v>
   <v>       0.00583090 </v>
   <v>       0.00583090 </v>
   <v>       0.00583090 </v>
   <v>       0.00583090 </v>
   <v>       0.00583090 </v>
   <v>       0.00583090 </v>
   <v>       0.00583090 </v>
   <v>       0.00583090 </v>
   <v>       0.00583090 </v>
   <v>       0.00583090 </v>
   <v>       0.00583090 </v>
   <v>       0.00583090 </v>
   <v>       0.00583090 </v>
   <v>       0.00583090 </v>
   <v>       0.00583090 </v>
   <v>       0.00583090 </v>
   <v>       0.00583090 </v>
   <v>       0.00583090 </v>
   <v>       0.00583090 </v>
   <v>       0.00583090 </v>
   <v>       0.00583090 </v>
   <v>       0.00583090 </v>
   <v>       0.00583090 </v>
   <v>       0.00583090 </v>
   <v>       0.00583090 </v>
   <v>       0.00583090 </v>
   <v>       0.00583090 </v>
   <v>       0.00583090 </v>
   <v>       0.00583090 </v>
   <v>       0.00583090 </v>
   <v>       0.00583090 </v>
   <v>       0.00583090 </v>
   <v>       0.00583090 </v>
   <v>       0.00583090 </v>
   <v>       0.00583090 </v>
   <v>       0.00583090 </v>
   <v>       0.00583090 </v>
   <v>       0.00583090 </v>
   <v>       0.00583090 </v>
   <v>       0.00583090 </v>
   <v>       0.00583090 </v>
   <v>       0.00583090 </v>
   <v>       0.00583090 </v>
   <v>       0.00583090 </v>
   <v>       0.00583090 </v>
   <v>       0.00583090 </v>
   <v>       0.00583090 </v>
   <v>       0.00583090 </v>
   <v>       0.00583090 </v>
   <v>       0.00583090 </v>
   <v>       0.00583090 </v>
   <v>       0.00583090 </v>
   <v>       0.00583090 </v>
   <v>       0.00583090 </v>
   <v>       0.00583090 </v>
   <v>       0.00583090 </v>
   <v>       0.00583090 </v>
   <v>       0.00583090 </v>
   <v>       0.00583090 </v>
   <v>       0.00583090 </v>
   <v>       0.00583090 </v>
   <v>       0.00583090 </v>
   <v>       0.00583090 </v>
   <v>       0.00583090 </v>
   <v>       0.00583090 </v>
   <v>       0.00583090 </v>
   <v>       0.00583090 </v>
   <v>       0.00583090 </v>
   <v>       0.00583090 </v>
   <v>       0.00583090 </v>
   <v>       0.00583090 </v>
   <v>       0.00583090 </v>
   <v>       0.00583090 </v>
   <v>       0.00583090 </v>
   <v>       0.00583090 </v>
   <v>       0.00583090 </v>
   <v>       0.00583090 </v>
   <v>       0.00583090 </v>
   <v>       0.00583090 </v>
   <v>       0.00583090 </v>
   <v>       0.00583090 </v>
   <v>       0.00583090 </v>
   <v>       0.00583090 </v>
   <v>       0.00583090 </v>
   <v>       0.00583090 </v>
   <v>       0.00583090 </v>
   <v>       0.00583090 </v>
   <v>       0.00583090 </v>
   <v>       0.00583090 </v>
   <v>       0.00583090 </v>
   <v>       0.00583090 </v>
   <v>       0.00583090 </v>
   <v>       0.00583090 </v>
   <v>       0.00583090 </v>
   <v>       0.00583090 </v>
   <v>       0.00583090 </v>
   <v>       0.00583090 </v>
   <v>       0.00583090 </v>
   <v>       0.00583090 </v>
   <v>       0.00583090 </v>
   <v>       0.00583090 </v>
   <v>       0.00583090 </v>
   <v>       0.00583090 </v>
   <v>       0.00583090 </v>
   <v>       0.00583090 </v>
   <v>       0.00583090 </v>
   <v>       0.00583090 </v>
   <v>       0.00583090 </v>
   <v>       0.00583090 </v>
   <v>       0.00583090 </v>
   <v>       0.00583090 </v>
   <v>       0.00583090 </v>
   <v>       0.00583090 </v>
   <v>       0.00583090 </v>
   <v>       0.00583090 </v>
   <v>       0.00583090 </v>
   <v>       0.00583090 </v>
   <v>       0.00583090 </v>
   <v>       0.00583090 </v>
   <v>       0.00583090 </v>
   <v>       0.00583090 </v>
   <v>       0.00583090 </v>
   <v>       0.00583090 </v>
   <v>       0.00583090 </v>
   <v>       0.00583090 </v>
   <v>       0.00583090 </v>
   <v>       0.00583090 </v>
   <v>       0.00583090 </v>
   <v>       0.00583090 </v>
   <v>       0.00583090 </v>
   <v>       0.00583090 </v>
   <v>       0.00583090 </v>
   <v>       0.00583090 </v>
   <v>       0.00583090 </v>
   <v>       0.00583090 </v>
   <v>       0.00583090 </v>
  </varray>
 </kpoints>
 <parameters>
  <separator name="general" >
   <i type="string" name="SYSTEM">Nb - Mo - Ta - Ti - V SQS</i>
   <i type="logical" name="LCOMPAT"> F  </i>
  </separator>
  <separator name="electronic" >
   <i type="string" name="PREC">normal</i>
   <i name="ENMAX">    600.00000000</i>
   <i name="ENAUG">    455.65900000</i>
   <i name="EDIFF">      0.00010000</i>
   <i type="int" name="IALGO">    38</i>
   <i type="int" name="IWAVPR">    11</i>
   <i type="int" name="NBANDS">   120</i>
   <i name="NELECT">    194.00000000</i>
   <i type="int" name="TURBO">     0</i>
   <i type="int" name="IRESTART">     0</i>
   <i type="int" name="NREBOOT">     0</i>
   <i type="int" name="NMIN">     0</i>
   <i name="EREF">      0.00000000</i>
   <separator name="electronic smearing" >
    <i type="int" name="ISMEAR">     1</i>
    <i name="SIGMA">      0.20000000</i>
    <i name="KSPACING">      0.50000000</i>
    <i type="logical" name="KGAMMA"> T  </i>
   </separator>
   <separator name="electronic projectors" >
    <i type="logical" name="LREAL"> T  </i>
    <v name="ROPT">     -0.00050000     -0.00050000     -0.00050000     -0.00050000     -0.00050000</v>
    <i type="int" name="LMAXPAW">  -100</i>
    <i type="int" name="LMAXMIX">     2</i>
    <i type="logical" name="NLSPLINE"> F  </i>
   </separator>
   <separator name="electronic startup" >
    <i type="int" name="ISTART">     0</i>
    <i type="int" name="ICHARG">     2</i>
    <i type="int" name="INIWAV">     1</i>
   </separator>
   <separator name="electronic spin" >
    <i type="int" name="ISPIN">     1</i>
    <i type="logical" name="LNONCOLLINEAR"> F  </i>
    <v name="MAGMOM">      1.00000000      1.00000000      1.00000000      1.00000000      1.00000000      1.00000000      1.00000000      1.00000000      1.00000000      1.00000000      1.00000000      1.00000000      1.00000000      1.00000000      1.00000000      1.00000000      1.00000000      1.00000000      1.00000000      1.00000000
      1.00000000      1.00000000      1.00000000      1.00000000      1.00000000      1.00000000      1.00000000      1.00000000      1.00000000</v>
    <i name="NUPDOWN">     -1.00000000</i>
    <i type="logical" name="LSORBIT"> F  </i>
    <v name="SAXIS">      0.00000000      0.00000000      1.00000000</v>
    <i type="logical" name="LSPIRAL"> F  </i>
    <v name="QSPIRAL">      0.00000000      0.00000000      0.00000000</v>
    <i type="logical" name="LZEROZ"> F  </i>
   </separator>
   <separator name="electronic exchange-correlation" >
    <i type="logical" name="LASPH"> F  </i>
    <i type="logical" name="LMETAGGA"> F  </i>
   </separator>
   <separator name="electronic convergence" >
    <i type="int" name="NELM">    60</i>
    <i type="int" name="NELMDL">     0</i>
    <i type="int" name="NELMIN">     2</i>
    <i name="ENINI">    600.00000000</i>
    <separator name="electronic convergence detail" >
     <i type="logical" name="LDIAG"> T  </i>
     <i type="logical" name="LSUBROT"> F  </i>
     <i name="WEIMIN">      0.00100000</i>
     <i name="EBREAK">      0.00000021</i>
     <i name="DEPER">      0.30000000</i>
     <i type="int" name="NRMM">     4</i>
     <i name="TIME">      0.40000000</i>
    </separator>
   </separator>
   <separator name="electronic mixer" >
    <i name="AMIX">      0.40000000</i>
    <i name="BMIX">      1.00000000</i>
    <i name="AMIN">      0.10000000</i>
    <i name="AMIX_MAG">      1.60000000</i>
    <i name="BMIX_MAG">      1.00000000</i>
    <separator name="electronic mixer details" >
     <i type="int" name="IMIX">     4</i>
     <i type="logical" name="MIXFIRST"> F  </i>
     <i type="int" name="MAXMIX">   -45</i>
     <i name="WC">    100.00000000</i>
     <i type="int" name="INIMIX">     1</i>
     <i type="int" name="MIXPRE">     1</i>
     <i type="int" name="MREMOVE">     5</i>
    </separator>
   </separator>
   <separator name="electronic dipolcorrection" >
    <i type="logical" name="LDIPOL"> F  </i>
    <i type="logical" name="LMONO"> F  </i>
    <i type="int" name="IDIPOL">     0</i>
    <i name="EPSILON">      1.00000000</i>
    <v name="DIPOL">   -100.00000000   -100.00000000   -100.00000000</v>
    <i name="EFIELD">      0.00000000</i>
   </separator>
  </separator>
  <separator name="grids" >
   <i type="int" name="NGX">    36</i>
   <i type="int" name="NGY">    50</i>
   <i type="int" name="NGZ">    70</i>
   <i type="int" name="NGXF">    72</i>
   <i type="int" name="NGYF">   100</i>
   <i type="int" name="NGZF">   140</i>
   <i type="logical" name="ADDGRID"> F  </i>
  </separator>
  <separator name="ionic" >
   <i type="int" name="NSW">    50</i>
   <i type="int" name="IBRION">     2</i>
   <i type="int" name="MDALGO">     0</i>
   <i type="int" name="ISIF">     3</i>
   <i name="PSTRESS">      0.00000000</i>
   <i name="EDIFFG">      0.00100000</i>
   <i type="int" name="NFREE">     1</i>
   <i name="POTIM">      0.50000000</i>
   <i name="SMASS">     -3.00000000</i>
   <i name="SCALEE">      1.00000000</i>
  </separator>
  <separator name="ionic md" >
   <i name="TEBEG">      0.00010000</i>
   <i name="TEEND">      0.00010000</i>
   <i type="int" name="NBLOCK">     1</i>
   <i type="int" name="KBLOCK">    50</i>
   <i type="int" name="NPACO">   256</i>
   <i name="APACO">     16.00000000</i>
  </separator>
  <separator name="symmetry" >
   <i type="int" name="ISYM">     2</i>
   <i name="SYMPREC">      0.00001000</i>
  </separator>
  <separator name="dos" >
   <i type="int" name="LORBIT">     0</i>
   <v name="RWIGS">     -1.00000000     -1.00000000     -1.00000000     -1.00000000     -1.00000000</v>
   <i type="int" name="NEDOS">   301</i>
   <i name="EMIN">     10.00000000</i>
   <i name="EMAX">    -10.00000000</i>
   <i name="EFERMI">      0.00000000</i>
  </separator>
  <separator name="writing" >
   <i type="int" name="NWRITE">     2</i>
   <i type="logical" name="LWAVE"> T  </i>
   <i type="logical" name="LDOWNSAMPLE"> F  </i>
   <i type="logical" name="LCHARG"> T  </i>
   <i type="logical" name="LPARD"> F  </i>
   <i type="logical" name="LVTOT"> F  </i>
   <i type="logical" name="LVHAR"> F  </i>
   <i type="logical" name="LELF"> F  </i>
   <i type="logical" name="LOPTICS"> F  </i>
   <v name="STM">      0.00000000      0.00000000      0.00000000      0.00000000      0.00000000      0.00000000      0.00000000</v>
  </separator>
  <separator name="performance" >
   <i type="int" name="NPAR">     8</i>
   <i type="int" name="NSIM">     4</i>
   <i type="int" name="NBLK">    -1</i>
   <i type="logical" name="LPLANE"> T  </i>
   <i type="logical" name="LSCALAPACK"> T  </i>
   <i type="logical" name="LSCAAWARE"> F  </i>
   <i type="logical" name="LSCALU"> F  </i>
   <i type="logical" name="LASYNC"> F  </i>
   <i type="logical" name="LORBITALREAL"> F  </i>
  </separator>
  <separator name="miscellaneous" >
   <i type="int" name="IDIOT">     3</i>
   <i type="int" name="ISPECIAL">     0</i>
   <i type="logical" name="LMUSIC"> F  </i>
   <v name="POMASS">     92.91000000     95.94000000    180.94800000     47.88000000     50.94100000</v>
   <v name="DARWINR">      0.00000000      0.00000000      0.00000000      0.00000000      0.00000000</v>
   <v name="DARWINV">      1.00000000      1.00000000      1.00000000      1.00000000      1.00000000</v>
   <i type="logical" name="LCORR"> T  </i>
  </separator>
  <i type="logical" name="GGA_COMPAT"> T  </i>
  <i type="logical" name="LBERRY"> F  </i>
  <i type="int" name="ICORELEVEL">     0</i>
  <i type="logical" name="LDAU"> F  </i>
  <i type="int" name="I_CONSTRAINED_M">     0</i>
  <separator name="electronic exchange-correlation" >
   <i type="string" name="GGA">PS</i>
   <i type="int" name="VOSKOWN">     0</i>
   <i type="logical" name="LHFCALC"> F  </i>
   <i type="string" name="PRECFOCK"></i>
   <i type="logical" name="LSYMGRAD"> F  </i>
   <i type="logical" name="LHFONE"> F  </i>
   <i type="logical" name="LRHFCALC"> F  </i>
   <i type="logical" name="LTHOMAS"> F  </i>
   <i type="logical" name="LMODELHF"> F  </i>
   <i name="ENCUT4O">     -1.00000000</i>
   <i type="int" name="EXXOEP">     0</i>
   <i type="int" name="FOURORBIT">     0</i>
   <i name="AEXX">      0.00000000</i>
   <i name="HFALPHA">      0.00000000</i>
   <i name="MCALPHA">      0.00000000</i>
   <i name="ALDAX">      1.00000000</i>
   <i name="AGGAX">      1.00000000</i>
   <i name="ALDAC">      1.00000000</i>
   <i name="AGGAC">      1.00000000</i>
   <i type="int" name="NKREDX">     1</i>
   <i type="int" name="NKREDY">     1</i>
   <i type="int" name="NKREDZ">     1</i>
   <i type="logical" name="SHIFTRED"> F  </i>
   <i type="logical" name="ODDONLY"> F  </i>
   <i type="logical" name="EVENONLY"> F  </i>
   <i type="int" name="LMAXFOCK">     0</i>
   <i type="int" name="NMAXFOCKAE">     0</i>
   <i type="logical" name="LFOCKAEDFT"> F  </i>
   <i name="HFSCREEN">      0.00000000</i>
   <i name="HFSCREENC">      0.00000000</i>
   <i type="int" name="NBANDSGWLOW">     0</i>
  </separator>
  <separator name="vdW DFT" >
   <i type="logical" name="LUSE_VDW"> F  </i>
   <i name="Zab_VDW">     -0.84910000</i>
   <i name="PARAM1">      0.12340000</i>
   <i name="PARAM2">      1.00000000</i>
   <i name="PARAM3">      0.00000000</i>
  </separator>
  <separator name="model GW" >
   <i type="int" name="MODEL_GW">     0</i>
   <i name="MODEL_EPS0">      9.79277462</i>
   <i name="MODEL_ALPHA">      1.00000000</i>
  </separator>
  <separator name="linear response parameters" >
   <i type="logical" name="LEPSILON"> F  </i>
   <i type="logical" name="LRPA"> F  </i>
   <i type="logical" name="LNABLA"> F  </i>
   <i type="logical" name="LVEL"> F  </i>
   <i type="int" name="KINTER">     0</i>
   <i name="CSHIFT">      0.10000000</i>
   <i name="OMEGAMAX">     -1.00000000</i>
   <i name="DEG_THRESHOLD">      0.00200000</i>
   <i name="RTIME">     -0.10000000</i>
   <i name="WPLASMAI">      0.00000000</i>
   <v name="DFIELD">      0.00000000      0.00000000      0.00000000</v>
   <v name="WPLASMA">      0.00000000      0.00000000      0.00000000      0.00000000      0.00000000      0.00000000      0.00000000      0.00000000      0.00000000</v>
  </separator>
  <separator name="orbital magnetization" >
   <i type="logical" name="NUCIND"> F  </i>
   <v name="MAGPOS">      0.00000000      0.00000000      0.00000000</v>
   <i type="logical" name="LNICSALL"> T  </i>
   <i type="logical" name="ORBITALMAG"> F  </i>
   <i type="logical" name="LMAGBLOCH"> F  </i>
   <i type="logical" name="LCHIMAG"> F  </i>
   <i type="logical" name="LGAUGE"> T  </i>
   <i type="int" name="MAGATOM">     0</i>
   <v name="MAGDIPOL">      0.00000000      0.00000000      0.00000000</v>
   <v name="AVECCONST">      0.00000000      0.00000000      0.00000000</v>
  </separator>
  <separator name="response functions" >
   <i type="logical" name="LADDER"> F  </i>
   <i type="logical" name="LRPAFORCE"> F  </i>
   <i type="logical" name="LFXC"> F  </i>
   <i type="logical" name="LHARTREE"> T  </i>
   <i type="int" name="IBSE">     0</i>
   <v type="int" name="KPOINT">    -1     0     0     0</v>
   <i type="logical" name="LTCTE"> F  </i>
   <i type="logical" name="LTETE"> F  </i>
   <i type="logical" name="LTRIPLET"> F  </i>
   <i type="logical" name="LFXCEPS"> F  </i>
   <i type="logical" name="LFXHEG"> F  </i>
   <i type="int" name="NATURALO">     2</i>
   <i type="logical" name="L2ORDER"> F  </i>
   <i type="logical" name="LMP2LT"> F  </i>
   <i type="logical" name="LUSEW"> F  </i>
   <i name="ENCUTGW">     -2.00000000</i>
   <i name="ENCUTGWSOFT">     -2.00000000</i>
   <i name="ENCUTLF">     -1.00000000</i>
   <i type="int" name="LMAXMP2">    -1</i>
   <i name="SCISSOR">      0.00000000</i>
   <i type="int" name="NOMEGA">     0</i>
   <i type="int" name="NOMEGAR">     0</i>
   <i type="int" name="NBANDSGW">    -1</i>
   <i type="int" name="NBANDSO">    -1</i>
   <i type="int" name="NBANDSV">    -1</i>
   <i type="int" name="NELM">     1</i>
   <i type="int" name="NELMHF">     1</i>
   <i type="int" name="DIM">     3</i>
   <i type="int" name="ANTIRES">     0</i>
   <i name="OMEGAMAX">    -30.00000000</i>
   <i name="OMEGAMIN">    -30.00000000</i>
   <i name="OMEGATL">   -200.00000000</i>
   <i type="int" name="OMEGAGRID">   140</i>
   <i name="CSHIFT">     -0.10000000</i>
   <i type="logical" name="SELFENERGY"> F  </i>
   <i type="logical" name="LSPECTRAL"> F  </i>
   <i type="logical" name="LSPECTRALGW"> F  </i>
   <i type="logical" name="LSINGLES"> F  </i>
   <i type="logical" name="LFERMIGW"> F  </i>
   <i type="logical" name="ODDONLYGW"> F  </i>
   <i type="logical" name="EVENONLYGW"> F  </i>
   <i type="int" name="NKREDLFX">     1</i>
   <i type="int" name="NKREDLFY">     1</i>
   <i type="int" name="NKREDLFZ">     1</i>
   <i type="int" name="MAXMEM">  2800</i>
   <i type="int" name="TELESCOPE">     0</i>
   <i type="int" name="TAUPAR">     1</i>
   <i type="int" name="OMEGAPAR">    -1</i>
   <i name="LAMBDA">      1.00000000</i>
  </separator>
  <separator name="External order field" >
   <i name="OFIELD_KAPPA">      0.00000000</i>
   <v name="OFIELD_K">      0.00000000      0.00000000      0.00000000</v>
   <i name="OFIELD_Q6_NEAR">      0.00000000</i>
   <i name="OFIELD_Q6_FAR">      0.00000000</i>
   <i name="OFIELD_A">      0.00000000</i>
  </separator>
  <separator name="solvation model" >
   <i type="logical" name="LSOL"> F  </i>
  </separator>
 </parameters>
 <atominfo>
  <atoms>      29 </atoms>
  <types>       5 </types>
  <array name="atoms" >
   <dimension dim="1">ion</dimension>
   <field type="string">element</field>
   <field type="int">atomtype</field>
   <set>
    <rc><c>Nb</c><c>   1</c></rc>
    <rc><c>Nb</c><c>   1</c></rc>
    <rc><c>Nb</c><c>   1</c></rc>
    <rc><c>Nb</c><c>   1</c></rc>
    <rc><c>Nb</c><c>   1</c></rc>
    <rc><c>Nb</c><c>   1</c></rc>
    <rc><c>Mo</c><c>   2</c></rc>
    <rc><c>Mo</c><c>   2</c></rc>
    <rc><c>Mo</c><c>   2</c></rc>
    <rc><c>Mo</c><c>   2</c></rc>
    <rc><c>Mo</c><c>   2</c></rc>
    <rc><c>Mo</c><c>   2</c></rc>
    <rc><c>Ta</c><c>   3</c></rc>
    <rc><c>Ta</c><c>   3</c></rc>
    <rc><c>Ta</c><c>   3</c></rc>
    <rc><c>Ta</c><c>   3</c></rc>
    <rc><c>Ta</c><c>   3</c></rc>
    <rc><c>Ta</c><c>   3</c></rc>
    <rc><c>Ti</c><c>   4</c></rc>
    <rc><c>Ti</c><c>   4</c></rc>
    <rc><c>Ti</c><c>   4</c></rc>
    <rc><c>Ti</c><c>   4</c></rc>
    <rc><c>Ti</c><c>   4</c></rc>
    <rc><c>V </c><c>   5</c></rc>
    <rc><c>V </c><c>   5</c></rc>
    <rc><c>V </c><c>   5</c></rc>
    <rc><c>V </c><c>   5</c></rc>
    <rc><c>V </c><c>   5</c></rc>
    <rc><c>V </c><c>   5</c></rc>
   </set>
  </array>
  <array name="atomtypes" >
   <dimension dim="1">type</dimension>
   <field type="int">atomspertype</field>
   <field type="string">element</field>
   <field>mass</field>
   <field>valence</field>
   <field type="string">pseudopotential</field>
   <set>
    <rc><c>   6</c><c>Nb</c><c>     92.91000000</c><c>     13.00000000</c><c>  PAW_PBE Nb_sv 25May2007               </c></rc>
    <rc><c>   6</c><c>Mo</c><c>     95.94000000</c><c>      6.00000000</c><c>  PAW_PBE Mo 08Apr2002                  </c></rc>
    <rc><c>   6</c><c>Ta</c><c>    180.94800000</c><c>      5.00000000</c><c>  PAW_PBE Ta 17Jan2003                  </c></rc>
    <rc><c>   5</c><c>Ti</c><c>     47.88000000</c><c>      4.00000000</c><c>  PAW_PBE Ti 08Apr2002                  </c></rc>
    <rc><c>   6</c><c>V </c><c>     50.94100000</c><c>      5.00000000</c><c>  PAW_PBE V 08Apr2002                   </c></rc>
   </set>
  </array>
 </atominfo>
 <structure name="initialpos" >
  <crystal>
   <varray name="basis" >
    <v>      -3.16000000      -3.16000000      -3.16000000 </v>
    <v>       1.58000000       1.58000000      -7.90000000 </v>
    <v>       7.90000000      -7.90000000      -1.58000000 </v>
   </varray>
   <i name="volume">    473.31744000 </i>
   <varray name="rec_basis" >
    <v>      -0.13713080      -0.12658228      -0.05274262 </v>
    <v>       0.04219409       0.06329114      -0.10548523 </v>
    <v>       0.06329114      -0.06329114       0.00000000 </v>
   </varray>
  </crystal>
  <varray name="positions" >
   <v>       0.96666667       0.93333333       0.40000000 </v>
   <v>       0.63333333       0.26666667       0.40000000 </v>
   <v>       0.50000000       0.00000000       0.00000000 </v>
   <v>       0.00000000       0.00000000       0.00000000 </v>
   <v>       0.10000000       0.20000000       0.80000000 </v>
   <v>       0.03333333       0.06666667       0.60000000 </v>
   <v>       0.90000000       0.80000000       0.20000000 </v>
   <v>       0.80000000       0.60000000       0.40000000 </v>
   <v>       0.73333333       0.46666667       0.20000000 </v>
   <v>       0.66666667       0.33333333       0.00000000 </v>
   <v>       0.36666667       0.73333333       0.60000000 </v>
   <v>       0.13333333       0.26666667       0.40000000 </v>
   <v>       0.83333333       0.66666667       0.00000000 </v>
   <v>       0.93333333       0.86666667       0.80000000 </v>
   <v>       0.56666667       0.13333333       0.20000000 </v>
   <v>       0.40000000       0.80000000       0.20000000 </v>
   <v>       0.43333333       0.86666667       0.80000000 </v>
   <v>       0.30000000       0.60000000       0.40000000 </v>
   <v>       0.86666667       0.73333333       0.60000000 </v>
   <v>       0.16666667       0.33333333       0.00000000 </v>
   <v>       0.26666667       0.53333333       0.80000000 </v>
   <v>       0.20000000       0.40000000       0.60000000 </v>
   <v>       0.06666667       0.13333333       0.20000000 </v>
   <v>       0.76666667       0.53333333       0.80000000 </v>
   <v>       0.70000000       0.40000000       0.60000000 </v>
   <v>       0.60000000       0.20000000       0.80000000 </v>
   <v>       0.53333333       0.06666667       0.60000000 </v>
   <v>       0.33333333       0.66666667       0.00000000 </v>
   <v>       0.23333333       0.46666667       0.20000000 </v>
  </varray>
 </structure>
 <calculation>
  <scstep>
   <time name="dav">   34.42   34.47</time>
   <time name="total">   34.50   34.58</time>
   <energy>
    <i name="alphaZ">   1169.09370839 </i>
    <i name="ewald"> -11245.66865460 </i>
    <i name="hartreedc">  -3178.25641737 </i>
    <i name="XCdc">   -856.25450320 </i>
    <i name="pawpsdc">  11965.31639782 </i>
    <i name="pawaedc"> -10500.68466480 </i>
    <i name="eentropy">      0.00240661 </i>
    <i name="bandstr">   2319.55046266 </i>
    <i name="atom">  12911.34519091 </i>
    <i name="e_fr_energy">   2584.44392640 </i>
    <i name="e_wo_entrp">   2584.44151980 </i>
    <i name="e_0_energy">   2584.44312420 </i>
   </energy>
  </scstep>
  <scstep>
   <time name="dav">   37.98   38.04</time>
   <time name="total">   38.00   38.05</time>
   <energy>
    <i name="e_fr_energy">    268.34197145 </i>
    <i name="e_wo_entrp">    268.34403763 </i>
    <i name="e_0_energy">    268.34266017 </i>
   </energy>
  </scstep>
  <scstep>
   <time name="dav">   51.88   51.94</time>
   <time name="total">   51.89   51.95</time>
   <energy>
    <i name="e_fr_energy">   -246.18215476 </i>
    <i name="e_wo_entrp">   -246.18535521 </i>
    <i name="e_0_energy">   -246.18322158 </i>
   </energy>
  </scstep>
  <scstep>
   <time name="dav">   52.69   52.76</time>
   <time name="total">   52.70   52.77</time>
   <energy>
    <i name="e_fr_energy">   -325.74167600 </i>
    <i name="e_wo_entrp">   -325.74222683 </i>
    <i name="e_0_energy">   -325.74185961 </i>
   </energy>
  </scstep>
  <scstep>
   <time name="dav">   58.38   58.45</time>
   <time name="total">   59.24   59.31</time>
   <energy>
    <i name="e_fr_energy">   -336.55648676 </i>
    <i name="e_wo_entrp">   -336.56054494 </i>
    <i name="e_0_energy">   -336.55783949 </i>
   </energy>
  </scstep>
  <scstep>
   <time name="dav">   52.53   52.59</time>
   <time name="total">   53.43   53.50</time>
   <energy>
    <i name="e_fr_energy">   -363.48610290 </i>
    <i name="e_wo_entrp">   -363.47930343 </i>
    <i name="e_0_energy">   -363.48383641 </i>
   </energy>
  </scstep>
  <scstep>
   <time name="dav">   56.56   56.63</time>
   <time name="total">   57.46   57.53</time>
   <energy>
    <i name="e_fr_energy">   -326.90466894 </i>
    <i name="e_wo_entrp">   -326.90149927 </i>
    <i name="e_0_energy">   -326.90361238 </i>
   </energy>
  </scstep>
  <scstep>
   <time name="dav">   49.77   49.83</time>
   <time name="total">   50.68   50.75</time>
   <energy>
    <i name="e_fr_energy">   -331.47100413 </i>
    <i name="e_wo_entrp">   -331.47194782 </i>
    <i name="e_0_energy">   -331.47131869 </i>
   </energy>
  </scstep>
  <scstep>
   <time name="dav">   49.98   50.05</time>
   <time name="total">   50.88   50.95</time>
   <energy>
    <i name="e_fr_energy">   -317.02238629 </i>
    <i name="e_wo_entrp">   -317.01017764 </i>
    <i name="e_0_energy">   -317.01831674 </i>
   </energy>
  </scstep>
  <scstep>
   <time name="dav">   50.32   50.38</time>
   <time name="total">   51.23   51.30</time>
   <energy>
    <i name="e_fr_energy">   -311.78183410 </i>
    <i name="e_wo_entrp">   -311.77346523 </i>
    <i name="e_0_energy">   -311.77904448 </i>
   </energy>
  </scstep>
  <scstep>
   <time name="dav">   54.28   54.35</time>
   <time name="total">   55.18   55.25</time>
   <energy>
    <i name="e_fr_energy">   -309.61166898 </i>
    <i name="e_wo_entrp">   -309.60688223 </i>
    <i name="e_0_energy">   -309.61007340 </i>
   </energy>
  </scstep>
  <scstep>
   <time name="dav">   51.14   51.20</time>
   <time name="total">   52.05   52.12</time>
   <energy>
    <i name="e_fr_energy">   -308.47361043 </i>
    <i name="e_wo_entrp">   -308.46257320 </i>
    <i name="e_0_energy">   -308.46993136 </i>
   </energy>
  </scstep>
  <scstep>
   <time name="dav">   52.98   53.05</time>
   <time name="total">   53.90   53.96</time>
   <energy>
    <i name="e_fr_energy">   -308.17206269 </i>
    <i name="e_wo_entrp">   -308.15809745 </i>
    <i name="e_0_energy">   -308.16740761 </i>
   </energy>
  </scstep>
  <scstep>
   <time name="dav">   53.21   53.27</time>
   <time name="total">   54.13   54.20</time>
   <energy>
    <i name="e_fr_energy">   -308.10189386 </i>
    <i name="e_wo_entrp">   -308.09103357 </i>
    <i name="e_0_energy">   -308.09827376 </i>
   </energy>
  </scstep>
  <scstep>
   <time name="dav">   50.51   50.58</time>
   <time name="total">   51.41   51.49</time>
   <energy>
    <i name="e_fr_energy">   -307.99554643 </i>
    <i name="e_wo_entrp">   -307.98140124 </i>
    <i name="e_0_energy">   -307.99083136 </i>
   </energy>
  </scstep>
  <scstep>
   <time name="dav">   49.34   49.40</time>
   <time name="total">   50.25   50.32</time>
   <energy>
    <i name="e_fr_energy">   -307.54025669 </i>
    <i name="e_wo_entrp">   -307.52482886 </i>
    <i name="e_0_energy">   -307.53511408 </i>
   </energy>
  </scstep>
  <scstep>
   <time name="dav">   54.51   54.58</time>
   <time name="total">   55.41   55.49</time>
   <energy>
    <i name="e_fr_energy">   -307.34613700 </i>
    <i name="e_wo_entrp">   -307.32974762 </i>
    <i name="e_0_energy">   -307.34067387 </i>
   </energy>
  </scstep>
  <scstep>
   <time name="dav">   53.91   53.97</time>
   <time name="total">   54.82   54.89</time>
   <energy>
    <i name="e_fr_energy">   -307.31310946 </i>
    <i name="e_wo_entrp">   -307.29684301 </i>
    <i name="e_0_energy">   -307.30768731 </i>
   </energy>
  </scstep>
  <scstep>
   <time name="dav">   53.46   53.52</time>
   <time name="total">   54.35   54.42</time>
   <energy>
    <i name="e_fr_energy">   -307.29276889 </i>
    <i name="e_wo_entrp">   -307.27500705 </i>
    <i name="e_0_energy">   -307.28684828 </i>
   </energy>
  </scstep>
  <scstep>
   <time name="dav">   51.18   51.25</time>
   <time name="total">   52.09   52.17</time>
   <energy>
    <i name="e_fr_energy">   -307.27557878 </i>
    <i name="e_wo_entrp">   -307.26017499 </i>
    <i name="e_0_energy">   -307.27044418 </i>
   </energy>
  </scstep>
  <scstep>
   <time name="dav">   51.74   51.82</time>
   <time name="total">   52.64   52.72</time>
   <energy>
    <i name="e_fr_energy">   -307.26340667 </i>
    <i name="e_wo_entrp">   -307.24677781 </i>
    <i name="e_0_energy">   -307.25786372 </i>
   </energy>
  </scstep>
  <scstep>
   <time name="dav">   50.32   50.38</time>
   <time name="total">   51.22   51.30</time>
   <energy>
    <i name="e_fr_energy">   -307.26263154 </i>
    <i name="e_wo_entrp">   -307.24627550 </i>
    <i name="e_0_energy">   -307.25717952 </i>
   </energy>
  </scstep>
  <scstep>
   <time name="dav">   47.80   47.86</time>
   <time name="total">   48.69   48.76</time>
   <energy>
    <i name="e_fr_energy">   -307.25846890 </i>
    <i name="e_wo_entrp">   -307.24214203 </i>
    <i name="e_0_energy">   -307.25302661 </i>
   </energy>
  </scstep>
  <scstep>
   <time name="dav">   51.56   51.62</time>
   <time name="total">   52.46   52.54</time>
   <energy>
    <i name="e_fr_energy">   -307.25773551 </i>
    <i name="e_wo_entrp">   -307.24126451 </i>
    <i name="e_0_energy">   -307.25224518 </i>
   </energy>
  </scstep>
  <scstep>
   <time name="dav">   48.87   49.11</time>
   <time name="total">   49.76   50.01</time>
   <energy>
    <i name="e_fr_energy">   -307.25726238 </i>
    <i name="e_wo_entrp">   -307.24071411 </i>
    <i name="e_0_energy">   -307.25174629 </i>
   </energy>
  </scstep>
  <scstep>
   <time name="dav">   43.32   43.38</time>
   <time name="total">   44.23   44.30</time>
   <energy>
    <i name="e_fr_energy">   -307.25719940 </i>
    <i name="e_wo_entrp">   -307.24065625 </i>
    <i name="e_0_energy">   -307.25168502 </i>
   </energy>
  </scstep>
  <scstep>
   <time name="dav">   27.69   27.73</time>
   <time name="total">   27.74   27.78</time>
   <energy>
    <i name="alphaZ">   1169.09370839 </i>
    <i name="ewald"> -11245.66865460 </i>
    <i name="hartreedc">  -3013.62245878 </i>
    <i name="XCdc">   -852.58848346 </i>
    <i name="pawpsdc">  18756.45083661 </i>
    <i name="pawaedc"> -17285.73048032 </i>
    <i name="eentropy">     -0.01655799 </i>
    <i name="bandstr">   -746.52023616 </i>
    <i name="atom">  12911.34519091 </i>
    <i name="e_fr_energy">   -307.25713542 </i>
    <i name="e_wo_entrp">   -307.24057743 </i>
    <i name="e_0_energy">   -307.25161609 </i>
   </energy>
  </scstep>
  <structure>
   <crystal>
    <varray name="basis" >
     <v>      -3.16000000      -3.16000000      -3.16000000 </v>
     <v>       1.58000000       1.58000000      -7.90000000 </v>
     <v>       7.90000000      -7.90000000      -1.58000000 </v>
    </varray>
    <i name="volume">    473.31744000 </i>
    <varray name="rec_basis" >
     <v>      -0.13713080      -0.12658228      -0.05274262 </v>
     <v>       0.04219409       0.06329114      -0.10548523 </v>
     <v>       0.06329114      -0.06329114       0.00000000 </v>
    </varray>
   </crystal>
   <varray name="positions" >
    <v>       0.96666667       0.93333333       0.40000000 </v>
    <v>       0.63333333       0.26666667       0.40000000 </v>
    <v>       0.50000000       0.00000000       0.00000000 </v>
    <v>       0.00000000       0.00000000       0.00000000 </v>
    <v>       0.10000000       0.20000000       0.80000000 </v>
    <v>       0.03333333       0.06666667       0.60000000 </v>
    <v>       0.90000000       0.80000000       0.20000000 </v>
    <v>       0.80000000       0.60000000       0.40000000 </v>
    <v>       0.73333333       0.46666667       0.20000000 </v>
    <v>       0.66666667       0.33333333       0.00000000 </v>
    <v>       0.36666667       0.73333333       0.60000000 </v>
    <v>       0.13333333       0.26666667       0.40000000 </v>
    <v>       0.83333333       0.66666667       0.00000000 </v>
    <v>       0.93333333       0.86666667       0.80000000 </v>
    <v>       0.56666667       0.13333333       0.20000000 </v>
    <v>       0.40000000       0.80000000       0.20000000 </v>
    <v>       0.43333333       0.86666667       0.80000000 </v>
    <v>       0.30000000       0.60000000       0.40000000 </v>
    <v>       0.86666667       0.73333333       0.60000000 </v>
    <v>       0.16666667       0.33333333       0.00000000 </v>
    <v>       0.26666667       0.53333333       0.80000000 </v>
    <v>       0.20000000       0.40000000       0.60000000 </v>
    <v>       0.06666667       0.13333333       0.20000000 </v>
    <v>       0.76666667       0.53333333       0.80000000 </v>
    <v>       0.70000000       0.40000000       0.60000000 </v>
    <v>       0.60000000       0.20000000       0.80000000 </v>
    <v>       0.53333333       0.06666667       0.60000000 </v>
    <v>       0.33333333       0.66666667       0.00000000 </v>
    <v>       0.23333333       0.46666667       0.20000000 </v>
   </varray>
  </structure>
  <varray name="forces" >
   <v>      -0.07257774       0.26058761       0.26281660 </v>
   <v>       0.36547780      -0.15423480      -0.35809407 </v>
   <v>      -0.00171920       0.25655240      -0.23135185 </v>
   <v>       0.31150521      -0.10480572      -0.00335485 </v>
   <v>      -0.15890591       0.70278845      -0.57371686 </v>
   <v>      -0.10153240       0.31739116      -0.28791272 </v>
   <v>      -0.25874413      -0.67981609       0.19525033 </v>
   <v>      -0.14613960       0.06753189       0.09078672 </v>
   <v>      -0.10310628       0.22093696       0.11931550 </v>
   <v>       0.11618653       0.64089678      -0.61014493 </v>
   <v>      -0.35590642      -0.06302876       0.12185142 </v>
   <v>      -0.17311410      -0.04861511      -0.19232727 </v>
   <v>       0.20582716      -0.49827301       0.49021186 </v>
   <v>       0.02551668       0.41292604      -0.11972001 </v>
   <v>       0.34320456      -0.08589509       0.30388633 </v>
   <v>      -0.12805199      -0.67950971       0.31663389 </v>
   <v>      -0.99947615      -0.01953696       0.63075113 </v>
   <v>       0.31974940      -0.32747880       0.16662572 </v>
   <v>       0.03108426      -0.10621301       0.49734459 </v>
   <v>      -0.04232842      -0.24154177      -0.44239952 </v>
   <v>      -0.25911057      -0.17094540      -0.15512041 </v>
   <v>      -0.35394651       0.01278611       0.42644775 </v>
   <v>       0.79731170       0.33004635      -0.80968976 </v>
   <v>       0.07434112      -0.28952411       0.60779538 </v>
   <v>       0.53485075       0.18795175      -0.38213428 </v>
   <v>       0.09140454       0.35539252      -0.24045664 </v>
   <v>       0.03084626      -0.23485436      -0.28146539 </v>
   <v>      -0.34754718      -0.22071967       0.65495679 </v>
   <v>       0.25490065       0.15920436      -0.19678546 </v>
  </varray>
  <varray name="stress" >
   <v>     -21.75582221       0.27755768      -3.24106372 </v>
   <v>       0.27755771     -19.83924191      -6.42858941 </v>
   <v>      -3.24106371      -6.42858942     -22.07417934 </v>
  </varray>
  <energy>
   <i name="e_fr_energy">   -307.25713542 </i>
   <i name="e_wo_entrp">   -307.25161609 </i>
   <i name="e_0_energy">     -0.01655799 </i>
  </energy>
  <time name="totalsc"> 1386.29 1388.52</time>
 </calculation>
 <calculation>
  <scstep>
   <time name="dav">   38.79   38.85</time>
   <time name="total">   39.69   39.76</time>
   <energy>
    <i name="alphaZ">   1206.46701593 </i>
    <i name="ewald"> -11407.65878604 </i>
    <i name="hartreedc">  -3004.79401782 </i>
    <i name="XCdc">   -848.58443435 </i>
    <i name="pawpsdc">  18756.08089086 </i>
    <i name="pawaedc"> -17285.38594278 </i>
    <i name="eentropy">     -0.01409057 </i>
    <i name="bandstr">   -635.64130505 </i>
    <i name="atom">  12911.34519091 </i>
    <i name="e_fr_energy">   -308.18547892 </i>
    <i name="e_wo_entrp">   -308.17138835 </i>
    <i name="e_0_energy">   -308.18078207 </i>
   </energy>
  </scstep>
  <scstep>
   <time name="dav">   55.90   55.98</time>
   <time name="total">   56.81   56.90</time>
   <energy>
    <i name="e_fr_energy">   -309.00179498 </i>
    <i name="e_wo_entrp">   -309.00074703 </i>
    <i name="e_0_energy">   -309.00144567 </i>
   </energy>
  </scstep>
  <scstep>
   <time name="dav">   55.38   55.44</time>
   <time name="total">   56.28   56.34</time>
   <energy>
    <i name="e_fr_energy">   -308.45232223 </i>
    <i name="e_wo_entrp">   -308.43977565 </i>
    <i name="e_0_energy">   -308.44814004 </i>
   </energy>
  </scstep>
  <scstep>
   <time name="dav">   52.98   53.05</time>
   <time name="total">   53.89   53.97</time>
   <energy>
    <i name="e_fr_energy">   -308.09556184 </i>
    <i name="e_wo_entrp">   -308.07892090 </i>
    <i name="e_0_energy">   -308.09001486 </i>
   </energy>
  </scstep>
  <scstep>
   <time name="dav">   54.26   54.33</time>
   <time name="total">   55.16   55.23</time>
   <energy>
    <i name="e_fr_energy">   -307.81359186 </i>
    <i name="e_wo_entrp">   -307.80558556 </i>
    <i name="e_0_energy">   -307.81092310 </i>
   </energy>
  </scstep>
  <scstep>
   <time name="dav">   53.03   53.09</time>
   <time name="total">   53.95   54.02</time>
   <energy>
    <i name="e_fr_energy">   -307.72489566 </i>
    <i name="e_wo_entrp">   -307.71787816 </i>
    <i name="e_0_energy">   -307.72255649 </i>
   </energy>
  </scstep>
  <scstep>
   <time name="dav">   54.15   54.22</time>
   <time name="total">   55.05   55.12</time>
   <energy>
    <i name="e_fr_energy">   -307.64962823 </i>
    <i name="e_wo_entrp">   -307.63686499 </i>
    <i name="e_0_energy">   -307.64537382 </i>
   </energy>
  </scstep>
  <scstep>
   <time name="dav">   57.55   57.62</time>
   <time name="total">   58.46   58.54</time>
   <energy>
    <i name="e_fr_energy">   -307.63793682 </i>
    <i name="e_wo_entrp">   -307.62441073 </i>
    <i name="e_0_energy">   -307.63342812 </i>
   </energy>
  </scstep>
  <scstep>
   <time name="dav">   54.44   54.50</time>
   <time name="total">   55.34   55.40</time>
   <energy>
    <i name="e_fr_energy">   -307.61597175 </i>
    <i name="e_wo_entrp">   -307.60402379 </i>
    <i name="e_0_energy">   -307.61198910 </i>
   </energy>
  </scstep>
  <scstep>
   <time name="dav">   56.21   56.28</time>
   <time name="total">   57.12   57.20</time>
   <energy>
    <i name="e_fr_energy">   -307.61404653 </i>
    <i name="e_wo_entrp">   -307.60174052 </i>
    <i name="e_0_energy">   -307.60994452 </i>
   </energy>
  </scstep>
  <scstep>
   <time name="dav">   50.98   51.04</time>
   <time name="total">   51.88   51.94</time>
   <energy>
    <i name="e_fr_energy">   -307.61520349 </i>
    <i name="e_wo_entrp">   -307.60265956 </i>
    <i name="e_0_energy">   -307.61102218 </i>
   </energy>
  </scstep>
  <scstep>
   <time name="dav">   51.31   51.38</time>
   <time name="total">   52.22   52.30</time>
   <energy>
    <i name="e_fr_energy">   -307.61747007 </i>
    <i name="e_wo_entrp">   -307.60550031 </i>
    <i name="e_0_energy">   -307.61348015 </i>
   </energy>
  </scstep>
  <scstep>
   <time name="dav">   56.40   56.48</time>
   <time name="total">   57.32   57.39</time>
   <energy>
    <i name="e_fr_energy">   -307.61857498 </i>
    <i name="e_wo_entrp">   -307.60600807 </i>
    <i name="e_0_energy">   -307.61438601 </i>
   </energy>
  </scstep>
  <scstep>
   <time name="dav">   53.64   53.71</time>
   <time name="total">   54.56   54.64</time>
   <energy>
    <i name="e_fr_energy">   -307.61855921 </i>
    <i name="e_wo_entrp">   -307.60636826 </i>
    <i name="e_0_energy">   -307.61449556 </i>
   </energy>
  </scstep>
  <scstep>
   <time name="dav">   48.64   48.70</time>
   <time name="total">   49.54   49.60</time>
   <energy>
    <i name="e_fr_energy">   -307.61807080 </i>
    <i name="e_wo_entrp">   -307.60572978 </i>
    <i name="e_0_energy">   -307.61395713 </i>
   </energy>
  </scstep>
  <scstep>
   <time name="dav">   43.58   43.63</time>
   <time name="total">   45.10   45.16</time>
   <energy>
    <i name="e_fr_energy">   -307.61787977 </i>
    <i name="e_wo_entrp">   -307.60552244 </i>
    <i name="e_0_energy">   -307.61376066 </i>
   </energy>
  </scstep>
  <scstep>
   <time name="dav">   31.28   31.32</time>
   <time name="total">   31.34   31.38</time>
   <energy>
    <i name="alphaZ">   1206.46701593 </i>
    <i name="ewald"> -11407.65878604 </i>
    <i name="hartreedc">  -2943.69310263 </i>
    <i name="XCdc">   -850.49971181 </i>
    <i name="pawpsdc">  19485.52761744 </i>
    <i name="pawaedc"> -18015.93710946 </i>
    <i name="eentropy">     -0.01237785 </i>
    <i name="bandstr">   -693.15659675 </i>
    <i name="atom">  12911.34519091 </i>
    <i name="e_fr_energy">   -307.61786026 </i>
    <i name="e_wo_entrp">   -307.60548242 </i>
    <i name="e_0_energy">   -307.61373431 </i>
   </energy>
  </scstep>
  <structure>
   <crystal>
    <varray name="basis" >
     <v>      -3.12161170      -3.11963797      -3.11070288 </v>
     <v>       1.57590564       1.58976914      -7.82180715 </v>
     <v>       7.81697386      -7.81690650      -1.55048446 </v>
    </varray>
    <i name="volume">    458.65525859 </i>
    <varray name="rec_basis" >
     <v>      -0.13868204      -0.12798162      -0.05395314 </v>
     <v>       0.04247008       0.06356908      -0.10637069 </v>
     <v>       0.06398380      -0.06392343      -0.00010114 </v>
    </varray>
   </crystal>
   <varray name="positions" >
    <v>       0.96488677       0.93264381       0.39898274 </v>
    <v>       0.63276850       0.26876199       0.40158686 </v>
    <v>       0.49903336       0.00195716      -0.00078859 </v>
    <v>      -0.00141223       0.00033115       0.00127114 </v>
    <v>       0.09821935       0.20474197       0.79736896 </v>
    <v>       0.03279940       0.06889425       0.59872089 </v>
    <v>       0.90536634       0.79640400       0.20128567 </v>
    <v>       0.80032340       0.59944672       0.39934759 </v>
    <v>       0.73236266       0.46652420       0.19901059 </v>
    <v>       0.66353677       0.33863166      -0.00160211 </v>
    <v>       0.36909604       0.73179633       0.59910575 </v>
    <v>       0.13526482       0.26714458       0.39961986 </v>
    <v>       0.83376714       0.66306962       0.00214985 </v>
    <v>       0.93094754       0.86858865       0.79881711 </v>
    <v>       0.56414749       0.13222323       0.20131018 </v>
    <v>       0.40419102       0.79605326       0.20168378 </v>
    <v>       0.43845981       0.86136271       0.79700792 </v>
    <v>       0.29946051       0.59880303       0.40197620 </v>
    <v>       0.86584417       0.73054137       0.60041921 </v>
    <v>       0.16954737       0.33476098       0.00060826 </v>
    <v>       0.26981943       0.53307333       0.79973080 </v>
    <v>       0.20117840       0.39714842       0.59888024 </v>
    <v>       0.06143674       0.14008446       0.20142672 </v>
    <v>       0.76639639       0.52950764       0.80111100 </v>
    <v>       0.69628623       0.40360724       0.60105920 </v>
    <v>       0.59783687       0.20249485       0.79919396 </v>
    <v>       0.53527961       0.06744472       0.60081127 </v>
    <v>       0.33531391       0.66195229      -0.00038725 </v>
    <v>       0.23117552       0.46867306       0.20029219 </v>
   </varray>
  </structure>
  <varray name="forces" >
   <v>       0.09653197       0.19401554       0.16049399 </v>
   <v>       0.14571275      -0.13460818      -0.12074806 </v>
   <v>      -0.07280477       0.12921268       0.01604292 </v>
   <v>       0.08991503      -0.01670998      -0.09733516 </v>
   <v>      -0.11096947       0.31295919      -0.25687394 </v>
   <v>      -0.18147774       0.20904235      -0.11105197 </v>
   <v>      -0.12645340      -0.33096018       0.11753051 </v>
   <v>       0.05102076       0.07030761      -0.10966070 </v>
   <v>       0.02489178       0.00132635       0.17379122 </v>
   <v>      -0.00086041       0.50123258      -0.29126052 </v>
   <v>      -0.35864136       0.00696280       0.06145456 </v>
   <v>      -0.13579082      -0.08907904       0.01833509 </v>
   <v>       0.02176643      -0.14708810       0.04868522 </v>
   <v>      -0.00742095       0.18157084      -0.09480317 </v>
   <v>       0.39599925      -0.17870142       0.29202736 </v>
   <v>       0.03501554      -0.36999337      -0.09810116 </v>
   <v>      -0.36818776       0.10315539       0.34503799 </v>
   <v>       0.22311555      -0.26951727       0.04178654 </v>
   <v>      -0.01037520      -0.07812823       0.35482996 </v>
   <v>      -0.09696863      -0.13724737      -0.38199004 </v>
   <v>      -0.19167452      -0.14216347      -0.02579526 </v>
   <v>      -0.20786993       0.01535176       0.27785355 </v>
   <v>       0.48342972       0.14402642      -0.49287473 </v>
   <v>       0.03592116      -0.15353791       0.50581266 </v>
   <v>       0.49655120       0.05062902      -0.27363623 </v>
   <v>       0.02926494       0.33992308      -0.28663762 </v>
   <v>      -0.08144309      -0.18748980      -0.20124893 </v>
   <v>      -0.27252906      -0.15973586       0.55550803 </v>
   <v>       0.09433103       0.13524456      -0.12717209 </v>
  </varray>
  <varray name="stress" >
   <v>      36.99821836      -0.34207562      -2.01020808 </v>
   <v>      -0.34207563      37.97712050      -3.99568989 </v>
   <v>      -2.01020820      -3.99568990      37.98672185 </v>
  </varray>
  <energy>
   <i name="e_fr_energy">   -307.61786026 </i>
   <i name="e_wo_entrp">   -307.61373431 </i>
   <i name="e_0_energy">     -0.01237785 </i>
  </energy>
  <time name="totalsc">  908.75  909.99</time>
 </calculation>
 <calculation>
  <scstep>
   <time name="dav">   41.26   41.31</time>
   <time name="total">   42.16   42.22</time>
   <energy>
    <i name="alphaZ">   1205.06482140 </i>
    <i name="ewald"> -11401.75149986 </i>
    <i name="hartreedc">  -2944.06721943 </i>
    <i name="XCdc">   -850.64303156 </i>
    <i name="pawpsdc">  19484.77543105 </i>
    <i name="pawaedc"> -18015.07986044 </i>
    <i name="eentropy">     -0.01253595 </i>
    <i name="bandstr">   -697.25088299 </i>
    <i name="atom">  12911.34519091 </i>
    <i name="e_fr_energy">   -307.61958687 </i>
    <i name="e_wo_entrp">   -307.60705092 </i>
    <i name="e_0_energy">   -307.61540822 </i>
   </energy>
  </scstep>
  <scstep>
   <time name="dav">   57.18   57.25</time>
   <time name="total">   58.09   58.17</time>
   <energy>
    <i name="e_fr_energy">   -307.62064722 </i>
    <i name="e_wo_entrp">   -307.60748853 </i>
    <i name="e_0_energy">   -307.61626099 </i>
   </energy>
  </scstep>
  <scstep>
   <time name="dav">   56.22   56.30</time>
   <time name="total">   57.12   57.20</time>
   <energy>
    <i name="e_fr_energy">   -307.61978584 </i>
    <i name="e_wo_entrp">   -307.60754294 </i>
    <i name="e_0_energy">   -307.61570488 </i>
   </energy>
  </scstep>
  <scstep>
   <time name="dav">   49.67   49.73</time>
   <time name="total">   50.58   50.65</time>
   <energy>
    <i name="e_fr_energy">   -307.61929918 </i>
    <i name="e_wo_entrp">   -307.60699191 </i>
    <i name="e_0_energy">   -307.61519676 </i>
   </energy>
  </scstep>
  <scstep>
   <time name="dav">   49.00   49.08</time>
   <time name="total">   49.90   49.98</time>
   <energy>
    <i name="e_fr_energy">   -307.61891325 </i>
    <i name="e_wo_entrp">   -307.60627834 </i>
    <i name="e_0_energy">   -307.61470161 </i>
   </energy>
  </scstep>
  <scstep>
   <time name="dav">   48.12   48.18</time>
   <time name="total">   49.03   49.10</time>
   <energy>
    <i name="e_fr_energy">   -307.61868222 </i>
    <i name="e_wo_entrp">   -307.60599744 </i>
    <i name="e_0_energy">   -307.61445396 </i>
   </energy>
  </scstep>
  <scstep>
   <time name="dav">   43.57   43.63</time>
   <time name="total">   44.47   44.53</time>
   <energy>
    <i name="e_fr_energy">   -307.61854957 </i>
    <i name="e_wo_entrp">   -307.60606746 </i>
    <i name="e_0_energy">   -307.61438887 </i>
   </energy>
  </scstep>
  <scstep>
   <time name="dav">   39.56   39.61</time>
   <time name="total">   39.63   39.69</time>
   <energy>
    <i name="alphaZ">   1205.06482140 </i>
    <i name="ewald"> -11401.75149986 </i>
    <i name="hartreedc">  -2946.79608245 </i>
    <i name="XCdc">   -850.55251225 </i>
    <i name="pawpsdc">  19452.98829444 </i>
    <i name="pawaedc"> -17982.92847473 </i>
    <i name="eentropy">     -0.01247953 </i>
    <i name="bandstr">   -694.97577505 </i>
    <i name="atom">  12911.34519091 </i>
    <i name="e_fr_energy">   -307.61851712 </i>
    <i name="e_wo_entrp">   -307.60603759 </i>
    <i name="e_0_energy">   -307.61435728 </i>
   </energy>
  </scstep>
  <structure>
   <crystal>
    <varray name="basis" >
     <v>      -3.12302265      -3.12112146      -3.11251478 </v>
     <v>       1.57605613       1.58941008      -7.82468110 </v>
     <v>       7.82002546      -7.81996057      -1.55156929 </v>
    </varray>
    <i name="volume">    459.18894266 </i>
    <varray name="rec_basis" >
     <v>      -0.13862437      -0.12792957      -0.05390793 </v>
     <v>       0.04245988       0.06355887      -0.10633785 </v>
     <v>       0.06395808      -0.06389996      -0.00009735 </v>
    </varray>
   </crystal>
   <varray name="positions" >
    <v>       0.96495320       0.93266947       0.39902055 </v>
    <v>       0.63278912       0.26868431       0.40152785 </v>
    <v>       0.49906902       0.00188474      -0.00075936 </v>
    <v>      -0.00135973       0.00031887       0.00122391 </v>
    <v>       0.09828487       0.20456651       0.79746654 </v>
    <v>       0.03281891       0.06881182       0.59876833 </v>
    <v>       0.90516712       0.79653694       0.20123801 </v>
    <v>       0.80031147       0.59946724       0.39937184 </v>
    <v>       0.73239885       0.46652957       0.19904735 </v>
    <v>       0.66365241       0.33843559      -0.00154276 </v>
    <v>       0.36900587       0.73185322       0.59913900 </v>
    <v>       0.13519282       0.26712682       0.39963396 </v>
    <v>       0.83375158       0.66320274       0.00207011 </v>
    <v>       0.93103607       0.86851761       0.79886100 </v>
    <v>       0.56424147       0.13226438       0.20126157 </v>
    <v>       0.40403562       0.79619922       0.20162135 </v>
    <v>       0.43826995       0.86155914       0.79711921 </v>
    <v>       0.29948077       0.59884729       0.40190284 </v>
    <v>       0.86587529       0.73064481       0.60040374 </v>
    <v>       0.16943983       0.33470795       0.00058561 </v>
    <v>       0.26970208       0.53308286       0.79974080 </v>
    <v>       0.20113506       0.39725406       0.59892193 </v>
    <v>       0.06163024       0.13983450       0.20137352 </v>
    <v>       0.76640711       0.52964931       0.80106986 </v>
    <v>       0.69642384       0.40347370       0.60101975 </v>
    <v>       0.59791700       0.20240255       0.79922383 </v>
    <v>       0.53520698       0.06741578       0.60078110 </v>
    <v>       0.33524101       0.66212687      -0.00037272 </v>
    <v>       0.23125551       0.46859880       0.20028128 </v>
   </varray>
  </structure>
  <varray name="forces" >
   <v>       0.08906013       0.19731491       0.16769560 </v>
   <v>       0.15720505      -0.13550323      -0.12904073 </v>
   <v>      -0.07157275       0.13235676       0.00902711 </v>
   <v>       0.09907496      -0.02033547      -0.09152220 </v>
   <v>      -0.11432757       0.32386913      -0.26773948 </v>
   <v>      -0.17878741       0.21375626      -0.11977171 </v>
   <v>      -0.13351502      -0.34790323       0.12486653 </v>
   <v>       0.04365551       0.07080415      -0.09880869 </v>
   <v>       0.02035124       0.01331150       0.16838765 </v>
   <v>       0.00815590       0.50626711      -0.30567931 </v>
   <v>      -0.36120817       0.00187255       0.06452323 </v>
   <v>      -0.13778187      -0.08788906       0.00570309 </v>
   <v>       0.02615898      -0.16554931       0.06111814 </v>
   <v>      -0.00538494       0.18878454      -0.09265606 </v>
   <v>       0.40075381      -0.16829566       0.29081008 </v>
   <v>       0.02502189      -0.39054001      -0.07740245 </v>
   <v>      -0.39150105       0.10314349       0.35210618 </v>
   <v>       0.22077894      -0.26727216       0.04616795 </v>
   <v>      -0.00691017      -0.07445371       0.36173578 </v>
   <v>      -0.09067449      -0.14417387      -0.39249705 </v>
   <v>      -0.19658506      -0.14124339      -0.03358671 </v>
   <v>      -0.21670651       0.01619910       0.28516358 </v>
   <v>       0.49850414       0.15244037      -0.50822930 </v>
   <v>       0.04074157      -0.15757457       0.51206077 </v>
   <v>       0.49654021       0.05836841      -0.27758349 </v>
   <v>       0.02692287       0.34449598      -0.28403371 </v>
   <v>      -0.07489834      -0.18841007      -0.20352759 </v>
   <v>      -0.27322146      -0.16779125       0.56193069 </v>
   <v>       0.10014961       0.13395069      -0.12921788 </v>
  </varray>
  <varray name="stress" >
   <v>      35.19127754      -0.40614292      -2.18443939 </v>
   <v>      -0.40614304      36.14160087      -4.09887699 </v>
   <v>      -2.18443941      -4.09887695      36.09102359 </v>
  </varray>
  <energy>
   <i name="e_fr_energy">   -307.61851712 </i>
   <i name="e_wo_entrp">   -307.61435728 </i>
   <i name="e_0_energy">     -0.01247953 </i>
  </energy>
  <time name="totalsc">  416.24  416.84</time>
 </calculation>
 <calculation>
  <scstep>
   <time name="dav">   35.27   35.36</time>
   <time name="total">   36.18   36.27</time>
   <energy>
    <i name="alphaZ">   1193.93217277 </i>
    <i name="ewald"> -11394.65389414 </i>
    <i name="hartreedc">  -2910.98686268 </i>
    <i name="XCdc">   -851.89238843 </i>
    <i name="pawpsdc">  19453.51104278 </i>
    <i name="pawaedc"> -17983.45901489 </i>
    <i name="eentropy">     -0.00723269 </i>
    <i name="bandstr">   -725.55769417 </i>
    <i name="atom">  12911.34519091 </i>
    <i name="e_fr_energy">   -307.76868055 </i>
    <i name="e_wo_entrp">   -307.76144785 </i>
    <i name="e_0_energy">   -307.76626965 </i>
   </energy>
  </scstep>
  <scstep>
   <time name="dav">   53.09   53.22</time>
   <time name="total">   53.99   54.12</time>
   <energy>
    <i name="e_fr_energy">   -308.08944009 </i>
    <i name="e_wo_entrp">   -308.08163251 </i>
    <i name="e_0_energy">   -308.08683756 </i>
   </energy>
  </scstep>
  <scstep>
   <time name="dav">   55.02   55.08</time>
   <time name="total">   55.92   56.00</time>
   <energy>
    <i name="e_fr_energy">   -307.98562867 </i>
    <i name="e_wo_entrp">   -307.97812763 </i>
    <i name="e_0_energy">   -307.98312832 </i>
   </energy>
  </scstep>
  <scstep>
   <time name="dav">   52.61   52.67</time>
   <time name="total">   53.51   53.57</time>
   <energy>
    <i name="e_fr_energy">   -307.95467149 </i>
    <i name="e_wo_entrp">   -307.94968993 </i>
    <i name="e_0_energy">   -307.95301097 </i>
   </energy>
  </scstep>
  <scstep>
   <time name="dav">   53.24   53.36</time>
   <time name="total">   54.14   54.28</time>
   <energy>
    <i name="e_fr_energy">   -307.89561798 </i>
    <i name="e_wo_entrp">   -307.88867067 </i>
    <i name="e_0_energy">   -307.89330221 </i>
   </energy>
  </scstep>
  <scstep>
   <time name="dav">   54.68   54.82</time>
   <time name="total">   55.58   55.72</time>
   <energy>
    <i name="e_fr_energy">   -307.88428262 </i>
    <i name="e_wo_entrp">   -307.87633944 </i>
    <i name="e_0_energy">   -307.88163490 </i>
   </energy>
  </scstep>
  <scstep>
   <time name="dav">   55.07   55.13</time>
   <time name="total">   55.99   56.06</time>
   <energy>
    <i name="e_fr_energy">   -307.88551178 </i>
    <i name="e_wo_entrp">   -307.87786508 </i>
    <i name="e_0_energy">   -307.88296288 </i>
   </energy>
  </scstep>
  <scstep>
   <time name="dav">   55.04   55.10</time>
   <time name="total">   55.95   56.01</time>
   <energy>
    <i name="e_fr_energy">   -307.87525802 </i>
    <i name="e_wo_entrp">   -307.86800565 </i>
    <i name="e_0_energy">   -307.87284057 </i>
   </energy>
  </scstep>
  <scstep>
   <time name="dav">   52.94   53.00</time>
   <time name="total">   53.85   53.92</time>
   <energy>
    <i name="e_fr_energy">   -307.87434909 </i>
    <i name="e_wo_entrp">   -307.86692866 </i>
    <i name="e_0_energy">   -307.87187561 </i>
   </energy>
  </scstep>
  <scstep>
   <time name="dav">   48.55   48.61</time>
   <time name="total">   49.46   49.52</time>
   <energy>
    <i name="e_fr_energy">   -307.87420876 </i>
    <i name="e_wo_entrp">   -307.86668977 </i>
    <i name="e_0_energy">   -307.87170243 </i>
   </energy>
  </scstep>
  <scstep>
   <time name="dav">   46.36   46.41</time>
   <time name="total">   47.27   47.34</time>
   <energy>
    <i name="e_fr_energy">   -307.87418423 </i>
    <i name="e_wo_entrp">   -307.86672991 </i>
    <i name="e_0_energy">   -307.87169945 </i>
   </energy>
  </scstep>
  <scstep>
   <time name="dav">   48.45   48.51</time>
   <time name="total">   49.36   49.41</time>
   <energy>
    <i name="e_fr_energy">   -307.87449535 </i>
    <i name="e_wo_entrp">   -307.86719722 </i>
    <i name="e_0_energy">   -307.87206264 </i>
   </energy>
  </scstep>
  <scstep>
   <time name="dav">   48.62   48.68</time>
   <time name="total">   49.54   49.60</time>
   <energy>
    <i name="e_fr_energy">   -307.87436911 </i>
    <i name="e_wo_entrp">   -307.86682758 </i>
    <i name="e_0_energy">   -307.87185527 </i>
   </energy>
  </scstep>
  <scstep>
   <time name="dav">   46.63   46.68</time>
   <time name="total">   47.54   47.60</time>
   <energy>
    <i name="e_fr_energy">   -307.87435075 </i>
    <i name="e_wo_entrp">   -307.86693942 </i>
    <i name="e_0_energy">   -307.87188031 </i>
   </energy>
  </scstep>
  <scstep>
   <time name="dav">   34.65   34.69</time>
   <time name="total">   34.71   34.76</time>
   <energy>
    <i name="alphaZ">   1193.93217277 </i>
    <i name="ewald"> -11394.65389414 </i>
    <i name="hartreedc">  -2925.35450075 </i>
    <i name="XCdc">   -851.36923296 </i>
    <i name="pawpsdc">  19155.68952691 </i>
    <i name="pawaedc"> -17686.05301080 </i>
    <i name="eentropy">     -0.00746548 </i>
    <i name="bandstr">   -711.40307989 </i>
    <i name="atom">  12911.34519091 </i>
    <i name="e_fr_energy">   -307.87429343 </i>
    <i name="e_wo_entrp">   -307.86682796 </i>
    <i name="e_0_energy">   -307.87180494 </i>
   </energy>
  </scstep>
  <structure>
   <crystal>
    <varray name="basis" >
     <v>      -3.12775859      -3.12420472      -3.10986917 </v>
     <v>       1.59057734       1.61457227      -7.85385963 </v>
     <v>       7.84436104      -7.84375775      -1.54665288 </v>
    </varray>
    <i name="volume">    463.47058384 </i>
    <varray name="rec_basis" >
     <v>      -0.13830642      -0.12762070      -0.05424593 </v>
     <v>       0.04220548       0.06307303      -0.10581205 </v>
     <v>       0.06377573      -0.06367495      -0.00017413 </v>
    </varray>
   </crystal>
   <varray name="positions" >
    <v>       0.96297210       0.93228921       0.39835041 </v>
    <v>       0.63257007       0.27000381       0.40275821 </v>
    <v>       0.49841443       0.00296166      -0.00145663 </v>
    <v>      -0.00221021       0.00077906       0.00203723 </v>
    <v>       0.09714337       0.20795744       0.79550146 </v>
    <v>       0.03264726       0.07035743       0.59754512 </v>
    <v>       0.90915917       0.79379107       0.20219814 </v>
    <v>       0.80024359       0.59958480       0.39900558 </v>
    <v>       0.73159484       0.46607955       0.19856321 </v>
    <v>       0.66094409       0.34258969      -0.00308288 </v>
    <v>       0.37129989       0.73057300       0.59814985 </v>
    <v>       0.13686167       0.26708459       0.39936983 </v>
    <v>       0.83429379       0.66104129       0.00342809 </v>
    <v>       0.92941613       0.86997761       0.79798156 </v>
    <v>       0.56181836       0.13113688       0.20276368 </v>
    <v>       0.40730745       0.79387404       0.20308073 </v>
    <v>       0.44133870       0.85780903       0.79488400 </v>
    <v>       0.29923417       0.59795986       0.40361721 </v>
    <v>       0.86524672       0.72823904       0.60071176 </v>
    <v>       0.17210299       0.33609120       0.00097073 </v>
    <v>       0.27237958       0.53263383       0.79952372 </v>
    <v>       0.20201191       0.39493517       0.59801331 </v>
    <v>       0.05759985       0.14517689       0.20260648 </v>
    <v>       0.76595772       0.52628028       0.80191770 </v>
    <v>       0.69314210       0.40653674       0.60220472 </v>
    <v>       0.59608140       0.20488609       0.79834934 </v>
    <v>       0.53724419       0.06795623       0.60135635 </v>
    <v>       0.33689928       0.65786532      -0.00072686 </v>
    <v>       0.22961871       0.47021589       0.20037797 </v>
   </varray>
  </structure>
  <varray name="forces" >
   <v>       0.12922515       0.14637611       0.12719549 </v>
   <v>      -0.02098531      -0.06998787      -0.05756969 </v>
   <v>      -0.11425065      -0.01766300       0.13648933 </v>
   <v>       0.00565185       0.04806277      -0.09054114 </v>
   <v>      -0.07609654       0.02434231       0.02122016 </v>
   <v>      -0.17368122       0.06534018       0.03801251 </v>
   <v>      -0.04477343      -0.07241222       0.01985490 </v>
   <v>       0.02963092       0.04605125      -0.12331968 </v>
   <v>       0.15546167      -0.08491859       0.09998616 </v>
   <v>      -0.06331660       0.24171259      -0.02957521 </v>
   <v>      -0.21740745       0.00998343       0.07653765 </v>
   <v>      -0.03258645      -0.01099035       0.05421071 </v>
   <v>      -0.02107477       0.07750835      -0.23396876 </v>
   <v>      -0.00810557       0.01196397      -0.11871637 </v>
   <v>       0.24542731      -0.13146920       0.19241095 </v>
   <v>       0.04209860      -0.13080625      -0.21531054 </v>
   <v>       0.02372798       0.16305827       0.12248245 </v>
   <v>       0.13769868      -0.12219367      -0.05362244 </v>
   <v>      -0.05197779      -0.09708761       0.17310215 </v>
   <v>      -0.09131233      -0.05505216      -0.26291004 </v>
   <v>      -0.12301614      -0.04442701       0.02443797 </v>
   <v>      -0.14574120       0.03862506       0.19794566 </v>
   <v>       0.26757370       0.06245499      -0.18992115 </v>
   <v>       0.04470791      -0.07741483       0.32360678 </v>
   <v>       0.39441251       0.00155006      -0.18211068 </v>
   <v>      -0.03774265       0.24414786      -0.22062092 </v>
   <v>      -0.10014752      -0.20123953      -0.15510084 </v>
   <v>      -0.17301444      -0.11189434       0.37855136 </v>
   <v>       0.01961375       0.04637943      -0.05275676 </v>
  </varray>
  <varray name="stress" >
   <v>      15.37647114      -0.37093422      -1.10189772 </v>
   <v>      -0.37093427      15.73699662      -1.68865821 </v>
   <v>      -1.10189769      -1.68865821      17.15806146 </v>
  </varray>
  <energy>
   <i name="e_fr_energy">   -307.87429343 </i>
   <i name="e_wo_entrp">   -307.87180494 </i>
   <i name="e_0_energy">     -0.00746548 </i>
  </energy>
  <time name="totalsc">  778.04  779.29</time>
 </calculation>
 <calculation>
  <scstep>
   <time name="dav">   35.12   35.16</time>
[...]
       <r>    4.8438    1.0000 </r>
       <r>    4.8975    1.0000 </r>
       <r>    4.9787    1.0000 </r>
       <r>    5.0305    1.0000 </r>
       <r>    5.0615    1.0000 </r>
       <r>    5.1357    1.0000 </r>
       <r>    5.1904    1.0000 </r>
       <r>    5.2129    1.0000 </r>
       <r>    5.3302    1.0000 </r>
       <r>    5.3818    1.0000 </r>
       <r>    5.4035    1.0000 </r>
       <r>    5.4705    1.0000 </r>
       <r>    5.4817    1.0000 </r>
       <r>    5.5887    1.0000 </r>
       <r>    5.6168    1.0000 </r>
       <r>    5.6299    1.0000 </r>
       <r>    5.7015    1.0000 </r>
       <r>    5.7917    1.0000 </r>
       <r>    5.8431    1.0000 </r>
       <r>    5.8698    1.0000 </r>
       <r>    5.9354    1.0000 </r>
       <r>    5.9811    1.0000 </r>
       <r>    6.0243    1.0000 </r>
       <r>    6.0740    1.0000 </r>
       <r>    6.1291    1.0000 </r>
       <r>    6.2252    1.0002 </r>
       <r>    6.2576    1.0004 </r>
       <r>    6.2840    1.0008 </r>
       <r>    6.3342    1.0025 </r>
       <r>    6.4154    1.0104 </r>
       <r>    6.4484    1.0164 </r>
       <r>    6.4932    1.0264 </r>
       <r>    6.5463    1.0353 </r>
       <r>    6.5930    1.0278 </r>
       <r>    6.6285    1.0018 </r>
       <r>    6.7051    0.8518 </r>
       <r>    6.7641    0.6435 </r>
       <r>    6.8288    0.3738 </r>
       <r>    6.9005    0.1246 </r>
       <r>    6.9896   -0.0198 </r>
       <r>    7.0451   -0.0354 </r>
       <r>    7.0707   -0.0331 </r>
       <r>    7.1623   -0.0137 </r>
       <r>    7.2762   -0.0019 </r>
       <r>    7.3215   -0.0007 </r>
       <r>    7.4813   -0.0000 </r>
       <r>    7.5643   -0.0000 </r>
       <r>    7.7119   -0.0000 </r>
       <r>    7.7469   -0.0000 </r>
       <r>    7.8490   -0.0000 </r>
       <r>    8.0598   -0.0000 </r>
       <r>    8.1803   -0.0000 </r>
       <r>    8.3080   -0.0000 </r>
       <r>    8.4382   -0.0000 </r>
       <r>    8.5681   -0.0000 </r>
       <r>    8.6529   -0.0000 </r>
       <r>    8.7181   -0.0000 </r>
       <r>    8.7730   -0.0000 </r>
       <r>    8.8092   -0.0000 </r>
       <r>    8.8459   -0.0000 </r>
       <r>    8.9141   -0.0000 </r>
      </set>
     </set>
    </set>
   </array>
  </eigenvalues>
  <separator name="orbital magnetization" >
   <v name="MAGDIPOLOUT">      0.00000000      0.00000000      0.00000000</v>
  </separator>
  <dos>
   <i name="efermi">      6.79856393 </i>
   <total>
    <array>
     <dimension dim="1">gridpoints</dimension>
     <dimension dim="2">spin</dimension>
     <field>energy</field>
     <field>total</field>
     <field>integrated</field>
     <set>
      <set comment="spin 1">
       <r>   -50.4926     0.0000     0.0000 </r>
       <r>   -50.2849     0.0000     0.0000 </r>
       <r>   -50.0772     0.0000     0.0000 </r>
       <r>   -49.8696     0.0000     0.0000 </r>
       <r>   -49.6619     0.0000     0.0000 </r>
       <r>   -49.4543    -0.0000    -0.0000 </r>
       <r>   -49.2466    -0.0000    -0.0000 </r>
       <r>   -49.0389    -0.0000    -0.0000 </r>
       <r>   -48.8313    -0.0000    -0.0000 </r>
       <r>   -48.6236    -0.0000    -0.0000 </r>
       <r>   -48.4159    -0.0000    -0.0000 </r>
       <r>   -48.2083    -0.0036    -0.0008 </r>
       <r>   -48.0006    -0.1754    -0.0372 </r>
       <r>   -47.7930     0.6667     0.1013 </r>
       <r>   -47.5853     6.4273     1.4360 </r>
       <r>   -47.3776     7.0815     2.9065 </r>
       <r>   -47.1700    23.0669     7.6966 </r>
       <r>   -46.9623    17.6923    11.3706 </r>
       <r>   -46.7547     3.5370    12.1051 </r>
       <r>   -46.5470    -0.4702    12.0075 </r>
       <r>   -46.3393    -0.0359    12.0000 </r>
       <r>   -46.1317    -0.0002    12.0000 </r>
       <r>   -45.9240    -0.0000    12.0000 </r>
       <r>   -45.7164    -0.0000    12.0000 </r>
       <r>   -45.5087     0.0000    12.0000 </r>
       <r>   -45.3010     0.0000    12.0000 </r>
       <r>   -45.0934     0.0000    12.0000 </r>
       <r>   -44.8857     0.0000    12.0000 </r>
       <r>   -44.6781     0.0000    12.0000 </r>
       <r>   -44.4704     0.0000    12.0000 </r>
       <r>   -44.2627     0.0000    12.0000 </r>
       <r>   -44.0551     0.0000    12.0000 </r>
       <r>   -43.8474     0.0000    12.0000 </r>
       <r>   -43.6398     0.0000    12.0000 </r>
       <r>   -43.4321     0.0000    12.0000 </r>
       <r>   -43.2244     0.0000    12.0000 </r>
       <r>   -43.0168     0.0000    12.0000 </r>
       <r>   -42.8091     0.0000    12.0000 </r>
       <r>   -42.6014     0.0000    12.0000 </r>
       <r>   -42.3938     0.0000    12.0000 </r>
       <r>   -42.1861     0.0000    12.0000 </r>
       <r>   -41.9785     0.0000    12.0000 </r>
       <r>   -41.7708     0.0000    12.0000 </r>
       <r>   -41.5631     0.0000    12.0000 </r>
       <r>   -41.3555     0.0000    12.0000 </r>
       <r>   -41.1478     0.0000    12.0000 </r>
       <r>   -40.9402     0.0000    12.0000 </r>
       <r>   -40.7325     0.0000    12.0000 </r>
       <r>   -40.5248     0.0000    12.0000 </r>
       <r>   -40.3172     0.0000    12.0000 </r>
       <r>   -40.1095     0.0000    12.0000 </r>
       <r>   -39.9019     0.0000    12.0000 </r>
       <r>   -39.6942     0.0000    12.0000 </r>
       <r>   -39.4865     0.0000    12.0000 </r>
       <r>   -39.2789     0.0000    12.0000 </r>
       <r>   -39.0712     0.0000    12.0000 </r>
       <r>   -38.8636     0.0000    12.0000 </r>
       <r>   -38.6559     0.0000    12.0000 </r>
       <r>   -38.4482     0.0000    12.0000 </r>
       <r>   -38.2406     0.0000    12.0000 </r>
       <r>   -38.0329     0.0000    12.0000 </r>
       <r>   -37.8252     0.0000    12.0000 </r>
       <r>   -37.6176     0.0000    12.0000 </r>
       <r>   -37.4099     0.0000    12.0000 </r>
       <r>   -37.2023     0.0000    12.0000 </r>
       <r>   -36.9946     0.0000    12.0000 </r>
       <r>   -36.7869     0.0000    12.0000 </r>
       <r>   -36.5793     0.0000    12.0000 </r>
       <r>   -36.3716     0.0000    12.0000 </r>
       <r>   -36.1640     0.0000    12.0000 </r>
       <r>   -35.9563     0.0000    12.0000 </r>
       <r>   -35.7486     0.0000    12.0000 </r>
       <r>   -35.5410     0.0000    12.0000 </r>
       <r>   -35.3333     0.0000    12.0000 </r>
       <r>   -35.1257     0.0000    12.0000 </r>
       <r>   -34.9180     0.0000    12.0000 </r>
       <r>   -34.7103     0.0000    12.0000 </r>
       <r>   -34.5027     0.0000    12.0000 </r>
       <r>   -34.2950     0.0000    12.0000 </r>
       <r>   -34.0874     0.0000    12.0000 </r>
       <r>   -33.8797     0.0000    12.0000 </r>
       <r>   -33.6720     0.0000    12.0000 </r>
       <r>   -33.4644     0.0000    12.0000 </r>
       <r>   -33.2567     0.0000    12.0000 </r>
       <r>   -33.0490     0.0000    12.0000 </r>
       <r>   -32.8414     0.0000    12.0000 </r>
       <r>   -32.6337     0.0000    12.0000 </r>
       <r>   -32.4261     0.0000    12.0000 </r>
       <r>   -32.2184     0.0000    12.0000 </r>
       <r>   -32.0107     0.0000    12.0000 </r>
       <r>   -31.8031     0.0000    12.0000 </r>
       <r>   -31.5954     0.0000    12.0000 </r>
       <r>   -31.3878     0.0000    12.0000 </r>
       <r>   -31.1801     0.0000    12.0000 </r>
       <r>   -30.9724     0.0000    12.0000 </r>
       <r>   -30.7648     0.0000    12.0000 </r>
       <r>   -30.5571     0.0000    12.0000 </r>
       <r>   -30.3495     0.0000    12.0000 </r>
       <r>   -30.1418     0.0000    12.0000 </r>
       <r>   -29.9341     0.0000    12.0000 </r>
       <r>   -29.7265     0.0000    12.0000 </r>
       <r>   -29.5188     0.0000    12.0000 </r>
       <r>   -29.3112     0.0000    12.0000 </r>
       <r>   -29.1035     0.0000    12.0000 </r>
       <r>   -28.8958     0.0000    12.0000 </r>
       <r>   -28.6882     0.0000    12.0000 </r>
       <r>   -28.4805     0.0000    12.0000 </r>
       <r>   -28.2728     0.0000    12.0000 </r>
       <r>   -28.0652     0.0000    12.0000 </r>
       <r>   -27.8575     0.0000    12.0000 </r>
       <r>   -27.6499     0.0000    12.0000 </r>
       <r>   -27.4422     0.0000    12.0000 </r>
       <r>   -27.2345     0.0000    12.0000 </r>
       <r>   -27.0269     0.0000    12.0000 </r>
       <r>   -26.8192     0.0000    12.0000 </r>
       <r>   -26.6116     0.0000    12.0000 </r>
       <r>   -26.4039     0.0000    12.0000 </r>
       <r>   -26.1962     0.0000    12.0000 </r>
       <r>   -25.9886     0.0000    12.0000 </r>
       <r>   -25.7809    -0.0000    12.0000 </r>
       <r>   -25.5733    -0.0000    12.0000 </r>
       <r>   -25.3656    -0.0000    12.0000 </r>
       <r>   -25.1579    -0.0000    12.0000 </r>
       <r>   -24.9503    -0.0000    12.0000 </r>
       <r>   -24.7426    -0.0003    11.9999 </r>
       <r>   -24.5350    -0.0311    11.9935 </r>
       <r>   -24.3273    -0.3191    11.9272 </r>
       <r>   -24.1196     2.6088    12.4690 </r>
       <r>   -23.9120    13.1166    15.1928 </r>
       <r>   -23.7043    21.0506    19.5642 </r>
       <r>   -23.4966    34.1239    26.6504 </r>
       <r>   -23.2890    43.9276    35.7724 </r>
       <r>   -23.0813    40.6953    44.2232 </r>
       <r>   -22.8737    12.7972    46.8807 </r>
       <r>   -22.6660     1.5939    47.2117 </r>
       <r>   -22.4583     2.8993    47.8137 </r>
       <r>   -22.2507     1.0129    48.0241 </r>
       <r>   -22.0430    -0.1071    48.0018 </r>
       <r>   -21.8354    -0.0088    48.0000 </r>
       <r>   -21.6277    -0.0000    48.0000 </r>
       <r>   -21.4200    -0.0000    48.0000 </r>
       <r>   -21.2124    -0.0000    48.0000 </r>
       <r>   -21.0047     0.0000    48.0000 </r>
       <r>   -20.7971     0.0000    48.0000 </r>
       <r>   -20.5894     0.0000    48.0000 </r>
       <r>   -20.3817     0.0000    48.0000 </r>
       <r>   -20.1741     0.0000    48.0000 </r>
       <r>   -19.9664     0.0000    48.0000 </r>
       <r>   -19.7588     0.0000    48.0000 </r>
       <r>   -19.5511     0.0000    48.0000 </r>
       <r>   -19.3434     0.0000    48.0000 </r>
       <r>   -19.1358     0.0000    48.0000 </r>
       <r>   -18.9281     0.0000    48.0000 </r>
       <r>   -18.7204     0.0000    48.0000 </r>
       <r>   -18.5128     0.0000    48.0000 </r>
       <r>   -18.3051     0.0000    48.0000 </r>
       <r>   -18.0975     0.0000    48.0000 </r>
       <r>   -17.8898     0.0000    48.0000 </r>
       <r>   -17.6821     0.0000    48.0000 </r>
       <r>   -17.4745     0.0000    48.0000 </r>
       <r>   -17.2668     0.0000    48.0000 </r>
       <r>   -17.0592     0.0000    48.0000 </r>
       <r>   -16.8515     0.0000    48.0000 </r>
       <r>   -16.6438     0.0000    48.0000 </r>
       <r>   -16.4362     0.0000    48.0000 </r>
       <r>   -16.2285     0.0000    48.0000 </r>
       <r>   -16.0209     0.0000    48.0000 </r>
       <r>   -15.8132     0.0000    48.0000 </r>
       <r>   -15.6055     0.0000    48.0000 </r>
       <r>   -15.3979     0.0000    48.0000 </r>
       <r>   -15.1902     0.0000    48.0000 </r>
       <r>   -14.9826     0.0000    48.0000 </r>
       <r>   -14.7749     0.0000    48.0000 </r>
       <r>   -14.5672     0.0000    48.0000 </r>
       <r>   -14.3596     0.0000    48.0000 </r>
       <r>   -14.1519     0.0000    48.0000 </r>
       <r>   -13.9442     0.0000    48.0000 </r>
       <r>   -13.7366     0.0000    48.0000 </r>
       <r>   -13.5289     0.0000    48.0000 </r>
       <r>   -13.3213     0.0000    48.0000 </r>
       <r>   -13.1136     0.0000    48.0000 </r>
       <r>   -12.9059     0.0000    48.0000 </r>
       <r>   -12.6983     0.0000    48.0000 </r>
       <r>   -12.4906     0.0000    48.0000 </r>
       <r>   -12.2830     0.0000    48.0000 </r>
       <r>   -12.0753     0.0000    48.0000 </r>
       <r>   -11.8676     0.0000    48.0000 </r>
       <r>   -11.6600     0.0000    48.0000 </r>
       <r>   -11.4523     0.0000    48.0000 </r>
       <r>   -11.2447     0.0000    48.0000 </r>
       <r>   -11.0370     0.0000    48.0000 </r>
       <r>   -10.8293     0.0000    48.0000 </r>
       <r>   -10.6217     0.0000    48.0000 </r>
       <r>   -10.4140     0.0000    48.0000 </r>
       <r>   -10.2064     0.0000    48.0000 </r>
       <r>    -9.9987     0.0000    48.0000 </r>
       <r>    -9.7910     0.0000    48.0000 </r>
       <r>    -9.5834     0.0000    48.0000 </r>
       <r>    -9.3757     0.0000    48.0000 </r>
       <r>    -9.1680     0.0000    48.0000 </r>
       <r>    -8.9604     0.0000    48.0000 </r>
       <r>    -8.7527     0.0000    48.0000 </r>
       <r>    -8.5451     0.0000    48.0000 </r>
       <r>    -8.3374     0.0000    48.0000 </r>
       <r>    -8.1297     0.0000    48.0000 </r>
       <r>    -7.9221     0.0000    48.0000 </r>
       <r>    -7.7144     0.0000    48.0000 </r>
       <r>    -7.5068     0.0000    48.0000 </r>
       <r>    -7.2991     0.0000    48.0000 </r>
       <r>    -7.0914     0.0000    48.0000 </r>
       <r>    -6.8838     0.0000    48.0000 </r>
       <r>    -6.6761     0.0000    48.0000 </r>
       <r>    -6.4685     0.0000    48.0000 </r>
       <r>    -6.2608     0.0000    48.0000 </r>
       <r>    -6.0531     0.0000    48.0000 </r>
       <r>    -5.8455     0.0000    48.0000 </r>
       <r>    -5.6378     0.0000    48.0000 </r>
       <r>    -5.4302     0.0000    48.0000 </r>
       <r>    -5.2225     0.0000    48.0000 </r>
       <r>    -5.0148     0.0000    48.0000 </r>
       <r>    -4.8072     0.0000    48.0000 </r>
       <r>    -4.5995     0.0000    48.0000 </r>
       <r>    -4.3919     0.0000    48.0000 </r>
       <r>    -4.1842     0.0000    48.0000 </r>
       <r>    -3.9765     0.0000    48.0000 </r>
       <r>    -3.7689     0.0000    48.0000 </r>
       <r>    -3.5612     0.0000    48.0000 </r>
       <r>    -3.3535     0.0000    48.0000 </r>
       <r>    -3.1459     0.0000    48.0000 </r>
       <r>    -2.9382     0.0000    48.0000 </r>
       <r>    -2.7306     0.0000    48.0000 </r>
       <r>    -2.5229     0.0000    48.0000 </r>
       <r>    -2.3152     0.0000    48.0000 </r>
       <r>    -2.1076     0.0000    48.0000 </r>
       <r>    -1.8999     0.0000    48.0000 </r>
       <r>    -1.6923    -0.0000    48.0000 </r>
       <r>    -1.4846    -0.0000    48.0000 </r>
       <r>    -1.2769    -0.0000    48.0000 </r>
       <r>    -1.0693    -0.0000    48.0000 </r>
       <r>    -0.8616    -0.0000    48.0000 </r>
       <r>    -0.6540    -0.0000    48.0000 </r>
       <r>    -0.4463    -0.0011    47.9998 </r>
       <r>    -0.2386    -0.0153    47.9966 </r>
       <r>    -0.0310     0.0823    48.0137 </r>
       <r>     0.1767     0.7214    48.1635 </r>
       <r>     0.3843     1.2476    48.4226 </r>
       <r>     0.5920     1.5481    48.7440 </r>
       <r>     0.7997     2.1154    49.1833 </r>
       <r>     1.0073     1.8729    49.5723 </r>
       <r>     1.2150     2.4913    50.0896 </r>
       <r>     1.4227     3.0325    50.7193 </r>
       <r>     1.6303     3.2368    51.3915 </r>
       <r>     1.8380     3.6226    52.1438 </r>
       <r>     2.0456     4.2723    53.0309 </r>
       <r>     2.2533     5.1949    54.1097 </r>
       <r>     2.4610     6.5557    55.4711 </r>
       <r>     2.6686     9.3320    57.4090 </r>
       <r>     2.8763    16.1318    60.7589 </r>
       <r>     3.0839    22.4506    65.4210 </r>
       <r>     3.2916    26.5810    70.9409 </r>
       <r>     3.4993    27.7372    76.7008 </r>
       <r>     3.7069    29.9756    82.9255 </r>
       <r>     3.9146    31.3709    89.4401 </r>
       <r>     4.1222    31.1501    95.9087 </r>
       <r>     4.3299    30.0130   102.1412 </r>
       <r>     4.5376    27.5096   107.8539 </r>
       <r>     4.7452    28.4944   113.7711 </r>
       <r>     4.9529    32.2268   120.4633 </r>
       <r>     5.1605    35.0962   127.7514 </r>
       <r>     5.3682    39.4487   135.9434 </r>
       <r>     5.5759    41.0182   144.4613 </r>
       <r>     5.7835    40.6513   152.9029 </r>
       <r>     5.9912    40.4922   161.3116 </r>
       <r>     6.1989    41.4949   169.9285 </r>
       <r>     6.4065    42.5851   178.7717 </r>
       <r>     6.6142    41.1795   187.3231 </r>
       <r>     6.8218    35.9681   194.7923 </r>
       <r>     7.0295    32.4345   201.5277 </r>
       <r>     7.2372    27.4561   207.2292 </r>
       <r>     7.4448    23.3086   212.0695 </r>
       <r>     7.6525    19.7448   216.1697 </r>
       <r>     7.8601    18.5170   220.0150 </r>
       <r>     8.0678    18.9233   223.9446 </r>
       <r>     8.2755    21.6342   228.4372 </r>
       <r>     8.4831    23.5335   233.3242 </r>
       <r>     8.6908    19.5136   237.3764 </r>
       <r>     8.8984    11.0016   239.6610 </r>
       <r>     9.1061     1.9052   240.0566 </r>
       <r>     9.3138    -0.2480   240.0051 </r>
       <r>     9.5214    -0.0245   240.0000 </r>
       <r>     9.7291    -0.0002   240.0000 </r>
       <r>     9.9367    -0.0000   240.0000 </r>
       <r>    10.1444    -0.0000   240.0000 </r>
       <r>    10.3521    -0.0000   240.0000 </r>
       <r>    10.5597     0.0000   240.0000 </r>
       <r>    10.7674     0.0000   240.0000 </r>
       <r>    10.9751     0.0000   240.0000 </r>
       <r>    11.1827     0.0000   240.0000 </r>
       <r>    11.3904     0.0000   240.0000 </r>
       <r>    11.5980     0.0000   240.0000 </r>
       <r>    11.8057     0.0000   240.0000 </r>
      </set>
     </set>
    </array>
   </total>
  </dos>
 </calculation>
 <structure name="finalpos" >
  <crystal>
   <varray name="basis" >
    <v>      -3.05721046      -3.08590420      -3.07480599 </v>
    <v>       1.63742345       1.63136576      -7.88519914 </v>
    <v>       7.92133597      -7.94362796      -1.58855970 </v>
   </varray>
   <i name="volume">    463.86906113 </i>
   <varray name="rec_basis" >
    <v>      -0.14061858      -0.12904540      -0.05589870 </v>
    <v>       0.04208725       0.06297711      -0.10505082 </v>
    <v>       0.06327023      -0.06282263       0.00014121 </v>
   </varray>
  </crystal>
  <varray name="positions" >
   <v>       0.74051064       0.92447283       0.40728725 </v>
   <v>       0.64367559       0.27170915       0.40252622 </v>
   <v>       0.50808051       0.00119557      -0.00224754 </v>
   <v>       0.00516700       0.00753439       0.00199738 </v>
   <v>       0.10736652       0.20734567       0.79394305 </v>
   <v>       0.04369104       0.06002465       0.58877106 </v>
   <v>       0.92383566       0.79467011       0.20055518 </v>
   <v>       0.80689864       0.58569107       0.40304091 </v>
   <v>       0.73479497       0.47286891       0.19831283 </v>
   <v>       0.66881983       0.34945174      -0.00839164 </v>
   <v>       0.39422096       0.73075212       0.59754819 </v>
   <v>       0.15812803       0.25665928       0.39754666 </v>
   <v>       0.84479231       0.66609542       0.00234262 </v>
   <v>       0.93354099       0.87757411       0.79589492 </v>
   <v>       0.55367338       0.14690601       0.19256978 </v>
   <v>       0.42110623       0.79916007       0.20942562 </v>
   <v>       0.44356949       0.85651757       0.79693819 </v>
   <v>       0.29287766       0.60993513       0.40538849 </v>
   <v>       0.88786759       0.71345661       0.60911579 </v>
   <v>       0.18129216       0.34234719      -0.00134174 </v>
   <v>       0.27986675       0.53232135       0.79312733 </v>
   <v>       0.21261683       0.38243824       0.59105546 </v>
   <v>       0.05130886       0.14384496       0.20914612 </v>
   <v>       0.77034379       0.52298797       0.80821697 </v>
   <v>       0.69284374       0.40616392       0.60705720 </v>
   <v>       0.60614547       0.21136685       0.78941275 </v>
   <v>       0.54588278       0.06169914       0.60849517 </v>
   <v>       0.34755059       0.65665079       0.00042318 </v>
   <v>       0.23286532       0.47482582       0.20184256 </v>
  </varray>
 </structure>
</modeling>
