Nb - Mo - Ta - Ti - V SQS               
           1
    -3.160000   -3.160000   -3.160000
     1.580000    1.580000   -7.900000
     7.900000   -7.900000   -1.580000
   Nb   Mo   Ta   Ti   V 
   6   6   6   5   6
Direct configuration=     1
   0.96666667  0.93333333  0.40000000
   0.63333333  0.26666667  0.40000000
   0.50000000  0.00000000  0.00000000
   0.00000000  0.00000000  0.00000000
   0.10000000  0.20000000  0.80000000
   0.03333333  0.06666667  0.60000000
   0.90000000  0.80000000  0.20000000
   0.80000000  0.60000000  0.40000000
   0.73333333  0.46666667  0.20000000
   0.66666667  0.33333333  0.00000000
   0.36666667  0.73333333  0.60000000
   0.13333333  0.26666667  0.40000000
   0.83333333  0.66666667  0.00000000
   0.93333333  0.86666667  0.80000000
   0.56666667  0.13333333  0.20000000
   0.40000000  0.80000000  0.20000000
   0.43333333  0.86666667  0.80000000
   0.30000000  0.60000000  0.40000000
   0.86666667  0.73333333  0.60000000
   0.16666667  0.33333333  0.00000000
   0.26666667  0.53333333  0.80000000
   0.20000000  0.40000000  0.60000000
   0.06666667  0.13333333  0.20000000
   0.76666667  0.53333333  0.80000000
   0.70000000  0.40000000  0.60000000
   0.60000000  0.20000000  0.80000000
   0.53333333  0.06666667  0.60000000
   0.33333333  0.66666667  0.00000000
   0.23333333  0.46666667  0.20000000
Nb - Mo - Ta - Ti - V SQS               
           1
    -3.121612   -3.119638   -3.110703
     1.575906    1.589769   -7.821807
     7.816974   -7.816906   -1.550484
   Nb   Mo   Ta   Ti   V 
   6   6   6   5   6
Direct configuration=     2
   0.96488677  0.93264381  0.39898274
   0.63276850  0.26876199  0.40158686
   0.49903336  0.00195716 -0.00078859
  -0.00141223  0.00033115  0.00127114
   0.09821935  0.20474197  0.79736896
   0.03279940  0.06889425  0.59872089
   0.90536634  0.79640400  0.20128567
   0.80032340  0.59944672  0.39934759
   0.73236266  0.46652420  0.19901059
   0.66353677  0.33863166 -0.00160211
   0.36909604  0.73179633  0.59910575
   0.13526482  0.26714458  0.39961986
   0.83376714  0.66306962  0.00214985
   0.93094754  0.86858865  0.79881711
   0.56414749  0.13222323  0.20131018
   0.40419102  0.79605326  0.20168378
   0.43845981  0.86136271  0.79700792
   0.29946051  0.59880303  0.40197620
   0.86584417  0.73054137  0.60041921
   0.16954737  0.33476098  0.00060826
   0.26981943  0.53307333  0.79973080
   0.20117840  0.39714842  0.59888024
   0.06143674  0.14008446  0.20142672
   0.76639639  0.52950764  0.80111100
   0.69628623  0.40360724  0.60105920
   0.59783687  0.20249485  0.79919396
   0.53527961  0.06744472  0.60081127
   0.33531391  0.66195229 -0.00038725
   0.23117552  0.46867306  0.20029219
Nb - Mo - Ta - Ti - V SQS               
           1
    -3.123023   -3.121121   -3.112515
     1.576056    1.589410   -7.824681
     7.820025   -7.819961   -1.551569
   Nb   Mo   Ta   Ti   V 
   6   6   6   5   6
Direct configuration=     3
   0.96495320  0.93266947  0.39902055
   0.63278912  0.26868431  0.40152785
   0.49906902  0.00188474 -0.00075936
  -0.00135973  0.00031887  0.00122391
   0.09828487  0.20456651  0.79746654
   0.03281891  0.06881182  0.59876833
   0.90516712  0.79653694  0.20123801
   0.80031147  0.59946724  0.39937184
   0.73239885  0.46652957  0.19904735
   0.66365241  0.33843559 -0.00154276
   0.36900587  0.73185322  0.59913900
   0.13519282  0.26712682  0.39963396
   0.83375158  0.66320274  0.00207011
   0.93103607  0.86851761  0.79886100
   0.56424147  0.13226438  0.20126157
   0.40403562  0.79619922  0.20162135
   0.43826995  0.86155914  0.79711921
   0.29948077  0.59884729  0.40190284
   0.86587529  0.73064481  0.60040374
   0.16943983  0.33470795  0.00058561
   0.26970208  0.53308286  0.79974080
   0.20113506  0.39725406  0.59892193
   0.06163024  0.13983450  0.20137352
   0.76640711  0.52964931  0.80106986
   0.69642384  0.40347370  0.60101975
   0.59791700  0.20240255  0.79922383
   0.53520698  0.06741578  0.60078110
   0.33524101  0.66212687 -0.00037272
   0.23125551  0.46859880  0.20028128
Nb - Mo - Ta - Ti - V SQS               
           1
    -3.127759   -3.124205   -3.109869
     1.590577    1.614572   -7.853860
     7.844361   -7.843758   -1.546653
   Nb   Mo   Ta   Ti   V 
   6   6   6   5   6
Direct configuration=     4
   0.96297210  0.93228921  0.39835041
   0.63257007  0.27000381  0.40275821
   0.49841443  0.00296166 -0.00145663
  -0.00221021  0.00077906  0.00203723
   0.09714337  0.20795744  0.79550146
   0.03264726  0.07035743  0.59754512
   0.90915917  0.79379107  0.20219814
   0.80024359  0.59958480  0.39900558
   0.73159484  0.46607955  0.19856321
   0.66094409  0.34258969 -0.00308288
   0.37129989  0.73057300  0.59814985
   0.13686167  0.26708459  0.39936983
   0.83429379  0.66104129  0.00342809
   0.92941613  0.86997761  0.79798156
   0.56181836  0.13113688  0.20276368
   0.40730745  0.79387404  0.20308073
   0.44133870  0.85780903  0.79488400
   0.29923417  0.59795986  0.40361721
   0.86524672  0.72823904  0.60071176
   0.17210299  0.33609120  0.00097073
   0.27237958  0.53263383  0.79952372
   0.20201191  0.39493517  0.59801331
   0.05759985  0.14517689  0.20260648
   0.76595772  0.52628028  0.80191770
   0.69314210  0.40653674  0.60220472
   0.59608140  0.20488609  0.79834934
   0.53724419  0.06795623  0.60135635
   0.33689928  0.65786532 -0.00072686
   0.22961871  0.47021589  0.20037797
Nb - Mo - Ta - Ti - V SQS               
           1
    -3.131997   -3.126964   -3.107502
     1.603573    1.637091   -7.879972
     7.866140   -7.865055   -1.542253
   Nb   Mo   Ta   Ti   V 
   6   6   6   5   6
Direct configuration=     5
   0.96119917  0.93194891  0.39775209
   0.63237916  0.27117939  0.40385669
   0.49783227  0.00391932 -0.00207814
  -0.00296870  0.00118893  0.00276305
   0.09613271  0.21097360  0.79375017
   0.03249815  0.07173213  0.59645470
   0.91272012  0.79134997  0.20305348
   0.80018308  0.59968908  0.39867888
   0.73087423  0.46567802  0.19813092
   0.65853524  0.34628464 -0.00445472
   0.37334633  0.72943386  0.59726680
   0.13835355  0.26704777  0.39913431
   0.83477229  0.65911870  0.00463842
   0.92797200  0.87127554  0.79719767
   0.55964894  0.13013304  0.20410293
   0.41022608  0.79180745  0.20438168
   0.44406914  0.85447055  0.79288782
   0.29901171  0.59717124  0.40514620
   0.86467704  0.72609733  0.60098506
   0.17448888  0.33732452  0.00131541
   0.27477201  0.53223553  0.79933003
   0.20278789  0.39287062  0.59720134
   0.05401424  0.14993133  0.20370933
   0.76554540  0.52328165  0.80267206
   0.69021842  0.40926252  0.60326346
   0.59444778  0.20709505  0.79757045
   0.53906778  0.06843909  0.60187011
   0.33836790  0.65407238 -0.00104523
   0.22816053  0.47165452  0.20046505
Nb - Mo - Ta - Ti - V SQS               
           1
    -3.132139   -3.127285   -3.109839
     1.605795    1.638172   -7.888986
     7.870654   -7.868495   -1.544952
   Nb   Mo   Ta   Ti   V 
   6   6   6   5   6
Direct configuration=     6
   0.95992317  0.93199788  0.39783485
   0.63312087  0.27103888  0.40369341
   0.49854648  0.00289272 -0.00215573
  -0.00307296  0.00157337  0.00256765
   0.09660346  0.21002766  0.79391609
   0.03306568  0.07106283  0.59616056
   0.91242756  0.79163213  0.20290148
   0.80025531  0.60014438  0.39865189
   0.73028956  0.46564281  0.19889949
   0.65842246  0.34584457 -0.00478252
   0.37374073  0.72898202  0.59697950
   0.13791130  0.26699006  0.39911716
   0.83485777  0.66075957  0.00410927
   0.92849961  0.87159130  0.79739310
   0.55924522  0.12970865  0.20461400
   0.41048151  0.79271925  0.20446700
   0.44230424  0.85509008  0.79294151
   0.29885802  0.59756387  0.40536046
   0.86535377  0.72554353  0.60101972
   0.17516316  0.33778973  0.00120723
   0.27492957  0.53198704  0.79913187
   0.20284206  0.39240404  0.59688563
   0.05332509  0.15021721  0.20393225
   0.76510727  0.52270552  0.80278715
   0.68913992  0.41000237  0.60392669
   0.59436387  0.20790398  0.79701782
   0.54062615  0.06829226  0.60206748
   0.33867091  0.65295742 -0.00108966
   0.22833157  0.47160153  0.20044465
Nb - Mo - Ta - Ti - V SQS               
           1
    -3.132405   -3.127883   -3.114201
     1.609941    1.640190   -7.905803
     7.879077   -7.874914   -1.549987
   Nb   Mo   Ta   Ti   V 
   6   6   6   5   6
Direct configuration=     7
   0.95754307  0.93208962  0.39798920
   0.63450439  0.27077681  0.40338896
   0.49987876  0.00097932 -0.00230026
  -0.00326748  0.00228993  0.00220324
   0.09748164  0.20826455  0.79422560
   0.03412432  0.06981544  0.59561217
   0.91188180  0.79215814  0.20261801
   0.80039001  0.60099285  0.39860151
   0.72919903  0.46557706  0.20033265
   0.65821211  0.34502465 -0.00539371
   0.37447644  0.72813995  0.59644384
   0.13708639  0.26688272  0.39908520
   0.83501703  0.66381770  0.00312233
   0.92948375  0.87217944  0.79775746
   0.55849222  0.12891769  0.20556707
   0.41095790  0.79441832  0.20462598
   0.43901213  0.85624533  0.79304157
   0.29857132  0.59829551  0.40575993
   0.86661615  0.72451118  0.60108441
   0.17642084  0.33865647  0.00100543
   0.27522345  0.53152399  0.79876239
   0.20294312  0.39153465  0.59629698
   0.05203962  0.15075013  0.20434789
   0.76429009  0.52163198  0.80300186
   0.68712817  0.41138126  0.60516334
   0.59420724  0.20941179  0.79598720
   0.54353303  0.06801791  0.60243552
   0.33923621  0.65087951 -0.00117236
   0.22865060  0.47150273  0.20040661
Nb - Mo - Ta - Ti - V SQS               
           1
    -3.121875   -3.118494   -3.105163
     1.606806    1.634941   -7.884821
     7.857900   -7.854118   -1.547976
   Nb   Mo   Ta   Ti   V 
   6   6   6   5   6
Direct configuration=     8
   0.95525183  0.93204802  0.39810904
   0.63461938  0.27099311  0.40352879
   0.50009132  0.00050542 -0.00225168
  -0.00318632  0.00276205  0.00209843
   0.09812237  0.20697636  0.79436246
   0.03544901  0.06863976  0.59547049
   0.91165409  0.79284097  0.20228656
   0.80042804  0.60147576  0.39863443
   0.72855367  0.46645664  0.20066775
   0.65878579  0.34441727 -0.00551749
   0.37496930  0.72757408  0.59650800
   0.13689112  0.26704006  0.39901287
   0.83499260  0.66459624  0.00270631
   0.92887262  0.87278766  0.79762066
   0.55816954  0.12846994  0.20580001
   0.41077909  0.79546615  0.20488897
   0.43816761  0.85674535  0.79311908
   0.29853626  0.59878968  0.40539321
   0.86783860  0.72377914  0.60130841
   0.17669517  0.33923786  0.00092882
   0.27507994  0.53124804  0.79827837
   0.20286448  0.39066220  0.59596999
   0.05111167  0.15097193  0.20461399
   0.76356902  0.52105285  0.80329485
   0.68584322  0.41210293  0.60595615
   0.59456610  0.21002872  0.79522216
   0.54586319  0.06788118  0.60261218
   0.33982467  0.64977361 -0.00120475
   0.22892992  0.47134369  0.20058196
Nb - Mo - Ta - Ti - V SQS               
           1
    -3.123580   -3.120014   -3.106626
     1.607313    1.635790   -7.888218
     7.861328   -7.857485   -1.548302
   Nb   Mo   Ta   Ti   V 
   6   6   6   5   6
Direct configuration=     9
   0.95562393  0.93205474  0.39808956
   0.63460071  0.27095801  0.40350610
   0.50005680  0.00058235 -0.00225958
  -0.00319950  0.00268541  0.00211545
   0.09801833  0.20718547  0.79434023
   0.03523389  0.06883061  0.59549348
   0.91169106  0.79273012  0.20234037
   0.80042186  0.60139738  0.39862909
   0.72865848  0.46631387  0.20061336
   0.65869263  0.34451586 -0.00549740
   0.37488926  0.72766594  0.59649758
   0.13692283  0.26701451  0.39902461
   0.83499655  0.66446986  0.00277386
   0.92897186  0.87268892  0.79764287
   0.55822196  0.12854263  0.20576218
   0.41080813  0.79529607  0.20484630
   0.43830476  0.85666417  0.79310650
   0.29854194  0.59870946  0.40545275
   0.86764009  0.72389799  0.60127205
   0.17665062  0.33914349  0.00094127
   0.27510323  0.53129282  0.79835693
   0.20287725  0.39080380  0.59602304
   0.05126237  0.15093593  0.20457079
   0.76368613  0.52114686  0.80324727
   0.68605191  0.41198580  0.60582746
   0.59450780  0.20992856  0.79534636
   0.54548479  0.06790341  0.60258353
   0.33972911  0.64995312 -0.00119951
   0.22888457  0.47136951  0.20055350
Nb - Mo - Ta - Ti - V SQS               
           1
    -3.123587   -3.121649   -3.106449
     1.608316    1.635311   -7.887431
     7.864805   -7.863189   -1.550098
   Nb   Mo   Ta   Ti   V 
   6   6   6   5   6
Direct configuration=    10
   0.95305677  0.93202259  0.39826041
   0.63414252  0.27141172  0.40386599
   0.49964661  0.00090215 -0.00218004
  -0.00302930  0.00307099  0.00214066
   0.09855146  0.20628097  0.79436629
   0.03679965  0.06773465  0.59540387
   0.91166811  0.79341893  0.20198130
   0.80031572  0.60177628  0.39873458
   0.72834376  0.46744572  0.20040281
   0.65952853  0.34409921 -0.00538421
   0.37537021  0.72726451  0.59676573
   0.13710882  0.26719924  0.39895597
   0.83498178  0.66406731  0.00265608
   0.92785438  0.87315010  0.79721261
   0.55803750  0.12836492  0.20571880
   0.41024523  0.79613529  0.20522297
   0.43886482  0.85664890  0.79322078
   0.29858735  0.59902910  0.40489531
   0.86878935  0.72324895  0.60158163
   0.17641091  0.33955255  0.00093675
   0.27462649  0.53105879  0.79782489
   0.20268445  0.39001824  0.59583619
   0.05063038  0.15106567  0.20475424
   0.76307709  0.52084346  0.80355306
   0.68515617  0.41227696  0.60639048
   0.59506274  0.21007134  0.79471666
   0.54745901  0.06782701  0.60261529
   0.34027065  0.64942535 -0.00122789
   0.22909217  0.47125579  0.20077878
Nb - Mo - Ta - Ti - V SQS               
           1
    -3.123599   -3.124375   -3.106155
     1.609987    1.634513   -7.886121
     7.870599   -7.872695   -1.553092
   Nb   Mo   Ta   Ti   V 
   6   6   6   5   6
Direct configuration=    11
   0.94877950  0.93196849  0.39854542
   0.63337900  0.27216777  0.40446539
   0.49896320  0.00143504 -0.00204755
  -0.00274565  0.00371362  0.00218255
   0.09943952  0.20477369  0.79440974
   0.03940821  0.06590848  0.59525452
   0.91163022  0.79456684  0.20138319
   0.80013890  0.60240772  0.39891023
   0.72781975  0.46933194  0.20005202
   0.66092108  0.34340500 -0.00519576
   0.37617128  0.72659560  0.59721232
   0.13741878  0.26750714  0.39884159
   0.83495715  0.66339643  0.00246000
   0.92599289  0.87391845  0.79649614
   0.55773016  0.12806874  0.20564661
   0.40930733  0.79753379  0.20585026
   0.43979787  0.85662355  0.79341101
   0.29866339  0.59956178  0.40396686
   0.87070383  0.72216752  0.60209714
   0.17601162  0.34023421  0.00092921
   0.27383245  0.53066866  0.79693892
   0.20236319  0.38870900  0.59552515
   0.04957734  0.15128177  0.20505985
   0.76206212  0.52033772  0.80406249
   0.68366349  0.41276204  0.60732828
   0.59598773  0.21030938  0.79366779
   0.55074824  0.06770009  0.60266786
   0.34117282  0.64854590 -0.00127518
   0.22943791  0.47106632  0.20115396
Nb - Mo - Ta - Ti - V SQS               
           1
    -3.124968   -3.126941   -3.109168
     1.608911    1.634986   -7.891103
     7.874012   -7.880309   -1.553409
   Nb   Mo   Ta   Ti   V 
   6   6   6   5   6
Direct configuration=    12
   0.94578476  0.93198564  0.39875041
   0.63345494  0.27278489  0.40442692
   0.49914510  0.00173486 -0.00217497
  -0.00304394  0.00367431  0.00213931
   0.09974225  0.20464394  0.79431735
   0.04079592  0.06549710  0.59474146
   0.91156984  0.79485722  0.20112741
   0.80028537  0.60247731  0.39884490
   0.72808263  0.46937877  0.20002647
   0.66105046  0.34353958 -0.00499947
   0.37708297  0.72587366  0.59733197
   0.13725906  0.26773216  0.39869003
   0.83477372  0.66339230  0.00259499
   0.92650730  0.87385472  0.79640151
   0.55769446  0.12889843  0.20547009
   0.40909905  0.79836339  0.20584630
   0.43942635  0.85604516  0.79370311
   0.29801148  0.59984517  0.40434503
   0.87141571  0.72153602  0.60240610
   0.17557680  0.34022178  0.00103660
   0.27328958  0.53057535  0.79658179
   0.20232517  0.38826148  0.59515004
   0.04916072  0.15164783  0.20534379
   0.76187201  0.52012898  0.80440899
   0.68316382  0.41247688  0.60755340
   0.59645720  0.20989869  0.79327273
   0.55241177  0.06746818  0.60281578
   0.34151717  0.64847201 -0.00124927
   0.22942168  0.47140085  0.20109724
Nb - Mo - Ta - Ti - V SQS               
           1
    -3.127246   -3.131214   -3.114184
     1.607120    1.635773   -7.899400
     7.879694   -7.892987   -1.553937
   Nb   Mo   Ta   Ti   V 
   6   6   6   5   6
Direct configuration=    13
   0.94080117  0.93201478  0.39909191
   0.63358096  0.27381194  0.40436298
   0.49944771  0.00223377 -0.00238697
  -0.00354025  0.00360891  0.00206738
   0.10024617  0.20442791  0.79416355
   0.04310584  0.06481195  0.59388748
   0.91146940  0.79534039  0.20070184
   0.80052913  0.60259309  0.39873620
   0.72852007  0.46945667  0.19998393
   0.66126551  0.34376365 -0.00467284
   0.37860039  0.72467203  0.59753084
   0.13699328  0.26810663  0.39843790
   0.83446836  0.66338552  0.00281963
   0.92736342  0.87374853  0.79624397
   0.55763469  0.13027924  0.20517651
   0.40875197  0.79974417  0.20583987
   0.43880823  0.85508272  0.79418913
   0.29692616  0.60031712  0.40497443
   0.87260043  0.72048502  0.60292001
   0.17485315  0.34020120  0.00121536
   0.27238657  0.53041996  0.79598757
   0.20226249  0.38751646  0.59452578
   0.04846697  0.15225730  0.20581638
   0.76155548  0.51978177  0.80498554
   0.68233233  0.41200248  0.60792804
   0.59723901  0.20921490  0.79261521
   0.55517999  0.06708201  0.60306168
   0.34209021  0.64834898 -0.00120621
   0.22939450  0.47195759  0.20100292
Nb - Mo - Ta - Ti - V SQS               
           1
    -3.126068   -3.130388   -3.113940
     1.605590    1.635188   -7.897699
     7.876392   -7.891383   -1.553001
   Nb   Mo   Ta   Ti   V 
   6   6   6   5   6
Direct configuration=    14
   0.93939833  0.93202297  0.39917714
   0.63362276  0.27405689  0.40432923
   0.49947871  0.00232865 -0.00244643
  -0.00358187  0.00358925  0.00204840
   0.10035195  0.20439769  0.79410134
   0.04367223  0.06462992  0.59367674
   0.91145528  0.79543086  0.20063168
   0.80055967  0.60259099  0.39869153
   0.72857417  0.46951520  0.20000138
   0.66124041  0.34385960 -0.00461637
   0.37899000  0.72435087  0.59759628
   0.13693917  0.26824219  0.39835222
   0.83439013  0.66345179  0.00288466
   0.92754270  0.87368352  0.79621673
   0.55760360  0.13072175  0.20505071
   0.40871211  0.80000775  0.20586077
   0.43878752  0.85481948  0.79429594
   0.29668978  0.60049880  0.40509087
   0.87285087  0.72022874  0.60306131
   0.17468851  0.34019121  0.00125867
   0.27218787  0.53035848  0.79587995
   0.20225537  0.38732081  0.59435649
   0.04835736  0.15240016  0.20595090
   0.76149260  0.51968322  0.80516260
   0.68220284  0.41183146  0.60798011
   0.59743634  0.20898864  0.79247415
   0.55590562  0.06696393  0.60314624
   0.34217582  0.64835064 -0.00118592
   0.22935349  0.47215121  0.20097269
Nb - Mo - Ta - Ti - V SQS               
           1
    -3.122533   -3.127910   -3.113208
     1.601001    1.633431   -7.892594
     7.866487   -7.886569   -1.550193
   Nb   Mo   Ta   Ti   V 
   6   6   6   5   6
Direct configuration=    15
   0.93518858  0.93204791  0.39943302
   0.63374805  0.27479192  0.40422802
   0.49957169  0.00261333 -0.00262484
  -0.00370674  0.00353023  0.00199144
   0.10066946  0.20430696  0.79391463
   0.04537213  0.06408348  0.59304425
   0.91141287  0.79570235  0.20042114
   0.80065134  0.60258468  0.39855748
   0.72873645  0.46969085  0.20005375
   0.66116499  0.34414756 -0.00444689
   0.38015931  0.72338707  0.59779257
   0.13677678  0.26864895  0.39809513
   0.83415531  0.66365071  0.00307984
   0.92808077  0.87348836  0.79613495
   0.55751010  0.13204961  0.20467330
   0.40859235  0.80079872  0.20592354
   0.43872545  0.85402957  0.79461641
   0.29598027  0.60104412  0.40544032
   0.87360247  0.71945971  0.60348526
   0.17419443  0.34016126  0.00138866
   0.27159170  0.53017398  0.79555699
   0.20223424  0.38673366  0.59384843
   0.04802827  0.15282895  0.20635464
   0.76130385  0.51938755  0.80569393
   0.68181431  0.41131832  0.60813635
   0.59802873  0.20830959  0.79205079
   0.55808314  0.06660944  0.60339993
   0.34243272  0.64835563 -0.00112504
   0.22923030  0.47273222  0.20088200
Nb - Mo - Ta - Ti - V SQS               
           1
    -3.115463   -3.122955   -3.111745
     1.591823    1.629918   -7.882385
     7.846677   -7.876943   -1.544578
   Nb   Mo   Ta   Ti   V 
   6   6   6   5   6
Direct configuration=    16
   0.92676162  0.93209994  0.39994584
   0.63399811  0.27626308  0.40402565
   0.49975770  0.00318298 -0.00298193
  -0.00395656  0.00341211  0.00187740
   0.10130535  0.20412506  0.79354079
   0.04877621  0.06298838  0.59177765
   0.91132791  0.79624562  0.19999976
   0.80083499  0.60257190  0.39828912
   0.72906104  0.47004239  0.20015863
   0.66101350  0.34472413 -0.00410749
   0.38250078  0.72145749  0.59818501
   0.13645156  0.26946303  0.39758064
   0.83368481  0.66404914  0.00347067
   0.92915815  0.87309741  0.79597111
   0.55732187  0.13470730  0.20391825
   0.40835162  0.80238210  0.20604951
   0.43860174  0.85244872  0.79525766
   0.29455898  0.60213627  0.40614019
   0.87510731  0.71792036  0.60433359
   0.17320532  0.34010166  0.00164895
   0.27039897  0.52980467  0.79491049
   0.20219324  0.38555794  0.59283115
   0.04736856  0.15368772  0.20716308
   0.76092574  0.51879625  0.80675749
   0.68103702  0.41029147  0.60844898
   0.59921582  0.20694973  0.79120296
   0.56244196  0.06589909  0.60390735
   0.34294686  0.64836554 -0.00100320
   0.22898316  0.47389520  0.20070069
Nb - Mo - Ta - Ti - V SQS               
           1
    -3.120646   -3.126588   -3.112818
     1.598551    1.632493   -7.889869
     7.861200   -7.884000   -1.548694
   Nb   Mo   Ta   Ti   V 
   6   6   6   5   6
Direct configuration=    17
   0.93295031  0.93205860  0.39956833
   0.63381556  0.27518298  0.40417391
   0.49962127  0.00276495 -0.00271980
  -0.00377331  0.00349883  0.00196116
   0.10083791  0.20425908  0.79381548
   0.04627442  0.06379444  0.59270855
   0.91139039  0.79584691  0.20030909
   0.80069988  0.60258151  0.39848625
   0.72882308  0.46978429  0.20008154
   0.66112554  0.34430049 -0.00435693
   0.38078006  0.72287498  0.59789753
   0.13669062  0.26886543  0.39795826
   0.83403101  0.66375617  0.00318347
   0.92836652  0.87338495  0.79609166
   0.55746169  0.13275608  0.20447208
   0.40852986  0.80121922  0.20595654
   0.43869180  0.85360915  0.79478709
   0.29560423  0.60133337  0.40562573
   0.87400169  0.71905074  0.60371108
   0.17393184  0.34014494  0.00145769
   0.27127394  0.53007585  0.79538530
   0.20222144  0.38642190  0.59357861
   0.04785446  0.15305639  0.20656902
   0.76120384  0.51922969  0.80597646
   0.68160721  0.41104506  0.60821956
   0.59834219  0.20794922  0.79182614
   0.55924098  0.06642187  0.60353530
   0.34256942  0.64835836 -0.00109264
   0.22916548  0.47304122  0.20083352
Nb - Mo - Ta - Ti - V SQS               
           1
    -3.120453   -3.126303   -3.113698
     1.597668    1.632705   -7.891677
     7.860530   -7.884110   -1.548115
   Nb   Mo   Ta   Ti   V 
   6   6   6   5   6
Direct configuration=    18
   0.93103793  0.93210309  0.39967946
   0.63379953  0.27535407  0.40415957
   0.49943674  0.00281201 -0.00277873
  -0.00352316  0.00352079  0.00194626
   0.10094291  0.20420965  0.79369053
   0.04689762  0.06347925  0.59254346
   0.91139430  0.79593554  0.20032107
   0.80057723  0.60254210  0.39845264
   0.72866350  0.47007531  0.20014221
   0.66097264  0.34439464 -0.00439585
   0.38112642  0.72258514  0.59799532
   0.13675733  0.26904315  0.39783189
   0.83403314  0.66394966  0.00323793
   0.92835307  0.87324336  0.79607754
   0.55737999  0.13333450  0.20420852
   0.40851549  0.80135481  0.20609940
   0.43909578  0.85340239  0.79483803
   0.29555010  0.60166134  0.40554062
   0.87416734  0.71881594  0.60387052
   0.17385205  0.34015242  0.00146788
   0.27117771  0.52987724  0.79542045
   0.20222020  0.38619401  0.59340664
   0.04798458  0.15307492  0.20671362
   0.76117112  0.51909537  0.80621058
   0.68172840  0.41073905  0.60816851
   0.59852106  0.20764523  0.79174186
   0.55997429  0.06627824  0.60365502
   0.34246470  0.64845940 -0.00105164
   0.22906135  0.47333406  0.20080672
Nb - Mo - Ta - Ti - V SQS               
           1
    -3.119874   -3.125447   -3.116341
     1.595017    1.633341   -7.897101
     7.858520   -7.884440   -1.546379
   Nb   Mo   Ta   Ti   V 
   6   6   6   5   6
Direct configuration=    19
   0.92530065  0.93223725  0.40001282
   0.63375136  0.27586728  0.40411655
   0.49888312  0.00295322 -0.00295554
  -0.00277270  0.00358656  0.00190154
   0.10125796  0.20406131  0.79331568
   0.04876745  0.06253355  0.59204810
   0.91140598  0.79620139  0.20035701
   0.80020931  0.60242394  0.39835180
   0.72818456  0.47094832  0.20032429
   0.66051389  0.34467709 -0.00451260
   0.38216563  0.72171568  0.59828865
   0.13695737  0.26957614  0.39745278
   0.83403943  0.66453007  0.00340137
   0.92831282  0.87281865  0.79603515
   0.55713459  0.13506940  0.20341794
   0.40847225  0.80176154  0.20652801
   0.44030783  0.85278207  0.79499082
   0.29538752  0.60264507  0.40528535
   0.87466439  0.71811167  0.60434878
   0.17361266  0.34017490  0.00149844
   0.27088910  0.52928154  0.79552586
   0.20221665  0.38551038  0.59289065
   0.04837488  0.15313049  0.20714744
   0.76107300  0.51869255  0.80691296
   0.68209216  0.40982112  0.60801530
   0.59905787  0.20673333  0.79148894
   0.56217432  0.06584720  0.60401418
   0.34215044  0.64876250 -0.00092863
   0.22874881  0.47421245  0.20072635
Nb - Mo - Ta - Ti - V SQS               
           1
    -3.118717   -3.123737   -3.121625
     1.589715    1.634612   -7.907949
     7.854500   -7.885100   -1.542907
   Nb   Mo   Ta   Ti   V 
   6   6   6   5   6
Direct configuration=    20
   0.91382526  0.93250970  0.40067949
   0.63365444  0.27689318  0.40403074
   0.49777574  0.00323580 -0.00330915
  -0.00127177  0.00371749  0.00181216
   0.10188845  0.20376435  0.79256584
   0.05250861  0.06064148  0.59105694
   0.91142902  0.79673285  0.20042902
   0.79947363  0.60218793  0.39815005
   0.72722555  0.47269390  0.20068884
   0.65959606  0.34524197 -0.00474602
   0.38424504  0.71997707  0.59887503
   0.13735703  0.27064122  0.39669472
   0.83405126  0.66569039  0.00372852
   0.92823284  0.87196965  0.79595018
   0.55664211  0.13853719  0.20183732
   0.40838512  0.80257489  0.20738549
   0.44273270  0.85154129  0.79529621
   0.29506133  0.60461153  0.40477515
   0.87565914  0.71670374  0.60530515
   0.17313383  0.34022003  0.00155957
   0.27031251  0.52809100  0.79573645
   0.20221058  0.38414353  0.59185826
   0.04915527  0.15324154  0.20801521
   0.76087690  0.51788780  0.80831768
   0.68282085  0.40798583  0.60770847
   0.60013272  0.20490990  0.79098269
   0.56657492  0.06498418  0.60473248
   0.34152149  0.64936871 -0.00068246
   0.22812270  0.47596854  0.20056596
Nb - Mo - Ta - Ti - V SQS               
           1
    -3.119921   -3.124641   -3.122227
     1.587516    1.636411   -7.907991
     7.857003   -7.890503   -1.539551
   Nb   Mo   Ta   Ti   V 
   6   6   6   5   6
Direct configuration=    21
   0.90948406  0.93266817  0.40096864
   0.63345990  0.27691721  0.40397488
   0.49796966  0.00309234 -0.00308231
  -0.00129287  0.00392237  0.00176858
   0.10216312  0.20335255  0.79238185
   0.05354044  0.05980429  0.59096780
   0.91103144  0.79748003  0.20040652
   0.79952046  0.60188289  0.39835416
   0.72678124  0.47357446  0.20057176
   0.65984582  0.34531575 -0.00507889
   0.38453787  0.71954091  0.59903041
   0.13770094  0.27084117  0.39646807
   0.83392894  0.66581127  0.00384869
   0.92920821  0.87164114  0.79603024
   0.55682249  0.13942373  0.20098509
   0.40839985  0.80318468  0.20757872
   0.44241554  0.85168650  0.79527828
   0.29471344  0.60478590  0.40490101
   0.87599577  0.71621065  0.60543662
   0.17288434  0.34049230  0.00146120
   0.27075203  0.52730448  0.79610586
   0.20263497  0.38389630  0.59136490
   0.04964171  0.15298264  0.20821364
   0.76092748  0.51748287  0.80874735
   0.68341644  0.40748103  0.60738261
   0.60038708  0.20450819  0.79093599
   0.56722896  0.06489038  0.60501653
   0.34124349  0.64983301 -0.00056994
   0.22799048  0.47665944  0.20055172
Nb - Mo - Ta - Ti - V SQS               
           1
    -3.123534   -3.127353   -3.124034
     1.580918    1.641808   -7.908116
     7.864511   -7.906714   -1.529482
   Nb   Mo   Ta   Ti   V 
   6   6   6   5   6
Direct configuration=    22
   0.89646438  0.93314351  0.40183552
   0.63287648  0.27698916  0.40380739
   0.49855119  0.00266242 -0.00240221
  -0.00135615  0.00453692  0.00163807
   0.10298707  0.20211689  0.79182985
   0.05663519  0.05729276  0.59069995
   0.90983892  0.79972145  0.20033959
   0.79966088  0.60096816  0.39896595
   0.72544856  0.47621582  0.20022132
   0.66059501  0.34553652 -0.00607690
   0.38541611  0.71823280  0.59949597
   0.13873241  0.27144066  0.39578864
   0.83356203  0.66617411  0.00420911
   0.93213343  0.87065592  0.79627010
   0.55736365  0.14208180  0.19843035
   0.40844381  0.80501435  0.20815859
   0.44146434  0.85212208  0.79522463
   0.29366999  0.60530916  0.40527850
   0.87700539  0.71473171  0.60583048
   0.17213610  0.34130890  0.00116644
   0.27207017  0.52494570  0.79721299
   0.20390804  0.38315383  0.58988540
   0.05110052  0.15220635  0.20880847
   0.76107907  0.51626888  0.81003538
   0.68520294  0.40596616  0.60640518
   0.60115001  0.20330305  0.79079568
   0.56919037  0.06460955  0.60586824
   0.34040962  0.65122603 -0.00023222
   0.22759380  0.47873204  0.20050954
Nb - Mo - Ta - Ti - V SQS               
           1
    -3.122301   -3.126428   -3.123418
     1.583170    1.639967   -7.908073
     7.861949   -7.901183   -1.532918
   Nb   Mo   Ta   Ti   V 
   6   6   6   5   6
Direct configuration=    23
   0.90090255  0.93298141  0.40154032
   0.63307532  0.27696474  0.40386444
   0.49835304  0.00280866 -0.00263380
  -0.00133455  0.00432733  0.00168237