  29  29   0   0
  0.1679057E+02  0.5525242E-09  0.8287863E-09  0.1139058E-08  0.5000000E-15
  1.000000000000000E-004
  CAR 
 SQS with 1 vacancy for VFE and VRV      
     11.96792723    -50.45749128  301      6.56651599      1.00000000
    -50.457  0.0000E+00  0.0000E+00
    -50.249  0.0000E+00  0.0000E+00
    -50.041  0.0000E+00  0.0000E+00
    -49.833  0.0000E+00  0.0000E+00
    -49.625  0.0000E+00  0.0000E+00
    -49.417 -0.9617E-35 -0.2001E-35
    -49.209 -0.4313E-27 -0.8976E-28
    -49.001 -0.2010E-20 -0.4183E-21
    -48.793 -0.1034E-14 -0.2152E-15
    -48.585 -0.6046E-10 -0.1258E-10
    -48.377 -0.3904E-06 -0.8126E-07
    -48.169 -0.2666E-03 -0.5556E-04
    -47.960 -0.1656E-01 -0.3502E-02
    -47.752  0.2021E-01  0.7041E-03
    -47.544  0.9083E+00  0.1897E+00
    -47.336  0.1008E+01  0.3993E+00
    -47.128  0.4401E+00  0.4909E+00
    -46.920  0.5678E-01  0.5027E+00
    -46.712 -0.1279E-01  0.5001E+00
    -46.504 -0.4070E-03  0.5000E+00
    -46.296 -0.1013E-05  0.5000E+00
    -46.088 -0.2563E-09  0.5000E+00
    -45.880 -0.7021E-14  0.5000E+00
    -45.672  0.0000E+00  0.5000E+00
    -45.463  0.0000E+00  0.5000E+00
    -45.255  0.0000E+00  0.5000E+00
    -45.047  0.0000E+00  0.5000E+00
    -44.839  0.0000E+00  0.5000E+00
    -44.631  0.0000E+00  0.5000E+00
    -44.423  0.0000E+00  0.5000E+00
    -44.215  0.0000E+00  0.5000E+00
    -44.007  0.0000E+00  0.5000E+00
    -43.799  0.0000E+00  0.5000E+00
    -43.591  0.0000E+00  0.5000E+00
    -43.383  0.0000E+00  0.5000E+00
    -43.175  0.0000E+00  0.5000E+00
    -42.966  0.0000E+00  0.5000E+00
    -42.758  0.0000E+00  0.5000E+00
    -42.550  0.0000E+00  0.5000E+00
    -42.342  0.0000E+00  0.5000E+00
    -42.134  0.0000E+00  0.5000E+00
    -41.926  0.0000E+00  0.5000E+00
    -41.718  0.0000E+00  0.5000E+00
    -41.510  0.0000E+00  0.5000E+00
    -41.302  0.0000E+00  0.5000E+00
    -41.094  0.0000E+00  0.5000E+00
    -40.886  0.0000E+00  0.5000E+00
    -40.678  0.0000E+00  0.5000E+00
    -40.469  0.0000E+00  0.5000E+00
    -40.261  0.0000E+00  0.5000E+00
    -40.053  0.0000E+00  0.5000E+00
    -39.845  0.0000E+00  0.5000E+00
    -39.637  0.0000E+00  0.5000E+00
    -39.429  0.0000E+00  0.5000E+00
    -39.221  0.0000E+00  0.5000E+00
    -39.013  0.0000E+00  0.5000E+00
    -38.805  0.0000E+00  0.5000E+00
    -38.597  0.0000E+00  0.5000E+00
    -38.389  0.0000E+00  0.5000E+00
    -38.180  0.0000E+00  0.5000E+00
    -37.972  0.0000E+00  0.5000E+00
    -37.764  0.0000E+00  0.5000E+00
    -37.556  0.0000E+00  0.5000E+00
    -37.348  0.0000E+00  0.5000E+00
    -37.140  0.0000E+00  0.5000E+00
    -36.932  0.0000E+00  0.5000E+00
    -36.724  0.0000E+00  0.5000E+00
    -36.516  0.0000E+00  0.5000E+00
    -36.308  0.0000E+00  0.5000E+00
    -36.100  0.0000E+00  0.5000E+00
    -35.892  0.0000E+00  0.5000E+00
    -35.683  0.0000E+00  0.5000E+00
    -35.475  0.0000E+00  0.5000E+00
    -35.267  0.0000E+00  0.5000E+00
    -35.059  0.0000E+00  0.5000E+00
    -34.851  0.0000E+00  0.5000E+00
    -34.643  0.0000E+00  0.5000E+00
    -34.435  0.0000E+00  0.5000E+00
    -34.227  0.0000E+00  0.5000E+00
    -34.019  0.0000E+00  0.5000E+00
    -33.811  0.0000E+00  0.5000E+00
    -33.603  0.0000E+00  0.5000E+00
    -33.395  0.0000E+00  0.5000E+00
    -33.186  0.0000E+00  0.5000E+00
    -32.978  0.0000E+00  0.5000E+00
    -32.770  0.0000E+00  0.5000E+00
    -32.562  0.0000E+00  0.5000E+00
    -32.354  0.0000E+00  0.5000E+00
    -32.146  0.0000E+00  0.5000E+00
    -31.938  0.0000E+00  0.5000E+00
    -31.730  0.0000E+00  0.5000E+00
    -31.522  0.0000E+00  0.5000E+00
    -31.314  0.0000E+00  0.5000E+00
    -31.106  0.0000E+00  0.5000E+00
    -30.898  0.0000E+00  0.5000E+00
    -30.689  0.0000E+00  0.5000E+00
    -30.481  0.0000E+00  0.5000E+00
    -30.273  0.0000E+00  0.5000E+00
    -30.065  0.0000E+00  0.5000E+00
    -29.857  0.0000E+00  0.5000E+00
    -29.649  0.0000E+00  0.5000E+00
    -29.441  0.0000E+00  0.5000E+00
    -29.233  0.0000E+00  0.5000E+00
    -29.025  0.0000E+00  0.5000E+00
    -28.817  0.0000E+00  0.5000E+00
    -28.609  0.0000E+00  0.5000E+00
    -28.401  0.0000E+00  0.5000E+00
    -28.192  0.0000E+00  0.5000E+00
    -27.984  0.0000E+00  0.5000E+00
    -27.776  0.0000E+00  0.5000E+00
    -27.568  0.0000E+00  0.5000E+00
    -27.360  0.0000E+00  0.5000E+00
    -27.152  0.0000E+00  0.5000E+00
    -26.944  0.0000E+00  0.5000E+00
    -26.736  0.0000E+00  0.5000E+00
    -26.528  0.0000E+00  0.5000E+00
    -26.320  0.0000E+00  0.5000E+00
    -26.112  0.0000E+00  0.5000E+00
    -25.903 -0.9989E-31  0.5000E+00
    -25.695 -0.1065E-23  0.5000E+00
    -25.487 -0.1277E-17  0.5000E+00
    -25.279 -0.1652E-12  0.5000E+00
    -25.071 -0.2413E-08  0.5000E+00
    -24.863 -0.3806E-05  0.5000E+00
    -24.655 -0.6169E-03  0.4999E+00
    -24.447 -0.7376E-02  0.4983E+00
    -24.239  0.4090E-01  0.5068E+00
    -24.031  0.2533E+00  0.5595E+00
    -23.823  0.1470E+01  0.8654E+00
    -23.615  0.2457E+01  0.1377E+01
    -23.406  0.1728E+01  0.1736E+01
    -23.198  0.9834E+00  0.1941E+01
    -22.990  0.1306E+00  0.1968E+01
    -22.782  0.1456E+00  0.1998E+01
    -22.574  0.1124E-01  0.2001E+01
    -22.366 -0.3441E-02  0.2000E+01
    -22.158 -0.9634E-04  0.2000E+01
    -21.950 -0.2384E-06  0.2000E+01
    -21.742 -0.6119E-10  0.2000E+01
    -21.534 -0.1699E-14  0.2000E+01
    -21.326  0.0000E+00  0.2000E+01
    -21.118  0.0000E+00  0.2000E+01
    -20.909  0.0000E+00  0.2000E+01
    -20.701  0.0000E+00  0.2000E+01
    -20.493  0.0000E+00  0.2000E+01
    -20.285  0.0000E+00  0.2000E+01
    -20.077  0.0000E+00  0.2000E+01
    -19.869  0.0000E+00  0.2000E+01
    -19.661  0.0000E+00  0.2000E+01
    -19.453  0.0000E+00  0.2000E+01
    -19.245  0.0000E+00  0.2000E+01
    -19.037  0.0000E+00  0.2000E+01
    -18.829  0.0000E+00  0.2000E+01
    -18.621  0.0000E+00  0.2000E+01
    -18.412  0.0000E+00  0.2000E+01
    -18.204  0.0000E+00  0.2000E+01
    -17.996  0.0000E+00  0.2000E+01
    -17.788  0.0000E+00  0.2000E+01
    -17.580  0.0000E+00  0.2000E+01
    -17.372  0.0000E+00  0.2000E+01
    -17.164  0.0000E+00  0.2000E+01
    -16.956  0.0000E+00  0.2000E+01
    -16.748  0.0000E+00  0.2000E+01
    -16.540  0.0000E+00  0.2000E+01
    -16.332  0.0000E+00  0.2000E+01
    -16.124  0.0000E+00  0.2000E+01
    -15.915  0.0000E+00  0.2000E+01
    -15.707  0.0000E+00  0.2000E+01
    -15.499  0.0000E+00  0.2000E+01
    -15.291  0.0000E+00  0.2000E+01
    -15.083  0.0000E+00  0.2000E+01
    -14.875  0.0000E+00  0.2000E+01
    -14.667  0.0000E+00  0.2000E+01
    -14.459  0.0000E+00  0.2000E+01
    -14.251  0.0000E+00  0.2000E+01
    -14.043  0.0000E+00  0.2000E+01
    -13.835  0.0000E+00  0.2000E+01
    -13.626  0.0000E+00  0.2000E+01
    -13.418  0.0000E+00  0.2000E+01
    -13.210  0.0000E+00  0.2000E+01
    -13.002  0.0000E+00  0.2000E+01
    -12.794  0.0000E+00  0.2000E+01
    -12.586  0.0000E+00  0.2000E+01
    -12.378  0.0000E+00  0.2000E+01
    -12.170  0.0000E+00  0.2000E+01
    -11.962  0.0000E+00  0.2000E+01
    -11.754  0.0000E+00  0.2000E+01
    -11.546  0.0000E+00  0.2000E+01
    -11.338  0.0000E+00  0.2000E+01
    -11.129  0.0000E+00  0.2000E+01
    -10.921  0.0000E+00  0.2000E+01
    -10.713  0.0000E+00  0.2000E+01
    -10.505  0.0000E+00  0.2000E+01
    -10.297  0.0000E+00  0.2000E+01
    -10.089  0.0000E+00  0.2000E+01
     -9.881  0.0000E+00  0.2000E+01
     -9.673  0.0000E+00  0.2000E+01
     -9.465  0.0000E+00  0.2000E+01
     -9.257  0.0000E+00  0.2000E+01
     -9.049  0.0000E+00  0.2000E+01
     -8.841  0.0000E+00  0.2000E+01
     -8.632  0.0000E+00  0.2000E+01
     -8.424  0.0000E+00  0.2000E+01
     -8.216  0.0000E+00  0.2000E+01
     -8.008  0.0000E+00  0.2000E+01
     -7.800  0.0000E+00  0.2000E+01
     -7.592  0.0000E+00  0.2000E+01
     -7.384  0.0000E+00  0.2000E+01
     -7.176  0.0000E+00  0.2000E+01
     -6.968  0.0000E+00  0.2000E+01
     -6.760  0.0000E+00  0.2000E+01
     -6.552  0.0000E+00  0.2000E+01
     -6.344  0.0000E+00  0.2000E+01
     -6.135  0.0000E+00  0.2000E+01
     -5.927  0.0000E+00  0.2000E+01
     -5.719  0.0000E+00  0.2000E+01
     -5.511  0.0000E+00  0.2000E+01
     -5.303  0.0000E+00  0.2000E+01
     -5.095  0.0000E+00  0.2000E+01
     -4.887  0.0000E+00  0.2000E+01
     -4.679  0.0000E+00  0.2000E+01
     -4.471  0.0000E+00  0.2000E+01
     -4.263  0.0000E+00  0.2000E+01
     -4.055  0.0000E+00  0.2000E+01
     -3.847  0.0000E+00  0.2000E+01
     -3.638  0.0000E+00  0.2000E+01
     -3.430  0.0000E+00  0.2000E+01
     -3.222  0.0000E+00  0.2000E+01
     -3.014  0.0000E+00  0.2000E+01
     -2.806  0.0000E+00  0.2000E+01
     -2.598 -0.2975E-35  0.2000E+01
     -2.390 -0.7823E-28  0.2000E+01
     -2.182 -0.2314E-21  0.2000E+01
     -1.974 -0.7529E-16  0.2000E+01
     -1.766 -0.2826E-11  0.2000E+01
     -1.558 -0.1195E-07  0.2000E+01
     -1.349 -0.5608E-05  0.2000E+01
     -1.141 -0.2704E-03  0.2000E+01
     -0.933 -0.1450E-03  0.2000E+01
     -0.725  0.1426E-01  0.2003E+01
     -0.517  0.4612E-01  0.2012E+01
     -0.309  0.7913E-01  0.2029E+01
     -0.101  0.9143E-01  0.2048E+01
      0.107  0.6640E-01  0.2062E+01
      0.315  0.1188E+00  0.2087E+01
      0.523  0.1693E+00  0.2122E+01
      0.731  0.1462E+00  0.2152E+01
      0.939  0.1369E+00  0.2181E+01
      1.148  0.1999E+00  0.2222E+01
      1.356  0.2110E+00  0.2266E+01
      1.564  0.2077E+00  0.2309E+01
      1.772  0.3174E+00  0.2375E+01
      1.980  0.4633E+00  0.2472E+01
      2.188  0.6620E+00  0.2610E+01
      2.396  0.8681E+00  0.2790E+01
      2.604  0.1044E+01  0.3007E+01
      2.812  0.1244E+01  0.3266E+01
      3.020  0.1378E+01  0.3553E+01
      3.228  0.1429E+01  0.3850E+01
      3.436  0.1470E+01  0.4156E+01
      3.645  0.1495E+01  0.4467E+01
      3.853  0.1453E+01  0.4770E+01
      4.061  0.1233E+01  0.5026E+01
      4.269  0.1230E+01  0.5282E+01
      4.477  0.1669E+01  0.5630E+01
      4.685  0.1927E+01  0.6031E+01
      4.893  0.1993E+01  0.6445E+01
      5.101  0.1921E+01  0.6845E+01
      5.309  0.1754E+01  0.7210E+01
      5.517  0.1775E+01  0.7579E+01
      5.725  0.1889E+01  0.7972E+01
      5.933  0.1996E+01  0.8388E+01
      6.142  0.1978E+01  0.8799E+01
      6.350  0.1884E+01  0.9191E+01
      6.558  0.1660E+01  0.9537E+01
      6.766  0.1385E+01  0.9825E+01
      6.974  0.1122E+01  0.1006E+02
      7.182  0.8520E+00  0.1024E+02
      7.390  0.7903E+00  0.1040E+02
      7.598  0.7982E+00  0.1057E+02
      7.806  0.9024E+00  0.1075E+02
      8.014  0.1019E+01  0.1097E+02
      8.222  0.1145E+01  0.1120E+02
      8.430  0.1314E+01  0.1148E+02
      8.639  0.1170E+01  0.1172E+02
      8.847  0.8564E+00  0.1190E+02
      9.055  0.4366E+00  0.1199E+02
      9.263  0.5556E-01  0.1200E+02
      9.471 -0.8278E-02  0.1200E+02
      9.679 -0.8579E-03  0.1200E+02
      9.887 -0.8903E-05  0.1200E+02
     10.095 -0.1069E-07  0.1200E+02
     10.303 -0.1474E-11  0.1200E+02
     10.511 -0.2561E-16  0.1200E+02
     10.719  0.0000E+00  0.1200E+02
     10.928  0.0000E+00  0.1200E+02
     11.136  0.0000E+00  0.1200E+02
     11.344  0.0000E+00  0.1200E+02
     11.552  0.0000E+00  0.1200E+02
     11.760  0.0000E+00  0.1200E+02
     11.968  0.0000E+00  0.1200E+02
