   29   29   20    1
  0.1679057E+02  0.5525242E-09  0.8287863E-09  0.1139058E-08  0.5000000E-15
  1.000000000000000E-004
  CAR 
 SQS with 1 vacancy for VFE and VRV      
    191     63    120
 
  0.0000000E+00  0.0000000E+00  0.0000000E+00  0.8000000E-02
    1      -47.619972   1.000000
    2      -47.593225   1.000000
    3      -47.522703   1.000000
    4      -47.419484   1.000000
    5      -47.213601   1.000000
    6      -24.231393   1.000000
    7      -23.939431   1.000000
    8      -23.882119   1.000000
    9      -23.827530   1.000000
   10      -23.766873   1.000000
   11      -23.760449   1.000000
   12      -23.728869   1.000000
   13      -23.678177   1.000000
   14      -23.638848   1.000000
   15      -23.605350   1.000000
   16      -23.484588   1.000000
   17      -23.415659   1.000000
   18      -23.391974   1.000000
   19      -23.339455   1.000000
   20      -22.875027   1.000000
   21       -0.841314   1.000000
   22        0.523677   1.000000
   23        0.882452   1.000000
   24        1.732935   1.000000
   25        1.796965   1.000000
   26        1.860986   1.000000
   27        1.985731   1.000000
   28        2.122687   1.000000
   29        2.254372   1.000000
   30        2.360571   1.000000
   31        2.375788   1.000000
   32        2.476800   1.000000
   33        2.490715   1.000000
   34        2.607709   1.000000
   35        2.647110   1.000000
   36        2.698689   1.000000
   37        2.914658   1.000000
   38        2.952425   1.000000
   39        3.051044   1.000000
   40        3.121913   1.000000
   41        3.174769   1.000000
   42        3.243440   1.000000
   43        3.319704   1.000000
   44        3.353002   1.000000
   45        3.444263   1.000000
   46        3.477453   1.000000
   47        3.555877   1.000000
   48        3.680018   1.000000
   49        3.690950   1.000000
   50        3.713931   1.000000
   51        3.865405   1.000000
   52        3.966620   1.000000
   53        3.996580   1.000000
   54        4.146018   1.000000
   55        4.273426   1.000000
   56        4.337224   1.000000
   57        4.368809   1.000000
   58        4.404893   1.000000
   59        4.425101   1.000000
   60        4.519473   1.000000
   61        4.594438   1.000000
   62        4.624492   1.000000
   63        4.679946   1.000000
   64        4.720971   1.000000
   65        4.797150   1.000000
   66        4.829575   1.000000
   67        4.908758   1.000000
   68        4.979250   1.000000
   69        5.024712   1.000000
   70        5.054651   1.000000
   71        5.107345   1.000000
   72        5.181838   1.000000
   73        5.316220   1.000000
   74        5.373035   1.000000
   75        5.541968   1.000000
   76        5.577539   1.000000
   77        5.614459   1.000000
   78        5.730124   1.000000
   79        5.799975   1.000000
   80        5.831179   1.000001
   81        5.866842   1.000004
   82        5.934510   1.000037
   83        5.958297   1.000074
   84        6.045578   1.000716
   85        6.106545   1.002701
   86        6.161604   1.007379
   87        6.185470   1.010727
   88        6.281894   1.030897
   89        6.380168   1.016516
   90        6.454850   0.900439
   91        6.488321   0.804501
   92        6.517183   0.701869
   93        6.602679   0.349719
   94        6.671065   0.117666
   95        6.805677  -0.035324
   96        6.817864  -0.035307
   97        6.888167  -0.022685
   98        6.937789  -0.012361
   99        7.027086  -0.002669
  100        7.243354  -0.000009
  101        7.352202  -0.000000
  102        7.510964  -0.000000
  103        7.602825  -0.000000
  104        7.763029  -0.000000
  105        7.988919  -0.000000
  106        8.276048  -0.000000
  107        8.297144  -0.000000
  108        8.443303  -0.000000
  109        8.475582  -0.000000
  110        8.504520  -0.000000
  111        8.551170  -0.000000
  112        8.660723  -0.000000
  113        8.769371  -0.000000
  114        8.800237  -0.000000
  115        8.833845  -0.000000
  116        8.894615  -0.000000
  117        8.933586  -0.000000
  118        9.005710  -0.000000
  119        9.039843  -0.000000
  120        9.066023  -0.000000
 
  0.2000000E+00 -0.1387779E-16  0.0000000E+00  0.1600000E-01
    1      -47.619280   1.000000
    2      -47.592861   1.000000
    3      -47.515263   1.000000
    4      -47.418253   1.000000
    5      -47.222345   1.000000
    6      -24.122068   1.000000
    7      -23.938806   1.000000
    8      -23.879070   1.000000
    9      -23.829598   1.000000
   10      -23.770369   1.000000
   11      -23.763936   1.000000
   12      -23.733804   1.000000
   13      -23.671409   1.000000
   14      -23.639251   1.000000
   15      -23.612869   1.000000
   16      -23.482844   1.000000
   17      -23.425937   1.000000
   18      -23.402712   1.000000
   19      -23.337039   1.000000
   20      -23.005393   1.000000
   21       -0.519928   1.000000
   22        0.791405   1.000000
   23        1.155726   1.000000
   24        1.852882   1.000000
   25        1.976960   1.000000
   26        2.099025   1.000000
   27        2.184008   1.000000
   28        2.313864   1.000000
   29        2.388776   1.000000
   30        2.481850   1.000000
   31        2.570376   1.000000
   32        2.658296   1.000000
   33        2.703181   1.000000
   34        2.805794   1.000000
   35        2.855733   1.000000
   36        2.901730   1.000000
   37        2.964577   1.000000
   38        3.055679   1.000000
   39        3.135334   1.000000
   40        3.180671   1.000000
   41        3.287541   1.000000
   42        3.385387   1.000000
   43        3.424577   1.000000
   44        3.492189   1.000000
   45        3.623217   1.000000
   46        3.661376   1.000000
   47        3.687377   1.000000
   48        3.764911   1.000000
   49        3.818544   1.000000
   50        3.883649   1.000000
   51        3.962676   1.000000
   52        4.020661   1.000000
   53        4.162535   1.000000
   54        4.202649   1.000000
   55        4.315534   1.000000
   56        4.401810   1.000000
   57        4.438643   1.000000
   58        4.488981   1.000000
   59        4.531239   1.000000
   60        4.588104   1.000000
   61        4.661279   1.000000
   62        4.693734   1.000000
   63        4.748071   1.000000
   64        4.855962   1.000000
   65        4.872170   1.000000
   66        4.916463   1.000000
   67        4.972240   1.000000
   68        5.045063   1.000000
   69        5.103371   1.000000
   70        5.159107   1.000000
   71        5.219479   1.000000
   72        5.268365   1.000000
   73        5.333715   1.000000
   74        5.392697   1.000000
   75        5.420303   1.000000
   76        5.455895   1.000000
   77        5.501705   1.000000
   78        5.589605   1.000000
   79        5.710901   1.000000
   80        5.764490   1.000000
   81        5.830270   1.000001
   82        5.896148   1.000011
   83        5.917126   1.000022
   84        5.937748   1.000041
   85        6.027901   1.000468
   86        6.072399   1.001319
   87        6.129517   1.004205
   88        6.142113   1.005285
   89        6.220079   1.017167
   90        6.313354   1.035212
   91        6.333708   1.034842
   92        6.382402   1.014799
   93        6.460936   0.885036
   94        6.511844   0.722030
   95        6.588366   0.408153
   96        6.654873   0.163531
   97        6.777518  -0.029934
   98        6.834322  -0.033743
   99        6.873077  -0.026168
  100        6.915871  -0.016558
  101        7.073850  -0.000981
  102        7.206866  -0.000029
  103        7.312356  -0.000001
  104        7.509535  -0.000000
  105        7.700671  -0.000000
  106        7.752369  -0.000000
  107        7.827438  -0.000000
  108        7.911688  -0.000000
  109        7.972086  -0.000000
  110        8.014563  -0.000000
  111        8.141934  -0.000000
  112        8.194805  -0.000000
  113        8.269471  -0.000000
  114        8.306507  -0.000000
  115        8.378308  -0.000000
  116        8.525960  -0.000000
  117        8.570123  -0.000000
  118        8.676446  -0.000000
  119        8.784005  -0.000000
  120        8.891880  -0.000000
 
  0.4000000E+00 -0.2775558E-16  0.0000000E+00  0.1600000E-01
    1      -47.618157   1.000000
    2      -47.592283   1.000000
    3      -47.502453   1.000000
    4      -47.415825   1.000000
    5      -47.237691   1.000000
    6      -23.959091   1.000000
    7      -23.902987   1.000000
    8      -23.835507   1.000000
    9      -23.788991   1.000000
   10      -23.779168   1.000000
   11      -23.765001   1.000000
   12      -23.741161   1.000000
   13      -23.662909   1.000000
   14      -23.637226   1.000000
   15      -23.621975   1.000000
   16      -23.478549   1.000000
   17      -23.446279   1.000000
   18      -23.420965   1.000000
   19      -23.362135   1.000000
   20      -23.292752   1.000000
   21        0.308400   1.000000
   22        1.241499   1.000000
   23        1.750976   1.000000
   24        1.905215   1.000000
   25        2.166905   1.000000
   26        2.307186   1.000000
   27        2.407029   1.000000
   28        2.567299   1.000000
   29        2.705110   1.000000
   30        2.751045   1.000000
   31        2.877134   1.000000
   32        2.976093   1.000000
   33        3.026278   1.000000
   34        3.096407   1.000000
   35        3.162458   1.000000
   36        3.200760   1.000000
   37        3.300889   1.000000
   38        3.325144   1.000000
   39        3.390860   1.000000
   40        3.463758   1.000000
   41        3.485459   1.000000
   42        3.580247   1.000000
   43        3.656346   1.000000
   44        3.747244   1.000000
   45        3.783609   1.000000
   46        3.868983   1.000000
   47        3.972563   1.000000
   48        4.036225   1.000000
   49        4.070039   1.000000
   50        4.138561   1.000000
   51        4.216408   1.000000
   52        4.268401   1.000000
   53        4.359693   1.000000
   54        4.411827   1.000000
   55        4.441136   1.000000
   56        4.478402   1.000000
   57        4.529950   1.000000
   58        4.570036   1.000000
   59        4.623146   1.000000
   60        4.654307   1.000000
   61        4.711118   1.000000
   62        4.767756   1.000000
   63        4.813352   1.000000
   64        4.873355   1.000000
   65        4.905282   1.000000
   66        4.932392   1.000000
   67        4.985755   1.000000
   68        5.063929   1.000000
   69        5.128595   1.000000
   70        5.190079   1.000000
   71        5.229402   1.000000
   72        5.267463   1.000000
   73        5.346529   1.000000
   74        5.380829   1.000000
   75        5.465997   1.000000
   76        5.498073   1.000000
   77        5.545991   1.000000
   78        5.604238   1.000000
   79        5.641209   1.000000
   80        5.691126   1.000000
   81        5.728090   1.000000
   82        5.803852   1.000000
   83        5.841806   1.000002
   84        5.908209   1.000017
   85        5.971678   1.000108
   86        6.002619   1.000247
   87        6.047620   1.000751
   88        6.077420   1.001472
   89        6.142114   1.005285
   90        6.175633   1.009237
   91        6.231432   1.019631
   92        6.241281   1.021860
   93        6.302311   1.034209
   94        6.338252   1.034260
   95        6.399176   0.998850
   96        6.468654   0.864169
   97        6.542300   0.601640
   98        6.605841   0.337117
   99        6.622471   0.273196
  100        6.735462  -0.000622
  101        6.776930  -0.029721
  102        6.904139  -0.019068
  103        6.939146  -0.012125
  104        6.974235  -0.007043
  105        7.032035  -0.002416
  106        7.168246  -0.000089
  107        7.325835  -0.000001
  108        7.441709  -0.000000
  109        7.517657  -0.000000
  110        7.595369  -0.000000
  111        7.681730  -0.000000
  112        7.716118  -0.000000
  113        7.760588  -0.000000
  114        8.000410  -0.000000
  115        8.101027  -0.000000
  116        8.182657  -0.000000
  117        8.280729  -0.000000
  118        8.343533  -0.000000
  119        8.402767  -0.000000
  120        8.430379  -0.000000
 
  0.0000000E+00  0.2000000E+00  0.1387779E-16  0.1600000E-01
    1      -47.619970   1.000000
    2      -47.593223   1.000000
    3      -47.522697   1.000000
    4      -47.419478   1.000000
    5      -47.213598   1.000000
    6      -24.231408   1.000000
    7      -23.939447   1.000000
    8      -23.882192   1.000000
    9      -23.827626   1.000000
   10      -23.766871   1.000000
   11      -23.760458   1.000000
   12      -23.728866   1.000000
   13      -23.678357   1.000000
   14      -23.638920   1.000000
   15      -23.605455   1.000000
   16      -23.484659   1.000000
   17      -23.415705   1.000000
   18      -23.392035   1.000000
   19      -23.339475   1.000000
   20      -22.875033   1.000000
   21       -0.702801   1.000000
   22        0.572366   1.000000
   23        0.950069   1.000000
   24        1.369322   1.000000
   25        1.698779   1.000000
   26        1.923866   1.000000
   27        2.000800   1.000000
   28        2.193938   1.000000
   29        2.259661   1.000000
   30        2.363040   1.000000
   31        2.426373   1.000000
   32        2.471580   1.000000
   33        2.569482   1.000000
   34        2.596439   1.000000
   35        2.626522   1.000000
   36        2.747329   1.000000
   37        2.784971   1.000000
   38        2.862539   1.000000
   39        2.961646   1.000000
   40        3.121307   1.000000
   41        3.174881   1.000000
   42        3.244116   1.000000
   43        3.298495   1.000000
   44        3.431070   1.000000
   45        3.490096   1.000000
   46        3.550058   1.000000
   47        3.570711   1.000000
   48        3.633817   1.000000
   49        3.690169   1.000000
   50        3.767493   1.000000
   51        3.911913   1.000000
   52        4.040157   1.000000
   53        4.098420   1.000000
   54        4.232697   1.000000
   55        4.270229   1.000000
   56        4.336785   1.000000
   57        4.371710   1.000000
   58        4.452118   1.000000
   59        4.494869   1.000000
   60        4.560440   1.000000
   61        4.649280   1.000000
   62        4.719040   1.000000
   63        4.742177   1.000000
   64        4.768107   1.000000
   65        4.816465   1.000000
   66        4.837091   1.000000
   67        4.923343   1.000000
   68        4.989517   1.000000
   69        5.019630   1.000000
   70        5.093563   1.000000
   71        5.155777   1.000000
   72        5.224218   1.000000
   73        5.345079   1.000000
   74        5.477786   1.000000
   75        5.512178   1.000000
   76        5.547702   1.000000
   77        5.643185   1.000000
   78        5.716347   1.000000
   79        5.744485   1.000000
   80        5.804595   1.000000
   81        5.829777   1.000001
   82        5.852402   1.000003
   83        5.886875   1.000008
   84        5.973912   1.000115
   85        5.996945   1.000213
   86        6.046313   1.000729
   87        6.100396   1.002386
   88        6.208144   1.014747
   89        6.246676   1.023103
   90        6.291896   1.032709
   91        6.387267   1.010741
   92        6.477669   0.837949
   93        6.553381   0.555446
   94        6.728815   0.007070
   95        6.761344  -0.022231
   96        6.854420  -0.030242
   97        6.958087  -0.009139
   98        6.994517  -0.004956
   99        7.071926  -0.001025
  100        7.312805  -0.000001
  101        7.382107  -0.000000
  102        7.507702  -0.000000
  103        7.616129  -0.000000
  104        7.713361  -0.000000
  105        7.844337  -0.000000
  106        7.917423  -0.000000
  107        8.045924  -0.000000
  108        8.099936  -0.000000
  109        8.232439  -0.000000
  110        8.377634  -0.000000
  111        8.447410  -0.000000
  112        8.511907  -0.000000
  113        8.597525  -0.000000
  114        8.661946  -0.000000
  115        8.722053  -0.000000
  116        8.755301  -0.000000
  117        8.810867  -0.000000
  118        8.872159  -0.000000
  119        8.915641  -0.000000
  120        8.937831  -0.000000
 
  0.2000000E+00  0.2000000E+00 -0.4857226E-16  0.1600000E-01
    1      -47.619283   1.000000
    2      -47.592863   1.000000
    3      -47.515267   1.000000
    4      -47.418259   1.000000
    5      -47.222348   1.000000
    6      -24.122049   1.000000
    7      -23.938788   1.000000
    8      -23.879004   1.000000
    9      -23.829510   1.000000
   10      -23.770373   1.000000
   11      -23.763933   1.000000
   12      -23.733798   1.000000
   13      -23.671272   1.000000
   14      -23.639171   1.000000
   15      -23.612754   1.000000
   16      -23.482763   1.000000
   17      -23.425900   1.000000
   18      -23.402644   1.000000
   19      -23.337022   1.000000
   20      -23.005376   1.000000
   21       -0.509659   1.000000
   22        0.747652   1.000000
   23        1.178358   1.000000
   24        1.746680   1.000000
   25        1.954800   1.000000
   26        2.071134   1.000000
   27        2.142725   1.000000
   28        2.204522   1.000000
   29        2.375826   1.000000
   30        2.508747   1.000000
   31        2.553614   1.000000
   32        2.656322   1.000000
   33        2.705041   1.000000
   34        2.753133   1.000000
   35        2.800778   1.000000
   36        2.921071   1.000000
   37        2.953411   1.000000
   38        3.044034   1.000000
   39        3.139843   1.000000
   40        3.184303   1.000000
   41        3.347533   1.000000
   42        3.368438   1.000000
   43        3.448946   1.000000
   44        3.497451   1.000000
   45        3.566931   1.000000
   46        3.682694   1.000000
   47        3.698674   1.000000
   48        3.772889   1.000000
   49        3.868136   1.000000
   50        3.910872   1.000000
   51        3.948244   1.000000
   52        4.079747   1.000000
   53        4.176276   1.000000
   54        4.248423   1.000000
   55        4.311749   1.000000
   56        4.380679   1.000000
   57        4.419178   1.000000
   58        4.454335   1.000000
   59        4.505746   1.000000
   60        4.582145   1.000000
   61        4.650826   1.000000
   62        4.685521   1.000000
   63        4.734598   1.000000
   64        4.779535   1.000000
   65        4.855757   1.000000
   66        4.914271   1.000000
   67        4.935074   1.000000
   68        5.007233   1.000000
   69        5.022090   1.000000
   70        5.113883   1.000000
   71        5.131669   1.000000
   72        5.267919   1.000000
   73        5.347856   1.000000
   74        5.384177   1.000000
   75        5.451939   1.000000
   76        5.495895   1.000000
   77        5.578179   1.000000
   78        5.606610   1.000000
   79        5.692444   1.000000
   80        5.756586   1.000000
   81        5.806733   1.000001
   82        5.834274   1.000001
   83        5.851686   1.000003
   84        5.972171   1.000109
   85        6.044419   1.000697
   86        6.095025   1.002138
   87        6.122742   1.003703
   88        6.196337   1.012553
   89        6.277471   1.030009
   90        6.375605   1.019745
   91        6.426301   0.960248
   92        6.456900   0.895354
   93        6.526980   0.663719
   94        6.605971   0.336602
   95        6.666356   0.130342
   96        6.734269   0.000689
   97        6.800788  -0.034986
   98        6.848391  -0.031424
   99        6.916766  -0.016373
  100        6.967839  -0.007825
  101        7.011722  -0.003603
  102        7.054852  -0.001497
  103        7.187757  -0.000051
  104        7.309946  -0.000001
  105        7.661200  -0.000000
  106        7.747261  -0.000000
  107        7.869930  -0.000000
  108        8.014438  -0.000000
  109        8.169165  -0.000000
  110        8.325509  -0.000000
  111        8.380577  -0.000000
  112        8.455349  -0.000000
  113        8.599171  -0.000000
  114        8.645282  -0.000000
  115        8.726027  -0.000000
  116        8.780880  -0.000000
  117        8.843217  -0.000000
  118        8.896504  -0.000000
  119        8.929243  -0.000000
  120        8.977017  -0.000000
 
  0.4000000E+00  0.2000000E+00 -0.5551115E-16  0.1600000E-01
    1      -47.618161   1.000000
    2      -47.592286   1.000000
    3      -47.502461   1.000000
    4      -47.415835   1.000000
    5      -47.237696   1.000000
    6      -23.959077   1.000000
    7      -23.902897   1.000000
    8      -23.835354   1.000000
    9      -23.788935   1.000000
   10      -23.779163   1.000000
   11      -23.764994   1.000000
   12      -23.741153   1.000000
   13      -23.662662   1.000000
   14      -23.637108   1.000000
   15      -23.621774   1.000000
   16      -23.478422   1.000000
   17      -23.446230   1.000000
   18      -23.420848   1.000000
   19      -23.362107   1.000000
   20      -23.292735   1.000000
   21        0.231632   1.000000
   22        1.195083   1.000000
   23        1.640978   1.000000
   24        1.852435   1.000000
   25        1.968925   1.000000
   26        2.192037   1.000000
   27        2.412755   1.000000
   28        2.666156   1.000000
   29        2.771729   1.000000
   30        2.851507   1.000000
   31        2.934078   1.000000
   32        2.997203   1.000000
   33        3.056091   1.000000
   34        3.128346   1.000000
   35        3.199882   1.000000
   36        3.250380   1.000000
   37        3.290289   1.000000
   38        3.322436   1.000000
   39        3.382428   1.000000
   40        3.414767   1.000000
   41        3.522087   1.000000
   42        3.577411   1.000000
   43        3.630058   1.000000
   44        3.695964   1.000000
   45        3.758984   1.000000
   46        3.826424   1.000000
   47        3.893012   1.000000
   48        3.933904   1.000000
   49        4.004884   1.000000
   50        4.059489   1.000000
   51        4.150211   1.000000
   52        4.204791   1.000000
   53        4.301618   1.000000
   54        4.390639   1.000000
   55        4.408818   1.000000
   56        4.472827   1.000000
   57        4.550896   1.000000
   58        4.617010   1.000000
   59        4.646798   1.000000
   60        4.680794   1.000000
   61        4.713514   1.000000
   62        4.774518   1.000000
   63        4.830393   1.000000
   64        4.869997   1.000000
   65        4.914210   1.000000
   66        4.972438   1.000000
   67        5.011774   1.000000
   68        5.087206   1.000000
   69        5.138341   1.000000
   70        5.213804   1.000000
   71        5.232526   1.000000
   72        5.300677   1.000000
   73        5.359602   1.000000
   74        5.382109   1.000000
   75        5.494046   1.000000
   76        5.521465   1.000000
   77        5.542720   1.000000
   78        5.606362   1.000000
   79        5.634950   1.000000
   80        5.668877   1.000000
   81        5.725749   1.000000
   82        5.760674   1.000000
   83        5.820805   1.000001
   84        5.873302   1.000005
   85        5.917390   1.000022
   86        5.983198   1.000148
   87        6.030585   1.000500
   88        6.068407   1.001208
   89        6.097610   1.002254
   90        6.128220   1.004104
   91        6.167617   1.008138
   92        6.218950   1.016931
   93        6.261656   1.026556
   94        6.293632   1.032990
   95        6.350478   1.031572
   96        6.408008   0.988114
   97        6.489911   0.799287
   98        6.557427   0.538415
   99        6.650088   0.178289
  100        6.717332   0.022651
  101        6.810011  -0.035450
  102        6.896219  -0.020840
  103        7.021941  -0.002956
  104        7.115010  -0.000366
  105        7.341759  -0.000000
  106        7.393400  -0.000000
  107        7.467919  -0.000000
  108        7.594752  -0.000000
  109        7.758876  -0.000000
  110        7.885139  -0.000000
  111        7.955696  -0.000000
  112        7.992410  -0.000000
  113        8.140234  -0.000000
  114        8.168972  -0.000000
  115        8.202761  -0.000000
  116        8.282903  -0.000000
  117        8.401054  -0.000000
  118        8.455172  -0.000000
  119        8.531439  -0.000000
  120        8.589591  -0.000000
 
 -0.4000000E+00  0.2000000E+00 -0.3908332E-16  0.1600000E-01
    1      -47.618156   1.000000
    2      -47.592283   1.000000
    3      -47.502452   1.000000
    4      -47.415825   1.000000
    5      -47.237692   1.000000
    6      -23.959093   1.000000
    7      -23.902993   1.000000
    8      -23.835511   1.000000
    9      -23.789004   1.000000
   10      -23.779162   1.000000
   11      -23.765005   1.000000
   12      -23.741158   1.000000
   13      -23.662935   1.000000
   14      -23.637224   1.000000
   15      -23.621977   1.000000
   16      -23.478538   1.000000
   17      -23.446290   1.000000
   18      -23.420963   1.000000
   19      -23.362123   1.000000
   20      -23.292758   1.000000
   21        0.558312   1.000000
   22        1.214025   1.000000
   23        1.469882   1.000000
   24        1.945523   1.000000
   25        1.980021   1.000000
   26        2.250666   1.000000
   27        2.429651   1.000000
   28        2.571943   1.000000
   29        2.709477   1.000000
   30        2.801105   1.000000
   31        2.874316   1.000000
   32        2.990611   1.000000
   33        3.010106   1.000000
   34        3.085245   1.000000
   35        3.150811   1.000000
   36        3.202992   1.000000
   37        3.250842   1.000000
   38        3.312495   1.000000
   39        3.371093   1.000000
   40        3.452785   1.000000
   41        3.483896   1.000000
   42        3.633357   1.000000
   43        3.698799   1.000000
   44        3.760816   1.000000
   45        3.815070   1.000000
   46        3.887893   1.000000
   47        3.918383   1.000000
   48        4.064224   1.000000
   49        4.125016   1.000000
   50        4.218228   1.000000
   51        4.238252   1.000000
   52        4.272598   1.000000
   53        4.343490   1.000000
   54        4.426556   1.000000
   55        4.469188   1.000000
   56        4.489970   1.000000
   57        4.539833   1.000000
   58        4.591394   1.000000
   59        4.627430   1.000000
   60        4.651297   1.000000
   61        4.702354   1.000000
   62        4.748235   1.000000
   63        4.797225   1.000000
   64        4.852964   1.000000
   65        4.887098   1.000000
   66        4.955454   1.000000
   67        5.006454   1.000000
   68        5.045406   1.000000
   69        5.070814   1.000000
   70        5.145003   1.000000
   71        5.196931   1.000000
   72        5.282553   1.000000
   73        5.304857   1.000000
   74        5.467966   1.000000
   75        5.482913   1.000000
   76        5.544885   1.000000
   77        5.561011   1.000000
   78        5.589081   1.000000
   79        5.629241   1.000000
   80        5.665622   1.000000
   81        5.720351   1.000000
   82        5.792275   1.000000
   83        5.819783   1.000001
   84        5.853041   1.000003
   85        5.885375   1.000008
   86        5.981495   1.000141
   87        6.027927   1.000469
   88        6.095783   1.002171
   89        6.133318   1.004510
   90        6.190312   1.011517
   91        6.237284   1.020947
   92        6.310195   1.034997
   93        6.329078   1.035229
   94        6.404108   0.993064
   95        6.442179   0.929508
   96        6.481363   0.826647
   97        6.515825   0.707041
   98        6.565505   0.504277
   99        6.605972   0.336597
  100        6.695223   0.061406
  101        6.761021  -0.022036
  102        6.796122  -0.034453
  103        6.952608  -0.009943
  104        6.980890  -0.006294
  105        7.052237  -0.001584
  106        7.115875  -0.000358
  107        7.262897  -0.000005
  108        7.441006  -0.000000
  109        7.582242  -0.000000
  110        7.658317  -0.000000
  111        7.796191  -0.000000
  112        7.859675  -0.000000
  113        8.007414  -0.000000
  114        8.085105  -0.000000
  115        8.121144  -0.000000
  116        8.212132  -0.000000
  117        8.245779  -0.000000
  118        8.312768  -0.000000
  119        8.372651  -0.000000
  120        8.402968  -0.000000
 
 -0.2000000E+00  0.2000000E+00  0.1006140E-15  0.1600000E-01
    1      -47.619276   1.000000
    2      -47.592859   1.000000
    3      -47.515253   1.000000
    4      -47.418243   1.000000
    5      -47.222340   1.000000
    6      -24.122097   1.000000
    7      -23.938836   1.000000
    8      -23.879184   1.000000
    9      -23.829751   1.000000
   10      -23.770368   1.000000
   11      -23.763951   1.000000
   12      -23.733801   1.000000
   13      -23.671702   1.000000
   14      -23.639369   1.000000
   15      -23.613047   1.000000
   16      -23.482955   1.000000
   17      -23.426016   1.000000
   18      -23.402815   1.000000
   19      -23.337073   1.000000
   20      -23.005405   1.000000
   21       -0.273454   1.000000
   22        0.833210   1.000000
   23        1.188381   1.000000
   24        1.501655   1.000000
   25        1.843229   1.000000
   26        2.178287   1.000000
   27        2.248974   1.000000
   28        2.410036   1.000000
   29        2.489643   1.000000
   30        2.549015   1.000000
   31        2.584392   1.000000
   32        2.645004   1.000000
   33        2.711988   1.000000
   34        2.798801   1.000000
   35        2.841504   1.000000
   36        2.867331   1.000000
   37        2.913934   1.000000
   38        2.983151   1.000000
   39        3.061903   1.000000
   40        3.158467   1.000000
   41        3.187264   1.000000
   42        3.307497   1.000000
   43        3.468065   1.000000
   44        3.536390   1.000000
   45        3.577097   1.000000
   46        3.664969   1.000000
   47        3.737206   1.000000