SQS with 1 vacancy for VFE and VRV      
           1
    -3.190000   -3.190000   -3.190000
     1.595000    1.595000   -7.975000
     7.975000   -7.975000   -1.595000
   Nb   Mo   Ta   Ti   W 
   5   6   6   6   6
Direct configuration=     1
   0.63333333  0.26666667  0.40000000
   0.50000000  0.00000000  0.00000000
   0.00000000  0.00000000  0.00000000
   0.10000000  0.20000000  0.80000000
   0.03333333  0.06666667  0.60000000
   0.90000000  0.80000000  0.20000000
   0.80000000  0.60000000  0.40000000
   0.73333333  0.46666667  0.20000000
   0.66666667  0.33333333  0.00000000
   0.36666667  0.73333333  0.60000000
   0.13333333  0.26666667  0.40000000
   0.83333333  0.66666667  0.00000000
   0.93333333  0.86666667  0.80000000
   0.56666667  0.13333333  0.20000000
   0.40000000  0.80000000  0.20000000
   0.43333333  0.86666667  0.80000000
   0.30000000  0.60000000  0.40000000
   0.86666667  0.73333333  0.60000000
   0.46666667  0.93333333  0.40000000
   0.16666667  0.33333333  0.00000000
   0.26666667  0.53333333  0.80000000
   0.20000000  0.40000000  0.60000000
   0.06666667  0.13333333  0.20000000
   0.76666667  0.53333333  0.80000000
   0.70000000  0.40000000  0.60000000
   0.60000000  0.20000000  0.80000000
   0.53333333  0.06666667  0.60000000
   0.33333333  0.66666667  0.00000000
   0.23333333  0.46666667  0.20000000
SQS with 1 vacancy for VFE and VRV      
           1
    -3.132225   -3.135306   -3.134823
     1.584901    1.574368   -7.862561
     7.866012   -7.859400   -1.581724
   Nb   Mo   Ta   Ti   W 
   5   6   6   6   6
Direct configuration=     2
   0.63603119  0.26205066  0.40121517
   0.49970385  0.00189389  0.00070133
  -0.00095393  0.00073134  0.00205143
   0.09719484  0.20444982  0.80016881
   0.03539861  0.06562669  0.59537472
   0.90142680  0.79858676  0.20290066
   0.80031958  0.59546530  0.39851055
   0.73266926  0.46677343  0.20011197
   0.66534675  0.33669908 -0.00061714
   0.37176836  0.73001551  0.60022816
   0.13445173  0.27143515  0.39937934
   0.83403910  0.66368020  0.00172699
   0.93040276  0.86882199  0.79887825
   0.56399118  0.13451245  0.19746126
   0.40551285  0.79505343  0.19812109
   0.43672433  0.86170699  0.79668248
   0.29540568  0.60712224  0.40140105
   0.86398268  0.73488502  0.59755931
   0.46675556  0.93187469  0.40325198
   0.16869304  0.33400458  0.00053692
   0.26860763  0.53442928  0.79879858
   0.20091976  0.39631240  0.59797336
   0.06402792  0.13574475  0.20426089
   0.76828558  0.52923774  0.80051675
   0.69604939  0.40584170  0.60127507
   0.59899472  0.20159241  0.79790850
   0.53241882  0.06872879  0.60199535
   0.33344169  0.66198405  0.00145786
   0.23172359  0.46740633  0.20016931
SQS with 1 vacancy for VFE and VRV      
           1
    -3.150749   -3.152841   -3.152514
     1.588139    1.580983   -7.898611
     7.900955   -7.896463   -1.585980
   Nb   Mo   Ta   Ti   W 
   5   6   6   6   6
Direct configuration=     3
   0.63515350  0.26355141  0.40081917
   0.49979921  0.00127869  0.00047365
  -0.00064333  0.00049452  0.00138442
   0.09810747  0.20300367  0.80011470
   0.03472584  0.06596273  0.59687873
   0.90096169  0.79904733  0.20195717
   0.80021835  0.59693840  0.39899394
   0.73288590  0.46673876  0.20007554
   0.66577545  0.33560494 -0.00041580
   0.37010548  0.73109400  0.60015357
   0.13408379  0.26988520  0.39958229
   0.83381044  0.66465153  0.00116478
   0.93135794  0.86812097  0.79924332
   0.56486391  0.13412809  0.19828693
   0.40371708  0.79666035  0.19873137
   0.43562123  0.86331750  0.79776045
   0.29690037  0.60480807  0.40094670
   0.86485794  0.73437962  0.59835317
   0.46672706  0.93235013  0.40219415
   0.16803123  0.33378671  0.00036259
   0.26797365  0.53407264  0.79918964
   0.20062218  0.39750999  0.59863167
   0.06488702  0.13496283  0.20287563
   0.76775978  0.53056903  0.80034792
   0.69733483  0.40394365  0.60086145
   0.59932205  0.20107397  0.79858892
   0.53271571  0.06805946  0.60134687
   0.33340911  0.66350648  0.00098276
   0.23224845  0.46716598  0.20011431
SQS with 1 vacancy for VFE and VRV      
           1
    -3.154770   -3.159485   -3.160378
     1.606067    1.589096   -7.938990
     7.946308   -7.935650   -1.602635
   Nb   Mo   Ta   Ti   W 
   5   6   6   6   6
Direct configuration=     4
   0.63839504  0.25850919  0.40175266
   0.49949089  0.00272562  0.00067909
  -0.00138956  0.00131042  0.00337088
   0.09589119  0.20658392  0.80011842
   0.03646144  0.06478722  0.59198444
   0.90250228  0.79807120  0.20525846
   0.80024731  0.59314559  0.39775260
   0.73244936  0.46613564  0.20045311
   0.66468646  0.33853850 -0.00094288
   0.37475494  0.72806250  0.60015301
   0.13529298  0.27402892  0.39915427
   0.83455235  0.66222191  0.00261715
   0.92908979  0.87000764  0.79811312
   0.56230202  0.13496369  0.19633584
   0.40857975  0.79279652  0.19744780
   0.43793103  0.85904002  0.79512329
   0.29152386  0.61237016  0.40252061
   0.86279350  0.73618240  0.59535011
   0.46714526  0.93082063  0.40523111
   0.17008948  0.33431736  0.00100397
   0.26957725  0.53497919  0.79782857
   0.20107814  0.39454312  0.59655234
   0.06199127  0.13695016  0.20780677
   0.76982377  0.52706808  0.80077121
   0.69365353  0.40915511  0.60172746
   0.59834890  0.20262953  0.79675345
   0.53199094  0.06989496  0.60278543
   0.33325032  0.65918467  0.00186349
   0.23082985  0.46764280  0.20043422
SQS with 1 vacancy for VFE and VRV      
           1
    -3.155950   -3.161435   -3.162686
     1.611329    1.591477   -7.950841
     7.959619   -7.947152   -1.607524
   Nb   Mo   Ta   Ti   W 
   5   6   6   6   6
Direct configuration=     5
   0.63934287  0.25703682  0.40202595
   0.49940115  0.00314793  0.00073882
  -0.00160766  0.00154795  0.00395072
   0.09524327  0.20762914  0.80011897
   0.03696894  0.06444565  0.59055567
   0.90295362  0.79778502  0.20622238
   0.80025416  0.59203889  0.39739086
   0.73232126  0.46595949  0.20056347
   0.66436850  0.33939507 -0.00109723
   0.37611595  0.72717728  0.60015316
   0.13564883  0.27523853  0.39902851
   0.83476892  0.66151215  0.00304157
   0.92842587  0.87055891  0.79778292
   0.56155154  0.13520846  0.19576619
   0.41000277  0.79166877  0.19707352
   0.43860578  0.85779216  0.79435403
   0.28995179  0.61457737  0.40297902
   0.86218903  0.73670981  0.59447314
   0.46726752  0.93037309  0.40611801
   0.17069279  0.33447189  0.00119102
   0.27004729  0.53524417  0.79743097
   0.20121034  0.39367778  0.59594579
   0.06114419  0.13752876  0.20924620
   0.77042716  0.52604586  0.80089533
   0.69257712  0.41067629  0.60197953
   0.59806419  0.20308430  0.79621735
   0.53177948  0.07043031  0.60320513
   0.33320220  0.65792284  0.00212141
   0.23041445  0.46778197  0.20052761
SQS with 1 vacancy for VFE and VRV      
           1
    -3.159005   -3.165722   -3.166740
     1.612445    1.589230   -7.956185
     7.971864   -7.959990   -1.612055
   Nb   Mo   Ta   Ti   W 
   5   6   6   6   6
Direct configuration=     6
   0.63970978  0.25688962  0.40180790
   0.50018242  0.00217452 -0.00051200
  -0.00165369  0.00129547  0.00438057
   0.09582528  0.20626294  0.79965805
   0.03679794  0.06436444  0.58987748
   0.90340375  0.79774218  0.20685189
   0.79932017  0.59241338  0.39753026
   0.73225519  0.46483803  0.20118299
   0.66460167  0.33903516 -0.00117558
   0.37601048  0.72750877  0.60001028
   0.13649737  0.27502658  0.39919479
   0.83427639  0.66274079  0.00273068
   0.92863244  0.87084330  0.79761505
   0.56075205  0.13521761  0.19604461
   0.41048386  0.79232557  0.19737517
   0.43747997  0.85816692  0.79509967
   0.28876714  0.61558595  0.40309542
   0.86267552  0.73735076  0.59342657
   0.46820568  0.93001748  0.40622793
   0.17102217  0.33429943  0.00172690
   0.26968214  0.53497223  0.79711675
   0.20044539  0.39445036  0.59537661
   0.06042930  0.13732275  0.21130525
   0.77132355  0.52702599  0.80084663
   0.69275208  0.40967800  0.60134419
   0.59853552  0.20270116  0.79636184
   0.53148933  0.07028441  0.60299441
   0.33273873  0.65823506  0.00148244
   0.23069170  0.46789780  0.20102327
SQS with 1 vacancy for VFE and VRV      
           1
    -3.162467   -3.170581   -3.171333
     1.613710    1.586685   -7.962240
     7.985739   -7.974539   -1.617190
   Nb   Mo   Ta   Ti   W 
   5   6   6   6   6
Direct configuration=     7
   0.64012519  0.25672292  0.40156120
   0.50106744  0.00107218 -0.00192706
  -0.00170576  0.00100940  0.00486699
   0.09648478  0.20471554  0.79913683
   0.03660456  0.06427259  0.58911019
   0.90391314  0.79769353  0.20756412
   0.79826281  0.59283756  0.39768797
   0.73218081  0.46356764  0.20188420
   0.66486578  0.33862750 -0.00126417
   0.37589097  0.72788427  0.59984854
   0.13745788  0.27478644  0.39938290
   0.83371840  0.66413253  0.00237867
   0.92886614  0.87116545  0.79742504
   0.55984705  0.13522793  0.19635968
   0.41102803  0.79306945  0.19771627
   0.43620536  0.85859128  0.79594332
   0.28742577  0.61672836  0.40322699
   0.86322609  0.73807696  0.59224225
   0.46926770  0.92961464  0.40635229
   0.17139495  0.33410397  0.00233321
   0.26926903  0.53466429  0.79676133
   0.19957931  0.39532559  0.59473249
   0.05961980  0.13708900  0.21363503
   0.77233772  0.52813615  0.80079122
   0.69295072  0.40854737  0.60062558
   0.59906914  0.20226714  0.79652538
   0.53116103  0.07011921  0.60275605
   0.33221413  0.65858886  0.00075946
   0.23100537  0.46802890  0.20158403
SQS with 1 vacancy for VFE and VRV      
           1
    -3.155810   -3.164765   -3.165428
     1.609839    1.579830   -7.943000
     7.972407   -7.961240   -1.616317
   Nb   Mo   Ta   Ti   W 
   5   6   6   6   6
Direct configuration=     8
   0.64029023  0.25677525  0.40150240
   0.50168992  0.00047189 -0.00264493
  -0.00172909  0.00084836  0.00531914
   0.09671392  0.20389494  0.79880419
   0.03647643  0.06413267  0.58861203
   0.90424095  0.79765201  0.20791515
   0.79746273  0.59309120  0.39780889
   0.73198834  0.46312793  0.20228280
   0.66509342  0.33841040 -0.00133299
   0.37588850  0.72810842  0.59985648
   0.13810429  0.27466821  0.39955023
   0.83344109  0.66464576  0.00226755
   0.92872014  0.87150197  0.79708664
   0.55914402  0.13517748  0.19636676
   0.41161632  0.79345073  0.19780924
   0.43558259  0.85876659  0.79627031
   0.28655327  0.61741264  0.40326435
   0.86354145  0.73865761  0.59143000
   0.47029460  0.92930407  0.40644426
   0.17156047  0.33392942  0.00278574
   0.26927757  0.53437460  0.79649563
   0.19894905  0.39591592  0.59423544
   0.05897549  0.13677143  0.21548496
   0.77289184  0.52861540  0.80062657
   0.69306357  0.40793158  0.60021369
   0.59945105  0.20201320  0.79647744
   0.53084626  0.07003453  0.60267854
   0.33213566  0.65873377  0.00048450
   0.23106924  0.46824868  0.20190501
SQS with 1 vacancy for VFE and VRV      
           1
    -3.152602   -3.161962   -3.162583
     1.607973    1.576528   -7.933730
     7.965983   -7.954833   -1.615896
   Nb   Mo   Ta   Ti   W 
   5   6   6   6   6
Direct configuration=     9
   0.64036990  0.25680054  0.40147402
   0.50199058  0.00018196 -0.00299135
  -0.00174035  0.00077053  0.00553737
   0.09682471  0.20349856  0.79864372
   0.03641462  0.06406512  0.58837163
   0.90439920  0.79763191  0.20808456
   0.79707643  0.59321373  0.39786724
   0.73189549  0.46291549  0.20247522
   0.66520336  0.33830553 -0.00136620
   0.37588726  0.72821670  0.59986030
   0.13841636  0.27461108  0.39963098
   0.83330713  0.66489370  0.00221389
   0.92864961  0.87166457  0.79692330
   0.55880463  0.13515312  0.19637021
   0.41190024  0.79363490  0.19785405
   0.43528190  0.85885126  0.79642813
   0.28613194  0.61774321  0.40328234
   0.86369362  0.73893818  0.59103792
   0.47079040  0.92915402  0.40648865
   0.17164038  0.33384505  0.00300416
   0.26928176  0.53423468  0.79636742
   0.19864470  0.39620115  0.59399551
   0.05866442  0.13661785  0.21637782
   0.77315926  0.52884692  0.80054704
   0.69311819  0.40763414  0.60001495
   0.59963547  0.20189053  0.79645431
   0.53069433  0.06999363  0.60264115
   0.33209776  0.65880380  0.00035178
   0.23110002  0.46835481  0.20205990
SQS with 1 vacancy for VFE and VRV      
           1
    -3.153153   -3.162704   -3.163163
     1.607562    1.574801   -7.932396
     7.967214   -7.955840   -1.616892
   Nb   Mo   Ta   Ti   W 
   5   6   6   6   6
Direct configuration=    10
   0.64035349  0.25689755  0.40155960
   0.50219447  0.00015822 -0.00296499
  -0.00170654  0.00078458  0.00588755
   0.09668443  0.20346254  0.79854449
   0.03636410  0.06384116  0.58809628
   0.90452424  0.79770338  0.20812393
   0.79661837  0.59336875  0.39794605
   0.73170879  0.46318775  0.20256386
   0.66537136  0.33825105 -0.00137020
   0.37589793  0.72832817  0.59996866
   0.13866888  0.27457040  0.39978326
   0.83344779  0.66456766  0.00229557
   0.92836379  0.87178842  0.79651615
   0.55847024  0.13499232  0.19619670
   0.41226646  0.79369471  0.19780776
   0.43532280  0.85882157  0.79621362
   0.28570916  0.61814787  0.40321993
   0.86378952  0.73932146  0.59060948
   0.47170796  0.92898200  0.40654186
   0.17157523  0.33368869  0.00323944
   0.26961387  0.53401879  0.79620490
   0.19831840  0.39645662  0.59373171
   0.05825471  0.13614299  0.21758667
   0.77327598  0.52870807  0.80030785
   0.69310697  0.40758150  0.59992417
   0.59970713  0.20190875  0.79626059
   0.53045411  0.06998629  0.60263246
   0.33236039  0.65873277  0.00046125
   0.23090931  0.46857263  0.20211140
SQS with 1 vacancy for VFE and VRV      
           1
    -3.154805   -3.164931   -3.164900
     1.606326    1.569621   -7.928394
     7.970909   -7.958861   -1.619882
   Nb   Mo   Ta   Ti   W 
   5   6   6   6   6
Direct configuration=    11
   0.64030419  0.25718864  0.40181626
   0.50280603  0.00008700 -0.00288589
  -0.00160517  0.00082668  0.00693793
   0.09626373  0.20335447  0.79824685
   0.03621270  0.06316917  0.58727040
   0.90489927  0.79791782  0.20824203
   0.79524438  0.59383389  0.39818240
   0.73114863  0.46400471  0.20282969
   0.66587529  0.33808758 -0.00138219
   0.37592986  0.72866264  0.60029367
   0.13942631  0.27444831  0.40024006
   0.83386987  0.66358926  0.00254065
   0.92750643  0.87216020  0.79529484
   0.55746735  0.13450984  0.19567631
   0.41336487  0.79387420  0.19766886
   0.43544551  0.85873255  0.79557019
   0.28444082  0.61936217  0.40303266
   0.86407691  0.74047175  0.58932424
   0.47446018  0.92846583  0.40670148
   0.17137993  0.33321940  0.00394525
   0.27061011  0.53337101  0.79571744
   0.19733952  0.39722330  0.59294038
   0.05702609  0.13471767  0.22121287
   0.77362617  0.52829147  0.79959039
   0.69307336  0.40742356  0.59965187
   0.59992208  0.20196346  0.79567950
   0.52973360  0.06996425  0.60260640
   0.33314816  0.65851961  0.00078962
   0.23033716  0.46922624  0.20226585
SQS with 1 vacancy for VFE and VRV      
           1
    -3.158592   -3.169490   -3.167702
     1.609409    1.572775   -7.937456
     7.975888   -7.965161   -1.621906
   Nb   Mo   Ta   Ti   W 
   5   6   6   6   6
Direct configuration=    12
   0.63989771  0.25743760  0.40180214
   0.50291365  0.00015873 -0.00277021
  -0.00156764  0.00083373  0.00680896
   0.09613584  0.20366834  0.79839284
   0.03624463  0.06315076  0.58725403
   0.90492590  0.79799387  0.20803000
   0.79540312  0.59396092  0.39807332
   0.73127809  0.46409334  0.20283240
   0.66567735  0.33821794 -0.00129417
   0.37594507  0.72855651  0.60015047
   0.13912016  0.27459129  0.40026214
   0.83433211  0.66334006  0.00242011
   0.92768468  0.87196456  0.79533730
   0.55760029  0.13478304  0.19577674
   0.41316707  0.79374712  0.19770240
   0.43543053  0.85858646  0.79547619
   0.28450873  0.61951918  0.40295970
   0.86390614  0.74045396  0.58931475
   0.47516520  0.92851853  0.40669091
   0.17122698  0.33308974  0.00402595
   0.27078578  0.53335149  0.79576245
   0.19745865  0.39709070  0.59297689
   0.05699358  0.13418225  0.22156337
   0.77354912  0.52791824  0.79951260
   0.69282145  0.40781792  0.59979998
   0.59967073  0.20197638  0.79563807
   0.52964001  0.07015434  0.60253576
   0.33322036  0.65833201  0.00079049
   0.23019803  0.46917765  0.20217442
SQS with 1 vacancy for VFE and VRV      
           1
    -3.158912   -3.169876   -3.167939
     1.609670    1.573042   -7.938223
     7.976309   -7.965694   -1.622077
   Nb   Mo   Ta   Ti   W 
   5   6   6   6   6
Direct configuration=    13
   0.63986335  0.25745864  0.40180094
   0.50292275  0.00016479 -0.00276042
  -0.00156446  0.00083432  0.00679805
   0.09612503  0.20369487  0.79840519
   0.03624734  0.06314921  0.58725264
   0.90492816  0.79800030  0.20801206
   0.79541655  0.59397166  0.39806410
   0.73128904  0.46410083  0.20283262
   0.66566061  0.33822896 -0.00128672
   0.37594635  0.72854754  0.60013835
   0.13909428  0.27460338  0.40026401
   0.83437119  0.66331900  0.00240992
   0.92769974  0.87194802  0.79534089
   0.55761154  0.13480614  0.19578524
   0.41315034  0.79373637  0.19770524
   0.43542926  0.85857411  0.79546823
   0.28451447  0.61953246  0.40295352
   0.86389170  0.74045245  0.58931395
   0.47522481  0.92852300  0.40669001
   0.17121404  0.33307878  0.00403278
   0.27080064  0.53334984  0.79576626
   0.19746871  0.39707950  0.59297998
   0.05699081  0.13413698  0.22159302
   0.77354260  0.52788669  0.79950602
   0.69280016  0.40785126  0.59981251
   0.59964948  0.20197747  0.79563457
   0.52963210  0.07017042  0.60252978
   0.33322646  0.65831615  0.00079057
   0.23018627  0.46917354  0.20216669
SQS with 1 vacancy for VFE and VRV      
           1
    -3.158331   -3.170199   -3.166043
     1.611052    1.574415   -7.936360
     7.970619   -7.961395   -1.622009
   Nb   Mo   Ta   Ti   W 
   5   6   6   6   6
Direct configuration=    14
   0.63937632  0.25785485  0.40182496
   0.50306585  0.00018504 -0.00266019
  -0.00153186  0.00083097  0.00667754
   0.09596956  0.20397041  0.79855133
   0.03625714  0.06316290  0.58724368
   0.90497435  0.79804544  0.20772891
   0.79567115  0.59409607  0.39791835
   0.73140922  0.46420514  0.20282353
   0.66540312  0.33838548 -0.00119155
   0.37597473  0.72842720  0.59999380
   0.13867538  0.27483597  0.40027861
   0.83478983  0.66307413  0.00226741
   0.92788575  0.87173025  0.79540062
   0.55768850  0.13514882  0.19583941
   0.41296075  0.79357660  0.19766557
   0.43547642  0.85837220  0.79537216
   0.28457619  0.61967300  0.40285693
   0.86366507  0.74039260  0.58935545
   0.47613101  0.92859982  0.40668183
   0.17102829  0.33291917  0.00414881
   0.27097058  0.53332619  0.79583195
   0.19758930  0.39695330  0.59302876
   0.05699372  0.13351651  0.22198858
   0.77343761  0.52752806  0.79944056
   0.69252492  0.40828895  0.59997387
   0.59940938  0.20194898  0.79559596
   0.52955530  0.07038438  0.60250792
   0.33335015  0.65810094  0.00078429
   0.23005561  0.46913331  0.20207094
SQS with 1 vacancy for VFE and VRV      
           1
    -3.157163   -3.170846   -3.162236
     1.613828    1.577171   -7.932617
     7.959195   -7.952764   -1.621874
   Nb   Mo   Ta   Ti   W 
   5   6   6   6   6
Direct configuration=    15
   0.63839863  0.25865024  0.40187327
   0.50335317  0.00022574 -0.00245883
  -0.00146635  0.00082424  0.00643543
   0.09565752  0.20452363  0.79884496
   0.03627685  0.06319041  0.58722567
   0.90506727  0.79813611  0.20716001
   0.79618261  0.59434598  0.39762551
   0.73165066  0.46441464  0.20280525
   0.66488614  0.33869968 -0.00100032
   0.37603168  0.72818558  0.59970338
   0.13783440  0.27530284  0.40030798
   0.83563038  0.66258260  0.00198105
   0.92825907  0.87129304  0.79552060
   0.55784333  0.13583693  0.19594826
   0.41257990  0.79325571  0.19758590
   0.43557097  0.85796680  0.79517914
   0.28470030  0.61995522  0.40266285
   0.86320990  0.74027233  0.58943886
   0.47795084  0.92875444  0.40666529
   0.17065509  0.33259859  0.00438196
   0.27131179  0.53327878  0.79596391
   0.19783132  0.39669994  0.59312676
   0.05699881  0.13227060  0.22278330
   0.77322649  0.52680792  0.79930907
   0.69197251  0.40916768  0.60029810
   0.59892723  0.20189168  0.79551843
   0.52940128  0.07081397  0.60246399
   0.33359832  0.65766888  0.00077166
   0.22979322  0.46905248  0.20187857
SQS with 1 vacancy for VFE and VRV      
           1
    -3.158337   -3.172909   -3.161814
     1.616973    1.578519   -7.934424
     7.958675   -7.952114   -1.624024
   Nb   Mo   Ta   Ti   W 
   5   6   6   6   6
Direct configuration=    16
   0.63767862  0.25946172  0.40199592
   0.50346466  0.00007933 -0.00239080
  -0.00137532  0.00082000  0.00632145
   0.09549952  0.20448339  0.79901351
   0.03622654  0.06321776  0.58716932
   0.90509844  0.79820898  0.20680345
   0.79637571  0.59470866  0.39740779
   0.73167943  0.46444001  0.20275178
   0.66467853  0.33863679 -0.00088891
   0.37595057  0.72838670  0.59952013
   0.13731956  0.27548550  0.40038912
   0.83581573  0.66245079  0.00176265
   0.92828135  0.87106618  0.79552502
   0.55779683  0.13613090  0.19599975
   0.41254708  0.79334919  0.19746570
   0.43582035  0.85780786  0.79508167
   0.28471685  0.62014214  0.40248619
   0.86295635  0.74019793  0.58948576
   0.47957257  0.92892303  0.40657760
   0.17039163  0.33221418  0.00462426
   0.27122433  0.53313129  0.79603727
   0.19771022  0.39677864  0.59319235
   0.05718251  0.13126726  0.22345713
   0.77314179  0.52672928  0.79932412
   0.69183233  0.40935398  0.60033744
   0.59880532  0.20171945  0.79559119
   0.52938057  0.07094494  0.60245207
   0.33383363  0.65753006  0.00068025
   0.22972764  0.46900074  0.20182682
SQS with 1 vacancy for VFE and VRV      
           1
    -3.159902   -3.175659   -3.161253
     1.621164    1.580315   -7.936830
     7.957983   -7.951248   -1.626890
   Nb   Mo   Ta   Ti   W 
   5   6   6   6   6
Direct configuration=    17
   0.63672007  0.26054238  0.40215931
   0.50361307 -0.00011567 -0.00230011
  -0.00125406  0.00081441  0.00616956
   0.09528901  0.20442969  0.79923815
   0.03615956  0.06325419  0.58709422
   0.90514006  0.79830617  0.20632826
   0.79663320  0.59519190  0.39711758
   0.73171778  0.46447384  0.20268051
   0.66440193  0.33855292 -0.00074043
   0.37584269  0.72865463  0.59927589
   0.13663389  0.27572863  0.40049727
   0.83606257  0.66227533  0.00147159
   0.92831087  0.87076400  0.79553094
   0.55773507  0.13652245  0.19606834
   0.41250345  0.79347374  0.19730551
   0.43615244  0.85759625  0.79495177
   0.28473903  0.62039118  0.40225074
   0.86261855  0.74009874  0.58954829
   0.48173289  0.92914810  0.40646058
   0.17004039  0.33170196  0.00494726
   0.27110774  0.53293478  0.79613506
   0.19754896  0.39688341  0.59327975
   0.05742643  0.12993062  0.22435526
   0.77302890  0.52662451  0.79934419
   0.69164572  0.40960208  0.60038985
   0.59864280  0.20148997  0.79568820
   0.52935308  0.07111939  0.60243616
   0.33414699  0.65734525  0.00055844
   0.22964025  0.46893183  0.20175787
SQS with 1 vacancy for VFE and VRV      
           1
    -3.157608   -3.173801   -3.158037
     1.622574    1.578661   -7.930610
     7.954227   -7.945542   -1.628315
   Nb   Mo   Ta   Ti   W 
   5   6   6   6   6
Direct configuration=    18
   0.63609026  0.26151235  0.40233278
   0.50365509 -0.00041019 -0.00238428
  -0.00122420  0.00068800  0.00619891
   0.09524406  0.20396656  0.79928393
   0.03610254  0.06325584  0.58697992
   0.90529691  0.79830925  0.20604021
   0.79654028  0.59558835  0.39693908
   0.73156368  0.46441039  0.20258257
   0.66439857  0.33823738 -0.00069875
   0.37579116  0.72908326  0.59915504
   0.13646726  0.27580464  0.40062934
   0.83584304  0.66227064  0.00140356
   0.92823242  0.87076944  0.79535644
   0.55745208  0.13655121  0.19605785
   0.41281430  0.79377633  0.19708871
   0.43611440  0.85761825  0.79493437
   0.28467159  0.62070126  0.40207628
   0.86261302  0.74003469  0.58956766
   0.48368290  0.92933542  0.40633125
   0.16982725  0.33125203  0.00528027
   0.27082070  0.53269023  0.79615075
   0.19708061  0.39724726  0.59332384
   0.05760388  0.12898181  0.22515063
   0.77298647  0.52685799  0.79943409
   0.69163380  0.40944161  0.60029241
   0.59872348  0.20127301  0.79582926
   0.52937727  0.07115201  0.60250297
   0.33425775  0.65732110  0.00040620
   0.22967275  0.46894657  0.20175469
SQS with 1 vacancy for VFE and VRV      
           1
    -3.157155   -3.173435   -3.157402
     1.622852    1.578335   -7.929382
     7.953486   -7.944416   -1.628597
   Nb   Mo   Ta   Ti   W 
   5   6   6   6   6
Direct configuration=    19
   0.63596598  0.26170383  0.40236699
   0.50366337 -0.00046833 -0.00240088
  -0.00121831  0.00066304  0.00620471
   0.09523515  0.20387512  0.79929299
   0.03609128  0.06325617  0.58695736
   0.90532787  0.79830988  0.20598335
   0.79652196  0.59566664  0.39690383
   0.73153325  0.46439786  0.20256324
   0.66439788  0.33817508 -0.00069051
   0.37578101  0.72916789  0.59913116
   0.13643438  0.27581963  0.40065542
   0.83579970  0.66226971  0.00139013
   0.92821693  0.87077052  0.79532199
   0.55739621  0.13655688  0.19605578
   0.41287568  0.79383609  0.19704590
   0.43610689  0.85762260  0.79493094
   0.28465829  0.62076249  0.40204183
   0.86261193  0.74002204  0.58957148
   0.48406792  0.92937246  0.40630570
   0.16978515  0.33116317  0.00534604
   0.27076401  0.53264193  0.79615386
   0.19698816  0.39731908  0.59333254
   0.05763888  0.12879443  0.22530769
   0.77297811  0.52690408  0.79945183
   0.69163143  0.40940994  0.60027318
   0.59873940  0.20123017  0.79585711
   0.52938205  0.07115844  0.60251616
   0.33427962  0.65731634  0.00037615
   0.22967916  0.46894948  0.20175406
SQS with 1 vacancy for VFE and VRV      
           1
    -3.158274   -3.174524   -3.158588
     1.624387    1.577824   -7.932261
     7.960567   -7.949746   -1.630852
   Nb   Mo   Ta   Ti   W 
   5   6   6   6   6
Direct configuration=    20
   0.63566153  0.26236353  0.40246423
   0.50358266 -0.00072381 -0.00258525
  -0.00129351  0.00045449  0.00634909
   0.09528599  0.20329403  0.79921631
   0.03607546  0.06322045  0.58674526
   0.90563575  0.79827731  0.20584681
   0.79621220  0.59597715  0.39686343
   0.73134812  0.46424211  0.20249217
   0.66455423  0.33776390 -0.00070810
   0.37582460  0.72959740  0.59905273
   0.13669444  0.27577719  0.40077919
   0.83547909  0.66230537  0.00147725
   0.92826231  0.87091015  0.79499611
   0.55720151  0.13629947  0.19611219
   0.41321537  0.79419889  0.19692223
   0.43576623  0.85776628  0.79497978
   0.28435383  0.62133331  0.40192041
   0.86289536  0.73999029  0.58954179
   0.48589471  0.92952029  0.40617391
   0.16971863  0.33079922  0.00564299
   0.27047979  0.53237978  0.79612563
   0.19631700  0.39779891  0.59334351
   0.05757884  0.12816054  0.22603200
   0.77295499  0.52713186  0.79951115
   0.69159070  0.40918079  0.60016898
   0.59882328  0.20115074  0.79597035
   0.52939137  0.07116898  0.60256987
   0.33410677  0.65732993  0.00022487
   0.22972208  0.46899811  0.20177112
