  29  29   0   0
  0.1679057E+02  0.5525242E-09  0.8287863E-09  0.1139058E-08  0.5000000E-15
  1.000000000000000E-004
  CAR 
 SQS with 1 vacancy for VFE and VRV      
     12.01161406    -50.41455909  301      6.56840604      1.00000000
    -50.415  0.0000E+00  0.0000E+00
    -50.206  0.0000E+00  0.0000E+00
    -49.998  0.0000E+00  0.0000E+00
    -49.790  0.0000E+00  0.0000E+00
    -49.582  0.0000E+00  0.0000E+00
    -49.374 -0.3961E-35 -0.8242E-36
    -49.166 -0.1909E-27 -0.3973E-28
    -48.958 -0.8897E-21 -0.1851E-21
    -48.750 -0.4576E-15 -0.9523E-16
    -48.542 -0.2648E-10 -0.5510E-11
    -48.334 -0.1682E-06 -0.3502E-07
    -48.126 -0.1112E-03 -0.2317E-04
    -47.918 -0.6416E-02 -0.1358E-02
    -47.709  0.1312E-01  0.1372E-02
    -47.501  0.3178E+00  0.6751E-01
    -47.293  0.3508E+00  0.1405E+00
    -47.085  0.2177E+00  0.1858E+00
    -46.877  0.7600E-01  0.2016E+00
    -46.669 -0.6996E-02  0.2002E+00
    -46.461 -0.7936E-03  0.2000E+00
    -46.253 -0.4662E-05  0.2000E+00
    -46.045 -0.2628E-08  0.2000E+00
    -45.837 -0.1568E-12  0.2000E+00
    -45.629  0.0000E+00  0.2000E+00
    -45.420  0.0000E+00  0.2000E+00
    -45.212  0.0000E+00  0.2000E+00
    -45.004  0.0000E+00  0.2000E+00
    -44.796  0.0000E+00  0.2000E+00
    -44.588  0.0000E+00  0.2000E+00
    -44.380  0.0000E+00  0.2000E+00
    -44.172  0.0000E+00  0.2000E+00
    -43.964  0.0000E+00  0.2000E+00
    -43.756  0.0000E+00  0.2000E+00
    -43.548  0.0000E+00  0.2000E+00
    -43.340  0.0000E+00  0.2000E+00
    -43.132  0.0000E+00  0.2000E+00
    -42.923  0.0000E+00  0.2000E+00
    -42.715  0.0000E+00  0.2000E+00
    -42.507  0.0000E+00  0.2000E+00
    -42.299  0.0000E+00  0.2000E+00
    -42.091  0.0000E+00  0.2000E+00
    -41.883  0.0000E+00  0.2000E+00
    -41.675  0.0000E+00  0.2000E+00
    -41.467  0.0000E+00  0.2000E+00
    -41.259  0.0000E+00  0.2000E+00
    -41.051  0.0000E+00  0.2000E+00
    -40.843  0.0000E+00  0.2000E+00
    -40.634  0.0000E+00  0.2000E+00
    -40.426  0.0000E+00  0.2000E+00
    -40.218  0.0000E+00  0.2000E+00
    -40.010  0.0000E+00  0.2000E+00
    -39.802  0.0000E+00  0.2000E+00
    -39.594  0.0000E+00  0.2000E+00
    -39.386  0.0000E+00  0.2000E+00
    -39.178  0.0000E+00  0.2000E+00
    -38.970  0.0000E+00  0.2000E+00
    -38.762  0.0000E+00  0.2000E+00
    -38.554  0.0000E+00  0.2000E+00
    -38.345  0.0000E+00  0.2000E+00
    -38.137  0.0000E+00  0.2000E+00
    -37.929  0.0000E+00  0.2000E+00
    -37.721  0.0000E+00  0.2000E+00
    -37.513  0.0000E+00  0.2000E+00
    -37.305  0.0000E+00  0.2000E+00
    -37.097  0.0000E+00  0.2000E+00
    -36.889  0.0000E+00  0.2000E+00
    -36.681  0.0000E+00  0.2000E+00
    -36.473  0.0000E+00  0.2000E+00
    -36.265  0.0000E+00  0.2000E+00
    -36.057  0.0000E+00  0.2000E+00
    -35.848  0.0000E+00  0.2000E+00
    -35.640  0.0000E+00  0.2000E+00
    -35.432  0.0000E+00  0.2000E+00
    -35.224  0.0000E+00  0.2000E+00
    -35.016  0.0000E+00  0.2000E+00
    -34.808  0.0000E+00  0.2000E+00
    -34.600  0.0000E+00  0.2000E+00
    -34.392  0.0000E+00  0.2000E+00
    -34.184  0.0000E+00  0.2000E+00
    -33.976  0.0000E+00  0.2000E+00
    -33.768  0.0000E+00  0.2000E+00
    -33.559  0.0000E+00  0.2000E+00
    -33.351  0.0000E+00  0.2000E+00
    -33.143  0.0000E+00  0.2000E+00
    -32.935  0.0000E+00  0.2000E+00
    -32.727  0.0000E+00  0.2000E+00
    -32.519  0.0000E+00  0.2000E+00
    -32.311  0.0000E+00  0.2000E+00
    -32.103  0.0000E+00  0.2000E+00
    -31.895  0.0000E+00  0.2000E+00
    -31.687  0.0000E+00  0.2000E+00
    -31.479  0.0000E+00  0.2000E+00
    -31.271  0.0000E+00  0.2000E+00
    -31.062  0.0000E+00  0.2000E+00
    -30.854  0.0000E+00  0.2000E+00
    -30.646  0.0000E+00  0.2000E+00
    -30.438  0.0000E+00  0.2000E+00
    -30.230  0.0000E+00  0.2000E+00
    -30.022  0.0000E+00  0.2000E+00
    -29.814  0.0000E+00  0.2000E+00
    -29.606  0.0000E+00  0.2000E+00
    -29.398  0.0000E+00  0.2000E+00
    -29.190  0.0000E+00  0.2000E+00
    -28.982  0.0000E+00  0.2000E+00
    -28.773  0.0000E+00  0.2000E+00
    -28.565  0.0000E+00  0.2000E+00
    -28.357  0.0000E+00  0.2000E+00
    -28.149  0.0000E+00  0.2000E+00
    -27.941  0.0000E+00  0.2000E+00
    -27.733  0.0000E+00  0.2000E+00
    -27.525  0.0000E+00  0.2000E+00
    -27.317  0.0000E+00  0.2000E+00
    -27.109  0.0000E+00  0.2000E+00
    -26.901  0.0000E+00  0.2000E+00
    -26.693  0.0000E+00  0.2000E+00
    -26.485  0.0000E+00  0.2000E+00
    -26.276  0.0000E+00  0.2000E+00
    -26.068  0.0000E+00  0.2000E+00
    -25.860 -0.2815E-33  0.2000E+00
    -25.652 -0.5554E-26  0.2000E+00
    -25.444 -0.1235E-19  0.2000E+00
    -25.236 -0.2982E-14  0.2000E+00
    -25.028 -0.8171E-10  0.2000E+00
    -24.820 -0.2463E-06  0.2000E+00
    -24.612 -0.8136E-04  0.2000E+00
    -24.404 -0.2871E-02  0.1994E+00
    -24.196  0.1008E-02  0.1996E+00
    -23.987  0.1374E+00  0.2282E+00
    -23.779  0.5326E+00  0.3390E+00
    -23.571  0.8748E+00  0.5210E+00
    -23.363  0.6253E+00  0.6512E+00
    -23.155  0.5381E+00  0.7631E+00
    -22.947  0.1445E+00  0.7932E+00
    -22.739  0.3532E-01  0.8006E+00
    -22.531 -0.1992E-02  0.8001E+00
    -22.323 -0.6686E-03  0.8000E+00
    -22.115 -0.8285E-05  0.8000E+00
    -21.907 -0.1011E-07  0.8000E+00
    -21.699 -0.1314E-11  0.8000E+00
    -21.490 -0.1707E-16  0.8000E+00
    -21.282  0.0000E+00  0.8000E+00
    -21.074  0.0000E+00  0.8000E+00
    -20.866  0.0000E+00  0.8000E+00
    -20.658  0.0000E+00  0.8000E+00
    -20.450  0.0000E+00  0.8000E+00
    -20.242  0.0000E+00  0.8000E+00
    -20.034  0.0000E+00  0.8000E+00
    -19.826  0.0000E+00  0.8000E+00
    -19.618  0.0000E+00  0.8000E+00
    -19.410  0.0000E+00  0.8000E+00
    -19.201  0.0000E+00  0.8000E+00
    -18.993  0.0000E+00  0.8000E+00
    -18.785  0.0000E+00  0.8000E+00
    -18.577  0.0000E+00  0.8000E+00
    -18.369  0.0000E+00  0.8000E+00
    -18.161  0.0000E+00  0.8000E+00
    -17.953  0.0000E+00  0.8000E+00
    -17.745  0.0000E+00  0.8000E+00
    -17.537  0.0000E+00  0.8000E+00
    -17.329  0.0000E+00  0.8000E+00
    -17.121  0.0000E+00  0.8000E+00
    -16.913  0.0000E+00  0.8000E+00
    -16.704  0.0000E+00  0.8000E+00
    -16.496  0.0000E+00  0.8000E+00
    -16.288  0.0000E+00  0.8000E+00
    -16.080  0.0000E+00  0.8000E+00
    -15.872  0.0000E+00  0.8000E+00
    -15.664  0.0000E+00  0.8000E+00
    -15.456  0.0000E+00  0.8000E+00
    -15.248  0.0000E+00  0.8000E+00
    -15.040  0.0000E+00  0.8000E+00
    -14.832  0.0000E+00  0.8000E+00
    -14.624  0.0000E+00  0.8000E+00
    -14.415  0.0000E+00  0.8000E+00
    -14.207  0.0000E+00  0.8000E+00
    -13.999  0.0000E+00  0.8000E+00
    -13.791  0.0000E+00  0.8000E+00
    -13.583  0.0000E+00  0.8000E+00
    -13.375  0.0000E+00  0.8000E+00
    -13.167  0.0000E+00  0.8000E+00
    -12.959  0.0000E+00  0.8000E+00
    -12.751  0.0000E+00  0.8000E+00
    -12.543  0.0000E+00  0.8000E+00
    -12.335  0.0000E+00  0.8000E+00
    -12.127  0.0000E+00  0.8000E+00
    -11.918  0.0000E+00  0.8000E+00
    -11.710  0.0000E+00  0.8000E+00
    -11.502  0.0000E+00  0.8000E+00
    -11.294  0.0000E+00  0.8000E+00
    -11.086  0.0000E+00  0.8000E+00
    -10.878  0.0000E+00  0.8000E+00
    -10.670  0.0000E+00  0.8000E+00
    -10.462  0.0000E+00  0.8000E+00
    -10.254  0.0000E+00  0.8000E+00
    -10.046  0.0000E+00  0.8000E+00
     -9.838  0.0000E+00  0.8000E+00
     -9.629  0.0000E+00  0.8000E+00
     -9.421  0.0000E+00  0.8000E+00
     -9.213  0.0000E+00  0.8000E+00
     -9.005  0.0000E+00  0.8000E+00
     -8.797  0.0000E+00  0.8000E+00
     -8.589  0.0000E+00  0.8000E+00
     -8.381  0.0000E+00  0.8000E+00
     -8.173  0.0000E+00  0.8000E+00
     -7.965  0.0000E+00  0.8000E+00
     -7.757  0.0000E+00  0.8000E+00
     -7.549  0.0000E+00  0.8000E+00
     -7.340  0.0000E+00  0.8000E+00
     -7.132  0.0000E+00  0.8000E+00
     -6.924  0.0000E+00  0.8000E+00
     -6.716  0.0000E+00  0.8000E+00
     -6.508  0.0000E+00  0.8000E+00
     -6.300  0.0000E+00  0.8000E+00
     -6.092  0.0000E+00  0.8000E+00
     -5.884  0.0000E+00  0.8000E+00
     -5.676  0.0000E+00  0.8000E+00
     -5.468  0.0000E+00  0.8000E+00
     -5.260  0.0000E+00  0.8000E+00
     -5.052  0.0000E+00  0.8000E+00
     -4.843  0.0000E+00  0.8000E+00
     -4.635  0.0000E+00  0.8000E+00
     -4.427  0.0000E+00  0.8000E+00
     -4.219  0.0000E+00  0.8000E+00
     -4.011  0.0000E+00  0.8000E+00
     -3.803  0.0000E+00  0.8000E+00
     -3.595  0.0000E+00  0.8000E+00
     -3.387  0.0000E+00  0.8000E+00
     -3.179  0.0000E+00  0.8000E+00
     -2.971  0.0000E+00  0.8000E+00
     -2.763  0.0000E+00  0.8000E+00
     -2.554 -0.1373E-35  0.8000E+00
     -2.346 -0.3527E-28  0.8000E+00
     -2.138 -0.1022E-21  0.8000E+00
     -1.930 -0.3247E-16  0.8000E+00
     -1.722 -0.1188E-11  0.8000E+00
     -1.514 -0.4883E-08  0.8000E+00
     -1.306 -0.2233E-05  0.8000E+00
     -1.098 -0.1053E-03  0.8000E+00
     -0.890 -0.4978E-04  0.8000E+00
     -0.682  0.5433E-02  0.8011E+00
     -0.474  0.1852E-01  0.8050E+00
     -0.266  0.3229E-01  0.8117E+00
     -0.057  0.3740E-01  0.8195E+00
      0.151  0.2922E-01  0.8255E+00
      0.359  0.4781E-01  0.8355E+00
      0.567  0.6379E-01  0.8488E+00
      0.775  0.6146E-01  0.8615E+00
      0.983  0.5946E-01  0.8739E+00
      1.191  0.8299E-01  0.8912E+00
      1.399  0.7973E-01  0.9078E+00
      1.607  0.8828E-01  0.9261E+00
      1.815  0.1304E+00  0.9533E+00
      2.023  0.1826E+00  0.9913E+00
      2.232  0.2593E+00  0.1045E+01
      2.440  0.3726E+00  0.1123E+01
      2.648  0.4127E+00  0.1209E+01
      2.856  0.5028E+00  0.1313E+01
      3.064  0.5512E+00  0.1428E+01
      3.272  0.5663E+00  0.1546E+01
      3.480  0.6101E+00  0.1673E+01
      3.688  0.6300E+00  0.1804E+01
      3.896  0.5981E+00  0.1928E+01
      4.104  0.5060E+00  0.2034E+01
      4.312  0.4630E+00  0.2130E+01
      4.520  0.6480E+00  0.2265E+01
      4.729  0.7986E+00  0.2431E+01
      4.937  0.7963E+00  0.2597E+01
      5.145  0.7510E+00  0.2753E+01
      5.353  0.7348E+00  0.2906E+01
      5.561  0.7311E+00  0.3058E+01
      5.769  0.7468E+00  0.3213E+01
      5.977  0.7691E+00  0.3373E+01
      6.185  0.7946E+00  0.3539E+01
      6.393  0.7688E+00  0.3699E+01
      6.601  0.6830E+00  0.3841E+01
      6.809  0.5443E+00  0.3954E+01
      7.018  0.3967E+00  0.4037E+01
      7.226  0.3305E+00  0.4105E+01
      7.434  0.3203E+00  0.4172E+01
      7.642  0.3408E+00  0.4243E+01
      7.850  0.3704E+00  0.4320E+01
      8.058  0.4005E+00  0.4403E+01
      8.266  0.4549E+00  0.4498E+01
      8.474  0.5216E+00  0.4607E+01
      8.682  0.4661E+00  0.4704E+01
      8.890  0.3124E+00  0.4769E+01
      9.098  0.1414E+00  0.4798E+01
      9.306  0.1213E-01  0.4801E+01
      9.515 -0.2800E-02  0.4800E+01
      9.723 -0.1921E-03  0.4800E+01
      9.931 -0.1799E-05  0.4800E+01
     10.139 -0.2262E-08  0.4800E+01
     10.347 -0.3424E-12  0.4800E+01
     10.555 -0.6146E-17  0.4800E+01
     10.763  0.0000E+00  0.4800E+01
     10.971  0.0000E+00  0.4800E+01
     11.179  0.0000E+00  0.4800E+01
     11.387  0.0000E+00  0.4800E+01
     11.595  0.0000E+00  0.4800E+01
     11.804  0.0000E+00  0.4800E+01
     12.012  0.0000E+00  0.4800E+01
