   29   29   50    1
  0.1679057E+02  0.5525242E-09  0.8287863E-09  0.1139058E-08  0.5000000E-15
  1.000000000000000E-004
  CAR 
 SQS with 1 vacancy for VFE and VRV      
    191     63    120
 
  0.0000000E+00  0.0000000E+00  0.0000000E+00  0.8000000E-02
    1      -47.577006   1.000000
    2      -47.561729   1.000000
    3      -47.427561   1.000000
    4      -47.296691   1.000000
    5      -47.101176   1.000000
    6      -24.129494   1.000000
    7      -23.963431   1.000000
    8      -23.827993   1.000000
    9      -23.735492   1.000000
   10      -23.727058   1.000000
   11      -23.717165   1.000000
   12      -23.691105   1.000000
   13      -23.596035   1.000000
   14      -23.554530   1.000000
   15      -23.477429   1.000000
   16      -23.375176   1.000000
   17      -23.316961   1.000000
   18      -23.304539   1.000000
   19      -23.182454   1.000000
   20      -22.894434   1.000000
   21       -0.799439   1.000000
   22        0.644495   1.000000
   23        0.872926   1.000000
   24        1.762088   1.000000
   25        1.905117   1.000000
   26        1.914121   1.000000
   27        2.019180   1.000000
   28        2.200428   1.000000
   29        2.296657   1.000000
   30        2.336648   1.000000
   31        2.417848   1.000000
   32        2.472272   1.000000
   33        2.563052   1.000000
   34        2.653291   1.000000
   35        2.743342   1.000000
   36        2.790858   1.000000
   37        2.909825   1.000000
   38        3.012534   1.000000
   39        3.112090   1.000000
   40        3.159210   1.000000
   41        3.255703   1.000000
   42        3.313279   1.000000
   43        3.357079   1.000000
   44        3.416546   1.000000
   45        3.458725   1.000000
   46        3.511941   1.000000
   47        3.564114   1.000000
   48        3.701363   1.000000
   49        3.725160   1.000000
   50        3.788053   1.000000
   51        3.876574   1.000000
   52        3.946012   1.000000
   53        4.087598   1.000000
   54        4.168264   1.000000
   55        4.303409   1.000000
   56        4.382312   1.000000
   57        4.402913   1.000000
   58        4.459432   1.000000
   59        4.549170   1.000000
   60        4.586435   1.000000
   61        4.631505   1.000000
   62        4.655803   1.000000
   63        4.718796   1.000000
   64        4.772050   1.000000
   65        4.818388   1.000000
   66        4.852506   1.000000
   67        4.894083   1.000000
   68        4.934330   1.000000
   69        5.016222   1.000000
   70        5.112875   1.000000
   71        5.162114   1.000000
   72        5.245995   1.000000
   73        5.273739   1.000000
   74        5.430888   1.000000
   75        5.471409   1.000000
   76        5.523300   1.000000
   77        5.688914   1.000000
   78        5.750153   1.000000
   79        5.802130   1.000000
   80        5.831285   1.000001
   81        5.891944   1.000009
   82        5.973171   1.000107
   83        5.983176   1.000140
   84        6.044135   1.000662
   85        6.060523   1.000969
   86        6.152573   1.006139
   87        6.165334   1.007605
   88        6.382768   1.015981
   89        6.462383   0.886187
   90        6.499628   0.772823
   91        6.516013   0.713485
   92        6.577821   0.460209
   93        6.616383   0.303326
   94        6.681205   0.096798
   95        6.812562  -0.035455
   96        6.874314  -0.026317
   97        6.940615  -0.012198
   98        6.976811  -0.006963
   99        7.045035  -0.001921
  100        7.399047  -0.000000
  101        7.461101  -0.000000
  102        7.514887  -0.000000
  103        7.629516  -0.000000
  104        7.786192  -0.000000
  105        7.821725  -0.000000
  106        8.009999  -0.000000
  107        8.280978  -0.000000
  108        8.352782  -0.000000
  109        8.367786  -0.000000
  110        8.499836  -0.000000
  111        8.551542  -0.000000
  112        8.674920  -0.000000
  113        8.770939  -0.000000
  114        8.831859  -0.000000
  115        8.841731  -0.000000
  116        8.877321  -0.000000
  117        8.926027  -0.000000
  118        8.978291  -0.000000
  119        9.036115  -0.000000
  120        9.087783  -0.000000
 
  0.2000000E+00 -0.1387779E-16  0.0000000E+00  0.1600000E-01
    1      -47.576560   1.000000
    2      -47.557949   1.000000
    3      -47.426960   1.000000
    4      -47.296806   1.000000
    5      -47.105403   1.000000
    6      -24.030015   1.000000
    7      -23.961681   1.000000
    8      -23.827021   1.000000
    9      -23.737347   1.000000
   10      -23.723223   1.000000
   11      -23.722643   1.000000
   12      -23.686559   1.000000
   13      -23.599085   1.000000
   14      -23.556896   1.000000
   15      -23.480052   1.000000
   16      -23.376164   1.000000
   17      -23.321827   1.000000
   18      -23.309500   1.000000
   19      -23.189360   1.000000
   20      -23.008355   1.000000
   21       -0.490646   1.000000
   22        0.888284   1.000000
   23        1.145551   1.000000
   24        1.868678   1.000000
   25        2.018102   1.000000
   26        2.139806   1.000000
   27        2.232051   1.000000
   28        2.385608   1.000000
   29        2.417153   1.000000
   30        2.466122   1.000000
   31        2.556401   1.000000
   32        2.669625   1.000000
   33        2.742987   1.000000
   34        2.880259   1.000000
   35        2.906873   1.000000
   36        2.950670   1.000000
   37        3.013781   1.000000
   38        3.082959   1.000000
   39        3.206875   1.000000
   40        3.245915   1.000000
   41        3.291687   1.000000
   42        3.397638   1.000000
   43        3.496427   1.000000
   44        3.535800   1.000000
   45        3.607203   1.000000
   46        3.656530   1.000000
   47        3.698057   1.000000
   48        3.740231   1.000000
   49        3.845558   1.000000
   50        3.934127   1.000000
   51        4.001070   1.000000
   52        4.035950   1.000000
   53        4.117233   1.000000
   54        4.239303   1.000000
   55        4.323261   1.000000
   56        4.397993   1.000000
   57        4.499814   1.000000
   58        4.531611   1.000000
   59        4.619656   1.000000
   60        4.656492   1.000000
   61        4.676638   1.000000
   62        4.744165   1.000000
   63        4.845195   1.000000
   64        4.850428   1.000000
   65        4.905300   1.000000
   66        4.956375   1.000000
   67        4.987644   1.000000
   68        5.047495   1.000000
   69        5.074350   1.000000
   70        5.171629   1.000000
   71        5.220938   1.000000
   72        5.260790   1.000000
   73        5.308803   1.000000
   74        5.385300   1.000000
   75        5.416968   1.000000
   76        5.506850   1.000000
   77        5.519472   1.000000
   78        5.562607   1.000000
   79        5.708185   1.000000
   80        5.756175   1.000000
   81        5.805954   1.000000
   82        5.861566   1.000003
   83        5.970765   1.000100
   84        6.001534   1.000229
   85        6.043736   1.000656
   86        6.132899   1.004322
   87        6.160882   1.007066
   88        6.262114   1.026229
   89        6.267983   1.027557
   90        6.328099   1.035372
   91        6.368610   1.025021
   92        6.442329   0.933183
   93        6.491539   0.800147
   94        6.573073   0.480259
   95        6.646341   0.196349
   96        6.700815   0.054083
   97        6.730764   0.006997
   98        6.805117  -0.035181
   99        6.893215  -0.021958
  100        6.922299  -0.015632
  101        7.129575  -0.000265
  102        7.218259  -0.000022
  103        7.316326  -0.000001
  104        7.478584  -0.000000
  105        7.568271  -0.000000
  106        7.679870  -0.000000
  107        7.804333  -0.000000
  108        7.856828  -0.000000
  109        7.927266  -0.000000
  110        8.025546  -0.000000
  111        8.109732  -0.000000
  112        8.149056  -0.000000
  113        8.290204  -0.000000
  114        8.385470  -0.000000
  115        8.426087  -0.000000
  116        8.488468  -0.000000
  117        8.588413  -0.000000
  118        8.733391  -0.000000
  119        8.818674  -0.000000
  120        8.886067  -0.000000
 
  0.4000000E+00 -0.2775558E-16  0.0000000E+00  0.1600000E-01
    1      -47.575840   1.000000
    2      -47.551679   1.000000
    3      -47.425985   1.000000
    4      -47.296996   1.000000
    5      -47.112396   1.000000
    6      -23.959268   1.000000
    7      -23.825120   1.000000
    8      -23.790475   1.000000
    9      -23.742502   1.000000
   10      -23.730167   1.000000
   11      -23.714928   1.000000
   12      -23.678716   1.000000
   13      -23.604860   1.000000
   14      -23.559910   1.000000
   15      -23.484244   1.000000
   16      -23.377730   1.000000
   17      -23.330099   1.000000
   18      -23.318141   1.000000
   19      -23.271667   1.000000
   20      -23.200680   1.000000
   21        0.304343   1.000000
   22        1.244985   1.000000
   23        1.760328   1.000000
   24        1.939105   1.000000
   25        2.154878   1.000000
   26        2.349454   1.000000
   27        2.396226   1.000000
   28        2.577163   1.000000
   29        2.705901   1.000000
   30        2.819466   1.000000
   31        2.897364   1.000000
   32        2.964403   1.000000
   33        2.980138   1.000000
   34        3.081944   1.000000
   35        3.183118   1.000000
   36        3.200533   1.000000
   37        3.268993   1.000000
   38        3.321824   1.000000
   39        3.393210   1.000000
   40        3.438359   1.000000
   41        3.521512   1.000000
   42        3.610955   1.000000
   43        3.701041   1.000000
   44        3.762806   1.000000
   45        3.804676   1.000000
   46        3.873348   1.000000
   47        3.969821   1.000000
   48        4.051105   1.000000
   49        4.077388   1.000000
   50        4.150770   1.000000
   51        4.210482   1.000000
   52        4.296298   1.000000
   53        4.366176   1.000000
   54        4.390361   1.000000
   55        4.437424   1.000000
   56        4.515338   1.000000
   57        4.562652   1.000000
   58        4.576163   1.000000
   59        4.615743   1.000000
   60        4.662913   1.000000
   61        4.704174   1.000000
   62        4.787303   1.000000
   63        4.855902   1.000000
   64        4.901373   1.000000
   65        4.919987   1.000000
   66        5.020958   1.000000
   67        5.036873   1.000000
   68        5.101340   1.000000
   69        5.132348   1.000000
   70        5.167154   1.000000
   71        5.233032   1.000000
   72        5.326876   1.000000
   73        5.350931   1.000000
   74        5.370222   1.000000
   75        5.444365   1.000000
   76        5.481822   1.000000
   77        5.510705   1.000000
   78        5.604641   1.000000
   79        5.662479   1.000000
   80        5.701120   1.000000
   81        5.757465   1.000000
   82        5.804035   1.000000
   83        5.847913   1.000002
   84        5.914195   1.000019
   85        5.939826   1.000041
   86        5.967556   1.000091
   87        6.008619   1.000275
   88        6.043668   1.000655
   89        6.132462   1.004288
   90        6.164559   1.007509
   91        6.174708   1.008840
   92        6.213869   1.015503
   93        6.269229   1.027835
   94        6.329432   1.035315
   95        6.393720   1.006523
   96        6.481675   0.831516
   97        6.511436   0.730559
   98        6.601321   0.362794
   99        6.683843   0.090488
  100        6.696337   0.062984
  101        6.736897  -0.000126
  102        6.820097  -0.035291
  103        6.891897  -0.022260
  104        6.951771  -0.010362
  105        7.073632  -0.001030
  106        7.219670  -0.000021
  107        7.401750  -0.000000
  108        7.466229  -0.000000
  109        7.526909  -0.000000
  110        7.573841  -0.000000
  111        7.673699  -0.000000
  112        7.744142  -0.000000
  113        7.892888  -0.000000
  114        8.033081  -0.000000
  115        8.151331  -0.000000
  116        8.220529  -0.000000
  117        8.295022  -0.000000
  118        8.374092  -0.000000
  119        8.449066  -0.000000
  120        8.521872  -0.000000
 
  0.0000000E+00  0.2000000E+00  0.1387779E-16  0.1600000E-01
    1      -47.576994   1.000000
    2      -47.561724   1.000000
    3      -47.427280   1.000000
    4      -47.296989   1.000000
    5      -47.101172   1.000000
    6      -24.129513   1.000000
    7      -23.959615   1.000000
    8      -23.826082   1.000000
    9      -23.735437   1.000000
   10      -23.727187   1.000000
   11      -23.717171   1.000000
   12      -23.691174   1.000000
   13      -23.596212   1.000000
   14      -23.554526   1.000000
   15      -23.477189   1.000000
   16      -23.375294   1.000000
   17      -23.316971   1.000000
   18      -23.304662   1.000000
   19      -23.189082   1.000000
   20      -22.894442   1.000000
   21       -0.662187   1.000000
   22        0.684231   1.000000
   23        0.970248   1.000000
   24        1.392467   1.000000
   25        1.746438   1.000000
   26        2.000821   1.000000
   27        2.119120   1.000000
   28        2.210676   1.000000
   29        2.309848   1.000000
   30        2.367712   1.000000
   31        2.432892   1.000000
   32        2.492913   1.000000
   33        2.601091   1.000000
   34        2.666830   1.000000
   35        2.695196   1.000000
   36        2.749626   1.000000
   37        2.885308   1.000000
   38        2.934310   1.000000
   39        3.041501   1.000000
   40        3.105699   1.000000
   41        3.279568   1.000000
   42        3.344780   1.000000
   43        3.419587   1.000000
   44        3.436616   1.000000
   45        3.541284   1.000000
   46        3.585816   1.000000
   47        3.631965   1.000000
   48        3.658405   1.000000
   49        3.719453   1.000000
   50        3.791947   1.000000
   51        3.866087   1.000000
   52        3.974623   1.000000
   53        4.064201   1.000000
   54        4.245117   1.000000
   55        4.293266   1.000000
   56        4.373484   1.000000
   57        4.465586   1.000000
   58        4.548837   1.000000
   59        4.579359   1.000000
   60        4.618159   1.000000
   61        4.686272   1.000000
   62        4.721687   1.000000
   63        4.768061   1.000000
   64        4.815123   1.000000
   65        4.870231   1.000000
   66        4.919341   1.000000
   67        4.947448   1.000000
   68        5.024827   1.000000
   69        5.085807   1.000000
   70        5.143869   1.000000
   71        5.179478   1.000000
   72        5.249823   1.000000
   73        5.302848   1.000000
   74        5.426770   1.000000
   75        5.492095   1.000000
   76        5.579936   1.000000
   77        5.635259   1.000000
   78        5.718109   1.000000
   79        5.730834   1.000000
   80        5.816282   1.000001
   81        5.856509   1.000003
   82        5.888139   1.000008
   83        5.966789   1.000089
   84        6.012825   1.000306
   85        6.036888   1.000557
   86        6.074022   1.001312
   87        6.146429   1.005516
   88        6.203868   1.013575
   89        6.312536   1.035032
   90        6.369986   1.024288
   91        6.424708   0.966164
   92        6.497690   0.779496
   93        6.577300   0.462406
   94        6.650982   0.181428
   95        6.710915   0.035823
   96        6.905170  -0.019258
   97        7.020185  -0.003175
   98        7.144245  -0.000181
   99        7.219310  -0.000021
  100        7.369940  -0.000000
  101        7.482824  -0.000000
  102        7.517113  -0.000000
  103        7.589325  -0.000000
  104        7.677586  -0.000000
  105        7.812032  -0.000000
  106        7.849210  -0.000000
  107        7.950356  -0.000000
  108        8.059987  -0.000000
  109        8.110237  -0.000000
  110        8.373192  -0.000000
  111        8.463622  -0.000000
  112        8.493313  -0.000000
  113        8.584123  -0.000000
  114        8.601385  -0.000000
  115        8.696232  -0.000000
  116        8.752995  -0.000000
  117        8.787266  -0.000000
  118        8.850654  -0.000000
  119        8.906273  -0.000000
  120        8.972377  -0.000000
 
  0.2000000E+00  0.2000000E+00 -0.4857226E-16  0.1600000E-01
    1      -47.576571   1.000000
    2      -47.557954   1.000000
    3      -47.427231   1.000000
    4      -47.296519   1.000000
    5      -47.105407   1.000000
    6      -24.029993   1.000000
    7      -23.965329   1.000000
    8      -23.828946   1.000000
    9      -23.737374   1.000000
   10      -23.723195   1.000000
   11      -23.722560   1.000000
   12      -23.686500   1.000000
   13      -23.599109   1.000000
   14      -23.556976   1.000000
   15      -23.480007   1.000000
   16      -23.375985   1.000000
   17      -23.321819   1.000000
   18      -23.309377   1.000000
   19      -23.182987   1.000000
   20      -23.008334   1.000000
   21       -0.480498   1.000000
   22        0.837098   1.000000
   23        1.170045   1.000000
   24        1.758630   1.000000
   25        1.970913   1.000000
   26        2.156150   1.000000
   27        2.179968   1.000000
   28        2.274210   1.000000
   29        2.411832   1.000000
   30        2.487923   1.000000
   31        2.595179   1.000000
   32        2.658896   1.000000
   33        2.716895   1.000000
   34        2.778840   1.000000
   35        2.899128   1.000000
   36        2.925043   1.000000
   37        3.000946   1.000000
   38        3.072726   1.000000
   39        3.210213   1.000000
   40        3.258853   1.000000
   41        3.340058   1.000000
   42        3.438149   1.000000
   43        3.499199   1.000000
   44        3.565478   1.000000
   45        3.616163   1.000000
   46        3.644714   1.000000
   47        3.718963   1.000000
   48        3.749466   1.000000
   49        3.823556   1.000000
   50        3.930861   1.000000
   51        3.950951   1.000000
   52        4.072572   1.000000
   53        4.112037   1.000000
   54        4.261187   1.000000
   55        4.360380   1.000000
   56        4.422438   1.000000
   57        4.459064   1.000000
   58        4.548173   1.000000
   59        4.605407   1.000000
   60        4.638292   1.000000
   61        4.683929   1.000000
   62        4.752637   1.000000
   63        4.790241   1.000000
   64        4.821664   1.000000
   65        4.865081   1.000000
   66        4.930521   1.000000
   67        4.950583   1.000000
   68        4.979517   1.000000
   69        5.059373   1.000000
   70        5.106777   1.000000
   71        5.196368   1.000000
   72        5.230936   1.000000
   73        5.257297   1.000000
   74        5.362769   1.000000
   75        5.470116   1.000000
   76        5.496726   1.000000
   77        5.530320   1.000000
   78        5.628571   1.000000
   79        5.706860   1.000000
   80        5.754598   1.000000
   81        5.809787   1.000001
   82        5.864312   1.000004
   83        5.951415   1.000058
   84        6.000496   1.000223
   85        6.071886   1.001251
   86        6.089375   1.001826
   87        6.165099   1.007576
   88        6.234260   1.019840
   89        6.276503   1.029413
   90        6.389649   1.010306
   91        6.452676   0.910205
   92        6.500245   0.770682
   93        6.526012   0.674993
   94        6.581657   0.444065
   95        6.653310   0.174125
   96        6.693564   0.068748
   97        6.812407  -0.035454
   98        6.886337  -0.023545
   99        6.948770  -0.010836
  100        6.984545  -0.006107
  101        7.078672  -0.000918
  102        7.175165  -0.000077
  103        7.294447  -0.000002
  104        7.393047  -0.000000
  105        7.621574  -0.000000
  106        7.642535  -0.000000
  107        7.776475  -0.000000
  108        7.863611  -0.000000
  109        8.211405  -0.000000
  110        8.296277  -0.000000
  111        8.377198  -0.000000
  112        8.494323  -0.000000
  113        8.591893  -0.000000
  114        8.676168  -0.000000
  115        8.729928  -0.000000
  116        8.796951  -0.000000
  117        8.857415  -0.000000
  118        8.923205  -0.000000
  119        8.942952  -0.000000
  120        9.012224  -0.000000
 
  0.4000000E+00  0.2000000E+00 -0.5551115E-16  0.1600000E-01
    1      -47.575857   1.000000
    2      -47.551687   1.000000
    3      -47.426429   1.000000
    4      -47.296524   1.000000
    5      -47.112401   1.000000
    6      -23.964991   1.000000
    7      -23.828607   1.000000
    8      -23.790445   1.000000
    9      -23.742602   1.000000
   10      -23.730202   1.000000
   11      -23.714716   1.000000
   12      -23.678620   1.000000
   13      -23.604837   1.000000
   14      -23.560013   1.000000
   15      -23.484256   1.000000
   16      -23.377416   1.000000
   17      -23.330085   1.000000
   18      -23.317936   1.000000
   19      -23.271647   1.000000
   20      -23.190107   1.000000
   21        0.230460   1.000000
   22        1.217104   1.000000
   23        1.643785   1.000000
   24        1.863089   1.000000
   25        1.989694   1.000000
   26        2.149820   1.000000
   27        2.430255   1.000000
   28        2.710493   1.000000
   29        2.774758   1.000000
   30        2.839656   1.000000
   31        2.946529   1.000000
   32        3.027226   1.000000
   33        3.082595   1.000000
   34        3.120460   1.000000
   35        3.197213   1.000000
   36        3.274204   1.000000
   37        3.309606   1.000000
   38        3.356011   1.000000
   39        3.395008   1.000000
   40        3.417232   1.000000
   41        3.473638   1.000000
   42        3.575687   1.000000
   43        3.628514   1.000000
   44        3.739556   1.000000
   45        3.757643   1.000000
   46        3.832274   1.000000
   47        3.915775   1.000000
   48        3.927933   1.000000
   49        3.997403   1.000000
   50        4.073041   1.000000
   51        4.160254   1.000000
   52        4.214102   1.000000
   53        4.297538   1.000000
   54        4.361428   1.000000
   55        4.424674   1.000000
   56        4.476961   1.000000
   57        4.551317   1.000000
   58        4.597807   1.000000
   59        4.627130   1.000000
   60        4.655251   1.000000
   61        4.729938   1.000000
   62        4.796825   1.000000
   63        4.817608   1.000000
   64        4.913199   1.000000
   65        4.943773   1.000000
   66        4.989626   1.000000
   67        5.020559   1.000000
   68        5.125246   1.000000
   69        5.181339   1.000000
   70        5.227905   1.000000
   71        5.264963   1.000000
   72        5.280177   1.000000
   73        5.337510   1.000000
   74        5.371372   1.000000
   75        5.470201   1.000000
   76        5.489453   1.000000
   77        5.548414   1.000000
   78        5.581515   1.000000
   79        5.660786   1.000000
   80        5.707686   1.000000
   81        5.743161   1.000000
   82        5.794521   1.000000
   83        5.821312   1.000001
   84        5.851102   1.000002
   85        5.928086   1.000029
   86        5.947024   1.000051
   87        6.001220   1.000227
   88        6.060818   1.000976
   89        6.087556   1.001757
   90        6.121176   1.003466
   91        6.162954   1.007313
   92        6.205261   1.013834
   93        6.242022   1.021597
   94        6.306602   1.034484
   95        6.367912   1.025382
   96        6.392812   1.007395
   97        6.540713   0.615943
   98        6.578918   0.455589
   99        6.650792   0.182028
  100        6.671956   0.120311
  101        6.773740  -0.027678
  102        6.867401  -0.027875
  103        7.004396  -0.004284
  104        7.136813  -0.000220
  105        7.183373  -0.000061
  106        7.449760  -0.000000
  107        7.524478  -0.000000
  108        7.650412  -0.000000
  109        7.825550  -0.000000
  110        7.882833  -0.000000
  111        7.980241  -0.000000
  112        8.090673  -0.000000
  113        8.169164  -0.000000
  114        8.221580  -0.000000
  115        8.288583  -0.000000
  116        8.369351  -0.000000
  117        8.417293  -0.000000
  118        8.497193  -0.000000
  119        8.528459  -0.000000
  120        8.577474  -0.000000
 
 -0.4000000E+00  0.2000000E+00 -0.3908332E-16  0.1600000E-01
    1      -47.575839   1.000000
    2      -47.551679   1.000000
    3      -47.425979   1.000000
    4      -47.297002   1.000000
    5      -47.112396   1.000000
    6      -23.959210   1.000000
    7      -23.825113   1.000000
    8      -23.790483   1.000000
    9      -23.742487   1.000000
   10      -23.730174   1.000000
   11      -23.714937   1.000000
   12      -23.678721   1.000000
   13      -23.604971   1.000000
   14      -23.559927   1.000000
   15      -23.484102   1.000000
   16      -23.377701   1.000000
   17      -23.330099   1.000000
   18      -23.318146   1.000000
   19      -23.271653   1.000000
   20      -23.200817   1.000000
   21        0.551391   1.000000
   22        1.186634   1.000000
   23        1.520549   1.000000
   24        1.965253   1.000000
   25        2.014161   1.000000
   26        2.248337   1.000000
   27        2.421555   1.000000
   28        2.568194   1.000000
   29        2.763382   1.000000
   30        2.807685   1.000000
   31        2.886538   1.000000
   32        2.926189   1.000000
   33        3.016752   1.000000
   34        3.085196   1.000000
   35        3.134688   1.000000
   36        3.187669   1.000000
   37        3.266897   1.000000
   38        3.334496   1.000000
   39        3.403931   1.000000
   40        3.481393   1.000000
   41        3.530100   1.000000
   42        3.568179   1.000000
   43        3.672224   1.000000
   44        3.778537   1.000000
   45        3.885439   1.000000
   46        3.942626   1.000000
   47        3.991130   1.000000
   48        4.068711   1.000000
   49        4.132696   1.000000
   50        4.201679   1.000000
   51        4.246246   1.000000
   52        4.279060   1.000000
   53        4.327470   1.000000
   54        4.419263   1.000000
   55        4.432399   1.000000
   56        4.537395   1.000000
   57        4.562782   1.000000
   58        4.598168   1.000000
   59        4.649211   1.000000
   60        4.657593   1.000000
   61        4.734719   1.000000
   62        4.761769   1.000000
   63        4.813034   1.000000
   64        4.858531   1.000000
   65        4.895793   1.000000
   66        4.972763   1.000000
   67        5.013657   1.000000
   68        5.042962   1.000000
   69        5.095702   1.000000
   70        5.159801   1.000000
   71        5.230078   1.000000
   72        5.328810   1.000000
   73        5.366716   1.000000
   74        5.378326   1.000000
   75        5.426460   1.000000
   76        5.490104   1.000000
   77        5.546508   1.000000
   78        5.561222   1.000000
   79        5.623645   1.000000
   80        5.676575   1.000000
   81        5.722201   1.000000
   82        5.789348   1.000000
   83        5.838098   1.000002
   84        5.861908   1.000004
   85        5.935368   1.000036
   86        5.996161   1.000199
   87        6.031081   1.000483
   88        6.073213   1.001288
   89        6.119139   1.003333
   90        6.146855   1.005558
   91        6.183796   1.010169
   92        6.246722   1.022677
   93        6.318529   1.035367
   94        6.372138   1.023081
   95        6.447508   0.922018
   96        6.491771   0.799385
   97        6.529976   0.659329
   98        6.570494   0.491164
   99        6.642233   0.209956
  100        6.664064   0.142057
  101        6.771823  -0.026811
  102        6.853294  -0.030845
  103        6.915903  -0.016945
  104        6.994827  -0.005098
  105        7.059941  -0.001396
  106        7.181674  -0.000064
  107        7.304464  -0.000001
  108        7.406133  -0.000000
  109        7.601340  -0.000000
  110        7.638811  -0.000000
  111        7.841880  -0.000000
  112        7.970106  -0.000000
  113        8.056182  -0.000000
  114        8.092133  -0.000000
  115        8.156562  -0.000000
  116        8.212883  -0.000000
  117        8.266058  -0.000000
  118        8.337702  -0.000000
  119        8.379531  -0.000000
  120        8.431866  -0.000000
 
 -0.2000000E+00  0.2000000E+00  0.1006140E-15  0.1600000E-01
    1      -47.576542   1.000000
    2      -47.557941   1.000000
    3      -47.426505   1.000000
    4      -47.297288   1.000000
    5      -47.105398   1.000000
    6      -24.030051   1.000000
    7      -23.955734   1.000000
    8      -23.823587   1.000000
    9      -23.737200   1.000000
   10      -23.723301   1.000000
   11      -23.722779   1.000000
   12      -23.686670   1.000000
   13      -23.599321   1.000000
   14      -23.556841   1.000000
   15      -23.479754   1.000000
   16      -23.376415   1.000000
   17      -23.321842   1.000000
   18      -23.309705   1.000000
   19      -23.200217   1.000000
   20      -23.008371   1.000000
   21       -0.247006   1.000000
   22        0.915365   1.000000
   23        1.226399   1.000000
   24        1.501911   1.000000
   25        1.869799   1.000000
   26        2.252946   1.000000
   27        2.312691   1.000000
   28        2.449933   1.000000
   29        2.496896   1.000000
   30        2.536102   1.000000
   31        2.604188   1.000000
   32        2.666028   1.000000
   33        2.739309   1.000000
   34        2.783036   1.000000
   35        2.854502   1.000000
   36        2.908164   1.000000
   37        2.975893   1.000000
   38        3.065969   1.000000
   39        3.105638   1.000000
   40        3.182962   1.000000
   41        3.314915   1.000000
   42        3.367451   1.000000
   43        3.465409   1.000000
   44        3.530577   1.000000
   45        3.611709   1.000000
   46        3.726160   1.000000
   47        3.786383   1.000000