 running on   32 total cores
 distrk:  each k-point on   32 cores,    1 groups
 distr:  one band on    4 cores,    8 groups
 using from now: INCAR     
 vasp.5.4.4.18Apr17-6-g9f103f2a35 (build Aug 09 2018 16:20:53) complex          
  
 POSCAR found :  5 types and      29 ions
 scaLAPACK will be used

 ----------------------------------------------------------------------------- 
|                                                                             |
|  ADVICE TO THIS USER RUNNING 'VASP/VAMP'   (HEAR YOUR MASTER'S VOICE ...):  |
|                                                                             |
|      You enforced a specific xc-type in the INCAR file,                     |
|      a different type was found on the POTCAR file                          |
|          I HOPE YOU KNOW, WHAT YOU ARE  DOING                               |
|                                                                             |
 ----------------------------------------------------------------------------- 

 LDA part: xc-table for Pade appr. of Perdew
 POSCAR found :  5 types and      29 ions
 POSCAR, INCAR and KPOINTS ok, starting setup
 FFT: planning ...
 WAVECAR not read
 entering main loop
       N       E                     dE             d eps       ncg     rms          rms(c)
DAV:   1     0.194002559509E+04    0.19400E+04   -0.86006E+04 15120   0.167E+03
DAV:   2     0.283429630297E+02   -0.19117E+04   -0.18408E+04 15120   0.483E+02
DAV:   3    -0.310647820728E+03   -0.33899E+03   -0.31806E+03 26760   0.171E+02
DAV:   4    -0.350709532301E+03   -0.40062E+02   -0.36785E+02 23784   0.547E+01
DAV:   5    -0.354792457379E+03   -0.40829E+01   -0.40000E+01 28168   0.196E+01    0.760E+01
DAV:   6    -0.346949948292E+03    0.78425E+01   -0.12501E+02 21536   0.314E+01    0.405E+01
DAV:   7    -0.359709339814E+03   -0.12759E+02   -0.49134E+02 22256   0.967E+01    0.294E+01
DAV:   8    -0.353437104425E+03    0.62722E+01   -0.15653E+02 21896   0.431E+01    0.216E+01
DAV:   9    -0.338758238801E+03    0.14679E+02   -0.21326E+01 21384   0.152E+01    0.158E+01
DAV:  10    -0.334576236228E+03    0.41820E+01   -0.10588E+01 22632   0.967E+00    0.114E+01
DAV:  11    -0.332636695284E+03    0.19395E+01   -0.46571E+00 22640   0.606E+00    0.737E+00
DAV:  12    -0.332006811801E+03    0.62988E+00   -0.17332E+00 22528   0.406E+00    0.443E+00
DAV:  13    -0.331821460418E+03    0.18535E+00   -0.14812E+00 21544   0.380E+00    0.228E+00
DAV:  14    -0.331781720625E+03    0.39740E-01   -0.10377E+00 21984   0.318E+00    0.170E+00
DAV:  15    -0.331745879614E+03    0.35841E-01   -0.40797E-01 22672   0.188E+00    0.951E-01
DAV:  16    -0.331750396131E+03   -0.45165E-02   -0.12547E-01 22192   0.110E+00    0.959E-01
DAV:  17    -0.331742035137E+03    0.83610E-02   -0.52644E-02 22568   0.646E-01    0.623E-01
DAV:  18    -0.331737540812E+03    0.44943E-02   -0.35037E-02 22312   0.525E-01    0.235E-01
DAV:  19    -0.331737460414E+03    0.80398E-04   -0.95780E-03 21816   0.285E-01    0.174E-01
DAV:  20    -0.331737050745E+03    0.40967E-03   -0.29744E-03 20816   0.163E-01    0.853E-02
DAV:  21    -0.331736998437E+03    0.52308E-04   -0.10858E-03 19712   0.988E-02    0.595E-02
DAV:  22    -0.331737002953E+03   -0.45160E-05   -0.93902E-04 17880   0.977E-02
   1 F= -.33173700E+03 E0= -.33172996E+03  d E =-.331737E+03
 curvature:   0.00 expect dE= 0.000E+00 dE for cont linesearch  0.000E+00
 trial: gam= 0.00000 g(F)=  0.693E+00 g(S)=  0.535E+00 ort = 0.000E+00 (trialstep = 0.100E+01)
 search vector abs. value=  0.123E+01
 bond charge predicted
       N       E                     dE             d eps       ncg     rms          rms(c)
DAV:   1    -0.333640916040E+03   -0.19039E+01   -0.15377E+02 18320   0.507E+01    0.151E+01
DAV:   2    -0.334286973485E+03   -0.64606E+00   -0.27738E+01 23744   0.227E+01    0.103E+01
DAV:   3    -0.332925596585E+03    0.13614E+01   -0.17145E+01 22464   0.124E+01    0.802E+00
DAV:   4    -0.332413575327E+03    0.51202E+00   -0.10793E+01 23648   0.107E+01    0.532E+00
DAV:   5    -0.332066251473E+03    0.34732E+00   -0.49156E+00 22816   0.699E+00    0.293E+00
DAV:   6    -0.331916593619E+03    0.14966E+00   -0.94971E-01 24456   0.304E+00    0.156E+00
DAV:   7    -0.331939404056E+03   -0.22810E-01   -0.34003E-01 24592   0.178E+00    0.139E+00
DAV:   8    -0.331928395796E+03    0.11008E-01   -0.16611E-01 23392   0.127E+00    0.937E-01
DAV:   9    -0.331933266929E+03   -0.48711E-02   -0.63016E-02 23288   0.774E-01    0.644E-01
DAV:  10    -0.331937272481E+03   -0.40056E-02   -0.61842E-02 23496   0.763E-01    0.538E-01
DAV:  11    -0.331936641520E+03    0.63096E-03   -0.29491E-02 23768   0.503E-01    0.273E-01
DAV:  12    -0.331937204647E+03   -0.56313E-03   -0.77826E-03 25184   0.247E-01    0.149E-01
DAV:  13    -0.331937441644E+03   -0.23700E-03   -0.35424E-03 23304   0.169E-01    0.104E-01
DAV:  14    -0.331937391452E+03    0.50192E-04   -0.15034E-03 20752   0.116E-01    0.487E-02
DAV:  15    -0.331937354642E+03    0.36810E-04   -0.22311E-04 11192   0.588E-02
   2 F= -.33193735E+03 E0= -.33193477E+03  d E =-.200352E+00
 trial-energy change:   -0.200352  1 .order   -0.170308   -1.227294    0.886678
 step:   0.6010(harm=  0.5806)  dis= 0.03308  next Energy=  -332.112334 (dE=-0.375E+00)
 bond charge predicted
       N       E                     dE             d eps       ncg     rms          rms(c)
DAV:   1    -0.332375997182E+03   -0.43861E+00   -0.24775E+01 18000   0.203E+01    0.615E+00
DAV:   2    -0.332487551538E+03   -0.11155E+00   -0.41695E+00 25352   0.866E+00    0.493E+00
DAV:   3    -0.332347473218E+03    0.14008E+00   -0.42834E+00 22960   0.681E+00    0.360E+00
DAV:   4    -0.332210465846E+03    0.13701E+00   -0.16089E+00 23720   0.398E+00    0.207E+00
DAV:   5    -0.332126690512E+03    0.83775E-01   -0.68407E-01 22904   0.254E+00    0.976E-01
DAV:   6    -0.332110137028E+03    0.16553E-01   -0.15750E-01 23576   0.132E+00    0.615E-01
DAV:   7    -0.332112404880E+03   -0.22679E-02   -0.67284E-02 24448   0.735E-01    0.509E-01
DAV:   8    -0.332110628221E+03    0.17767E-02   -0.23057E-02 22512   0.457E-01    0.332E-01
DAV:   9    -0.332111444801E+03   -0.81658E-03   -0.70904E-03 22752   0.260E-01    0.274E-01
DAV:  10    -0.332111958103E+03   -0.51330E-03   -0.84990E-03 22416   0.264E-01    0.213E-01
DAV:  11    -0.332112074196E+03   -0.11609E-03   -0.44438E-03 24512   0.194E-01    0.106E-01
DAV:  12    -0.332112085696E+03   -0.11501E-04   -0.16627E-03 21344   0.122E-01    0.690E-02
DAV:  13    -0.332112059833E+03    0.25863E-04   -0.74974E-04 18392   0.770E-02
   3 F= -.33211206E+03 E0= -.33210745E+03  d E =-.375057E+00
 curvature:  -0.29 expect dE=-0.242E+00 dE for cont linesearch -0.394E-04
 trial: gam= 0.67044 g(F)=  0.364E+00 g(S)=  0.472E+00 ort = 0.129E-01 (trialstep = 0.804E+00)
 search vector abs. value=  0.140E+01
 bond charge predicted
       N       E                     dE             d eps       ncg     rms          rms(c)
DAV:   1    -0.332242148058E+03   -0.13006E+00   -0.10685E+02 15792   0.328E+01    0.419E+00
DAV:   2    -0.332720904901E+03   -0.47876E+00   -0.71056E+00 23696   0.106E+01    0.417E+00
DAV:   3    -0.332614711698E+03    0.10619E+00   -0.28192E+00 23160   0.540E+00    0.270E+00
DAV:   4    -0.332530308953E+03    0.84403E-01   -0.58236E-01 23480   0.267E+00    0.169E+00
DAV:   5    -0.332512007438E+03    0.18302E-01   -0.27153E-01 22880   0.164E+00    0.125E+00
DAV:   6    -0.332502976590E+03    0.90308E-02   -0.16264E-01 23120   0.128E+00    0.774E-01
DAV:   7    -0.332495379085E+03    0.75975E-02   -0.51769E-02 24352   0.819E-01    0.458E-01
DAV:   8    -0.332494844375E+03    0.53471E-03   -0.27240E-02 24672   0.477E-01    0.376E-01
DAV:   9    -0.332494380440E+03    0.46394E-03   -0.12482E-02 21704   0.309E-01    0.260E-01
DAV:  10    -0.332494160525E+03    0.21991E-03   -0.47383E-03 21272   0.216E-01    0.159E-01
DAV:  11    -0.332494232743E+03   -0.72218E-04   -0.35514E-03 21272   0.186E-01    0.117E-01
DAV:  12    -0.332494087870E+03    0.14487E-03   -0.14652E-03 20112   0.127E-01    0.487E-02
DAV:  13    -0.332494048066E+03    0.39804E-04   -0.28664E-04 12768   0.716E-02
   4 F= -.33249405E+03 E0= -.33249243E+03  d E =-.381988E+00
 trial-energy change:   -0.381988  1 .order   -0.380565   -0.678881   -0.082249
 step:   0.9130(harm=  0.9148)  dis= 0.07318  next Energy=  -332.499630 (dE=-0.388E+00)
 bond charge predicted
       N       E                     dE             d eps       ncg     rms          rms(c)
DAV:   1    -0.332495736581E+03   -0.16487E-02   -0.19642E+00 15624   0.441E+00    0.546E-01
DAV:   2    -0.332504226351E+03   -0.84898E-02   -0.13121E-01 23616   0.146E+00    0.544E-01
DAV:   3    -0.332501775055E+03    0.24513E-02   -0.45642E-02 22768   0.668E-01    0.342E-01
DAV:   4    -0.332500545593E+03    0.12295E-02   -0.10534E-02 22792   0.354E-01    0.220E-01
DAV:   5    -0.332500234690E+03    0.31090E-03   -0.52540E-03 22408   0.230E-01    0.161E-01
DAV:   6    -0.332500015480E+03    0.21921E-03   -0.24368E-03 21488   0.164E-01    0.881E-02
DAV:   7    -0.332499917417E+03    0.98062E-04   -0.67042E-04 17080   0.995E-02
   5 F= -.33249992E+03 E0= -.33249842E+03  d E =-.387858E+00
 curvature:  -0.76 expect dE=-0.778E-01 dE for cont linesearch -0.111E-05
 trial: gam= 0.00845 g(F)=  0.845E-01 g(S)=  0.178E-01 ort = 0.143E-02 (trialstep = 0.826E+00)
 search vector abs. value=  0.102E+00
 bond charge predicted
       N       E                     dE             d eps       ncg     rms          rms(c)
DAV:   1    -0.332553700522E+03   -0.53685E-01   -0.83355E+00 15120   0.102E+01    0.233E+00
DAV:   2    -0.332580097566E+03   -0.26397E-01   -0.79010E-01 22304   0.341E+00    0.155E+00
DAV:   3    -0.332579940100E+03    0.15747E-03   -0.55443E-01 21944   0.240E+00    0.137E+00
DAV:   4    -0.332555729095E+03    0.24211E-01   -0.20687E-01 23096   0.146E+00    0.755E-01
DAV:   5    -0.332547308513E+03    0.84206E-02   -0.94483E-02 22704   0.981E-01    0.427E-01
DAV:   6    -0.332544136272E+03    0.31722E-02   -0.26153E-02 23600   0.522E-01    0.214E-01
DAV:   7    -0.332544139202E+03   -0.29305E-05   -0.81559E-03 24592   0.272E-01    0.165E-01
DAV:   8    -0.332544000449E+03    0.13875E-03   -0.26262E-03 21296   0.153E-01    0.121E-01
DAV:   9    -0.332544064748E+03   -0.64299E-04   -0.87850E-04 18640   0.888E-02
   6 F= -.33254406E+03 E0= -.33254180E+03  d E =-.441473E-01
 trial-energy change:   -0.044147  1 .order   -0.045675   -0.084458   -0.006892
 step:   0.9101(harm=  0.8992)  dis= 0.01588  next Energy=  -332.544415 (dE=-0.445E-01)
 bond charge predicted
       N       E                     dE             d eps       ncg     rms          rms(c)
DAV:   1    -0.332544366454E+03   -0.36601E-03   -0.87761E-02 15744   0.104E+00    0.248E-01
DAV:   2    -0.332545083947E+03   -0.71749E-03   -0.11315E-02 22152   0.428E-01    0.224E-01
DAV:   3    -0.332544503335E+03    0.58061E-03   -0.79035E-03 21808   0.283E-01    0.134E-01
DAV:   4    -0.332544343347E+03    0.15999E-03   -0.23420E-03 20344   0.156E-01    0.846E-02
DAV:   5    -0.332544235593E+03    0.10775E-03   -0.11407E-03 18808   0.110E-01    0.442E-02
DAV:   6    -0.332544207017E+03    0.28576E-04   -0.18772E-04 10800   0.610E-02
   7 F= -.33254421E+03 E0= -.33254183E+03  d E =-.442896E-01
 curvature:  -0.44 expect dE=-0.489E-01 dE for cont linesearch -0.413E-04
 trial: gam= 1.11831 g(F)=  0.223E-01 g(S)=  0.889E-01 ort =-0.310E-02 (trialstep = 0.371E+00)
 search vector abs. value=  0.232E+00
 bond charge predicted
       N       E                     dE             d eps       ncg     rms          rms(c)
DAV:   1    -0.332573504843E+03   -0.29269E-01   -0.35587E+00 15424   0.640E+00    0.113E+00
DAV:   2    -0.332590519540E+03   -0.17015E-01   -0.31212E-01 22160   0.215E+00    0.932E-01
DAV:   3    -0.332582395384E+03    0.81242E-02   -0.15962E-01 22432   0.131E+00    0.677E-01
DAV:   4    -0.332576712166E+03    0.56832E-02   -0.55494E-02 22712   0.754E-01    0.380E-01
DAV:   5    -0.332574904467E+03    0.18077E-02   -0.28466E-02 22768   0.512E-01    0.238E-01
DAV:   6    -0.332574208516E+03    0.69595E-03   -0.10064E-02 23664   0.307E-01    0.149E-01
DAV:   7    -0.332574106894E+03    0.10162E-03   -0.39352E-03 21944   0.187E-01    0.104E-01
DAV:   8    -0.332573975011E+03    0.13188E-03   -0.84162E-04 17984   0.100E-01    0.643E-02
DAV:   9    -0.332573988761E+03   -0.13751E-04   -0.14053E-04 10520   0.530E-02
   8 F= -.33257399E+03 E0= -.33257132E+03  d E =-.297817E-01
 trial-energy change:   -0.029782  1 .order   -0.029962   -0.039998   -0.019927
 step:   0.7403(harm=  0.7403)  dis= 0.02286  next Energy=  -332.584061 (dE=-0.399E-01)
 bond charge predicted
       N       E                     dE             d eps       ncg     rms          rms(c)
DAV:   1    -0.332581824339E+03   -0.78493E-02   -0.35076E+00 15424   0.636E+00    0.112E+00
DAV:   2    -0.332597458098E+03   -0.15634E-01   -0.29780E-01 21904   0.211E+00    0.888E-01
DAV:   3    -0.332590828426E+03    0.66297E-02   -0.15216E-01 22384   0.130E+00    0.663E-01
DAV:   4    -0.332585139193E+03    0.56892E-02   -0.54446E-02 22928   0.753E-01    0.362E-01
DAV:   5    -0.332583483352E+03    0.16558E-02   -0.26628E-02 22840   0.495E-01    0.226E-01
DAV:   6    -0.332582854033E+03    0.62932E-03   -0.86757E-03 23824   0.284E-01    0.137E-01
DAV:   7    -0.332582830011E+03    0.24021E-04   -0.32075E-03 21936   0.169E-01    0.106E-01
DAV:   8    -0.332582730689E+03    0.99322E-04   -0.70037E-04 16976   0.920E-02
   9 F= -.33258273E+03 E0= -.33257978E+03  d E =-.385237E-01
 curvature:  -0.80 expect dE=-0.212E-01 dE for cont linesearch -0.647E-04
 trial: gam= 0.21114 g(F)=  0.255E-01 g(S)=  0.107E-02 ort =-0.434E-02 (trialstep = 0.445E+00)
 search vector abs. value=  0.351E-01
 bond charge predicted
       N       E                     dE             d eps       ncg     rms          rms(c)
DAV:   1    -0.332591579752E+03   -0.87497E-02   -0.60886E-01 16128   0.238E+00    0.241E-01
DAV:   2    -0.332594976288E+03   -0.33965E-02   -0.36381E-02 23848   0.818E-01    0.335E-01
DAV:   3    -0.332593235483E+03    0.17408E-02   -0.14433E-02 22432   0.394E-01    0.160E-01
DAV:   4    -0.332593046800E+03    0.18868E-03   -0.26587E-03 22184   0.168E-01    0.108E-01
DAV:   5    -0.332593007070E+03    0.39730E-04   -0.14643E-03 19936   0.118E-01    0.893E-02
DAV:   6    -0.332592932863E+03    0.74207E-04   -0.79925E-04 17592   0.941E-02
  10 F= -.33259293E+03 E0= -.33258997E+03  d E =-.102022E-01
 ZBRENT: can't locate minimum, use default step
 trial-energy change:   -0.010202  1 .order   -0.010140   -0.011412   -0.008867
 step:   1.7810(harm=  1.9960)  dis= 0.02344  next Energy=  -332.608311 (dE=-0.256E-01)
 bond charge predicted
       N       E                     dE             d eps       ncg     rms          rms(c)
DAV:   1    -0.332596326309E+03   -0.33192E-02   -0.54720E+00 16232   0.714E+00    0.676E-01
DAV:   2    -0.332624422901E+03   -0.28097E-01   -0.31154E-01 24088   0.241E+00    0.950E-01
DAV:   3    -0.332611081195E+03    0.13342E-01   -0.11548E-01 22752   0.110E+00    0.480E-01
DAV:   4    -0.332609447357E+03    0.16338E-02   -0.21471E-02 24040   0.468E-01    0.326E-01
DAV:   5    -0.332609047324E+03    0.40003E-03   -0.11927E-02 22672   0.331E-01    0.267E-01
DAV:   6    -0.332608407891E+03    0.63943E-03   -0.74156E-03 22744   0.277E-01    0.170E-01
DAV:   7    -0.332608229967E+03    0.17792E-03   -0.38188E-03 22312   0.196E-01    0.119E-01
DAV:   8    -0.332607996052E+03    0.23392E-03   -0.16665E-03 20624   0.131E-01    0.523E-02
DAV:   9    -0.332607960515E+03    0.35536E-04   -0.32915E-04 13176   0.637E-02
  11 F= -.33260796E+03 E0= -.33260492E+03  d E =-.252298E-01
 curvature:  -1.34 expect dE=-0.140E-01 dE for cont linesearch -0.265E-03
 trial: gam= 0.22593 g(F)=  0.392E-02 g(S)=  0.654E-02 ort = 0.264E-02 (trialstep = 0.712E+00)
 search vector abs. value=  0.134E-01
 bond charge predicted
       N       E                     dE             d eps       ncg     rms          rms(c)
DAV:   1    -0.332620608034E+03   -0.12612E-01   -0.74522E-01 17744   0.369E+00    0.114E+00
DAV:   2    -0.332620592008E+03    0.16026E-04   -0.14188E-01 25624   0.155E+00    0.787E-01
DAV:   3    -0.332617548764E+03    0.30432E-02   -0.13394E-01 22288   0.110E+00    0.620E-01
DAV:   4    -0.332612368258E+03    0.51805E-02   -0.47748E-02 24144   0.683E-01    0.329E-01
DAV:   5    -0.332611215730E+03    0.11525E-02   -0.21279E-02 22960   0.454E-01    0.242E-01
DAV:   6    -0.332610233095E+03    0.98263E-03   -0.60426E-03 23208   0.253E-01    0.114E-01
DAV:   7    -0.332610327766E+03   -0.94670E-04   -0.20674E-03 22192   0.134E-01    0.988E-02
DAV:   8    -0.332610265632E+03    0.62134E-04   -0.81723E-04 18048   0.901E-02
  12 F= -.33261027E+03 E0= -.33260709E+03  d E =-.230512E-02
 trial-energy change:   -0.002305  1 .order   -0.002546   -0.007879    0.002787
 step:   0.5262(harm=  0.5262)  dis= 0.00395  next Energy=  -332.610871 (dE=-0.291E-02)
 bond charge predicted
       N       E                     dE             d eps       ncg     rms          rms(c)
DAV:   1    -0.332611459422E+03   -0.11317E-02   -0.50322E-02 17728   0.961E-01    0.312E-01
DAV:   2    -0.332611726455E+03   -0.26703E-03   -0.11904E-02 25464   0.429E-01    0.232E-01
DAV:   3    -0.332611306897E+03    0.41956E-03   -0.10446E-02 21824   0.313E-01    0.178E-01
DAV:   4    -0.332611015954E+03    0.29094E-03   -0.39345E-03 21808   0.197E-01    0.112E-01
DAV:   5    -0.332610819089E+03    0.19686E-03   -0.18825E-03 19632   0.136E-01    0.546E-02
DAV:   6    -0.332610748665E+03    0.70424E-04   -0.31724E-04 12288   0.750E-02
  13 F= -.33261075E+03 E0= -.33260760E+03  d E =-.278815E-02
 curvature:  -0.32 expect dE=-0.167E-02 dE for cont linesearch -0.366E-05
 trial: gam= 0.59794 g(F)=  0.243E-02 g(S)=  0.278E-02 ort =-0.392E-03 (trialstep = 0.675E+00)
 search vector abs. value=  0.955E-02
 bond charge predicted
       N       E                     dE             d eps       ncg     rms          rms(c)
DAV:   1    -0.332612308225E+03   -0.14891E-02   -0.40320E-01 16088   0.198E+00    0.194E-01
DAV:   2    -0.332614887268E+03   -0.25790E-02   -0.27058E-02 24416   0.676E-01    0.283E-01
DAV:   3    -0.332613559262E+03    0.13280E-02   -0.93885E-03 22872   0.298E-01    0.112E-01
DAV:   4    -0.332613489443E+03    0.69819E-04   -0.11910E-03 19480   0.118E-01    0.852E-02
DAV:   5    -0.332613435097E+03    0.54346E-04   -0.68159E-04 16488   0.879E-02
  14 F= -.33261344E+03 E0= -.33261023E+03  d E =-.268643E-02
 trial-energy change:   -0.002686  1 .order   -0.002738   -0.003361   -0.002115
 step:   1.8211(harm=  1.8211)  dis= 0.01476  next Energy=  -332.615281 (dE=-0.453E-02)
 bond charge predicted
       N       E                     dE             d eps       ncg     rms          rms(c)
DAV:   1    -0.332611486181E+03    0.20033E-02   -0.11592E+00 16216   0.335E+00    0.312E-01
DAV:   2    -0.332617893032E+03   -0.64069E-02   -0.69773E-02 24720   0.109E+00    0.439E-01
DAV:   3    -0.332614964826E+03    0.29282E-02   -0.22474E-02 23672   0.456E-01    0.193E-01
DAV:   4    -0.332614738317E+03    0.22651E-03   -0.28720E-03 21920   0.182E-01    0.141E-01
DAV:   5    -0.332614640153E+03    0.98164E-04   -0.23348E-03 20944   0.148E-01    0.111E-01
DAV:   6    -0.332614488127E+03    0.15203E-03   -0.98462E-04 18584   0.110E-01    0.505E-02
DAV:   7    -0.332614457928E+03    0.30198E-04   -0.34766E-04 13656   0.750E-02
  15 F= -.33261446E+03 E0= -.33261115E+03  d E =-.370926E-02
 curvature:  -1.75 expect dE=-0.547E-02 dE for cont linesearch -0.172E-03
 trial: gam= 0.51360 g(F)=  0.266E-02 g(S)=  0.474E-03 ort =-0.970E-03 (trialstep = 0.904E+00)
 search vector abs. value=  0.465E-02
 bond charge predicted
       N       E                     dE             d eps       ncg     rms          rms(c)
DAV:   1    -0.332615851978E+03   -0.13639E-02   -0.36052E-01 15136   0.209E+00    0.416E-01
DAV:   2    -0.332616842386E+03   -0.99041E-03   -0.30977E-02 21760   0.670E-01    0.257E-01
DAV:   3    -0.332616927609E+03   -0.85223E-04   -0.15472E-02 21824   0.420E-01    0.244E-01
DAV:   4    -0.332616105734E+03    0.82187E-03   -0.77623E-03 21320   0.289E-01    0.137E-01
DAV:   5    -0.332615843946E+03    0.26179E-03   -0.32777E-03 21848   0.177E-01    0.723E-02
DAV:   6    -0.332615755381E+03    0.88564E-04   -0.74435E-04 17592   0.929E-02
  16 F= -.33261576E+03 E0= -.33261236E+03  d E =-.129745E-02
 trial-energy change:   -0.001297  1 .order   -0.001302   -0.002381   -0.000224
 step:   0.9981(harm=  0.9981)  dis= 0.00488  next Energy=  -332.615772 (dE=-0.131E-02)
 bond charge predicted
       N       E                     dE             d eps       ncg     rms          rms(c)
DAV:   1    -0.332615764201E+03    0.79744E-04   -0.40497E-03 16128   0.223E-01    0.484E-02
DAV:   2    -0.332615861810E+03   -0.97609E-04   -0.79113E-04 17312   0.113E-01
  17 F= -.33261586E+03 E0= -.33261249E+03  d E =-.140388E-02
 curvature:  -0.88 expect dE=-0.254E-02 dE for cont linesearch -0.599E-06
 trial: gam= 0.75642 g(F)=  0.885E-03 g(S)=  0.199E-02 ort =-0.562E-04 (trialstep = 0.787E+00)
 search vector abs. value=  0.546E-02
 bond charge predicted
       N       E                     dE             d eps       ncg     rms          rms(c)
DAV:   1    -0.332617379359E+03   -0.16152E-02   -0.34399E-01 15120   0.199E+00    0.446E-01
DAV:   2    -0.332618782237E+03   -0.14029E-02   -0.33845E-02 22160   0.697E-01    0.344E-01
DAV:   3    -0.332617897176E+03    0.88506E-03   -0.23157E-02 22416   0.489E-01    0.256E-01
DAV:   4    -0.332617189948E+03    0.70723E-03   -0.74605E-03 21560   0.283E-01    0.151E-01
DAV:   5    -0.332616808143E+03    0.38181E-03   -0.33914E-03 21832   0.189E-01    0.747E-02
DAV:   6    -0.332616702930E+03    0.10521E-03   -0.86344E-04 17304   0.106E-01    0.437E-02
DAV:   7    -0.332616692051E+03    0.10880E-04   -0.37487E-04 13520   0.739E-02
  18 F= -.33261669E+03 E0= -.33261314E+03  d E =-.830241E-03
 trial-energy change:   -0.000830  1 .order   -0.000862   -0.002233    0.000509
 step:   0.6412(harm=  0.6412)  dis= 0.00280  next Energy=  -332.616771 (dE=-0.909E-03)
 bond charge predicted
       N       E                     dE             d eps       ncg     rms          rms(c)
DAV:   1    -0.332616765826E+03   -0.62896E-04   -0.11972E-02 15328   0.367E-01    0.909E-02
DAV:   2    -0.332616855282E+03   -0.89456E-04   -0.17001E-03 21552   0.154E-01    0.833E-02
DAV:   3    -0.332616780687E+03    0.74595E-04   -0.11353E-03 18152   0.107E-01    0.547E-02
DAV:   4    -0.332616753871E+03    0.26816E-04   -0.25126E-04 12136   0.655E-02
  19 F= -.33261675E+03 E0= -.33261324E+03  d E =-.892061E-03
 curvature:  -0.62 expect dE=-0.302E-03 dE for cont linesearch -0.222E-05
 trial: gam= 0.31452 g(F)=  0.276E-03 g(S)=  0.214E-03 ort =-0.140E-03 (trialstep = 0.758E+00)
 search vector abs. value=  0.941E-03
 reached required accuracy - stopping structural energy minimisation
 writing wavefunctions
VASP is done!
