<?xml version="1.0" encoding="ISO-8859-1"?>
<modeling>
 <generator>
  <i name="program" type="string">vasp </i>
  <i name="version" type="string">5.4.4.18Apr17-6-g9f103f2a35  </i>
  <i name="subversion" type="string">(build Aug 09 2018 16:20:53) complex            parallel </i>
  <i name="platform" type="string">LinuxIFC </i>
  <i name="date" type="string">2020 04 12 </i>
  <i name="time" type="string">23:24:12 </i>
 </generator>
 <incar>
  <i type="string" name="SYSTEM"> SQS with 1 vacancy for VFE and VRV</i>
  <i type="string" name="PREC">normal</i>
  <i type="int" name="IALGO">    38</i>
  <i type="int" name="ICHARG">     2</i>
  <i type="int" name="IBRION">     2</i>
  <i type="int" name="NSW">    50</i>
  <i type="int" name="ISIF">     3</i>
  <i type="int" name="ISYM">     0</i>
  <i name="ENCUT">    600.00000000</i>
  <i type="string" name="LREAL"> Auto</i>
  <i type="int" name="ISMEAR">     1</i>
  <i name="SIGMA">      0.20000000</i>
  <v type="int" name="KPOINT_BSE">    -1     0     0     0</v>
  <i type="string" name="GGA"> PS</i>
 </incar>
 <structure name="primitive_cell" >
  <crystal>
   <varray name="basis" >
    <v>      -3.19000000      -3.19000000      -3.19000000 </v>
    <v>       1.59500000       1.59500000      -7.97500000 </v>
    <v>       7.97500000      -7.97500000      -1.59500000 </v>
   </varray>
   <i name="volume">    486.92638500 </i>
   <varray name="rec_basis" >
    <v>      -0.13584117      -0.12539185      -0.05224660 </v>
    <v>       0.04179728       0.06269592      -0.10449321 </v>
    <v>       0.06269592      -0.06269592       0.00000000 </v>
   </varray>
  </crystal>
  <varray name="positions" >
   <v>      -0.03333333      -0.06666667       0.40000000 </v>
   <v>       0.30000000      -0.40000000       0.40000000 </v>
   <v>      -0.10000000      -0.20000000       0.20000000 </v>
   <v>       0.06666667       0.13333333       0.20000000 </v>
   <v>       0.46666667      -0.06666667       0.40000000 </v>
   <v>      -0.13333333      -0.26666667      -0.40000000 </v>
   <v>       0.03333333       0.06666667      -0.40000000 </v>
   <v>      -0.36666667       0.26666667       0.40000000 </v>
   <v>       0.40000000      -0.20000000       0.20000000 </v>
   <v>      -0.20000000      -0.40000000       0.40000000 </v>
   <v>      -0.43333333       0.13333333       0.20000000 </v>
   <v>       0.36666667      -0.26666667      -0.40000000 </v>
   <v>       0.13333333       0.26666667       0.40000000 </v>
   <v>      -0.46666667       0.06666667      -0.40000000 </v>
   <v>       0.23333333       0.46666667       0.20000000 </v>
   <v>       0.20000000       0.40000000      -0.40000000 </v>
   <v>       0.00000000       0.00000000       0.00000000 </v>
   <v>      -0.06666667      -0.13333333      -0.20000000 </v>
   <v>      -0.30000000       0.40000000      -0.40000000 </v>
   <v>      -0.26666667       0.46666667       0.20000000 </v>
   <v>       0.33333333      -0.33333333       0.00000000 </v>
   <v>       0.43333333      -0.13333333      -0.20000000 </v>
   <v>      -0.50000000       0.00000000       0.00000000 </v>
   <v>       0.26666667      -0.46666667      -0.20000000 </v>
   <v>      -0.33333333       0.33333333       0.00000000 </v>
   <v>      -0.40000000       0.20000000      -0.20000000 </v>
   <v>      -0.16666667      -0.33333333       0.00000000 </v>
   <v>      -0.23333333      -0.46666667      -0.20000000 </v>
   <v>       0.16666667       0.33333333       0.00000000 </v>
  </varray>
 </structure>
 <varray name="primitive_index" >
  <v type="int" >        1 </v>
  <v type="int" >       17 </v>
  <v type="int" >        6 </v>
  <v type="int" >       23 </v>
  <v type="int" >       19 </v>
  <v type="int" >       18 </v>
  <v type="int" >        5 </v>
  <v type="int" >        2 </v>
  <v type="int" >       15 </v>
  <v type="int" >        7 </v>
  <v type="int" >       14 </v>
  <v type="int" >       10 </v>
  <v type="int" >       11 </v>
  <v type="int" >       27 </v>
  <v type="int" >       29 </v>
  <v type="int" >       22 </v>
  <v type="int" >        4 </v>
  <v type="int" >       13 </v>
  <v type="int" >       25 </v>
  <v type="int" >        8 </v>
  <v type="int" >       28 </v>
  <v type="int" >       16 </v>
  <v type="int" >        3 </v>
  <v type="int" >       21 </v>
  <v type="int" >        9 </v>
  <v type="int" >       26 </v>
  <v type="int" >       12 </v>
  <v type="int" >       24 </v>
  <v type="int" >       20 </v>
 </varray>
 <kpoints>
  <generation param="Gamma">
   <v type="int" name="divisions">       5        5        5 </v>
   <v name="usershift">      0.00000000       0.00000000       0.00000000 </v>
   <v name="genvec1">      0.20000000      -0.00000000      -0.00000000 </v>
   <v name="genvec2">      0.00000000       0.20000000       0.00000000 </v>
   <v name="genvec3">      0.00000000       0.00000000       0.20000000 </v>
   <v name="shift">      0.00000000       0.00000000       0.00000000 </v>
  </generation>
  <varray name="kpointlist" >
   <v>       0.00000000       0.00000000       0.00000000 </v>
   <v>       0.20000000      -0.00000000       0.00000000 </v>
   <v>       0.40000000      -0.00000000       0.00000000 </v>
   <v>       0.00000000       0.20000000       0.00000000 </v>
   <v>       0.20000000       0.20000000      -0.00000000 </v>
   <v>       0.40000000       0.20000000      -0.00000000 </v>
   <v>      -0.40000000       0.20000000      -0.00000000 </v>
   <v>      -0.20000000       0.20000000       0.00000000 </v>
   <v>       0.00000000       0.40000000       0.00000000 </v>
   <v>       0.20000000       0.40000000       0.00000000 </v>
   <v>       0.40000000       0.40000000      -0.00000000 </v>
   <v>      -0.40000000       0.40000000       0.00000000 </v>
   <v>      -0.20000000       0.40000000       0.00000000 </v>
   <v>       0.00000000       0.00000000       0.20000000 </v>
   <v>       0.20000000      -0.00000000       0.20000000 </v>
   <v>       0.40000000       0.00000000       0.20000000 </v>
   <v>      -0.40000000       0.00000000       0.20000000 </v>
   <v>      -0.20000000       0.00000000       0.20000000 </v>
   <v>       0.00000000       0.20000000       0.20000000 </v>
   <v>       0.20000000       0.20000000       0.20000000 </v>
   <v>       0.40000000       0.20000000       0.20000000 </v>
   <v>      -0.40000000       0.20000000       0.20000000 </v>
   <v>      -0.20000000       0.20000000       0.20000000 </v>
   <v>       0.00000000       0.40000000       0.20000000 </v>
   <v>       0.20000000       0.40000000       0.20000000 </v>
   <v>       0.40000000       0.40000000       0.20000000 </v>
   <v>      -0.40000000       0.40000000       0.20000000 </v>
   <v>      -0.20000000       0.40000000       0.20000000 </v>
   <v>       0.00000000      -0.40000000       0.20000000 </v>
   <v>       0.20000000      -0.40000000       0.20000000 </v>
   <v>       0.40000000      -0.40000000       0.20000000 </v>
   <v>      -0.40000000      -0.40000000       0.20000000 </v>
   <v>      -0.20000000      -0.40000000       0.20000000 </v>
   <v>       0.00000000      -0.20000000       0.20000000 </v>
   <v>       0.20000000      -0.20000000       0.20000000 </v>
   <v>       0.40000000      -0.20000000       0.20000000 </v>
   <v>      -0.40000000      -0.20000000       0.20000000 </v>
   <v>      -0.20000000      -0.20000000       0.20000000 </v>
   <v>       0.00000000       0.00000000       0.40000000 </v>
   <v>       0.20000000      -0.00000000       0.40000000 </v>
   <v>       0.40000000      -0.00000000       0.40000000 </v>
   <v>      -0.40000000       0.00000000       0.40000000 </v>
   <v>      -0.20000000       0.00000000       0.40000000 </v>
   <v>      -0.00000000       0.20000000       0.40000000 </v>
   <v>       0.20000000       0.20000000       0.40000000 </v>
   <v>       0.40000000       0.20000000       0.40000000 </v>
   <v>      -0.40000000       0.20000000       0.40000000 </v>
   <v>      -0.20000000       0.20000000       0.40000000 </v>
   <v>       0.00000000       0.40000000       0.40000000 </v>
   <v>       0.20000000       0.40000000       0.40000000 </v>
   <v>       0.40000000       0.40000000       0.40000000 </v>
   <v>      -0.40000000       0.40000000       0.40000000 </v>
   <v>      -0.20000000       0.40000000       0.40000000 </v>
   <v>       0.00000000      -0.40000000       0.40000000 </v>
   <v>       0.20000000      -0.40000000       0.40000000 </v>
   <v>       0.40000000      -0.40000000       0.40000000 </v>
   <v>      -0.40000000      -0.40000000       0.40000000 </v>
   <v>      -0.20000000      -0.40000000       0.40000000 </v>
   <v>       0.00000000      -0.20000000       0.40000000 </v>
   <v>       0.20000000      -0.20000000       0.40000000 </v>
   <v>       0.40000000      -0.20000000       0.40000000 </v>
   <v>      -0.40000000      -0.20000000       0.40000000 </v>
   <v>      -0.20000000      -0.20000000       0.40000000 </v>
  </varray>
  <varray name="weights" >
   <v>       0.00800000 </v>
   <v>       0.01600000 </v>
   <v>       0.01600000 </v>
   <v>       0.01600000 </v>
   <v>       0.01600000 </v>
   <v>       0.01600000 </v>
   <v>       0.01600000 </v>
   <v>       0.01600000 </v>
   <v>       0.01600000 </v>
   <v>       0.01600000 </v>
   <v>       0.01600000 </v>
   <v>       0.01600000 </v>
   <v>       0.01600000 </v>
   <v>       0.01600000 </v>
   <v>       0.01600000 </v>
   <v>       0.01600000 </v>
   <v>       0.01600000 </v>
   <v>       0.01600000 </v>
   <v>       0.01600000 </v>
   <v>       0.01600000 </v>
   <v>       0.01600000 </v>
   <v>       0.01600000 </v>
   <v>       0.01600000 </v>
   <v>       0.01600000 </v>
   <v>       0.01600000 </v>
   <v>       0.01600000 </v>
   <v>       0.01600000 </v>
   <v>       0.01600000 </v>
   <v>       0.01600000 </v>
   <v>       0.01600000 </v>
   <v>       0.01600000 </v>
   <v>       0.01600000 </v>
   <v>       0.01600000 </v>
   <v>       0.01600000 </v>
   <v>       0.01600000 </v>
   <v>       0.01600000 </v>
   <v>       0.01600000 </v>
   <v>       0.01600000 </v>
   <v>       0.01600000 </v>
   <v>       0.01600000 </v>
   <v>       0.01600000 </v>
   <v>       0.01600000 </v>
   <v>       0.01600000 </v>
   <v>       0.01600000 </v>
   <v>       0.01600000 </v>
   <v>       0.01600000 </v>
   <v>       0.01600000 </v>
   <v>       0.01600000 </v>
   <v>       0.01600000 </v>
   <v>       0.01600000 </v>
   <v>       0.01600000 </v>
   <v>       0.01600000 </v>
   <v>       0.01600000 </v>
   <v>       0.01600000 </v>
   <v>       0.01600000 </v>
   <v>       0.01600000 </v>
   <v>       0.01600000 </v>
   <v>       0.01600000 </v>
   <v>       0.01600000 </v>
   <v>       0.01600000 </v>
   <v>       0.01600000 </v>
   <v>       0.01600000 </v>
   <v>       0.01600000 </v>
  </varray>
 </kpoints>
 <parameters>
  <separator name="general" >
   <i type="string" name="SYSTEM">SQS with 1 vacancy for VFE and VRV</i>
   <i type="logical" name="LCOMPAT"> F  </i>
  </separator>
  <separator name="electronic" >
   <i type="string" name="PREC">normal</i>
   <i name="ENMAX">    600.00000000</i>
   <i name="ENAUG">    455.65900000</i>
   <i name="EDIFF">      0.00010000</i>
   <i type="int" name="IALGO">    38</i>
   <i type="int" name="IWAVPR">    11</i>
   <i type="int" name="NBANDS">   120</i>
   <i name="NELECT">    191.00000000</i>
   <i type="int" name="TURBO">     0</i>
   <i type="int" name="IRESTART">     0</i>
   <i type="int" name="NREBOOT">     0</i>
   <i type="int" name="NMIN">     0</i>
   <i name="EREF">      0.00000000</i>
   <separator name="electronic smearing" >
    <i type="int" name="ISMEAR">     1</i>
    <i name="SIGMA">      0.20000000</i>
    <i name="KSPACING">      0.50000000</i>
    <i type="logical" name="KGAMMA"> T  </i>
   </separator>
   <separator name="electronic projectors" >
    <i type="logical" name="LREAL"> T  </i>
    <v name="ROPT">     -0.00050000     -0.00050000     -0.00050000     -0.00050000     -0.00050000</v>
    <i type="int" name="LMAXPAW">  -100</i>
    <i type="int" name="LMAXMIX">     2</i>
    <i type="logical" name="NLSPLINE"> F  </i>
   </separator>
   <separator name="electronic startup" >
    <i type="int" name="ISTART">     0</i>
    <i type="int" name="ICHARG">     2</i>
    <i type="int" name="INIWAV">     1</i>
   </separator>
   <separator name="electronic spin" >
    <i type="int" name="ISPIN">     1</i>
    <i type="logical" name="LNONCOLLINEAR"> F  </i>
    <v name="MAGMOM">      1.00000000      1.00000000      1.00000000      1.00000000      1.00000000      1.00000000      1.00000000      1.00000000      1.00000000      1.00000000      1.00000000      1.00000000      1.00000000      1.00000000      1.00000000      1.00000000      1.00000000      1.00000000      1.00000000      1.00000000
      1.00000000      1.00000000      1.00000000      1.00000000      1.00000000      1.00000000      1.00000000      1.00000000      1.00000000</v>
    <i name="NUPDOWN">     -1.00000000</i>
    <i type="logical" name="LSORBIT"> F  </i>
    <v name="SAXIS">      0.00000000      0.00000000      1.00000000</v>
    <i type="logical" name="LSPIRAL"> F  </i>
    <v name="QSPIRAL">      0.00000000      0.00000000      0.00000000</v>
    <i type="logical" name="LZEROZ"> F  </i>
   </separator>
   <separator name="electronic exchange-correlation" >
    <i type="logical" name="LASPH"> F  </i>
    <i type="logical" name="LMETAGGA"> F  </i>
   </separator>
   <separator name="electronic convergence" >
    <i type="int" name="NELM">    60</i>
    <i type="int" name="NELMDL">    -5</i>
    <i type="int" name="NELMIN">     2</i>
    <i name="ENINI">    600.00000000</i>
    <separator name="electronic convergence detail" >
     <i type="logical" name="LDIAG"> T  </i>
     <i type="logical" name="LSUBROT"> F  </i>
     <i name="WEIMIN">      0.00100000</i>
     <i name="EBREAK">      0.00000021</i>
     <i name="DEPER">      0.30000000</i>
     <i type="int" name="NRMM">     4</i>
     <i name="TIME">      0.40000000</i>
    </separator>
   </separator>
   <separator name="electronic mixer" >
    <i name="AMIX">      0.40000000</i>
    <i name="BMIX">      1.00000000</i>
    <i name="AMIN">      0.10000000</i>
    <i name="AMIX_MAG">      1.60000000</i>
    <i name="BMIX_MAG">      1.00000000</i>
    <separator name="electronic mixer details" >
     <i type="int" name="IMIX">     4</i>
     <i type="logical" name="MIXFIRST"> F  </i>
     <i type="int" name="MAXMIX">   -45</i>
     <i name="WC">    100.00000000</i>
     <i type="int" name="INIMIX">     1</i>
     <i type="int" name="MIXPRE">     1</i>
     <i type="int" name="MREMOVE">     5</i>
    </separator>
   </separator>
   <separator name="electronic dipolcorrection" >
    <i type="logical" name="LDIPOL"> F  </i>
    <i type="logical" name="LMONO"> F  </i>
    <i type="int" name="IDIPOL">     0</i>
    <i name="EPSILON">      1.00000000</i>
    <v name="DIPOL">   -100.00000000   -100.00000000   -100.00000000</v>
    <i name="EFIELD">      0.00000000</i>
   </separator>
  </separator>
  <separator name="grids" >
   <i type="int" name="NGX">    36</i>
   <i type="int" name="NGY">    50</i>
   <i type="int" name="NGZ">    70</i>
   <i type="int" name="NGXF">    72</i>
   <i type="int" name="NGYF">   100</i>
   <i type="int" name="NGZF">   140</i>
   <i type="logical" name="ADDGRID"> F  </i>
  </separator>
  <separator name="ionic" >
   <i type="int" name="NSW">    50</i>
   <i type="int" name="IBRION">     2</i>
   <i type="int" name="MDALGO">     0</i>
   <i type="int" name="ISIF">     3</i>
   <i name="PSTRESS">      0.00000000</i>
   <i name="EDIFFG">      0.00100000</i>
   <i type="int" name="NFREE">     1</i>
   <i name="POTIM">      0.50000000</i>
   <i name="SMASS">     -3.00000000</i>
   <i name="SCALEE">      1.00000000</i>
  </separator>
  <separator name="ionic md" >
   <i name="TEBEG">      0.00010000</i>
   <i name="TEEND">      0.00010000</i>
   <i type="int" name="NBLOCK">     1</i>
   <i type="int" name="KBLOCK">    50</i>
   <i type="int" name="NPACO">   256</i>
   <i name="APACO">     16.00000000</i>
  </separator>
  <separator name="symmetry" >
   <i type="int" name="ISYM">     0</i>
   <i name="SYMPREC">      0.00001000</i>
  </separator>
  <separator name="dos" >
   <i type="int" name="LORBIT">     0</i>
   <v name="RWIGS">     -1.00000000     -1.00000000     -1.00000000     -1.00000000     -1.00000000</v>
   <i type="int" name="NEDOS">   301</i>
   <i name="EMIN">     10.00000000</i>
   <i name="EMAX">    -10.00000000</i>
   <i name="EFERMI">      0.00000000</i>
  </separator>
  <separator name="writing" >
   <i type="int" name="NWRITE">     2</i>
   <i type="logical" name="LWAVE"> T  </i>
   <i type="logical" name="LDOWNSAMPLE"> F  </i>
   <i type="logical" name="LCHARG"> T  </i>
   <i type="logical" name="LPARD"> F  </i>
   <i type="logical" name="LVTOT"> F  </i>
   <i type="logical" name="LVHAR"> F  </i>
   <i type="logical" name="LELF"> F  </i>
   <i type="logical" name="LOPTICS"> F  </i>
   <v name="STM">      0.00000000      0.00000000      0.00000000      0.00000000      0.00000000      0.00000000      0.00000000</v>
  </separator>
  <separator name="performance" >
   <i type="int" name="NPAR">     8</i>
   <i type="int" name="NSIM">     4</i>
   <i type="int" name="NBLK">    -1</i>
   <i type="logical" name="LPLANE"> T  </i>
   <i type="logical" name="LSCALAPACK"> T  </i>
   <i type="logical" name="LSCAAWARE"> F  </i>
   <i type="logical" name="LSCALU"> F  </i>
   <i type="logical" name="LASYNC"> F  </i>
   <i type="logical" name="LORBITALREAL"> F  </i>
  </separator>
  <separator name="miscellaneous" >
   <i type="int" name="IDIOT">     3</i>
   <i type="int" name="ISPECIAL">     0</i>
   <i type="logical" name="LMUSIC"> F  </i>
   <v name="POMASS">     92.91000000     95.94000000    180.94800000     47.88000000    183.85000000</v>
   <v name="DARWINR">      0.00000000      0.00000000      0.00000000      0.00000000      0.00000000</v>
   <v name="DARWINV">      1.00000000      1.00000000      1.00000000      1.00000000      1.00000000</v>
   <i type="logical" name="LCORR"> T  </i>
  </separator>
  <i type="logical" name="GGA_COMPAT"> T  </i>
  <i type="logical" name="LBERRY"> F  </i>
  <i type="int" name="ICORELEVEL">     0</i>
  <i type="logical" name="LDAU"> F  </i>
  <i type="int" name="I_CONSTRAINED_M">     0</i>
  <separator name="electronic exchange-correlation" >
   <i type="string" name="GGA">PS</i>
   <i type="int" name="VOSKOWN">     0</i>
   <i type="logical" name="LHFCALC"> F  </i>
   <i type="string" name="PRECFOCK"></i>
   <i type="logical" name="LSYMGRAD"> F  </i>
   <i type="logical" name="LHFONE"> F  </i>
   <i type="logical" name="LRHFCALC"> F  </i>
   <i type="logical" name="LTHOMAS"> F  </i>
   <i type="logical" name="LMODELHF"> F  </i>
   <i name="ENCUT4O">     -1.00000000</i>
   <i type="int" name="EXXOEP">     0</i>
   <i type="int" name="FOURORBIT">     0</i>
   <i name="AEXX">      0.00000000</i>
   <i name="HFALPHA">      0.00000000</i>
   <i name="MCALPHA">      0.00000000</i>
   <i name="ALDAX">      1.00000000</i>
   <i name="AGGAX">      1.00000000</i>
   <i name="ALDAC">      1.00000000</i>
   <i name="AGGAC">      1.00000000</i>
   <i type="int" name="NKREDX">     1</i>
   <i type="int" name="NKREDY">     1</i>
   <i type="int" name="NKREDZ">     1</i>
   <i type="logical" name="SHIFTRED"> F  </i>
   <i type="logical" name="ODDONLY"> F  </i>
   <i type="logical" name="EVENONLY"> F  </i>
   <i type="int" name="LMAXFOCK">     0</i>
   <i type="int" name="NMAXFOCKAE">     0</i>
   <i type="logical" name="LFOCKAEDFT"> F  </i>
   <i name="HFSCREEN">      0.00000000</i>
   <i name="HFSCREENC">      0.00000000</i>
   <i type="int" name="NBANDSGWLOW">     0</i>
  </separator>
  <separator name="vdW DFT" >
   <i type="logical" name="LUSE_VDW"> F  </i>
   <i name="Zab_VDW">     -0.84910000</i>
   <i name="PARAM1">      0.12340000</i>
   <i name="PARAM2">      1.00000000</i>
   <i name="PARAM3">      0.00000000</i>
  </separator>
  <separator name="model GW" >
   <i type="int" name="MODEL_GW">     0</i>
   <i name="MODEL_EPS0">     10.07433900</i>
   <i name="MODEL_ALPHA">      1.00000000</i>
  </separator>
  <separator name="linear response parameters" >
   <i type="logical" name="LEPSILON"> F  </i>
   <i type="logical" name="LRPA"> F  </i>
   <i type="logical" name="LNABLA"> F  </i>
   <i type="logical" name="LVEL"> F  </i>
   <i type="int" name="KINTER">     0</i>
   <i name="CSHIFT">      0.10000000</i>
   <i name="OMEGAMAX">     -1.00000000</i>
   <i name="DEG_THRESHOLD">      0.00200000</i>
   <i name="RTIME">     -0.10000000</i>
   <i name="WPLASMAI">      0.00000000</i>
   <v name="DFIELD">      0.00000000      0.00000000      0.00000000</v>
   <v name="WPLASMA">      0.00000000      0.00000000      0.00000000      0.00000000      0.00000000      0.00000000      0.00000000      0.00000000      0.00000000</v>
  </separator>
  <separator name="orbital magnetization" >
   <i type="logical" name="NUCIND"> F  </i>
   <v name="MAGPOS">      0.00000000      0.00000000      0.00000000</v>
   <i type="logical" name="LNICSALL"> T  </i>
   <i type="logical" name="ORBITALMAG"> F  </i>
   <i type="logical" name="LMAGBLOCH"> F  </i>
   <i type="logical" name="LCHIMAG"> F  </i>
   <i type="logical" name="LGAUGE"> T  </i>
   <i type="int" name="MAGATOM">     0</i>
   <v name="MAGDIPOL">      0.00000000      0.00000000      0.00000000</v>
   <v name="AVECCONST">      0.00000000      0.00000000      0.00000000</v>
  </separator>
  <separator name="response functions" >
   <i type="logical" name="LADDER"> F  </i>
   <i type="logical" name="LRPAFORCE"> F  </i>
   <i type="logical" name="LFXC"> F  </i>
   <i type="logical" name="LHARTREE"> T  </i>
   <i type="int" name="IBSE">     0</i>
   <v type="int" name="KPOINT">    -1     0     0     0</v>
   <i type="logical" name="LTCTE"> F  </i>
   <i type="logical" name="LTETE"> F  </i>
   <i type="logical" name="LTRIPLET"> F  </i>
   <i type="logical" name="LFXCEPS"> F  </i>
   <i type="logical" name="LFXHEG"> F  </i>
   <i type="int" name="NATURALO">     2</i>
   <i type="logical" name="L2ORDER"> F  </i>
   <i type="logical" name="LMP2LT"> F  </i>
   <i type="logical" name="LUSEW"> F  </i>
   <i name="ENCUTGW">     -2.00000000</i>
   <i name="ENCUTGWSOFT">     -2.00000000</i>
   <i name="ENCUTLF">     -1.00000000</i>
   <i type="int" name="LMAXMP2">    -1</i>
   <i name="SCISSOR">      0.00000000</i>
   <i type="int" name="NOMEGA">     0</i>
   <i type="int" name="NOMEGAR">     0</i>
   <i type="int" name="NBANDSGW">    -1</i>
   <i type="int" name="NBANDSO">    -1</i>
   <i type="int" name="NBANDSV">    -1</i>
   <i type="int" name="NELM">     1</i>
   <i type="int" name="NELMHF">     1</i>
   <i type="int" name="DIM">     3</i>
   <i type="int" name="ANTIRES">     0</i>
   <i name="OMEGAMAX">    -30.00000000</i>
   <i name="OMEGAMIN">    -30.00000000</i>
   <i name="OMEGATL">   -200.00000000</i>
   <i type="int" name="OMEGAGRID">   140</i>
   <i name="CSHIFT">     -0.10000000</i>
   <i type="logical" name="SELFENERGY"> F  </i>
   <i type="logical" name="LSPECTRAL"> F  </i>
   <i type="logical" name="LSPECTRALGW"> F  </i>
   <i type="logical" name="LSINGLES"> F  </i>
   <i type="logical" name="LFERMIGW"> F  </i>
   <i type="logical" name="ODDONLYGW"> F  </i>
   <i type="logical" name="EVENONLYGW"> F  </i>
   <i type="int" name="NKREDLFX">     1</i>
   <i type="int" name="NKREDLFY">     1</i>
   <i type="int" name="NKREDLFZ">     1</i>
   <i type="int" name="MAXMEM">  2800</i>
   <i type="int" name="TELESCOPE">     0</i>
   <i type="int" name="TAUPAR">     1</i>
   <i type="int" name="OMEGAPAR">    -1</i>
   <i name="LAMBDA">      1.00000000</i>
  </separator>
  <separator name="External order field" >
   <i name="OFIELD_KAPPA">      0.00000000</i>
   <v name="OFIELD_K">      0.00000000      0.00000000      0.00000000</v>
   <i name="OFIELD_Q6_NEAR">      0.00000000</i>
   <i name="OFIELD_Q6_FAR">      0.00000000</i>
   <i name="OFIELD_A">      0.00000000</i>
  </separator>
  <separator name="solvation model" >
   <i type="logical" name="LSOL"> F  </i>
  </separator>
 </parameters>
 <atominfo>
  <atoms>      29 </atoms>
  <types>       5 </types>
  <array name="atoms" >
   <dimension dim="1">ion</dimension>
   <field type="string">element</field>
   <field type="int">atomtype</field>
   <set>
    <rc><c>Nb</c><c>   1</c></rc>
    <rc><c>Nb</c><c>   1</c></rc>
    <rc><c>Nb</c><c>   1</c></rc>
    <rc><c>Nb</c><c>   1</c></rc>
    <rc><c>Nb</c><c>   1</c></rc>
    <rc><c>Mo</c><c>   2</c></rc>
    <rc><c>Mo</c><c>   2</c></rc>
    <rc><c>Mo</c><c>   2</c></rc>
    <rc><c>Mo</c><c>   2</c></rc>
    <rc><c>Mo</c><c>   2</c></rc>
    <rc><c>Mo</c><c>   2</c></rc>
    <rc><c>Ta</c><c>   3</c></rc>
    <rc><c>Ta</c><c>   3</c></rc>
    <rc><c>Ta</c><c>   3</c></rc>
    <rc><c>Ta</c><c>   3</c></rc>
    <rc><c>Ta</c><c>   3</c></rc>
    <rc><c>Ta</c><c>   3</c></rc>
    <rc><c>Ti</c><c>   4</c></rc>
    <rc><c>Ti</c><c>   4</c></rc>
    <rc><c>Ti</c><c>   4</c></rc>
    <rc><c>Ti</c><c>   4</c></rc>
    <rc><c>Ti</c><c>   4</c></rc>
    <rc><c>Ti</c><c>   4</c></rc>
    <rc><c>W </c><c>   5</c></rc>
    <rc><c>W </c><c>   5</c></rc>
    <rc><c>W </c><c>   5</c></rc>
    <rc><c>W </c><c>   5</c></rc>
    <rc><c>W </c><c>   5</c></rc>
    <rc><c>W </c><c>   5</c></rc>
   </set>
  </array>
  <array name="atomtypes" >
   <dimension dim="1">type</dimension>
   <field type="int">atomspertype</field>
   <field type="string">element</field>
   <field>mass</field>
   <field>valence</field>
   <field type="string">pseudopotential</field>
   <set>
    <rc><c>   5</c><c>Nb</c><c>     92.91000000</c><c>     13.00000000</c><c>  PAW_PBE Nb_sv 25May2007               </c></rc>
    <rc><c>   6</c><c>Mo</c><c>     95.94000000</c><c>      6.00000000</c><c>  PAW_PBE Mo 08Apr2002                  </c></rc>
    <rc><c>   6</c><c>Ta</c><c>    180.94800000</c><c>      5.00000000</c><c>  PAW_PBE Ta 17Jan2003                  </c></rc>
    <rc><c>   6</c><c>Ti</c><c>     47.88000000</c><c>      4.00000000</c><c>  PAW_PBE Ti 08Apr2002                  </c></rc>
    <rc><c>   6</c><c>W </c><c>    183.85000000</c><c>      6.00000000</c><c>  PAW_PBE W 08Apr2002                   </c></rc>
   </set>
  </array>
 </atominfo>
 <structure name="initialpos" >
  <crystal>
   <varray name="basis" >
    <v>      -3.19000000      -3.19000000      -3.19000000 </v>
    <v>       1.59500000       1.59500000      -7.97500000 </v>
    <v>       7.97500000      -7.97500000      -1.59500000 </v>
   </varray>
   <i name="volume">    486.92638500 </i>
   <varray name="rec_basis" >
    <v>      -0.13584117      -0.12539185      -0.05224660 </v>
    <v>       0.04179728       0.06269592      -0.10449321 </v>
    <v>       0.06269592      -0.06269592       0.00000000 </v>
   </varray>
  </crystal>
  <varray name="positions" >
   <v>       0.96666667       0.93333333       0.40000000 </v>
   <v>       0.63333333       0.26666667       0.40000000 </v>
   <v>       0.50000000       0.00000000       0.00000000 </v>
   <v>       0.00000000       0.00000000       0.00000000 </v>
   <v>       0.03333333       0.06666667       0.60000000 </v>
   <v>       0.90000000       0.80000000       0.20000000 </v>
   <v>       0.80000000       0.60000000       0.40000000 </v>
   <v>       0.73333333       0.46666667       0.20000000 </v>
   <v>       0.66666667       0.33333333       0.00000000 </v>
   <v>       0.36666667       0.73333333       0.60000000 </v>
   <v>       0.13333333       0.26666667       0.40000000 </v>
   <v>       0.83333333       0.66666667       0.00000000 </v>
   <v>       0.93333333       0.86666667       0.80000000 </v>
   <v>       0.56666667       0.13333333       0.20000000 </v>
   <v>       0.40000000       0.80000000       0.20000000 </v>
   <v>       0.43333333       0.86666667       0.80000000 </v>
   <v>       0.30000000       0.60000000       0.40000000 </v>
   <v>       0.86666667       0.73333333       0.60000000 </v>
   <v>       0.46666667       0.93333333       0.40000000 </v>
   <v>       0.16666667       0.33333333       0.00000000 </v>
   <v>       0.26666667       0.53333333       0.80000000 </v>
   <v>       0.20000000       0.40000000       0.60000000 </v>
   <v>       0.06666667       0.13333333       0.20000000 </v>
   <v>       0.76666667       0.53333333       0.80000000 </v>
   <v>       0.70000000       0.40000000       0.60000000 </v>
   <v>       0.60000000       0.20000000       0.80000000 </v>
   <v>       0.53333333       0.06666667       0.60000000 </v>
   <v>       0.33333333       0.66666667       0.00000000 </v>
   <v>       0.23333333       0.46666667       0.20000000 </v>
  </varray>
 </structure>
 <calculation>
  <scstep>
   <time name="dav">   18.27   18.31</time>
   <time name="total">   18.31   18.38</time>
   <energy>
    <i name="alphaZ">   1248.41475165 </i>
    <i name="ewald"> -10688.41253131 </i>
    <i name="hartreedc">  -2717.25415775 </i>
    <i name="XCdc">   -962.16369482 </i>
    <i name="pawpsdc">  11070.58973812 </i>
    <i name="pawaedc">  -9526.02277447 </i>
    <i name="eentropy">     -0.00029000 </i>
    <i name="bandstr">   1858.21456923 </i>
    <i name="atom">  11656.65998444 </i>
    <i name="e_fr_energy">   1940.02559509 </i>
    <i name="e_wo_entrp">   1940.02588509 </i>
    <i name="e_0_energy">   1940.02569175 </i>
   </energy>
  </scstep>
  <scstep>
   <time name="dav">   18.27   18.30</time>
   <time name="total">   18.28   18.30</time>
   <energy>
    <i name="e_fr_energy">     28.34296303 </i>
    <i name="e_wo_entrp">     28.34437064 </i>
    <i name="e_0_energy">     28.34343223 </i>
   </energy>
  </scstep>
  <scstep>
   <time name="dav">   29.03   29.07</time>
   <time name="total">   29.04   29.07</time>
   <energy>
    <i name="e_fr_energy">   -310.64782073 </i>
    <i name="e_wo_entrp">   -310.64963646 </i>
    <i name="e_0_energy">   -310.64842597 </i>
   </energy>
  </scstep>
  <scstep>
   <time name="dav">   26.37   26.41</time>
   <time name="total">   26.38   26.42</time>
   <energy>
    <i name="e_fr_energy">   -350.70953230 </i>
    <i name="e_wo_entrp">   -350.70415791 </i>
    <i name="e_0_energy">   -350.70774084 </i>
   </energy>
  </scstep>
  <scstep>
   <time name="dav">   30.39   30.43</time>
   <time name="total">   30.96   31.00</time>
   <energy>
    <i name="e_fr_energy">   -354.79245738 </i>
    <i name="e_wo_entrp">   -354.78732280 </i>
    <i name="e_0_energy">   -354.79074585 </i>
   </energy>
  </scstep>
  <scstep>
   <time name="dav">   24.22   24.25</time>
   <time name="total">   24.82   24.85</time>
   <energy>
    <i name="e_fr_energy">   -346.94994829 </i>
    <i name="e_wo_entrp">   -346.93220560 </i>
    <i name="e_0_energy">   -346.94403406 </i>
   </energy>
  </scstep>
  <scstep>
   <time name="dav">   24.88   24.91</time>
   <time name="total">   25.49   25.53</time>
   <energy>
    <i name="e_fr_energy">   -359.70933981 </i>
    <i name="e_wo_entrp">   -359.71492099 </i>
    <i name="e_0_energy">   -359.71120021 </i>
   </energy>
  </scstep>
  <scstep>
   <time name="dav">   24.58   24.61</time>
   <time name="total">   25.18   25.22</time>
   <energy>
    <i name="e_fr_energy">   -353.43710443 </i>
    <i name="e_wo_entrp">   -353.45227457 </i>
    <i name="e_0_energy">   -353.44216114 </i>
   </energy>
  </scstep>
  <scstep>
   <time name="dav">   24.16   24.19</time>
   <time name="total">   24.76   24.79</time>
   <energy>
    <i name="e_fr_energy">   -338.75823880 </i>
    <i name="e_wo_entrp">   -338.75192217 </i>
    <i name="e_0_energy">   -338.75613326 </i>
   </energy>
  </scstep>
  <scstep>
   <time name="dav">   25.39   25.43</time>
   <time name="total">   26.01   26.05</time>
   <energy>
    <i name="e_fr_energy">   -334.57623623 </i>
    <i name="e_wo_entrp">   -334.57492956 </i>
    <i name="e_0_energy">   -334.57580067 </i>
   </energy>
  </scstep>
  <scstep>
   <time name="dav">   25.33   25.36</time>
   <time name="total">   25.94   25.97</time>
   <energy>
    <i name="e_fr_energy">   -332.63669528 </i>
    <i name="e_wo_entrp">   -332.62129222 </i>
    <i name="e_0_energy">   -332.63156093 </i>
   </energy>
  </scstep>
  <scstep>
   <time name="dav">   25.15   25.19</time>
   <time name="total">   25.75   25.78</time>
   <energy>
    <i name="e_fr_energy">   -332.00681180 </i>
    <i name="e_wo_entrp">   -331.98849028 </i>
    <i name="e_0_energy">   -332.00070463 </i>
   </energy>
  </scstep>
  <scstep>
   <time name="dav">   24.27   24.30</time>
   <time name="total">   24.87   24.91</time>
   <energy>
    <i name="e_fr_energy">   -331.82146042 </i>
    <i name="e_wo_entrp">   -331.80121740 </i>
    <i name="e_0_energy">   -331.81471275 </i>
   </energy>
  </scstep>
  <scstep>
   <time name="dav">   24.67   24.70</time>
   <time name="total">   25.28   25.31</time>
   <energy>
    <i name="e_fr_energy">   -331.78172063 </i>
    <i name="e_wo_entrp">   -331.76183851 </i>
    <i name="e_0_energy">   -331.77509325 </i>
   </energy>
  </scstep>
  <scstep>
   <time name="dav">   25.28   25.31</time>
   <time name="total">   25.88   25.91</time>
   <energy>
    <i name="e_fr_energy">   -331.74587961 </i>
    <i name="e_wo_entrp">   -331.72433779 </i>
    <i name="e_0_energy">   -331.73869901 </i>
   </energy>
  </scstep>
  <scstep>
   <time name="dav">   24.91   24.94</time>
   <time name="total">   25.51   25.55</time>
   <energy>
    <i name="e_fr_energy">   -331.75039613 </i>
    <i name="e_wo_entrp">   -331.72972030 </i>
    <i name="e_0_energy">   -331.74350419 </i>
   </energy>
  </scstep>
  <scstep>
   <time name="dav">   25.21   25.25</time>
   <time name="total">   25.82   25.86</time>
   <energy>
    <i name="e_fr_energy">   -331.74203514 </i>
    <i name="e_wo_entrp">   -331.72054862 </i>
    <i name="e_0_energy">   -331.73487296 </i>
   </energy>
  </scstep>
  <scstep>
   <time name="dav">   24.99   25.02</time>
   <time name="total">   25.59   25.62</time>
   <energy>
    <i name="e_fr_energy">   -331.73754081 </i>
    <i name="e_wo_entrp">   -331.71671050 </i>
    <i name="e_0_energy">   -331.73059737 </i>
   </energy>
  </scstep>
  <scstep>
   <time name="dav">   24.57   24.61</time>
   <time name="total">   25.17   25.21</time>
   <energy>
    <i name="e_fr_energy">   -331.73746041 </i>
    <i name="e_wo_entrp">   -331.71644536 </i>
    <i name="e_0_energy">   -331.73045539 </i>
   </energy>
  </scstep>
  <scstep>
   <time name="dav">   23.58   23.86</time>
   <time name="total">   24.18   24.47</time>
   <energy>
    <i name="e_fr_energy">   -331.73705075 </i>
    <i name="e_wo_entrp">   -331.71597655 </i>
    <i name="e_0_energy">   -331.73002601 </i>
   </energy>
  </scstep>
  <scstep>
   <time name="dav">   22.64   22.67</time>
   <time name="total">   23.24   23.27</time>
   <energy>
    <i name="e_fr_energy">   -331.73699844 </i>
    <i name="e_wo_entrp">   -331.71598704 </i>
    <i name="e_0_energy">   -331.72999464 </i>
   </energy>
  </scstep>
  <scstep>
   <time name="dav">   20.93   20.96</time>
   <time name="total">   20.97   21.00</time>
   <energy>
    <i name="alphaZ">   1248.41475165 </i>
    <i name="ewald"> -10688.41253131 </i>
    <i name="hartreedc">  -2579.74810610 </i>
    <i name="XCdc">   -955.30338594 </i>
    <i name="pawpsdc">  19682.19890897 </i>
    <i name="pawaedc"> -18143.34231836 </i>
    <i name="eentropy">     -0.02112893 </i>
    <i name="bandstr">   -552.18317738 </i>
    <i name="atom">  11656.65998444 </i>
    <i name="e_fr_energy">   -331.73700295 </i>
    <i name="e_wo_entrp">   -331.71587402 </i>
    <i name="e_0_energy">   -331.72995998 </i>
   </energy>
  </scstep>
  <structure>
   <crystal>
    <varray name="basis" >
     <v>      -3.19000000      -3.19000000      -3.19000000 </v>
     <v>       1.59500000       1.59500000      -7.97500000 </v>
     <v>       7.97500000      -7.97500000      -1.59500000 </v>
    </varray>
    <i name="volume">    486.92638500 </i>
    <varray name="rec_basis" >
     <v>      -0.13584117      -0.12539185      -0.05224660 </v>
     <v>       0.04179728       0.06269592      -0.10449321 </v>
     <v>       0.06269592      -0.06269592       0.00000000 </v>
    </varray>
   </crystal>
   <varray name="positions" >
    <v>       0.96666667       0.93333333       0.40000000 </v>
    <v>       0.63333333       0.26666667       0.40000000 </v>
    <v>       0.50000000       0.00000000       0.00000000 </v>
    <v>       0.00000000       0.00000000       0.00000000 </v>
    <v>       0.03333333       0.06666667       0.60000000 </v>
    <v>       0.90000000       0.80000000       0.20000000 </v>
    <v>       0.80000000       0.60000000       0.40000000 </v>
    <v>       0.73333333       0.46666667       0.20000000 </v>
    <v>       0.66666667       0.33333333       0.00000000 </v>
    <v>       0.36666667       0.73333333       0.60000000 </v>
    <v>       0.13333333       0.26666667       0.40000000 </v>
    <v>       0.83333333       0.66666667       0.00000000 </v>
    <v>       0.93333333       0.86666667       0.80000000 </v>
    <v>       0.56666667       0.13333333       0.20000000 </v>
    <v>       0.40000000       0.80000000       0.20000000 </v>
    <v>       0.43333333       0.86666667       0.80000000 </v>
    <v>       0.30000000       0.60000000       0.40000000 </v>
    <v>       0.86666667       0.73333333       0.60000000 </v>
    <v>       0.46666667       0.93333333       0.40000000 </v>
    <v>       0.16666667       0.33333333       0.00000000 </v>
    <v>       0.26666667       0.53333333       0.80000000 </v>
    <v>       0.20000000       0.40000000       0.60000000 </v>
    <v>       0.06666667       0.13333333       0.20000000 </v>
    <v>       0.76666667       0.53333333       0.80000000 </v>
    <v>       0.70000000       0.40000000       0.60000000 </v>
    <v>       0.60000000       0.20000000       0.80000000 </v>
    <v>       0.53333333       0.06666667       0.60000000 </v>
    <v>       0.33333333       0.66666667       0.00000000 </v>
    <v>       0.23333333       0.46666667       0.20000000 </v>
   </varray>
  </structure>
  <varray name="forces" >
   <v>      -0.34545069       0.64290320       0.32095122 </v>
   <v>       0.16459617      -0.25812656       0.14196797 </v>
   <v>      -0.01249208       0.22147614      -0.43129636 </v>
   <v>      -0.03429959       0.45901856      -0.39731303 </v>
   <v>       0.07347489      -0.20831117      -0.63591905 </v>
   <v>       0.43222999      -0.66863340       0.07116243 </v>
   <v>      -0.53785341      -0.24001987       0.52347627 </v>
   <v>      -0.19834822       0.07909117       0.03196201 </v>
   <v>       0.10814639       0.58927521      -0.38841169 </v>
   <v>      -0.12916833      -0.28544048       0.32441249 </v>
   <v>       0.15816407       0.20403226      -0.48553544 </v>
   <v>       0.03200175      -0.28593238       0.32086569 </v>
   <v>       0.37777156       0.46336635      -0.00453454 </v>
   <v>      -0.41665971       0.44594070       0.03629403 </v>
   <v>      -0.64996808       0.00534938       0.48431109 </v>
   <v>      -0.50935172       0.31309796      -0.07024448 </v>
   <v>       0.30807348      -0.21637545      -0.34127195 </v>
   <v>       0.24871910       0.29788751       0.20414207 </v>
   <v>       0.74234702      -0.45641198       0.17954224 </v>
   <v>      -0.47534031       0.04703213      -0.03074525 </v>
   <v>      -0.27301294      -0.13348320      -0.54676908 </v>
   <v>       0.06385949      -0.52245327       0.85676703 </v>
   <v>       0.50357461      -0.03613734      -0.65061376 </v>
   <v>      -0.31512119      -0.38450319       1.14105966 </v>
   <v>       1.03034892       0.07173353      -0.59744399 </v>
   <v>      -0.46178383       0.37156850      -0.22290199 </v>
   <v>       0.07898061      -0.45728502      -0.56424995 </v>
   <v>      -0.12655511      -0.34152303       0.76840780 </v>
   <v>       0.16311714       0.28286372      -0.03807146 </v>
  </varray>
  <varray name="stress" >
   <v>     -32.42336442       4.55301637       7.24338280 </v>
   <v>       4.55301644     -33.47656192       1.85747684 </v>
   <v>       7.24338279       1.85747673     -33.97949582 </v>
  </varray>
  <energy>
   <i name="e_fr_energy">   -331.73700295 </i>
   <i name="e_wo_entrp">   -331.72995998 </i>
   <i name="e_0_energy">     -0.02112893 </i>
  </energy>
  <time name="totalsc">  566.23  567.37</time>
 </calculation>
 <calculation>
  <scstep>
   <time name="dav">   21.72   21.75</time>
   <time name="total">   22.34   22.37</time>
   <energy>
    <i name="alphaZ">   1313.66554342 </i>
    <i name="ewald"> -10913.96983840 </i>
    <i name="hartreedc">  -2582.88884739 </i>
    <i name="XCdc">   -949.78109784 </i>
    <i name="pawpsdc">  19681.18330515 </i>
    <i name="pawaedc"> -18142.31212434 </i>
    <i name="eentropy">     -0.00452060 </i>
    <i name="bandstr">   -396.19332049 </i>
    <i name="atom">  11656.65998444 </i>
    <i name="e_fr_energy">   -333.64091604 </i>
    <i name="e_wo_entrp">   -333.63639544 </i>
    <i name="e_0_energy">   -333.63940917 </i>
   </energy>
  </scstep>
  <scstep>
   <time name="dav">   26.88   26.92</time>
   <time name="total">   27.48   27.53</time>
   <energy>
    <i name="e_fr_energy">   -334.28697348 </i>
    <i name="e_wo_entrp">   -334.28256273 </i>
    <i name="e_0_energy">   -334.28550323 </i>
   </energy>
  </scstep>
  <scstep>
   <time name="dav">   25.64   25.68</time>
   <time name="total">   26.25   26.29</time>
   <energy>
    <i name="e_fr_energy">   -332.92559659 </i>
    <i name="e_wo_entrp">   -332.93349755 </i>
    <i name="e_0_energy">   -332.92823024 </i>
   </energy>
  </scstep>
  <scstep>
   <time name="dav">   26.79   26.84</time>
   <time name="total">   27.39   27.44</time>
   <energy>
    <i name="e_fr_energy">   -332.41357533 </i>
    <i name="e_wo_entrp">   -332.40644672 </i>
    <i name="e_0_energy">   -332.41119913 </i>
   </energy>
  </scstep>
  <scstep>
   <time name="dav">   26.00   26.04</time>
   <time name="total">   26.60   26.65</time>
   <energy>
    <i name="e_fr_energy">   -332.06625147 </i>
    <i name="e_wo_entrp">   -332.06282737 </i>
    <i name="e_0_energy">   -332.06511010 </i>
   </energy>
  </scstep>
  <scstep>
   <time name="dav">   27.55   27.59</time>
   <time name="total">   28.16   28.19</time>
   <energy>
    <i name="e_fr_energy">   -331.91659362 </i>
    <i name="e_wo_entrp">   -331.90701887 </i>
    <i name="e_0_energy">   -331.91340204 </i>
   </energy>
  </scstep>
  <scstep>
   <time name="dav">   27.64   27.68</time>
   <time name="total">   28.24   28.28</time>
   <energy>
    <i name="e_fr_energy">   -331.93940406 </i>
    <i name="e_wo_entrp">   -331.93449039 </i>
    <i name="e_0_energy">   -331.93776617 </i>
   </energy>
  </scstep>
  <scstep>
   <time name="dav">   26.49   26.53</time>
   <time name="total">   27.10   27.14</time>
   <energy>
    <i name="e_fr_energy">   -331.92839580 </i>
    <i name="e_wo_entrp">   -331.91988855 </i>
    <i name="e_0_energy">   -331.92556005 </i>
   </energy>
  </scstep>
  <scstep>
   <time name="dav">   26.39   26.43</time>
   <time name="total">   26.99   27.04</time>
   <energy>
    <i name="e_fr_energy">   -331.93326693 </i>
    <i name="e_wo_entrp">   -331.92562232 </i>
    <i name="e_0_energy">   -331.93071873 </i>
   </energy>
  </scstep>
  <scstep>
   <time name="dav">   26.55   26.59</time>
   <time name="total">   27.15   27.19</time>
   <energy>
    <i name="e_fr_energy">   -331.93727248 </i>
    <i name="e_wo_entrp">   -331.92963293 </i>
    <i name="e_0_energy">   -331.93472596 </i>
   </energy>
  </scstep>
  <scstep>
   <time name="dav">   26.83   26.86</time>
   <time name="total">   27.43   27.47</time>
   <energy>
    <i name="e_fr_energy">   -331.93664152 </i>
    <i name="e_wo_entrp">   -331.92878170 </i>
    <i name="e_0_energy">   -331.93402158 </i>
   </energy>
  </scstep>
  <scstep>
   <time name="dav">   28.20   28.24</time>
   <time name="total">   28.81   28.86</time>
   <energy>
    <i name="e_fr_energy">   -331.93720465 </i>
    <i name="e_wo_entrp">   -331.92937844 </i>
    <i name="e_0_energy">   -331.93459591 </i>
   </energy>
  </scstep>
  <scstep>
   <time name="dav">   26.39   26.43</time>
   <time name="total">   26.99   27.04</time>
   <energy>
    <i name="e_fr_energy">   -331.93744164 </i>
    <i name="e_wo_entrp">   -331.92968751 </i>
    <i name="e_0_energy">   -331.93485693 </i>
   </energy>
  </scstep>
  <scstep>
   <time name="dav">   24.01   24.06</time>
   <time name="total">   24.62   24.67</time>
   <energy>
    <i name="e_fr_energy">   -331.93739145 </i>
    <i name="e_wo_entrp">   -331.92958727 </i>
    <i name="e_0_energy">   -331.93479006 </i>
   </energy>
  </scstep>
  <scstep>
   <time name="dav">   15.13   15.15</time>
   <time name="total">   15.16   15.19</time>
   <energy>
    <i name="alphaZ">   1313.66554342 </i>
    <i name="ewald"> -10913.96983840 </i>
    <i name="hartreedc">  -2504.20603855 </i>
    <i name="XCdc">   -951.78681356 </i>
    <i name="pawpsdc">  21364.08695402 </i>
    <i name="pawaedc"> -19826.32890453 </i>
    <i name="eentropy">     -0.00775890 </i>
    <i name="bandstr">   -470.05048257 </i>
    <i name="atom">  11656.65998444 </i>
    <i name="e_fr_energy">   -331.93735464 </i>
    <i name="e_wo_entrp">   -331.92959574 </i>
    <i name="e_0_energy">   -331.93476834 </i>
   </energy>
  </scstep>
  <structure>
   <crystal>
    <varray name="basis" >
     <v>      -3.15673313      -3.14634824      -3.14987610 </v>
     <v>       1.54332050       1.56418698      -7.83065704 </v>
     <v>       7.82007156      -7.82316398      -1.54588340 </v>
    </varray>
    <i name="volume">    462.74037181 </i>
    <varray name="rec_basis" >
     <v>      -0.13761186      -0.12717824      -0.05252557 </v>
     <v>       0.04274127       0.06377701      -0.10653989 </v>
     <v>       0.06389105      -0.06392475      -0.00017698 </v>
    </varray>
   </crystal>
   <varray name="positions" >
    <v>       0.96423249       0.93296337       0.39701061 </v>
    <v>       0.63345831       0.26550216       0.40127857 </v>
    <v>       0.49982919       0.00281887      -0.00070766 </v>
    <v>      -0.00155050       0.00332206      -0.00149210 </v>
    <v>       0.03571479       0.06939045       0.60085230 </v>
    <v>       0.90103281       0.79849046       0.20332969 </v>
    <v>       0.80365724       0.59555064       0.39909917 </v>
    <v>       0.73407417       0.46634482       0.19916085 </v>
    <v>       0.66337228       0.33729172      -0.00145523 </v>
    <v>       0.36842216       0.73057415       0.60047266 </v>
    <v>       0.13228639       0.27005031       0.39986127 </v>
    <v>       0.83404454       0.66424887       0.00096163 </v>
    <v>       0.92806608       0.86885278       0.79974111 </v>
    <v>       0.56660810       0.13365901       0.19739096 </v>
    <v>       0.40300639       0.79626415       0.19801792 </v>
    <v>       0.43495433       0.86694071       0.79751240 </v>
    <v>       0.30015018       0.60168711       0.40158626 </v>
    <v>       0.86272019       0.73370676       0.59985128 </v>
    <v>       0.46411022       0.93254466       0.40362579 </v>
    <v>       0.16957472       0.33267209      -0.00157998 </v>
    <v>       0.27064143       0.53513537       0.79957798 </v>
    <v>       0.20058246       0.39422956       0.60177337 </v>
    <v>       0.06522506       0.13751921       0.20163242 </v>
    <v>       0.76818166       0.52578283       0.80020985 </v>
    <v>       0.69431971       0.40530631       0.60289945 </v>
    <v>       0.60134035       0.20131636       0.79747943 </v>
    <v>       0.53700417       0.06828722       0.60162200 </v>
    <v>       0.33429186       0.66150494       0.00065020 </v>
    <v>       0.23064922       0.46804306       0.19963781 </v>
   </varray>
  </structure>
  <varray name="forces" >
   <v>      -0.02119807       0.30802301       0.09954424 </v>
   <v>       0.02132181      -0.06925651       0.06926170 </v>
   <v>      -0.05842628       0.33483793      -0.07528041 </v>
   <v>      -0.17999792       0.33744990      -0.49085007 </v>
   <v>       0.14771371      -0.27503756      -0.56693278 </v>
   <v>       0.08400119      -0.11943237       0.00585817 </v>
   <v>      -0.04960566      -0.18751701       0.11279431 </v>
   <v>      -0.09668438      -0.09762724       0.15295388 </v>
   <v>      -0.11179787       0.18551719      -0.10580582 </v>
   <v>       0.01549179      -0.13279657       0.09320846 </v>
   <v>       0.16442423      -0.03716699      -0.13255237 </v>
   <v>      -0.03920306      -0.03915070       0.02939333 </v>
   <v>      -0.11593256      -0.00201538      -0.10065240 </v>
   <v>      -0.08727972       0.15459583       0.11227886 </v>
   <v>      -0.11495524       0.01700316      -0.00559817 </v>
   <v>       0.11298264       0.32751583      -0.00553314 </v>
   <v>       0.20179633      -0.31597897      -0.05703751 </v>
   <v>       0.05895572       0.17344484       0.12739310 </v>
   <v>       0.38375748      -0.24786923       0.13729891 </v>
   <v>      -0.51747558       0.25000632       0.19290741 </v>
   <v>      -0.10060082       0.04295693      -0.19585647 </v>
   <v>       0.41134009      -0.41631810       0.60486198 </v>
   <v>       0.26606307       0.02285517      -0.40292216 </v>
   <v>      -0.45660588      -0.55165961       0.62069154 </v>
   <v>       0.22157144       0.02842266      -0.23535385 </v>
   <v>      -0.03421924       0.25317420      -0.19564504 </v>
   <v>       0.03586224      -0.06172038      -0.16364305 </v>
   <v>      -0.17836842       0.11127710       0.28091800 </v>
   <v>       0.03706894       0.00646653       0.09429936 </v>
  </varray>
  <varray name="stress" >
   <v>      80.92888401       1.69412401       3.88056708 </v>
   <v>       1.69412404      80.53210994       0.89509386 </v>
   <v>       3.88056702       0.89509388      83.00943950 </v>
  </varray>
  <energy>
   <i name="e_fr_energy">   -331.93735464 </i>
   <i name="e_wo_entrp">   -331.93476834 </i>
   <i name="e_0_energy">     -0.00775890 </i>
  </energy>
  <time name="totalsc">  408.57  409.22</time>
 </calculation>
 <calculation>
  <scstep>
   <time name="dav">   21.27   21.30</time>
   <time name="total">   21.90   21.93</time>
   <energy>
    <i name="alphaZ">   1287.09194879 </i>
    <i name="ewald"> -10823.69413462 </i>
    <i name="hartreedc">  -2502.97736706 </i>
    <i name="XCdc">   -953.97532933 </i>
    <i name="pawpsdc">  21363.77344671 </i>
    <i name="pawaedc"> -19826.05100316 </i>
    <i name="eentropy">     -0.01401732 </i>
    <i name="bandstr">   -533.18952563 </i>
    <i name="atom">  11656.65998444 </i>
    <i name="e_fr_energy">   -332.37599718 </i>
    <i name="e_wo_entrp">   -332.36197987 </i>
    <i name="e_0_energy">   -332.37132474 </i>
   </energy>
  </scstep>
  <scstep>
   <time name="dav">   28.21   28.25</time>
   <time name="total">   28.81   28.86</time>
   <energy>
    <i name="e_fr_energy">   -332.48755154 </i>
    <i name="e_wo_entrp">   -332.48116996 </i>
    <i name="e_0_energy">   -332.48542435 </i>
   </energy>
  </scstep>
  <scstep>
   <time name="dav">   25.89   25.93</time>
   <time name="total">   26.50   26.54</time>
   <energy>
    <i name="e_fr_energy">   -332.34747322 </i>
    <i name="e_wo_entrp">   -332.33331907 </i>
    <i name="e_0_energy">   -332.34275517 </i>
   </energy>
  </scstep>
  <scstep>
   <time name="dav">   26.63   26.66</time>
   <time name="total">   27.23   27.26</time>
   <energy>
    <i name="e_fr_energy">   -332.21046585 </i>
    <i name="e_wo_entrp">   -332.20013667 </i>
    <i name="e_0_energy">   -332.20702279 </i>
   </energy>
  </scstep>
  <scstep>
   <time name="dav">   25.89   25.92</time>
   <time name="total">   26.50   26.55</time>
   <energy>
    <i name="e_fr_energy">   -332.12669051 </i>
    <i name="e_wo_entrp">   -332.11118032 </i>
    <i name="e_0_energy">   -332.12152045 </i>
   </energy>
  </scstep>
  <scstep>
   <time name="dav">   26.48   26.52</time>
   <time name="total">   27.08   27.24</time>
   <energy>
    <i name="e_fr_energy">   -332.11013703 </i>
    <i name="e_wo_entrp">   -332.09728652 </i>
    <i name="e_0_energy">   -332.10585352 </i>
   </energy>
  </scstep>
  <scstep>
   <time name="dav">   27.35   27.39</time>
   <time name="total">   27.95   28.00</time>
   <energy>
    <i name="e_fr_energy">   -332.11240488 </i>
    <i name="e_wo_entrp">   -332.09791661 </i>
    <i name="e_0_energy">   -332.10757546 </i>
   </energy>
  </scstep>
  <scstep>
   <time name="dav">   25.44   25.48</time>
   <time name="total">   26.05   26.09</time>
   <energy>
    <i name="e_fr_energy">   -332.11062822 </i>
    <i name="e_wo_entrp">   -332.09711352 </i>
    <i name="e_0_energy">   -332.10612332 </i>
   </energy>
  </scstep>
  <scstep>
   <time name="dav">   25.68   25.72</time>
   <time name="total">   26.27   26.32</time>
   <energy>
    <i name="e_fr_energy">   -332.11144480 </i>
    <i name="e_wo_entrp">   -332.09744852 </i>
    <i name="e_0_energy">   -332.10677938 </i>
   </energy>
  </scstep>
  <scstep>
   <time name="dav">   25.39   25.43</time>
   <time name="total">   25.99   26.03</time>
   <energy>
    <i name="e_fr_energy">   -332.11195810 </i>
    <i name="e_wo_entrp">   -332.09833809 </i>
    <i name="e_0_energy">   -332.10741810 </i>
   </energy>
  </scstep>
  <scstep>
   <time name="dav">   27.33   27.38</time>
   <time name="total">   27.93   27.99</time>
   <energy>
    <i name="e_fr_energy">   -332.11207420 </i>
    <i name="e_wo_entrp">   -332.09816669 </i>
    <i name="e_0_energy">   -332.10743836 </i>
   </energy>
  </scstep>
  <scstep>
   <time name="dav">   24.42   24.46</time>
   <time name="total">   25.02   25.07</time>
   <energy>
    <i name="e_fr_energy">   -332.11208570 </i>
    <i name="e_wo_entrp">   -332.09833267 </i>
    <i name="e_0_energy">   -332.10750135 </i>
   </energy>
  </scstep>
  <scstep>
   <time name="dav">   21.61   21.65</time>
   <time name="total">   21.64   21.68</time>
   <energy>
    <i name="alphaZ">   1287.09194879 </i>
    <i name="ewald"> -10823.69413462 </i>
    <i name="hartreedc">  -2534.11065247 </i>
    <i name="XCdc">   -953.18212620 </i>
    <i name="pawpsdc">  20652.90977558 </i>
    <i name="pawaedc"> -19114.49758018 </i>
    <i name="eentropy">     -0.01383387 </i>
    <i name="bandstr">   -503.27544130 </i>
    <i name="atom">  11656.65998444 </i>
    <i name="e_fr_energy">   -332.11205983 </i>
    <i name="e_wo_entrp">   -332.09822597 </i>
    <i name="e_0_energy">   -332.10744854 </i>
   </energy>
  </scstep>
  <structure>
   <crystal>
    <varray name="basis" >
     <v>      -3.17000625      -3.16376482      -3.16588510 </v>
     <v>       1.56394006       1.57648104      -7.88824831 </v>
     <v>       7.88188633      -7.88374490      -1.56548039 </v>
    </varray>
    <i name="volume">    472.29421533 </i>
    <varray name="rec_basis" >
     <v>      -0.13689960      -0.12645922      -0.05241510 </v>
     <v>       0.04235965       0.06334130      -0.10571367 </v>
     <v>       0.06340861      -0.06342879      -0.00010484 </v>
    </varray>
   </crystal>
   <varray name="positions" >
    <v>       0.96521576       0.93311652       0.39822759 </v>
    <v>       0.63340594       0.26597476       0.40075903 </v>
    <v>       0.49990222       0.00167280      -0.00042126 </v>
    <v>      -0.00091939       0.00197201      -0.00088648 </v>
    <v>       0.03475654       0.06828164       0.60050345 </v>
    <v>       0.90061285       0.79910161       0.20197566 </v>
    <v>       0.80217427       0.59736128       0.39946707 </v>
    <v>       0.73377471       0.46647645       0.19950221 </v>
    <v>       0.66470857       0.33568284      -0.00086448 </v>
    <v>       0.36770927       0.73169610       0.60028140 </v>
    <v>       0.13271391       0.26867403       0.39991615 </v>
    <v>       0.83375376       0.66523155       0.00057154 </v>
    <v>       0.93019644       0.86796386       0.79984666 </v>
    <v>       0.56663280       0.13352879       0.19845220 </v>
    <v>       0.40178750       0.79778549       0.19882547 </v>
    <v>       0.43430060       0.86683135       0.79852381 </v>
    <v>       0.30009149       0.60099943       0.40093999 </v>
    <v>       0.86431461       0.73355509       0.59991264 </v>
    <v>       0.46514079       0.93286241       0.40215188 </v>
    <v>       0.16839969       0.33294236      -0.00093764 </v>
    <v>       0.26903871       0.53440257       0.79974762 </v>
    <v>       0.20033887       0.39657537       0.60105491 </v>
    <v>       0.06581267       0.13581506       0.20096645 </v>
    <v>       0.76755936       0.52885407       0.80012817 </v>
    <v>       0.69662046       0.40314540       0.60171856 </v>
    <v>       0.60080140       0.20078303       0.79850376 </v>
    <v>       0.53552348       0.06762649       0.60096028 </v>
    <v>       0.33389749       0.66360409       0.00038823 </v>
    <v>       0.23173523       0.46748354       0.19978513 </v>
   </varray>
  </structure>
  <varray name="forces" >
   <v>      -0.17364431       0.46516825       0.20797774 </v>
   <v>       0.08327801      -0.15098579       0.10419345 </v>
   <v>      -0.03809850       0.28974771      -0.23140125 </v>
   <v>      -0.12448945       0.40286684      -0.45175752 </v>
   <v>       0.11878114      -0.24893812      -0.60784310 </v>
   <v>       0.24633363      -0.37334766       0.03751404 </v>
   <v>      -0.27271346      -0.21285371       0.30036838 </v>
   <v>      -0.14026056      -0.01866364       0.09538926 </v>
   <v>      -0.01738186       0.37650772      -0.25104504 </v>
   <v>      -0.06714532      -0.21614405       0.20982115 </v>
   <v>       0.17220692       0.08096709      -0.29693310 </v>
   <v>      -0.00836515      -0.14271890       0.15343911 </v>
   <v>       0.10789408       0.20486785      -0.09704733 </v>
   <v>      -0.24359417       0.27750743       0.08400815 </v>
   <v>      -0.35270157       0.01101107       0.20841845 </v>
   <v>      -0.13442307       0.33465789      -0.03964302 </v>
   <v>       0.24795965      -0.28391491      -0.18068562 </v>
   <v>       0.14184778       0.24072289       0.15762088 </v>
   <v>       0.54260861      -0.35110857       0.16048358 </v>
   <v>      -0.50039300       0.16493713       0.09938740 </v>
   <v>      -0.19049426      -0.04904586      -0.35540746 </v>
   <v>       0.26512783      -0.46702980       0.72834628 </v>
   <v>       0.37439008      -0.00124327      -0.51101246 </v>
   <v>      -0.40285788      -0.46998305       0.89646576 </v>
   <v>       0.59883653       0.03346709      -0.41323474 </v>
   <v>      -0.24026310       0.31928511      -0.21177435 </v>
   <v>       0.07343428      -0.24528578      -0.34582290 </v>
   <v>      -0.15947323      -0.10798487       0.51480361 </v>
   <v>       0.09360034       0.13753390       0.03537067 </v>
  </varray>
  <varray name="stress" >
   <v>      32.66525277       3.16820294       5.68610827 </v>
   <v>       3.16820298      31.85297450       1.41765693 </v>
   <v>       5.68610827       1.41765686      33.06767576 </v>
  </varray>
  <energy>
   <i name="e_fr_energy">   -332.11205983 </i>
   <i name="e_wo_entrp">   -332.10744854 </i>
   <i name="e_0_energy">     -0.01383387 </i>
  </energy>
  <time name="totalsc">  356.74  357.46</time>
 </calculation>
 <calculation>
  <scstep>
   <time name="dav">   19.11   19.14</time>
   <time name="total">   19.71   19.75</time>
   <energy>
    <i name="alphaZ">   1272.74515531 </i>
    <i name="ewald"> -10828.08433847 </i>
    <i name="hartreedc">  -2480.71739017 </i>
    <i name="XCdc">   -954.55865401 </i>
    <i name="pawpsdc">  20652.97462500 </i>
    <i name="pawaedc"> -19114.66684515 </i>
    <i name="eentropy">     -0.00131150 </i>
    <i name="bandstr">   -536.59337349 </i>
    <i name="atom">  11656.65998444 </i>
    <i name="e_fr_energy">   -332.24214806 </i>
    <i name="e_wo_entrp">   -332.24083656 </i>
    <i name="e_0_energy">   -332.24171089 </i>
   </energy>
  </scstep>
  <scstep>
   <time name="dav">   26.86   26.89</time>
   <time name="total">   27.46   27.50</time>
   <energy>
    <i name="e_fr_energy">   -332.72090490 </i>
    <i name="e_wo_entrp">   -332.71444903 </i>
    <i name="e_0_energy">   -332.71875295 </i>
   </energy>
  </scstep>
  <scstep>
   <time name="dav">   26.29   26.32</time>
   <time name="total">   26.89   26.93</time>
   <energy>
    <i name="e_fr_energy">   -332.61471170 </i>
    <i name="e_wo_entrp">   -332.61660233 </i>
    <i name="e_0_energy">   -332.61534191 </i>
   </energy>
  </scstep>
  <scstep>
   <time name="dav">   26.29   26.41</time>
   <time name="total">   26.89   27.03</time>
   <energy>
    <i name="e_fr_energy">   -332.53030895 </i>
    <i name="e_wo_entrp">   -332.52452012 </i>
    <i name="e_0_energy">   -332.52837934 </i>
   </energy>
  </scstep>
  <scstep>
   <time name="dav">   25.73   25.76</time>
   <time name="total">   26.32   26.36</time>
   <energy>
    <i name="e_fr_energy">   -332.51200744 </i>
    <i name="e_wo_entrp">   -332.50853225 </i>
    <i name="e_0_energy">   -332.51084904 </i>
   </energy>
  </scstep>
  <scstep>
   <time name="dav">   26.06   26.10</time>
   <time name="total">   26.68   26.72</time>
   <energy>
    <i name="e_fr_energy">   -332.50297659 </i>
    <i name="e_wo_entrp">   -332.49824977 </i>
    <i name="e_0_energy">   -332.50140098 </i>
   </energy>
  </scstep>
  <scstep>
   <time name="dav">   27.09   27.13</time>
   <time name="total">   27.69   27.74</time>
   <energy>
    <i name="e_fr_energy">   -332.49537908 </i>
    <i name="e_wo_entrp">   -332.49070411 </i>
    <i name="e_0_energy">   -332.49382076 </i>
   </energy>
  </scstep>
  <scstep>
   <time name="dav">   27.40   27.44</time>
   <time name="total">   28.00   28.04</time>
   <energy>
    <i name="e_fr_energy">   -332.49484438 </i>
    <i name="e_wo_entrp">   -332.48958814 </i>
    <i name="e_0_energy">   -332.49309230 </i>
   </energy>
  </scstep>
  <scstep>
   <time name="dav">   24.70   24.73</time>
   <time name="total">   25.31   25.35</time>
   <energy>
    <i name="e_fr_energy">   -332.49438044 </i>
    <i name="e_wo_entrp">   -332.48976541 </i>
    <i name="e_0_energy">   -332.49284210 </i>
   </energy>
  </scstep>
  <scstep>
   <time name="dav">   24.44   24.47</time>
   <time name="total">   25.04   25.07</time>
   <energy>
    <i name="e_fr_energy">   -332.49416053 </i>
    <i name="e_wo_entrp">   -332.48913934 </i>
    <i name="e_0_energy">   -332.49248680 </i>
   </energy>
  </scstep>
  <scstep>
   <time name="dav">   24.55   24.58</time>
   <time name="total">   25.15   25.18</time>
   <energy>
    <i name="e_fr_energy">   -332.49423274 </i>
    <i name="e_wo_entrp">   -332.48961447 </i>
    <i name="e_0_energy">   -332.49269332 </i>
   </energy>
  </scstep>
  <scstep>
   <time name="dav">   23.46   23.49</time>
   <time name="total">   24.07   24.11</time>
   <energy>
    <i name="e_fr_energy">   -332.49408787 </i>
    <i name="e_wo_entrp">   -332.48932315 </i>
    <i name="e_0_energy">   -332.49249963 </i>
   </energy>
  </scstep>
  <scstep>
   <time name="dav">   16.36   16.38</time>
   <time name="total">   16.40   16.42</time>
   <energy>
    <i name="alphaZ">   1272.74515531 </i>
    <i name="ewald"> -10828.08433847 </i>
    <i name="hartreedc">  -2495.80849847 </i>
    <i name="XCdc">   -954.09658735 </i>
    <i name="pawpsdc">  20281.13708122 </i>
    <i name="pawaedc"> -18743.25179771 </i>
    <i name="eentropy">     -0.00485333 </i>
    <i name="bandstr">   -521.79019370 </i>
    <i name="atom">  11656.65998444 </i>
    <i name="e_fr_energy">   -332.49404807 </i>
    <i name="e_wo_entrp">   -332.48919473 </i>
    <i name="e_0_energy">   -332.49243029 </i>
   </energy>
  </scstep>
  <structure>
   <crystal>
    <varray name="basis" >
     <v>      -3.20404510      -3.18589839      -3.19457690 </v>
     <v>       1.54093335       1.57738904      -7.90977200 </v>
     <v>       7.88752133      -7.89287158      -1.54656307 </v>
    </varray>
    <i name="volume">    477.61806790 </i>
    <varray name="rec_basis" >
     <v>      -0.13582054      -0.12563458      -0.05151413 </v>
     <v>       0.04247576       0.06313109      -0.10556125 </v>
     <v>       0.06331172      -0.06336841      -0.00030311 </v>
    </varray>
   </crystal>
   <varray name="positions" >
    <v>       0.96211159       0.93291742       0.39502446 </v>
    <v>       0.63356187       0.26467932       0.40203161 </v>
    <v>       0.49905780       0.00480746      -0.00161155 </v>
    <v>      -0.00216176       0.00641996      -0.00299447 </v>
    <v>       0.03787274       0.07184340       0.60187694 </v>
    <v>       0.90162286       0.79761447       0.20531513 </v>
    <v>       0.80604616       0.59273195       0.39882642 </v>
    <v>       0.73481953       0.46563297       0.19874520 </v>
    <v>       0.66167118       0.33976602      -0.00262503 </v>
    <v>       0.36965567       0.72869026       0.60090409 </v>
    <v>       0.13143385       0.27221833       0.40006728 </v>
    <v>       0.83457525       0.66292032       0.00142495 </v>
    <v>       0.92595365       0.87023413       0.79946704 </v>
    <v>       0.56636168       0.13364168       0.19574744 </v>
    <v>       0.40481865       0.79434006       0.19684828 </v>
    <v>       0.43433289       0.86774295       0.79601401 </v>
    <v>       0.30061473       0.60237124       0.40311479 </v>
    <v>       0.85991708       0.73393670       0.59958686 </v>
    <v>       0.46226903       0.93180569       0.40632578 </v>
    <v>       0.17162501       0.33175634      -0.00343571 </v>
    <v>       0.27316934       0.53640879       0.79917273 </v>
    <v>       0.20006405       0.38973186       0.60381762 </v>
    <v>       0.06408267       0.14080600       0.20278403 </v>
    <v>       0.77101208       0.51924479       0.80040146 </v>
    <v>       0.69102724       0.40880122       0.60469285 </v>
    <v>       0.60166748       0.20275709       0.79575459 </v>
    <v>       0.53903131       0.06944736       0.60263172 </v>
    <v>       0.33475358       0.65815179       0.00061212 </v>
    <v>       0.22903280       0.46858041       0.19947934 </v>
   </varray>
  </structure>
  <varray name="forces" >
   <v>       0.09851223       0.02619210      -0.00387969 </v>
   <v>       0.00774102       0.03634060      -0.02723441 </v>
   <v>      -0.23412676       0.12655359       0.14889580 </v>
   <v>      -0.10840885       0.13263004      -0.18146578 </v>
   <v>       0.08679745      -0.10163140      -0.27171969 </v>
   <v>      -0.19666153       0.18020380       0.02607658 </v>
   <v>       0.10904202      -0.08787062      -0.04771419 </v>
   <v>       0.06736391      -0.07204878       0.07923278 </v>
   <v>      -0.06879996      -0.01215332       0.06462435 </v>
   <v>       0.11729452      -0.00951529      -0.08663651 </v>
   <v>       0.14025464      -0.11019878      -0.00096749 </v>
   <v>      -0.00948444       0.15337207      -0.11418805 </v>
   <v>      -0.13157036      -0.16032676      -0.06347702 </v>
   <v>       0.04416670       0.01518993       0.04558346 </v>
   <v>       0.05766932       0.02535029      -0.06389477 </v>
   <v>       0.15825430       0.02902367       0.15222974 </v>
   <v>       0.04137224      -0.21086637       0.07619697 </v>
   <v>       0.00373470       0.03449641       0.06095490 </v>
   <v>       0.14297623      -0.08454453       0.09572710 </v>
   <v>      -0.28431261       0.22368704       0.13186230 </v>
   <v>      -0.00513749       0.08227030      -0.14769559 </v>
   <v>       0.34372234      -0.19625561       0.30851687 </v>
   <v>       0.09853449       0.04636803      -0.19713987 </v>
   <v>      -0.16456001      -0.35847564       0.02621543 </v>
   <v>      -0.21481140       0.11909800       0.08203898 </v>
   <v>       0.05033367       0.06430757      -0.02167146 </v>
   <v>      -0.07027309       0.00999014      -0.00975566 </v>
   <v>      -0.07022444       0.23066849      -0.10701641 </v>
   <v>      -0.00939884      -0.13185497       0.04630132 </v>
  </varray>
  <varray name="stress" >
   <v>       8.23633777       0.83613066       1.03627584 </v>
   <v>       0.83613068       6.99098834       1.16237198 </v>
   <v>       1.03627591       1.16237191      10.49158064 </v>
  </varray>
  <energy>
   <i name="e_fr_energy">   -332.49404807 </i>
   <i name="e_wo_entrp">   -332.49243029 </i>
   <i name="e_0_energy">     -0.00485333 </i>
  </energy>
  <time name="totalsc">  343.94  344.57</time>
 </calculation>
 <calculation>
  <scstep>
   <time name="dav">   18.90   18.93</time>
   <time name="total">   19.50   19.56</time>
   <energy>
    <i name="alphaZ">   1270.82030909 </i>
    <i name="ewald"> -10827.88723095 </i>
    <i name="hartreedc">  -2489.20051822 </i>
    <i name="XCdc">   -954.28318779 </i>
    <i name="pawpsdc">  20281.13785793 </i>
    <i name="pawaedc"> -18743.26902612 </i>
    <i name="eentropy">     -0.00409346 </i>
    <i name="bandstr">   -526.46983150 </i>
    <i name="atom">  11656.65998444 </i>
    <i name="e_fr_energy">   -332.49573658 </i>
    <i name="e_wo_entrp">   -332.49164312 </i>
    <i name="e_0_energy">   -332.49437209 </i>
   </energy>
  </scstep>
  <scstep>
   <time name="dav">   26.46   26.49</time>
   <time name="total">   27.06   27.10</time>
   <energy>
    <i name="e_fr_energy">   -332.50422635 </i>
    <i name="e_wo_entrp">   -332.49929598 </i>
    <i name="e_0_energy">   -332.50258289 </i>
   </energy>
  </scstep>
  <scstep>
   <time name="dav">   25.56   25.59</time>
   <time name="total">   26.16   26.20</time>
   <energy>
    <i name="e_fr_energy">   -332.50177506 </i>
    <i name="e_wo_entrp">   -332.49806074 </i>
    <i name="e_0_energy">   -332.50053695 </i>
   </energy>
  </scstep>
  <scstep>
   <time name="dav">   25.68   25.71</time>
   <time name="total">   26.27   26.31</time>
   <energy>
    <i name="e_fr_energy">   -332.50054559 </i>
    <i name="e_wo_entrp">   -332.49580760 </i>
    <i name="e_0_energy">   -332.49896626 </i>
   </energy>
  </scstep>
  <scstep>
   <time name="dav">   25.22   25.26</time>
   <time name="total">   25.82   25.87</time>
   <energy>
    <i name="e_fr_energy">   -332.50023469 </i>
    <i name="e_wo_entrp">   -332.49588275 </i>
    <i name="e_0_energy">   -332.49878404 </i>
   </energy>
  </scstep>
  <scstep>
   <time name="dav">   24.35   24.38</time>
   <time name="total">   24.95   24.99</time>
   <energy>
    <i name="e_fr_energy">   -332.50001548 </i>
    <i name="e_wo_entrp">   -332.49550095 </i>
    <i name="e_0_energy">   -332.49851064 </i>
   </energy>
  </scstep>
  <scstep>
   <time name="dav">   20.33   20.36</time>
   <time name="total">   20.37   20.39</time>
   <energy>
    <i name="alphaZ">   1270.82030909 </i>
    <i name="ewald"> -10827.88723095 </i>
    <i name="hartreedc">  -2491.52389862 </i>
    <i name="XCdc">   -954.21501686 </i>
    <i name="pawpsdc">  20239.23925356 </i>
    <i name="pawaedc"> -18701.30586025 </i>
    <i name="eentropy">     -0.00450187 </i>
    <i name="bandstr">   -524.28295595 </i>
    <i name="atom">  11656.65998444 </i>
    <i name="e_fr_energy">   -332.49991742 </i>
    <i name="e_wo_entrp">   -332.49541554 </i>
    <i name="e_0_energy">   -332.49841679 </i>
   </energy>
  </scstep>
  <structure>
   <crystal>
    <varray name="basis" >
     <v>      -3.20866251      -3.18890084      -3.19846898 </v>
     <v>       1.53781246       1.57751222      -7.91269171 </v>
     <v>       7.88828573      -7.89410963      -1.54399691 </v>
    </varray>
    <i name="volume">    478.34149144 </i>
    <varray name="rec_basis" >
     <v>      -0.13567573      -0.12552370      -0.05139326 </v>
     <v>       0.04249143       0.06310262      -0.10554070 </v>
     <v>       0.06329874      -0.06336018      -0.00032983 </v>
    </varray>
   </crystal>
   <varray name="positions" >
    <v>       0.96169410       0.93288952       0.39459000 </v>
    <v>       0.63358366       0.26450423       0.40220383 </v>
    <v>       0.49894242       0.00523175      -0.00177231 </v>
    <v>      -0.00233145       0.00702188      -0.00327937 </v>
    <v>       0.03828983       0.07232626       0.60206412 </v>
    <v>       0.90175976       0.79741405       0.20576751 </v>
    <v>       0.80656925       0.59210453       0.39873904 </v>
    <v>       0.73496041       0.46551844       0.19864254 </v>
    <v>       0.66126039       0.34031868      -0.00286309 </v>
    <v>       0.36991909       0.72828321       0.60098806 </v>
    <v>       0.13125978       0.27269855       0.40008835 </v>
    <v>       0.83468705       0.66260747       0.00154022 </v>
    <v>       0.92538192       0.87054167       0.79941562 </v>
    <v>       0.56632495       0.13365612       0.19538087 </v>
    <v>       0.40522795       0.79387261       0.19657992 </v>
    <v>       0.43433652       0.86786565       0.79567406 </v>
    <v>       0.30068448       0.60255775       0.40340987 </v>
    <v>       0.85932561       0.73398840       0.59954234 </v>
    <v>       0.46188386       0.93166393       0.40689094 </v>
    <v>       0.17205911       0.33159480      -0.00377417 </v>
    <v>       0.27372352       0.53668028       0.79909564 </v>
    <v>       0.20003115       0.38880567       0.60419061 </v>
    <v>       0.06384743       0.14148274       0.20303121 </v>
    <v>       0.77148168       0.51794305       0.80043689 </v>
    <v>       0.69027233       0.40956849       0.60509653 </v>
    <v>       0.60178259       0.20302362       0.79538250 </v>
    <v>       0.53950205       0.06969447       0.60285897 </v>
    <v>       0.33487174       0.65741323       0.00064144 </v>
    <v>       0.22866883       0.46872898       0.19943785 </v>
   </varray>
  </structure>
  <varray name="forces" >
   <v>       0.14371324      -0.03897344      -0.03326951 </v>
   <v>      -0.00379914       0.06207914      -0.04641335 </v>
   <v>      -0.26613256       0.10210474       0.20405083 </v>
   <v>      -0.10708822       0.09970509      -0.14409474 </v>
   <v>       0.08588850      -0.08314192      -0.22577997 </v>
   <v>      -0.25727706       0.25560897       0.03214129 </v>
   <v>       0.16355492      -0.06846430      -0.09809519 </v>
   <v>       0.09943483      -0.07797949       0.06993016 </v>
   <v>      -0.07477465      -0.06795720       0.11491813 </v>
   <v>       0.14610490       0.02379583      -0.13484834 </v>
   <v>       0.13459435      -0.14221748       0.03788194 </v>
   <v>      -0.00908346       0.18385145      -0.14818243 </v>
   <v>      -0.16774958      -0.21266642      -0.05148431 </v>
   <v>       0.07777085      -0.02481078       0.03958267 </v>
   <v>       0.11448711       0.02784302      -0.10033308 </v>
   <v>       0.19561956       0.00062076       0.16026027 </v>
   <v>       0.00764839      -0.19202585       0.11177427 </v>
   <v>      -0.01221522       0.00599539       0.04671329 </v>
   <v>       0.09399956      -0.04837191       0.08971159 </v>
   <v>      -0.26191258       0.23688865       0.13400611 </v>
   <v>       0.01888145       0.09703505      -0.11601538 </v>
   <v>       0.35896148      -0.16297562       0.25245392 </v>
   <v>       0.06549235       0.05266434      -0.16161683 </v>
   <v>      -0.13259682      -0.34864129      -0.09987352 </v>
   <v>      -0.33377385       0.13532640       0.15933706 </v>
   <v>       0.09502756       0.02621199       0.00603239 </v>
   <v>      -0.09707905       0.05061400       0.04356715 </v>
   <v>      -0.05621697       0.27707999      -0.19190540 </v>
   <v>      -0.02147988      -0.16919911       0.04955100 </v>
  </varray>
  <varray name="stress" >
   <v>       5.76033274       0.40186846       0.15927471 </v>
   <v>       0.40186835       4.32398393       1.16109888 </v>
   <v>       0.15927473       1.16109891       8.06862823 </v>
  </varray>
  <energy>
   <i name="e_fr_energy">   -332.49991742 </i>
   <i name="e_wo_entrp">   -332.49841679 </i>
   <i name="e_0_energy">     -0.00450187 </i>
  </energy>
  <time name="totalsc">  187.83  188.81</time>
 </calculation>
 <calculation>
  <scstep>
   <time name="dav">   18.36   18.40</time>
   <time name="total">   18.95   19.11</time>
   <energy>
    <i name="alphaZ">   1261.28381005 </i>
    <i name="ewald"> -10803.12505407 </i>
    <i name="hartreedc">  -2483.28685356 </i>
    <i name="XCdc">   -955.04286870 </i>
    <i name="pawpsdc">  20238.88366758 </i>
    <i name="pawaedc"> -18700.97466479 </i>
    <i name="eentropy">     -0.00631097 </i>
    <i name="bandstr">   -546.94541049 </i>
    <i name="atom">  11656.65998444 </i>
    <i name="e_fr_energy">   -332.55370052 </i>
    <i name="e_wo_entrp">   -332.54738955 </i>
    <i name="e_0_energy">   -332.55159686 </i>
   </energy>
  </scstep>
  <scstep>
   <time name="dav">   25.14   25.19</time>
   <time name="total">   25.74   25.79</time>
   <energy>
    <i name="e_fr_energy">   -332.58009757 </i>
    <i name="e_wo_entrp">   -332.57259020 </i>
    <i name="e_0_energy">   -332.57759511 </i>
   </energy>
  </scstep>
  <scstep>
   <time name="dav">   24.78   24.81</time>
   <time name="total">   25.39   25.43</time>
   <energy>
    <i name="e_fr_energy">   -332.57994010 </i>
    <i name="e_wo_entrp">   -332.57571421 </i>
    <i name="e_0_energy">   -332.57853147 </i>
   </energy>
  </scstep>
  <scstep>
   <time name="dav">   25.88   25.93</time>
   <time name="total">   26.48   26.54</time>
   <energy>
    <i name="e_fr_energy">   -332.55572909 </i>
    <i name="e_wo_entrp">   -332.54732741 </i>
    <i name="e_0_energy">   -332.55292853 </i>
   </energy>
  </scstep>
  <scstep>
   <time name="dav">   25.51   25.56</time>
   <time name="total">   26.11   26.16</time>
   <energy>
    <i name="e_fr_energy">   -332.54730851 </i>
    <i name="e_wo_entrp">   -332.54064203 </i>
    <i name="e_0_energy">   -332.54508635 </i>
   </energy>
  </scstep>
  <scstep>
   <time name="dav">   26.30   26.35</time>
   <time name="total">   26.91   26.97</time>
   <energy>
    <i name="e_fr_energy">   -332.54413627 </i>
    <i name="e_wo_entrp">   -332.53746433 </i>
    <i name="e_0_energy">   -332.54191229 </i>
   </energy>
  </scstep>
  <scstep>
   <time name="dav">   27.13   27.18</time>
   <time name="total">   27.73   27.78</time>
   <energy>
    <i name="e_fr_energy">   -332.54413920 </i>
    <i name="e_wo_entrp">   -332.53725876 </i>
    <i name="e_0_energy">   -332.54184572 </i>
   </energy>
  </scstep>
  <scstep>
   <time name="dav">   24.06   24.10</time>
   <time name="total">   24.65   24.70</time>
   <energy>
    <i name="e_fr_energy">   -332.54400045 </i>
    <i name="e_wo_entrp">   -332.53708300 </i>
    <i name="e_0_energy">   -332.54169463 </i>
   </energy>
  </scstep>
  <scstep>
   <time name="dav">   21.63   21.66</time>
   <time name="total">   21.67   21.71</time>
   <energy>
    <i name="alphaZ">   1261.28381005 </i>
    <i name="ewald"> -10803.12505407 </i>
    <i name="hartreedc">  -2495.07945521 </i>
    <i name="XCdc">   -954.73076790 </i>
    <i name="pawpsdc">  19976.91387177 </i>
    <i name="pawaedc"> -18438.44084101 </i>
    <i name="eentropy">     -0.00679195 </i>
    <i name="bandstr">   -536.01882086 </i>
    <i name="atom">  11656.65998444 </i>
    <i name="e_fr_energy">   -332.54406475 </i>
    <i name="e_wo_entrp">   -332.53727279 </i>
    <i name="e_0_energy">   -332.54180076 </i>
   </energy>
  </scstep>
  <structure>
   <crystal>
    <varray name="basis" >
     <v>      -3.21727607      -3.19680206      -3.21103336 </v>
     <v>       1.54098723       1.57680230      -7.93821350 </v>
     <v>       7.90556966      -7.90762349      -1.55218527 </v>
    </varray>
[...]
       <r>    4.6394    1.0000 </r>
       <r>    4.6913    1.0000 </r>
       <r>    4.7380    1.0000 </r>
       <r>    4.7589    1.0000 </r>
       <r>    4.8047    1.0000 </r>
       <r>    4.8483    1.0000 </r>
       <r>    4.9226    1.0000 </r>
       <r>    4.9931    1.0000 </r>
       <r>    5.0585    1.0000 </r>
       <r>    5.1127    1.0000 </r>
       <r>    5.1370    1.0000 </r>
       <r>    5.2647    1.0000 </r>
       <r>    5.3084    1.0000 </r>
       <r>    5.3366    1.0000 </r>
       <r>    5.4023    1.0000 </r>
       <r>    5.5044    1.0000 </r>
       <r>    5.5411    1.0000 </r>
       <r>    5.5752    1.0000 </r>
       <r>    5.6668    1.0000 </r>
       <r>    5.6893    1.0000 </r>
       <r>    5.7584    1.0000 </r>
       <r>    5.8342    1.0000 </r>
       <r>    5.8623    1.0000 </r>
       <r>    5.8833    1.0000 </r>
       <r>    5.9272    1.0000 </r>
       <r>    6.0127    1.0003 </r>
       <r>    6.0406    1.0006 </r>
       <r>    6.0936    1.0020 </r>
       <r>    6.1336    1.0044 </r>
       <r>    6.1904    1.0112 </r>
       <r>    6.2266    1.0182 </r>
       <r>    6.2769    1.0295 </r>
       <r>    6.3739    1.0220 </r>
       <r>    6.4145    0.9819 </r>
       <r>    6.4562    0.9018 </r>
       <r>    6.5077    0.7443 </r>
       <r>    6.5923    0.3997 </r>
       <r>    6.6796    0.1008 </r>
       <r>    6.8096   -0.0354 </r>
       <r>    6.9604   -0.0091 </r>
       <r>    7.0536   -0.0016 </r>
       <r>    7.0943   -0.0006 </r>
       <r>    7.2677   -0.0000 </r>
       <r>    7.3131   -0.0000 </r>
       <r>    7.4875   -0.0000 </r>
       <r>    7.6566   -0.0000 </r>
       <r>    7.6855   -0.0000 </r>
       <r>    7.8721   -0.0000 </r>
       <r>    8.0033   -0.0000 </r>
       <r>    8.1302   -0.0000 </r>
       <r>    8.3475   -0.0000 </r>
       <r>    8.4880   -0.0000 </r>
       <r>    8.5336   -0.0000 </r>
       <r>    8.6057   -0.0000 </r>
       <r>    8.6660   -0.0000 </r>
       <r>    8.7465   -0.0000 </r>
       <r>    8.8007   -0.0000 </r>
       <r>    8.8691   -0.0000 </r>
       <r>    8.9021   -0.0000 </r>
       <r>    8.9742   -0.0000 </r>
       <r>    9.0045   -0.0000 </r>
      </set>
     </set>
    </set>
   </array>
  </eigenvalues>
  <separator name="orbital magnetization" >
   <v name="MAGDIPOLOUT">      0.00000000      0.00000000      0.00000000</v>
  </separator>
  <dos>
   <i name="efermi">      6.56840604 </i>
   <total>
    <array>
     <dimension dim="1">gridpoints</dimension>
     <dimension dim="2">spin</dimension>
     <field>energy</field>
     <field>total</field>
     <field>integrated</field>
     <set>
      <set comment="spin 1">
       <r>   -50.4146     0.0000     0.0000 </r>
       <r>   -50.2065     0.0000     0.0000 </r>
       <r>   -49.9984     0.0000     0.0000 </r>
       <r>   -49.7903     0.0000     0.0000 </r>
       <r>   -49.5822     0.0000     0.0000 </r>
       <r>   -49.3741    -0.0000    -0.0000 </r>
       <r>   -49.1660    -0.0000    -0.0000 </r>
       <r>   -48.9579    -0.0000    -0.0000 </r>
       <r>   -48.7499    -0.0000    -0.0000 </r>
       <r>   -48.5418    -0.0000    -0.0000 </r>
       <r>   -48.3337    -0.0000    -0.0000 </r>
       <r>   -48.1256    -0.0056    -0.0012 </r>
       <r>   -47.9175    -0.3208    -0.0679 </r>
       <r>   -47.7094     0.6560     0.0686 </r>
       <r>   -47.5013    15.8916     3.3754 </r>
       <r>   -47.2933    17.5405     7.0254 </r>
       <r>   -47.0852    10.8846     9.2903 </r>
       <r>   -46.8771     3.8002    10.0811 </r>
       <r>   -46.6690    -0.3498    10.0083 </r>
       <r>   -46.4609    -0.0397    10.0000 </r>
       <r>   -46.2528    -0.0002    10.0000 </r>
       <r>   -46.0447    -0.0000    10.0000 </r>
       <r>   -45.8366    -0.0000    10.0000 </r>
       <r>   -45.6286     0.0000    10.0000 </r>
       <r>   -45.4205     0.0000    10.0000 </r>
       <r>   -45.2124     0.0000    10.0000 </r>
       <r>   -45.0043     0.0000    10.0000 </r>
       <r>   -44.7962     0.0000    10.0000 </r>
       <r>   -44.5881     0.0000    10.0000 </r>
       <r>   -44.3800     0.0000    10.0000 </r>
       <r>   -44.1719     0.0000    10.0000 </r>
       <r>   -43.9639     0.0000    10.0000 </r>
       <r>   -43.7558     0.0000    10.0000 </r>
       <r>   -43.5477     0.0000    10.0000 </r>
       <r>   -43.3396     0.0000    10.0000 </r>
       <r>   -43.1315     0.0000    10.0000 </r>
       <r>   -42.9234     0.0000    10.0000 </r>
       <r>   -42.7153     0.0000    10.0000 </r>
       <r>   -42.5072     0.0000    10.0000 </r>
       <r>   -42.2992     0.0000    10.0000 </r>
       <r>   -42.0911     0.0000    10.0000 </r>
       <r>   -41.8830     0.0000    10.0000 </r>
       <r>   -41.6749     0.0000    10.0000 </r>
       <r>   -41.4668     0.0000    10.0000 </r>
       <r>   -41.2587     0.0000    10.0000 </r>
       <r>   -41.0506     0.0000    10.0000 </r>
       <r>   -40.8425     0.0000    10.0000 </r>
       <r>   -40.6345     0.0000    10.0000 </r>
       <r>   -40.4264     0.0000    10.0000 </r>
       <r>   -40.2183     0.0000    10.0000 </r>
       <r>   -40.0102     0.0000    10.0000 </r>
       <r>   -39.8021     0.0000    10.0000 </r>
       <r>   -39.5940     0.0000    10.0000 </r>
       <r>   -39.3859     0.0000    10.0000 </r>
       <r>   -39.1778     0.0000    10.0000 </r>
       <r>   -38.9698     0.0000    10.0000 </r>
       <r>   -38.7617     0.0000    10.0000 </r>
       <r>   -38.5536     0.0000    10.0000 </r>
       <r>   -38.3455     0.0000    10.0000 </r>
       <r>   -38.1374     0.0000    10.0000 </r>
       <r>   -37.9293     0.0000    10.0000 </r>
       <r>   -37.7212     0.0000    10.0000 </r>
       <r>   -37.5131     0.0000    10.0000 </r>
       <r>   -37.3051     0.0000    10.0000 </r>
       <r>   -37.0970     0.0000    10.0000 </r>
       <r>   -36.8889     0.0000    10.0000 </r>
       <r>   -36.6808     0.0000    10.0000 </r>
       <r>   -36.4727     0.0000    10.0000 </r>
       <r>   -36.2646     0.0000    10.0000 </r>
       <r>   -36.0565     0.0000    10.0000 </r>
       <r>   -35.8485     0.0000    10.0000 </r>
       <r>   -35.6404     0.0000    10.0000 </r>
       <r>   -35.4323     0.0000    10.0000 </r>
       <r>   -35.2242     0.0000    10.0000 </r>
       <r>   -35.0161     0.0000    10.0000 </r>
       <r>   -34.8080     0.0000    10.0000 </r>
       <r>   -34.5999     0.0000    10.0000 </r>
       <r>   -34.3918     0.0000    10.0000 </r>
       <r>   -34.1838     0.0000    10.0000 </r>
       <r>   -33.9757     0.0000    10.0000 </r>
       <r>   -33.7676     0.0000    10.0000 </r>
       <r>   -33.5595     0.0000    10.0000 </r>
       <r>   -33.3514     0.0000    10.0000 </r>
       <r>   -33.1433     0.0000    10.0000 </r>
       <r>   -32.9352     0.0000    10.0000 </r>
       <r>   -32.7271     0.0000    10.0000 </r>
       <r>   -32.5191     0.0000    10.0000 </r>
       <r>   -32.3110     0.0000    10.0000 </r>
       <r>   -32.1029     0.0000    10.0000 </r>
       <r>   -31.8948     0.0000    10.0000 </r>
       <r>   -31.6867     0.0000    10.0000 </r>
       <r>   -31.4786     0.0000    10.0000 </r>
       <r>   -31.2705     0.0000    10.0000 </r>
       <r>   -31.0624     0.0000    10.0000 </r>
       <r>   -30.8544     0.0000    10.0000 </r>
       <r>   -30.6463     0.0000    10.0000 </r>
       <r>   -30.4382     0.0000    10.0000 </r>
       <r>   -30.2301     0.0000    10.0000 </r>
       <r>   -30.0220     0.0000    10.0000 </r>
       <r>   -29.8139     0.0000    10.0000 </r>
       <r>   -29.6058     0.0000    10.0000 </r>
       <r>   -29.3977     0.0000    10.0000 </r>
       <r>   -29.1897     0.0000    10.0000 </r>
       <r>   -28.9816     0.0000    10.0000 </r>
       <r>   -28.7735     0.0000    10.0000 </r>
       <r>   -28.5654     0.0000    10.0000 </r>
       <r>   -28.3573     0.0000    10.0000 </r>
       <r>   -28.1492     0.0000    10.0000 </r>
       <r>   -27.9411     0.0000    10.0000 </r>
       <r>   -27.7330     0.0000    10.0000 </r>
       <r>   -27.5250     0.0000    10.0000 </r>
       <r>   -27.3169     0.0000    10.0000 </r>
       <r>   -27.1088     0.0000    10.0000 </r>
       <r>   -26.9007     0.0000    10.0000 </r>
       <r>   -26.6926     0.0000    10.0000 </r>
       <r>   -26.4845     0.0000    10.0000 </r>
       <r>   -26.2764     0.0000    10.0000 </r>
       <r>   -26.0684     0.0000    10.0000 </r>
       <r>   -25.8603    -0.0000    10.0000 </r>
       <r>   -25.6522    -0.0000    10.0000 </r>
       <r>   -25.4441    -0.0000    10.0000 </r>
       <r>   -25.2360    -0.0000    10.0000 </r>
       <r>   -25.0279    -0.0000    10.0000 </r>
       <r>   -24.8198    -0.0000    10.0000 </r>
       <r>   -24.6117    -0.0041     9.9992 </r>
       <r>   -24.4037    -0.1435     9.9693 </r>
       <r>   -24.1956     0.0504     9.9798 </r>
       <r>   -23.9875     6.8725    11.4098 </r>
       <r>   -23.7794    26.6281    16.9508 </r>
       <r>   -23.5713    43.7394    26.0524 </r>
       <r>   -23.3632    31.2645    32.5582 </r>
       <r>   -23.1551    26.9037    38.1565 </r>
       <r>   -22.9470     7.2268    39.6603 </r>
       <r>   -22.7390     1.7660    40.0278 </r>
       <r>   -22.5309    -0.0996    40.0070 </r>
       <r>   -22.3228    -0.0334    40.0001 </r>
       <r>   -22.1147    -0.0004    40.0000 </r>
       <r>   -21.9066    -0.0000    40.0000 </r>
       <r>   -21.6985    -0.0000    40.0000 </r>
       <r>   -21.4904    -0.0000    40.0000 </r>
       <r>   -21.2823     0.0000    40.0000 </r>
       <r>   -21.0743     0.0000    40.0000 </r>
       <r>   -20.8662     0.0000    40.0000 </r>
       <r>   -20.6581     0.0000    40.0000 </r>
       <r>   -20.4500     0.0000    40.0000 </r>
       <r>   -20.2419     0.0000    40.0000 </r>
       <r>   -20.0338     0.0000    40.0000 </r>
       <r>   -19.8257     0.0000    40.0000 </r>
       <r>   -19.6176     0.0000    40.0000 </r>
       <r>   -19.4096     0.0000    40.0000 </r>
       <r>   -19.2015     0.0000    40.0000 </r>
       <r>   -18.9934     0.0000    40.0000 </r>
       <r>   -18.7853     0.0000    40.0000 </r>
       <r>   -18.5772     0.0000    40.0000 </r>
       <r>   -18.3691     0.0000    40.0000 </r>
       <r>   -18.1610     0.0000    40.0000 </r>
       <r>   -17.9529     0.0000    40.0000 </r>
       <r>   -17.7449     0.0000    40.0000 </r>
       <r>   -17.5368     0.0000    40.0000 </r>
       <r>   -17.3287     0.0000    40.0000 </r>
       <r>   -17.1206     0.0000    40.0000 </r>
       <r>   -16.9125     0.0000    40.0000 </r>
       <r>   -16.7044     0.0000    40.0000 </r>
       <r>   -16.4963     0.0000    40.0000 </r>
       <r>   -16.2883     0.0000    40.0000 </r>
       <r>   -16.0802     0.0000    40.0000 </r>
       <r>   -15.8721     0.0000    40.0000 </r>
       <r>   -15.6640     0.0000    40.0000 </r>
       <r>   -15.4559     0.0000    40.0000 </r>
       <r>   -15.2478     0.0000    40.0000 </r>
       <r>   -15.0397     0.0000    40.0000 </r>
       <r>   -14.8316     0.0000    40.0000 </r>
       <r>   -14.6236     0.0000    40.0000 </r>
       <r>   -14.4155     0.0000    40.0000 </r>
       <r>   -14.2074     0.0000    40.0000 </r>
       <r>   -13.9993     0.0000    40.0000 </r>
       <r>   -13.7912     0.0000    40.0000 </r>
       <r>   -13.5831     0.0000    40.0000 </r>
       <r>   -13.3750     0.0000    40.0000 </r>
       <r>   -13.1669     0.0000    40.0000 </r>
       <r>   -12.9589     0.0000    40.0000 </r>
       <r>   -12.7508     0.0000    40.0000 </r>
       <r>   -12.5427     0.0000    40.0000 </r>
       <r>   -12.3346     0.0000    40.0000 </r>
       <r>   -12.1265     0.0000    40.0000 </r>
       <r>   -11.9184     0.0000    40.0000 </r>
       <r>   -11.7103     0.0000    40.0000 </r>
       <r>   -11.5022     0.0000    40.0000 </r>
       <r>   -11.2942     0.0000    40.0000 </r>
       <r>   -11.0861     0.0000    40.0000 </r>
       <r>   -10.8780     0.0000    40.0000 </r>
       <r>   -10.6699     0.0000    40.0000 </r>
       <r>   -10.4618     0.0000    40.0000 </r>
       <r>   -10.2537     0.0000    40.0000 </r>
       <r>   -10.0456     0.0000    40.0000 </r>
       <r>    -9.8375     0.0000    40.0000 </r>
       <r>    -9.6295     0.0000    40.0000 </r>
       <r>    -9.4214     0.0000    40.0000 </r>
       <r>    -9.2133     0.0000    40.0000 </r>
       <r>    -9.0052     0.0000    40.0000 </r>
       <r>    -8.7971     0.0000    40.0000 </r>
       <r>    -8.5890     0.0000    40.0000 </r>
       <r>    -8.3809     0.0000    40.0000 </r>
       <r>    -8.1728     0.0000    40.0000 </r>
       <r>    -7.9648     0.0000    40.0000 </r>
       <r>    -7.7567     0.0000    40.0000 </r>
       <r>    -7.5486     0.0000    40.0000 </r>
       <r>    -7.3405     0.0000    40.0000 </r>
       <r>    -7.1324     0.0000    40.0000 </r>
       <r>    -6.9243     0.0000    40.0000 </r>
       <r>    -6.7162     0.0000    40.0000 </r>
       <r>    -6.5082     0.0000    40.0000 </r>
       <r>    -6.3001     0.0000    40.0000 </r>
       <r>    -6.0920     0.0000    40.0000 </r>
       <r>    -5.8839     0.0000    40.0000 </r>
       <r>    -5.6758     0.0000    40.0000 </r>
       <r>    -5.4677     0.0000    40.0000 </r>
       <r>    -5.2596     0.0000    40.0000 </r>
       <r>    -5.0515     0.0000    40.0000 </r>
       <r>    -4.8435     0.0000    40.0000 </r>
       <r>    -4.6354     0.0000    40.0000 </r>
       <r>    -4.4273     0.0000    40.0000 </r>
       <r>    -4.2192     0.0000    40.0000 </r>
       <r>    -4.0111     0.0000    40.0000 </r>
       <r>    -3.8030     0.0000    40.0000 </r>
       <r>    -3.5949     0.0000    40.0000 </r>
       <r>    -3.3868     0.0000    40.0000 </r>
       <r>    -3.1788     0.0000    40.0000 </r>
       <r>    -2.9707     0.0000    40.0000 </r>
       <r>    -2.7626     0.0000    40.0000 </r>
       <r>    -2.5545    -0.0000    40.0000 </r>
       <r>    -2.3464    -0.0000    40.0000 </r>
       <r>    -2.1383    -0.0000    40.0000 </r>
       <r>    -1.9302    -0.0000    40.0000 </r>
       <r>    -1.7221    -0.0000    40.0000 </r>
       <r>    -1.5141    -0.0000    40.0000 </r>
       <r>    -1.3060    -0.0001    40.0000 </r>
       <r>    -1.0979    -0.0053    39.9989 </r>
       <r>    -0.8898    -0.0025    39.9984 </r>
       <r>    -0.6817     0.2717    40.0549 </r>
       <r>    -0.4736     0.9258    40.2475 </r>
       <r>    -0.2655     1.6146    40.5835 </r>
       <r>    -0.0574     1.8698    40.9726 </r>
       <r>     0.1506     1.4608    41.2766 </r>
       <r>     0.3587     2.3903    41.7740 </r>
       <r>     0.5668     3.1894    42.4376 </r>
       <r>     0.7749     3.0730    43.0771 </r>
       <r>     0.9830     2.9731    43.6958 </r>
       <r>     1.1911     4.1494    44.5592 </r>
       <r>     1.3992     3.9865    45.3887 </r>
       <r>     1.6073     4.4138    46.3072 </r>
       <r>     1.8153     6.5198    47.6639 </r>
       <r>     2.0234     9.1307    49.5638 </r>
       <r>     2.2315    12.9630    52.2613 </r>
       <r>     2.4396    18.6283    56.1376 </r>
       <r>     2.6477    20.6350    60.4315 </r>
       <r>     2.8558    25.1420    65.6632 </r>
       <r>     3.0639    27.5619    71.3985 </r>
       <r>     3.2719    28.3161    77.2907 </r>
       <r>     3.4800    30.5073    83.6389 </r>
       <r>     3.6881    31.4984    90.1933 </r>
       <r>     3.8962    29.9056    96.4163 </r>
       <r>     4.1043    25.2993   101.6807 </r>
       <r>     4.3124    23.1505   106.4981 </r>
       <r>     4.5205    32.4008   113.2403 </r>
       <r>     4.7286    39.9320   121.5496 </r>
       <r>     4.9366    39.8149   129.8346 </r>
       <r>     5.1447    37.5507   137.6484 </r>
       <r>     5.3528    36.7406   145.2937 </r>
       <r>     5.5609    36.5560   152.9005 </r>
       <r>     5.7690    37.3385   160.6702 </r>
       <r>     5.9771    38.4547   168.6721 </r>
       <r>     6.1852    39.7283   176.9390 </r>
       <r>     6.3933    38.4418   184.9383 </r>
       <r>     6.6013    34.1477   192.0440 </r>
       <r>     6.8094    27.2171   197.7075 </r>
       <r>     7.0175    19.8338   201.8347 </r>
       <r>     7.2256    16.5258   205.2735 </r>
       <r>     7.4337    16.0136   208.6057 </r>
       <r>     7.6418    17.0419   212.1519 </r>
       <r>     7.8499    18.5225   216.0062 </r>
       <r>     8.0580    20.0242   220.1730 </r>
       <r>     8.2660    22.7453   224.9060 </r>
       <r>     8.4741    26.0823   230.3334 </r>
       <r>     8.6822    23.3053   235.1829 </r>
       <r>     8.8903    15.6203   238.4333 </r>
       <r>     9.0984     7.0720   239.9049 </r>
       <r>     9.3065     0.6066   240.0312 </r>
       <r>     9.5146    -0.1400   240.0020 </r>
       <r>     9.7227    -0.0096   240.0000 </r>
       <r>     9.9307    -0.0001   240.0000 </r>
       <r>    10.1388    -0.0000   240.0000 </r>
       <r>    10.3469    -0.0000   240.0000 </r>
       <r>    10.5550    -0.0000   240.0000 </r>
       <r>    10.7631     0.0000   240.0000 </r>
       <r>    10.9712     0.0000   240.0000 </r>
       <r>    11.1793     0.0000   240.0000 </r>
       <r>    11.3874     0.0000   240.0000 </r>
       <r>    11.5954     0.0000   240.0000 </r>
       <r>    11.8035     0.0000   240.0000 </r>
       <r>    12.0116     0.0000   240.0000 </r>
      </set>
     </set>
    </array>
   </total>
  </dos>
 </calculation>
 <structure name="finalpos" >
  <crystal>
   <varray name="basis" >
    <v>      -3.21567113      -3.19906553      -3.21344297 </v>
    <v>       1.54378748       1.56037933      -7.93033083 </v>
    <v>       7.86915781      -7.86529107      -1.56842280 </v>
   </varray>
   <i name="volume">    478.81324506 </i>
   <varray name="rec_basis" >
    <v>      -0.13537991      -0.12527580      -0.05100362 </v>
    <v>       0.04230705       0.06334541      -0.10539838 </v>
    <v>       0.06345655      -0.06362023      -0.00016497 </v>
   </varray>
  </crystal>
  <varray name="positions" >
   <v>       0.95956307       0.93362770       0.39507931 </v>
   <v>       0.63142764       0.26459888       0.40228669 </v>
   <v>       0.50217164       0.00338883      -0.00430299 </v>
   <v>      -0.00071543       0.01210809      -0.00733648 </v>
   <v>       0.03856525       0.07455123       0.60406179 </v>
   <v>       0.90234681       0.79795814       0.20322960 </v>
   <v>       0.80542702       0.59230706       0.40075787 </v>
   <v>       0.73295958       0.46633503       0.19984724 </v>
   <v>       0.66064618       0.34015162      -0.00335146 </v>
   <v>       0.36954355       0.72935688       0.60197554 </v>
   <v>       0.12887454       0.27249637       0.40257813 </v>
   <v>       0.83635930       0.66415485       0.00068267 </v>
   <v>       0.92955421       0.86915603       0.79893634 </v>
   <v>       0.56469653       0.13301297       0.19542914 </v>
   <v>       0.40323067       0.79503813       0.19682931 </v>
   <v>       0.43520559       0.86678536       0.79653269 </v>
   <v>       0.29913063       0.60018919       0.40584471 </v>
   <v>       0.86030279       0.73220752       0.60019712 </v>
   <v>       0.45953243       0.92943687       0.40842547 </v>
   <v>       0.17117835       0.33029529      -0.01319250 </v>
   <v>       0.27684992       0.54125501       0.79791454 </v>
   <v>       0.19511332       0.38395450       0.61305036 </v>
   <v>       0.05993181       0.14688112       0.20218522 </v>
   <v>       0.78275654       0.51352486       0.80151791 </v>
   <v>       0.68987104       0.40779121       0.60371861 </v>
   <v>       0.59979987       0.20332379       0.79532683 </v>
   <v>       0.54104613       0.06790381       0.60283028 </v>
   <v>       0.33577978       0.66002473      -0.00070220 </v>
   <v>       0.22885124       0.46818493       0.19964826 </v>
  </varray>
 </structure>
</modeling>
