SQS with 1 vacancy for VFE and VRV      
           1
    -3.190000   -3.190000   -3.190000
     1.595000    1.595000   -7.975000
     7.975000   -7.975000   -1.595000
   Nb   Mo   Ta   Ti   W 
   5   6   6   6   6
Direct configuration=     1
   0.96666667  0.93333333  0.40000000
   0.63333333  0.26666667  0.40000000
   0.50000000  0.00000000  0.00000000
   0.00000000  0.00000000  0.00000000
   0.03333333  0.06666667  0.60000000
   0.90000000  0.80000000  0.20000000
   0.80000000  0.60000000  0.40000000
   0.73333333  0.46666667  0.20000000
   0.66666667  0.33333333  0.00000000
   0.36666667  0.73333333  0.60000000
   0.13333333  0.26666667  0.40000000
   0.83333333  0.66666667  0.00000000
   0.93333333  0.86666667  0.80000000
   0.56666667  0.13333333  0.20000000
   0.40000000  0.80000000  0.20000000
   0.43333333  0.86666667  0.80000000
   0.30000000  0.60000000  0.40000000
   0.86666667  0.73333333  0.60000000
   0.46666667  0.93333333  0.40000000
   0.16666667  0.33333333  0.00000000
   0.26666667  0.53333333  0.80000000
   0.20000000  0.40000000  0.60000000
   0.06666667  0.13333333  0.20000000
   0.76666667  0.53333333  0.80000000
   0.70000000  0.40000000  0.60000000
   0.60000000  0.20000000  0.80000000
   0.53333333  0.06666667  0.60000000
   0.33333333  0.66666667  0.00000000
   0.23333333  0.46666667  0.20000000
SQS with 1 vacancy for VFE and VRV      
           1
    -3.156733   -3.146348   -3.149876
     1.543320    1.564187   -7.830657
     7.820072   -7.823164   -1.545883
   Nb   Mo   Ta   Ti   W 
   5   6   6   6   6
Direct configuration=     2
   0.96423249  0.93296337  0.39701061
   0.63345831  0.26550216  0.40127857
   0.49982919  0.00281887 -0.00070766
  -0.00155050  0.00332206 -0.00149210
   0.03571479  0.06939045  0.60085230
   0.90103281  0.79849046  0.20332969
   0.80365724  0.59555064  0.39909917
   0.73407417  0.46634482  0.19916085
   0.66337228  0.33729172 -0.00145523
   0.36842216  0.73057415  0.60047266
   0.13228639  0.27005031  0.39986127
   0.83404454  0.66424887  0.00096163
   0.92806608  0.86885278  0.79974111
   0.56660810  0.13365901  0.19739096
   0.40300639  0.79626415  0.19801792
   0.43495433  0.86694071  0.79751240
   0.30015018  0.60168711  0.40158626
   0.86272019  0.73370676  0.59985128
   0.46411022  0.93254466  0.40362579
   0.16957472  0.33267209 -0.00157998
   0.27064143  0.53513537  0.79957798
   0.20058246  0.39422956  0.60177337
   0.06522506  0.13751921  0.20163242
   0.76818166  0.52578283  0.80020985
   0.69431971  0.40530631  0.60289945
   0.60134035  0.20131636  0.79747943
   0.53700417  0.06828722  0.60162200
   0.33429186  0.66150494  0.00065020
   0.23064922  0.46804306  0.19963781
SQS with 1 vacancy for VFE and VRV      
           1
    -3.170006   -3.163765   -3.165885
     1.563940    1.576481   -7.888248
     7.881886   -7.883745   -1.565480
   Nb   Mo   Ta   Ti   W 
   5   6   6   6   6
Direct configuration=     3
   0.96521576  0.93311652  0.39822759
   0.63340594  0.26597476  0.40075903
   0.49990222  0.00167280 -0.00042126
  -0.00091939  0.00197201 -0.00088648
   0.03475654  0.06828164  0.60050345
   0.90061285  0.79910161  0.20197566
   0.80217427  0.59736128  0.39946707
   0.73377471  0.46647645  0.19950221
   0.66470857  0.33568284 -0.00086448
   0.36770927  0.73169610  0.60028140
   0.13271391  0.26867403  0.39991615
   0.83375376  0.66523155  0.00057154
   0.93019644  0.86796386  0.79984666
   0.56663280  0.13352879  0.19845220
   0.40178750  0.79778549  0.19882547
   0.43430060  0.86683135  0.79852381
   0.30009149  0.60099943  0.40093999
   0.86431461  0.73355509  0.59991264
   0.46514079  0.93286241  0.40215188
   0.16839969  0.33294236 -0.00093764
   0.26903871  0.53440257  0.79974762
   0.20033887  0.39657537  0.60105491
   0.06581267  0.13581506  0.20096645
   0.76755936  0.52885407  0.80012817
   0.69662046  0.40314540  0.60171856
   0.60080140  0.20078303  0.79850376
   0.53552348  0.06762649  0.60096028
   0.33389749  0.66360409  0.00038823
   0.23173523  0.46748354  0.19978513
SQS with 1 vacancy for VFE and VRV      
           1
    -3.204045   -3.185898   -3.194577
     1.540933    1.577389   -7.909772
     7.887521   -7.892872   -1.546563
   Nb   Mo   Ta   Ti   W 
   5   6   6   6   6
Direct configuration=     4
   0.96211159  0.93291742  0.39502446
   0.63356187  0.26467932  0.40203161
   0.49905780  0.00480746 -0.00161155
  -0.00216176  0.00641996 -0.00299447
   0.03787274  0.07184340  0.60187694
   0.90162286  0.79761447  0.20531513
   0.80604616  0.59273195  0.39882642
   0.73481953  0.46563297  0.19874520
   0.66167118  0.33976602 -0.00262503
   0.36965567  0.72869026  0.60090409
   0.13143385  0.27221833  0.40006728
   0.83457525  0.66292032  0.00142495
   0.92595365  0.87023413  0.79946704
   0.56636168  0.13364168  0.19574744
   0.40481865  0.79434006  0.19684828
   0.43433289  0.86774295  0.79601401
   0.30061473  0.60237124  0.40311479
   0.85991708  0.73393670  0.59958686
   0.46226903  0.93180569  0.40632578
   0.17162501  0.33175634 -0.00343571
   0.27316934  0.53640879  0.79917273
   0.20006405  0.38973186  0.60381762
   0.06408267  0.14080600  0.20278403
   0.77101208  0.51924479  0.80040146
   0.69102724  0.40880122  0.60469285
   0.60166748  0.20275709  0.79575459
   0.53903131  0.06944736  0.60263172
   0.33475358  0.65815179  0.00061212
   0.22903280  0.46858041  0.19947934
SQS with 1 vacancy for VFE and VRV      
           1
    -3.208663   -3.188901   -3.198469
     1.537812    1.577512   -7.912692
     7.888286   -7.894110   -1.543997
   Nb   Mo   Ta   Ti   W 
   5   6   6   6   6
Direct configuration=     5
   0.96169410  0.93288952  0.39459000
   0.63358366  0.26450423  0.40220383
   0.49894242  0.00523175 -0.00177231
  -0.00233145  0.00702188 -0.00327937
   0.03828983  0.07232626  0.60206412
   0.90175976  0.79741405  0.20576751
   0.80656925  0.59210453  0.39873904
   0.73496041  0.46551844  0.19864254
   0.66126039  0.34031868 -0.00286309
   0.36991909  0.72828321  0.60098806
   0.13125978  0.27269855  0.40008835
   0.83468705  0.66260747  0.00154022
   0.92538192  0.87054167  0.79941562
   0.56632495  0.13365612  0.19538087
   0.40522795  0.79387261  0.19657992
   0.43433652  0.86786565  0.79567406
   0.30068448  0.60255775  0.40340987
   0.85932561  0.73398840  0.59954234
   0.46188386  0.93166393  0.40689094
   0.17205911  0.33159480 -0.00377417
   0.27372352  0.53668028  0.79909564
   0.20003115  0.38880567  0.60419061
   0.06384743  0.14148274  0.20303121
   0.77148168  0.51794305  0.80043689
   0.69027233  0.40956849  0.60509653
   0.60178259  0.20302362  0.79538250
   0.53950205  0.06969447  0.60285897
   0.33487174  0.65741323  0.00064144
   0.22866883  0.46872898  0.19943785
SQS with 1 vacancy for VFE and VRV      
           1
    -3.217276   -3.196802   -3.211033
     1.540987    1.576802   -7.938214
     7.905570   -7.907623   -1.552185
   Nb   Mo   Ta   Ti   W 
   5   6   6   6   6
Direct configuration=     6
   0.96115365  0.93317290  0.39502342
   0.63339019  0.26483781  0.40204918
   0.49944513  0.00420712 -0.00271410
  -0.00196706  0.00773560 -0.00381741
   0.03873026  0.07324283  0.60250552
   0.90181510  0.79747316  0.20450205
   0.80626189  0.59258159  0.39931998
   0.73467874  0.46518938  0.19908263
   0.66174282  0.33957344 -0.00289686
   0.36930333  0.72913129  0.60130357
   0.13115477  0.27244031  0.40078759
   0.83412733  0.66365730  0.00106257
   0.92742094  0.86995922  0.79952680
   0.56594527  0.13355989  0.19561564
   0.40470150  0.79452835  0.19678249
   0.43294819  0.86753238  0.79614194
   0.30137900  0.60162994  0.40393126
   0.85922822  0.73378970  0.59949294
   0.46140939  0.93131520  0.40728505
   0.17204355  0.33117318 -0.00505599
   0.27340917  0.53746133  0.79889493
   0.19838698  0.38788291  0.60552771
   0.06354593  0.14244881  0.20308137
   0.77417633  0.51717880  0.80098610
   0.69102518  0.40872283  0.60393701
   0.60113288  0.20324206  0.79553209
   0.53971454  0.06949000  0.60250038
   0.33419051  0.65877424 -0.00019533
   0.22950632  0.46806843  0.19980746
SQS with 1 vacancy for VFE and VRV      
           1
    -3.218156   -3.197609   -3.212317
     1.541312    1.576730   -7.940821
     7.907335   -7.909004   -1.553022
   Nb   Mo   Ta   Ti   W 
   5   6   6   6   6
Direct configuration=     7
   0.96109858  0.93320177  0.39506760
   0.63337044  0.26487182  0.40203340
   0.49949642  0.00410279 -0.00281010
  -0.00193002  0.00780833 -0.00387229
   0.03877504  0.07333615  0.60255050
   0.90182070  0.79747927  0.20437303
   0.80623054  0.59263016  0.39937920
   0.73465009  0.46515584  0.19912751
   0.66179204  0.33949750 -0.00290028
   0.36924052  0.72921770  0.60133572
   0.13114411  0.27241395  0.40085889
   0.83407019  0.66376432  0.00101384
   0.92762872  0.86989978  0.79953816
   0.56590660  0.13355008  0.19563958
   0.40464781  0.79459516  0.19680313
   0.43280680  0.86749845  0.79618964
   0.30144985  0.60153535  0.40398445
   0.85921831  0.73376946  0.59948791
   0.46136110  0.93127966  0.40732524
   0.17204197  0.33113032 -0.00518667
   0.27337706  0.53754093  0.79887444
   0.19821960  0.38778889  0.60566405
   0.06351512  0.14254724  0.20308646
   0.77445093  0.51710077  0.80104213
   0.69110193  0.40863673  0.60381881
   0.60106667  0.20326433  0.79554733
   0.53973619  0.06946919  0.60246383
   0.33412096  0.65891299 -0.00028068
   0.22959171  0.46800107  0.19984517
SQS with 1 vacancy for VFE and VRV      
           1
    -3.215214   -3.193824   -3.211720
     1.538634    1.571026   -7.934254
     7.893899   -7.892116   -1.554007
   Nb   Mo   Ta   Ti   W 
   5   6   6   6   6
Direct configuration=     8
   0.96067661  0.93338023  0.39529361
   0.63325606  0.26502332  0.40195667
   0.49994092  0.00344120 -0.00348722
  -0.00171859  0.00842436 -0.00434283
   0.03901358  0.07401954  0.60290884
   0.90195653  0.79748539  0.20354393
   0.80610257  0.59290531  0.39978099
   0.73436432  0.46507578  0.19941121
   0.66200638  0.33911228 -0.00294827
   0.36889564  0.72973628  0.60158128
   0.13098702  0.27229916  0.40136083
   0.83378960  0.66440125  0.00068774
   0.92864984  0.86960628  0.79955655
   0.56569596  0.13340514  0.19573537
   0.40425935  0.79492678  0.19689133
   0.43224824  0.86718328  0.79643799
   0.30176380  0.60093509  0.40437604
   0.85910734  0.73361493  0.59950144
   0.46096379  0.93097397  0.40765747
   0.17202075  0.33086532 -0.00627202
   0.27340473  0.53822847  0.79871265
   0.19703740  0.38698274  0.60679058
   0.06314756  0.14339132  0.20315331
   0.77639764  0.51637769  0.80139928
   0.69140211  0.40817256  0.60314463
   0.60067247  0.20338238  0.79555443
   0.54010723  0.06925502  0.60234484
   0.33378880  0.65972614 -0.00077027
   0.23006236  0.46766880  0.20003960
SQS with 1 vacancy for VFE and VRV      
           1
    -3.212293   -3.190067   -3.211127
     1.535976    1.565363   -7.927734
     7.880560   -7.875349   -1.554985
   Nb   Mo   Ta   Ti   W 
   5   6   6   6   6
Direct configuration=     9
   0.96025721  0.93355760  0.39551836
   0.63314227  0.26517400  0.40188031
   0.50038294  0.00278387 -0.00416062
  -0.00150906  0.00903689 -0.00481100
   0.03925020  0.07469852  0.60326516
   0.90209130  0.79749193  0.20271921
   0.80597530  0.59317860  0.40018061
   0.73408048  0.46499613  0.19969342
   0.66221964  0.33872935 -0.00299592
   0.36855261  0.73025170  0.60182544
   0.13083113  0.27218481  0.40186013
   0.83351022  0.66503462  0.00036322
   0.92966476  0.86931423  0.79957496
   0.56548677  0.13326107  0.19583068
   0.40387311  0.79525645  0.19697898
   0.43169348  0.86687002  0.79668505
   0.30207632  0.60033811  0.40476570
   0.85899719  0.73346135  0.59951493
   0.46056928  0.93067004  0.40798798
   0.17199958  0.33060257 -0.00735158
   0.27343168  0.53891196  0.79855159
   0.19586349  0.38618112  0.60791126
   0.06278171  0.14423039  0.20321962
   0.77833274  0.51565817  0.80175478
   0.69170057  0.40771149  0.60247410
   0.60028065  0.20349984  0.79556144
   0.54047606  0.06904211  0.60222653
   0.33345800  0.66053479 -0.00125745
   0.23053035  0.46733827  0.20023308
SQS with 1 vacancy for VFE and VRV      
           1
    -3.213560   -3.190979   -3.211925
     1.535925    1.564092   -7.927340
     7.877429   -7.870850   -1.555838
   Nb   Mo   Ta   Ti   W 
   5   6   6   6   6
Direct configuration=    10
   0.96010870  0.93360469  0.39542855
   0.63315796  0.26498303  0.40192339
   0.50044347  0.00294875 -0.00427510
  -0.00145079  0.00947859 -0.00514087
   0.03918041  0.07484572  0.60350927
   0.90224456  0.79747906  0.20271853
   0.80604879  0.59318630  0.40026122
   0.73389674  0.46526202  0.19967477
   0.66209604  0.33885408 -0.00304468
   0.36863380  0.73021722  0.60189056
   0.13072237  0.27219072  0.40198826
   0.83377814  0.66480897  0.00036177
   0.92916782  0.86944482  0.79937132
   0.56549104  0.13302468  0.19572451
   0.40376256  0.79518401  0.19693799
   0.43231833  0.86684059  0.79655414
   0.30161728  0.60039659  0.40495545
   0.85899729  0.73335504  0.59962110
   0.46036764  0.93048000  0.40814938
   0.17197472  0.33052694 -0.00804563
   0.27387096  0.53924009  0.79841530
   0.19558165  0.38578909  0.60861641
   0.06245251  0.14466794  0.20325068
   0.77910545  0.51506414  0.80173070
   0.69132851  0.40784260  0.60264850
   0.60019932  0.20353725  0.79543908
   0.54083428  0.06883742  0.60240166
   0.33372493  0.66039183 -0.00116939
   0.23034554  0.46751783  0.20010314
SQS with 1 vacancy for VFE and VRV      
           1
    -3.217361   -3.193717   -3.214319
     1.535773    1.560280   -7.926159
     7.868037   -7.857354   -1.558396
   Nb   Mo   Ta   Ti   W 
   5   6   6   6   6
Direct configuration=    11
   0.95966326  0.93374601  0.39515896
   0.63320510  0.26441002  0.40205274
   0.50062488  0.00344356 -0.00461875
  -0.00127634  0.01080411 -0.00613107
   0.03897113  0.07528722  0.60424189
   0.90270420  0.79744045  0.20271651
   0.80626919  0.59320934  0.40050317
   0.73334561  0.46605981  0.19961869
   0.66172529  0.33922832 -0.00319107
   0.36887732  0.73011372  0.60208604
   0.13039624  0.27220835  0.40237285
   0.83458174  0.66413195  0.00035750
   0.92767737  0.86983672  0.79876003
   0.56550392  0.13231548  0.19540590
   0.40343101  0.79496667  0.19681497
   0.43419225  0.86675244  0.79616127
   0.30024065  0.60057189  0.40552494
   0.85899765  0.73303599  0.59993978
   0.45976302  0.92990966  0.40863384
   0.17189997  0.33030055 -0.01012874
   0.27518817  0.54022473  0.79800618
   0.19473679  0.38461232  0.61073296
   0.06146507  0.14598072  0.20334378
   0.78142306  0.51328191  0.80165861
   0.69021268  0.40823581  0.60317189
   0.59995533  0.20364957  0.79507179
   0.54190871  0.06822320  0.60292735
   0.33452557  0.65996287 -0.00090503
   0.22979116  0.46805663  0.19971305
SQS with 1 vacancy for VFE and VRV      
           1
    -3.220822   -3.198842   -3.217907
     1.538958    1.561902   -7.935664
     7.877737   -7.869081   -1.562249
   Nb   Mo   Ta   Ti   W 
   5   6   6   6   6
Direct configuration=    12
   0.95963447  0.93376969  0.39511398
   0.63291849  0.26444824  0.40210562
   0.50084659  0.00357936 -0.00452819
  -0.00126753  0.01110890 -0.00643382
   0.03895808  0.07517166  0.60429643
   0.90258511  0.79754706  0.20287930
   0.80607259  0.59303806  0.40051248
   0.73333651  0.46617516  0.19966623
   0.66146518  0.33940081 -0.00319789
   0.36904151  0.72994641  0.60206943
   0.13022758  0.27226403  0.40242263
   0.83503349  0.66398222  0.00041100
   0.92807444  0.86969093  0.79876853
   0.56547145  0.13230601  0.19536090
   0.40343042  0.79494721  0.19678362
   0.43422874  0.86670024  0.79620287
   0.30003587  0.60051401  0.40561209
   0.85925905  0.73283240  0.60001246
   0.45970816  0.92979262  0.40863984
   0.17175390  0.33031681 -0.01074694
   0.27559985  0.54043551  0.79795301
   0.19474521  0.38448655  0.61125468
   0.06117632  0.14620820  0.20322198
   0.78181778  0.51312792  0.80157168
   0.68991423  0.40830730  0.60335487
   0.59980900  0.20371118  0.79512395
   0.54177842  0.06821193  0.60282313
   0.33479205  0.65983814 -0.00088905
   0.22955303  0.46814143  0.19963517
SQS with 1 vacancy for VFE and VRV      
           1
    -3.219918   -3.197503   -3.216969
     1.538126    1.561478   -7.933180
     7.875203   -7.866016   -1.561242
   Nb   Mo   Ta   Ti   W 
   5   6   6   6   6
Direct configuration=    13
   0.95964198  0.93376351  0.39512572
   0.63299330  0.26443827  0.40209181
   0.50078873  0.00354391 -0.00455182
  -0.00126987  0.01102935 -0.00635480
   0.03896150  0.07520182  0.60428219
   0.90261620  0.79751924  0.20283682
   0.80612391  0.59308277  0.40051004
   0.73333889  0.46614506  0.19965382
   0.66153306  0.33935580 -0.00319611
   0.36899867  0.72999007  0.60207377
   0.13027160  0.27224950  0.40240964
   0.83491560  0.66402129  0.00039705
   0.92797082  0.86972897  0.79876632
   0.56547992  0.13230848  0.19537264
   0.40343057  0.79495229  0.19679180
   0.43421922  0.86671387  0.79619201
   0.30008933  0.60052912  0.40558934
   0.85919084  0.73288553  0.59999349
   0.45972248  0.92982317  0.40863827
   0.17179196  0.33031256 -0.01058561
   0.27549240  0.54038049  0.79796690
   0.19474306  0.38451939  0.61111853
   0.06125166  0.14614883  0.20325376
   0.78171476  0.51316810  0.80159438
   0.68999213  0.40828865  0.60330712
   0.59984719  0.20369510  0.79511034
   0.54181242  0.06821487  0.60285032
   0.33472251  0.65987069 -0.00089322
   0.22961517  0.46811930  0.19965549
SQS with 1 vacancy for VFE and VRV      
           1
    -3.218507   -3.198275   -3.215955
     1.539479    1.560866   -7.931726
     7.873952   -7.867438   -1.563428
   Nb   Mo   Ta   Ti   W 
   5   6   6   6   6
Direct configuration=    14
   0.95964570  0.93373860  0.39507804
   0.63256852  0.26456040  0.40214595
   0.50116866  0.00358650 -0.00442682
  -0.00125384  0.01127900 -0.00666115
   0.03893217  0.07502159  0.60427344
   0.90245546  0.79764004  0.20303467
   0.80588236  0.59281053  0.40050067
   0.73334184  0.46621805  0.19972573
   0.66119742  0.33959090 -0.00321165
   0.36920922  0.72976287  0.60204394
   0.13000813  0.27236687  0.40243750
   0.83540297  0.66397786  0.00046867
   0.92859434  0.86954352  0.79884800
   0.56541949  0.13240993  0.19535294
   0.40345857  0.79495921  0.19674409
   0.43413863  0.86663352  0.79628120
   0.29994671  0.60039534  0.40567367
   0.85950599  0.73266214  0.60005373
   0.45969193  0.92972503  0.40859181
   0.17161501  0.33035301 -0.01120155
   0.27592866  0.54059797  0.79794541
   0.19487464  0.38443100  0.61159758
   0.06091849  0.14632795  0.20306716
   0.78194312  0.51318103  0.80151289
   0.68973502  0.40831776  0.60348455
   0.59973825  0.20370241  0.79518488
   0.54155437  0.06825177  0.60272521
   0.33501763  0.65977019 -0.00088209
   0.22936053  0.46818500  0.19961153
SQS with 1 vacancy for VFE and VRV      
           1
    -3.216112   -3.199585   -3.214234
     1.541776    1.559828   -7.929257
     7.871831   -7.869850   -1.567138
   Nb   Mo   Ta   Ti   W 
   5   6   6   6   6
Direct configuration=    15
   0.95965203  0.93369633  0.39499714
   0.63184747  0.26476764  0.40223791
   0.50181350  0.00365883 -0.00421477
  -0.00122631  0.01170283 -0.00718113
   0.03888234  0.07471565  0.60425862
   0.90218251  0.79784504  0.20337047
   0.80547227  0.59234839  0.40048488
   0.73334681  0.46634193  0.19984775
   0.66062779  0.33998991 -0.00323800
   0.36956658  0.72937725  0.60199332
   0.12956091  0.27256604  0.40248481
   0.83623017  0.66390422  0.00059012
   0.92965260  0.86922882  0.79898652
   0.56531697  0.13258212  0.19531950
   0.40350613  0.79497096  0.19666311
   0.43400175  0.86649710  0.79643262
   0.29970453  0.60016821  0.40581686
   0.86004082  0.73228300  0.60015593
   0.45964007  0.92955845  0.40851300
   0.17131515  0.33042175 -0.01224687
   0.27666928  0.54096721  0.79790880
   0.19509760  0.38428093  0.61241060
   0.06035316  0.14663197  0.20275051
   0.78233081  0.51320302  0.80137454
   0.68929845  0.40836710  0.60378574
   0.59955328  0.20371479  0.79531141
   0.54111645  0.06831437  0.60251292
   0.33551853  0.65959966 -0.00086326
   0.22892834  0.46829648  0.19953696
SQS with 1 vacancy for VFE and VRV      
           1
    -3.214296   -3.198218   -3.212480
     1.542189    1.559293   -7.926346
     7.866991   -7.864898   -1.567470
   Nb   Mo   Ta   Ti   W 
   5   6   6   6   6
Direct configuration=    16
   0.95962500  0.93365042  0.39503605
   0.63156498  0.26470325  0.40226973
   0.50207591  0.00350048 -0.00424835
  -0.00097784  0.01196541 -0.00731164
   0.03868911  0.07461022  0.60414403
   0.90225048  0.79791723  0.20334061
   0.80541085  0.59227551  0.40060568
   0.73317379  0.46633195  0.19985934
   0.66057083  0.34011245 -0.00329275
   0.36959861  0.72932662  0.60196421
   0.12916666  0.27256285  0.40252228
   0.83635808  0.66403931  0.00065460
   0.92962956  0.86916514  0.79898547
   0.56500504  0.13283033  0.19536686
   0.40336006  0.79502714  0.19672244
   0.43462702  0.86660533  0.79650827
   0.29939664  0.60018620  0.40582183
   0.86022207  0.73222084  0.60017970
   0.45958192  0.92948632  0.40844914
   0.17122283  0.33035884 -0.01278362
   0.27683216  0.54114638  0.79792158
   0.19514148  0.38411794  0.61279150
   0.06011548  0.14678384  0.20245227
   0.78256216  0.51335996  0.80143384
   0.68952518  0.40808537  0.60378831
   0.59963997  0.20350037  0.79533375
   0.54105637  0.06810806  0.60266842
   0.33571435  0.65977704 -0.00076988
   0.22886127  0.46824521  0.19958632
SQS with 1 vacancy for VFE and VRV      
           1
    -3.214107   -3.198076   -3.212298
     1.542231    1.559238   -7.926044
     7.866489   -7.864385   -1.567504
   Nb   Mo   Ta   Ti   W 
   5   6   6   6   6
Direct configuration=    17
   0.95962219  0.93364566  0.39504009
   0.63153567  0.26469657  0.40227303
   0.50210313  0.00348405 -0.00425184
  -0.00095206  0.01199264 -0.00732518
   0.03866907  0.07459929  0.60413215
   0.90225753  0.79792472  0.20333751
   0.80540447  0.59226795  0.40061822
   0.73315584  0.46633092  0.19986055
   0.66056493  0.34012516 -0.00329843
   0.36960193  0.72932137  0.60196119
   0.12912576  0.27256252  0.40252617
   0.83637135  0.66405332  0.00066129
   0.92962716  0.86915853  0.79898536
   0.56497268  0.13285607  0.19537178
   0.40334490  0.79503296  0.19672859
   0.43469189  0.86661656  0.79651612
   0.29936470  0.60018807  0.40582234
   0.86024087  0.73221439  0.60018216
   0.45957589  0.92947884  0.40844251
   0.17121326  0.33035232 -0.01283931
   0.27684906  0.54116496  0.79792291
   0.19514603  0.38410104  0.61283101
   0.06009083  0.14679959  0.20242133
   0.78258616  0.51337623  0.80143999
   0.68954869  0.40805615  0.60378857
   0.59964896  0.20347814  0.79533607
   0.54105013  0.06808666  0.60268456
   0.33573466  0.65979544 -0.00076019
   0.22885431  0.46823989  0.19959144
SQS with 1 vacancy for VFE and VRV      
           1
    -3.216028   -3.199291   -3.213704
     1.544142    1.560640   -7.931308
     7.869766   -7.865498   -1.568632
   Nb   Mo   Ta   Ti   W 
   5   6   6   6   6
Direct configuration=    18
   0.95954960  0.93362360  0.39508825
   0.63140302  0.26457663  0.40228980
   0.50218724  0.00336714 -0.00431464
  -0.00066151  0.01213439 -0.00733905
   0.03854159  0.07454029  0.60404575
   0.90236714  0.79796577  0.20320501
   0.80543217  0.59231596  0.40078970
   0.73291486  0.46633596  0.19984421
   0.66066470  0.34015765 -0.00336355
   0.36953024  0.72936496  0.60197881
   0.12881730  0.27248129  0.40258997
   0.83635656  0.66417798  0.00068755
   0.92953759  0.86915547  0.79892517
   0.56463362  0.13304871  0.19544221
   0.40320464  0.79503930  0.19685226
   0.43532266  0.86682381  0.79653647
   0.29907729  0.60018944  0.40584980
   0.86031690  0.73220596  0.60020052
   0.45952252  0.92942731  0.40842158
   0.17117037  0.33028231 -0.01327299
   0.27685012  0.54127553  0.79791263
   0.19510587  0.38392111  0.61310035
   0.05989557  0.14689971  0.20213140
   0.78279537  0.51355871  0.80153567
   0.68994447  0.40773086  0.60370267
   0.59983425  0.20328863  0.79532472
   0.54104522  0.06786215  0.60286350
   0.33579007  0.66007695 -0.00068899
   0.22885055  0.46817240  0.19966121
SQS with 1 vacancy for VFE and VRV      
           1
    -3.215671   -3.199066   -3.213443
     1.543787    1.560379   -7.930331
     7.869158   -7.865291   -1.568423
   Nb   Mo   Ta   Ti   W 
   5   6   6   6   6
Direct configuration=    19
   0.95956307  0.93362770  0.39507931
   0.63142764  0.26459888  0.40228669
   0.50217164  0.00338883 -0.00430299
  -0.00071543  0.01210809 -0.00733648
   0.03856525  0.07455123  0.60406179
   0.90234681  0.79795814  0.20322960
   0.80542702  0.59230706  0.40075787
   0.73295958  0.46633503  0.19984724
   0.66064618  0.34015162 -0.00335146
   0.36954355  0.72935688  0.60197554
   0.12887454  0.27249637  0.40257813
   0.83635930  0.66415485  0.00068267
   0.92955421  0.86915603  0.79893634
   0.56469653  0.13301297  0.19542914
   0.40323067  0.79503813  0.19682931
   0.43520559  0.86678536  0.79653269
   0.29913063  0.60018919  0.40584471
   0.86030279  0.73220752  0.60019712
   0.45953243  0.92943687  0.40842547
   0.17117835  0.33029529 -0.01319250
   0.27684992  0.54125501  0.79791454
   0.19511332  0.38395450  0.61305036
   0.05993181  0.14688112  0.20218522
   0.78275654  0.51352486  0.80151791
   0.68987104  0.40779121  0.60371861
   0.59979987  0.20332379  0.79532683
   0.54104613  0.06790381  0.60283028
   0.33577978  0.66002473 -0.00070220
   0.22885124  0.46818493  0.19964826
