  29  29   0   0
  0.1679057E+02  0.5525242E-09  0.8287863E-09  0.1139058E-08  0.5000000E-15
  1.000000000000000E-004
  CAR 
 SQS with 1 vacancy for VFE and VRV      
     12.03132637    -50.30358580  301      6.75365730      1.00000000
    -50.304  0.0000E+00  0.0000E+00
    -50.096  0.0000E+00  0.0000E+00
    -49.888  0.0000E+00  0.0000E+00
    -49.680  0.0000E+00  0.0000E+00
    -49.472  0.0000E+00  0.0000E+00
    -49.265 -0.4930E-35 -0.1024E-35
    -49.057 -0.1869E-27 -0.3884E-28
    -48.849 -0.8044E-21 -0.1671E-21
    -48.641 -0.3809E-15 -0.7914E-16
    -48.434 -0.2052E-10 -0.4264E-11
    -48.226 -0.1218E-06 -0.2532E-07
    -48.018 -0.7681E-04 -0.1599E-04
    -47.810 -0.4510E-02 -0.9532E-03
    -47.602  0.1863E-02 -0.5661E-03
    -47.395  0.2406E+00  0.4943E-01
    -47.187  0.5285E+00  0.1592E+00
    -46.979  0.3802E+00  0.2382E+00
    -46.771  0.1634E-01  0.2416E+00
    -46.563 -0.7661E-02  0.2400E+00
    -46.356 -0.1768E-03  0.2400E+00
    -46.148 -0.3811E-06  0.2400E+00
    -45.940 -0.8811E-10  0.2400E+00
    -45.732 -0.2258E-14  0.2400E+00
    -45.525  0.0000E+00  0.2400E+00
    -45.317  0.0000E+00  0.2400E+00
    -45.109  0.0000E+00  0.2400E+00
    -44.901  0.0000E+00  0.2400E+00
    -44.693  0.0000E+00  0.2400E+00
    -44.486  0.0000E+00  0.2400E+00
    -44.278  0.0000E+00  0.2400E+00
    -44.070  0.0000E+00  0.2400E+00
    -43.862  0.0000E+00  0.2400E+00
    -43.655  0.0000E+00  0.2400E+00
    -43.447  0.0000E+00  0.2400E+00
    -43.239  0.0000E+00  0.2400E+00
    -43.031  0.0000E+00  0.2400E+00
    -42.823  0.0000E+00  0.2400E+00
    -42.616  0.0000E+00  0.2400E+00
    -42.408  0.0000E+00  0.2400E+00
    -42.200  0.0000E+00  0.2400E+00
    -41.992  0.0000E+00  0.2400E+00
    -41.784  0.0000E+00  0.2400E+00
    -41.577  0.0000E+00  0.2400E+00
    -41.369  0.0000E+00  0.2400E+00
    -41.161  0.0000E+00  0.2400E+00
    -40.953  0.0000E+00  0.2400E+00
    -40.746  0.0000E+00  0.2400E+00
    -40.538  0.0000E+00  0.2400E+00
    -40.330  0.0000E+00  0.2400E+00
    -40.122  0.0000E+00  0.2400E+00
    -39.914  0.0000E+00  0.2400E+00
    -39.707  0.0000E+00  0.2400E+00
    -39.499  0.0000E+00  0.2400E+00
    -39.291  0.0000E+00  0.2400E+00
    -39.083  0.0000E+00  0.2400E+00
    -38.876  0.0000E+00  0.2400E+00
    -38.668  0.0000E+00  0.2400E+00
    -38.460  0.0000E+00  0.2400E+00
    -38.252  0.0000E+00  0.2400E+00
    -38.044  0.0000E+00  0.2400E+00
    -37.837  0.0000E+00  0.2400E+00
    -37.629  0.0000E+00  0.2400E+00
    -37.421  0.0000E+00  0.2400E+00
    -37.213  0.0000E+00  0.2400E+00
    -37.005  0.0000E+00  0.2400E+00
    -36.798  0.0000E+00  0.2400E+00
    -36.590  0.0000E+00  0.2400E+00
    -36.382  0.0000E+00  0.2400E+00
    -36.174  0.0000E+00  0.2400E+00
    -35.967  0.0000E+00  0.2400E+00
    -35.759  0.0000E+00  0.2400E+00
    -35.551  0.0000E+00  0.2400E+00
    -35.343  0.0000E+00  0.2400E+00
    -35.135  0.0000E+00  0.2400E+00
    -34.928  0.0000E+00  0.2400E+00
    -34.720  0.0000E+00  0.2400E+00
    -34.512  0.0000E+00  0.2400E+00
    -34.304  0.0000E+00  0.2400E+00
    -34.097  0.0000E+00  0.2400E+00
    -33.889  0.0000E+00  0.2400E+00
    -33.681  0.0000E+00  0.2400E+00
    -33.473  0.0000E+00  0.2400E+00
    -33.265  0.0000E+00  0.2400E+00
    -33.058  0.0000E+00  0.2400E+00
    -32.850  0.0000E+00  0.2400E+00
    -32.642  0.0000E+00  0.2400E+00
    -32.434  0.0000E+00  0.2400E+00
    -32.226  0.0000E+00  0.2400E+00
    -32.019  0.0000E+00  0.2400E+00
    -31.811  0.0000E+00  0.2400E+00
    -31.603  0.0000E+00  0.2400E+00
    -31.395  0.0000E+00  0.2400E+00
    -31.188  0.0000E+00  0.2400E+00
    -30.980  0.0000E+00  0.2400E+00
    -30.772  0.0000E+00  0.2400E+00
    -30.564  0.0000E+00  0.2400E+00
    -30.356  0.0000E+00  0.2400E+00
    -30.149  0.0000E+00  0.2400E+00
    -29.941  0.0000E+00  0.2400E+00
    -29.733  0.0000E+00  0.2400E+00
    -29.525  0.0000E+00  0.2400E+00
    -29.317  0.0000E+00  0.2400E+00
    -29.110  0.0000E+00  0.2400E+00
    -28.902  0.0000E+00  0.2400E+00
    -28.694  0.0000E+00  0.2400E+00
    -28.486  0.0000E+00  0.2400E+00
    -28.279  0.0000E+00  0.2400E+00
    -28.071  0.0000E+00  0.2400E+00
    -27.863  0.0000E+00  0.2400E+00
    -27.655  0.0000E+00  0.2400E+00
    -27.447  0.0000E+00  0.2400E+00
    -27.240  0.0000E+00  0.2400E+00
    -27.032  0.0000E+00  0.2400E+00
    -26.824  0.0000E+00  0.2400E+00
    -26.616  0.0000E+00  0.2400E+00
    -26.409  0.0000E+00  0.2400E+00
    -26.201  0.0000E+00  0.2400E+00
    -25.993  0.0000E+00  0.2400E+00
    -25.785 -0.5899E-31  0.2400E+00
    -25.577 -0.5856E-24  0.2400E+00
    -25.370 -0.6581E-18  0.2400E+00
    -25.162 -0.8020E-13  0.2400E+00
    -24.954 -0.1109E-08  0.2400E+00
    -24.746 -0.1659E-05  0.2400E+00
    -24.538 -0.2560E-03  0.2399E+00
    -24.331 -0.3079E-02  0.2393E+00
    -24.123  0.1683E-01  0.2428E+00
    -23.915  0.1301E+00  0.2698E+00
    -23.707  0.4268E+00  0.3585E+00
    -23.500  0.8572E+00  0.5366E+00
    -23.292  0.9872E+00  0.7417E+00
    -23.084  0.6134E+00  0.8692E+00
    -22.876  0.3357E+00  0.9390E+00
    -22.668  0.1059E+00  0.9610E+00
    -22.461 -0.2827E-02  0.9604E+00
    -22.253 -0.1805E-02  0.9600E+00
    -22.045 -0.4258E-04  0.9600E+00
    -21.837 -0.1063E-06  0.9600E+00
    -21.630 -0.2839E-10  0.9600E+00
    -21.422 -0.8293E-15  0.9600E+00
    -21.214  0.0000E+00  0.9600E+00
    -21.006  0.0000E+00  0.9600E+00
    -20.798  0.0000E+00  0.9600E+00
    -20.591  0.0000E+00  0.9600E+00
    -20.383  0.0000E+00  0.9600E+00
    -20.175  0.0000E+00  0.9600E+00
    -19.967  0.0000E+00  0.9600E+00
    -19.759  0.0000E+00  0.9600E+00
    -19.552  0.0000E+00  0.9600E+00
    -19.344  0.0000E+00  0.9600E+00
    -19.136  0.0000E+00  0.9600E+00
    -18.928  0.0000E+00  0.9600E+00
    -18.721  0.0000E+00  0.9600E+00
    -18.513  0.0000E+00  0.9600E+00
    -18.305  0.0000E+00  0.9600E+00
    -18.097  0.0000E+00  0.9600E+00
    -17.889  0.0000E+00  0.9600E+00
    -17.682  0.0000E+00  0.9600E+00
    -17.474  0.0000E+00  0.9600E+00
    -17.266  0.0000E+00  0.9600E+00
    -17.058  0.0000E+00  0.9600E+00
    -16.851  0.0000E+00  0.9600E+00
    -16.643  0.0000E+00  0.9600E+00
    -16.435  0.0000E+00  0.9600E+00
    -16.227  0.0000E+00  0.9600E+00
    -16.019  0.0000E+00  0.9600E+00
    -15.812  0.0000E+00  0.9600E+00
    -15.604  0.0000E+00  0.9600E+00
    -15.396  0.0000E+00  0.9600E+00
    -15.188  0.0000E+00  0.9600E+00
    -14.980  0.0000E+00  0.9600E+00
    -14.773  0.0000E+00  0.9600E+00
    -14.565  0.0000E+00  0.9600E+00
    -14.357  0.0000E+00  0.9600E+00
    -14.149  0.0000E+00  0.9600E+00
    -13.942  0.0000E+00  0.9600E+00
    -13.734  0.0000E+00  0.9600E+00
    -13.526  0.0000E+00  0.9600E+00
    -13.318  0.0000E+00  0.9600E+00
    -13.110  0.0000E+00  0.9600E+00
    -12.903  0.0000E+00  0.9600E+00
    -12.695  0.0000E+00  0.9600E+00
    -12.487  0.0000E+00  0.9600E+00
    -12.279  0.0000E+00  0.9600E+00
    -12.072  0.0000E+00  0.9600E+00
    -11.864  0.0000E+00  0.9600E+00
    -11.656  0.0000E+00  0.9600E+00
    -11.448  0.0000E+00  0.9600E+00
    -11.240  0.0000E+00  0.9600E+00
    -11.033  0.0000E+00  0.9600E+00
    -10.825  0.0000E+00  0.9600E+00
    -10.617  0.0000E+00  0.9600E+00
    -10.409  0.0000E+00  0.9600E+00
    -10.201  0.0000E+00  0.9600E+00
     -9.994  0.0000E+00  0.9600E+00
     -9.786  0.0000E+00  0.9600E+00
     -9.578  0.0000E+00  0.9600E+00
     -9.370  0.0000E+00  0.9600E+00
     -9.163  0.0000E+00  0.9600E+00
     -8.955  0.0000E+00  0.9600E+00
     -8.747  0.0000E+00  0.9600E+00
     -8.539  0.0000E+00  0.9600E+00
     -8.331  0.0000E+00  0.9600E+00
     -8.124  0.0000E+00  0.9600E+00
     -7.916  0.0000E+00  0.9600E+00
     -7.708  0.0000E+00  0.9600E+00
     -7.500  0.0000E+00  0.9600E+00
     -7.292  0.0000E+00  0.9600E+00
     -7.085  0.0000E+00  0.9600E+00
     -6.877  0.0000E+00  0.9600E+00
     -6.669  0.0000E+00  0.9600E+00
     -6.461  0.0000E+00  0.9600E+00
     -6.254  0.0000E+00  0.9600E+00
     -6.046  0.0000E+00  0.9600E+00
     -5.838  0.0000E+00  0.9600E+00
     -5.630  0.0000E+00  0.9600E+00
     -5.422  0.0000E+00  0.9600E+00
     -5.215  0.0000E+00  0.9600E+00
     -5.007  0.0000E+00  0.9600E+00
     -4.799  0.0000E+00  0.9600E+00
     -4.591  0.0000E+00  0.9600E+00
     -4.384  0.0000E+00  0.9600E+00
     -4.176  0.0000E+00  0.9600E+00
     -3.968  0.0000E+00  0.9600E+00
     -3.760  0.0000E+00  0.9600E+00
     -3.552  0.0000E+00  0.9600E+00
     -3.345  0.0000E+00  0.9600E+00
     -3.137  0.0000E+00  0.9600E+00
     -2.929  0.0000E+00  0.9600E+00
     -2.721  0.0000E+00  0.9600E+00
     -2.513  0.0000E+00  0.9600E+00
     -2.306 -0.8258E-34  0.9600E+00
     -2.098 -0.1259E-26  0.9600E+00
     -1.890 -0.2192E-20  0.9600E+00
     -1.682 -0.4214E-15  0.9600E+00
     -1.475 -0.9432E-11  0.9600E+00
     -1.267 -0.2394E-07  0.9600E+00
     -1.059 -0.6793E-05  0.9600E+00
     -0.851 -0.1904E-03  0.9600E+00
     -0.643  0.4789E-03  0.9601E+00
     -0.436  0.8444E-02  0.9618E+00
     -0.228  0.2218E-01  0.9664E+00
     -0.020  0.3706E-01  0.9741E+00
      0.188  0.3332E-01  0.9810E+00
      0.395  0.2883E-01  0.9870E+00
      0.603  0.5259E-01  0.9980E+00
      0.811  0.6922E-01  0.1012E+01
      1.019  0.5744E-01  0.1024E+01
      1.227  0.5591E-01  0.1036E+01
      1.434  0.8002E-01  0.1053E+01
      1.642  0.7439E-01  0.1068E+01
      1.850  0.9018E-01  0.1087E+01
      2.058  0.1489E+00  0.1118E+01
      2.266  0.1920E+00  0.1158E+01
      2.473  0.2725E+00  0.1214E+01
      2.681  0.3937E+00  0.1296E+01
      2.889  0.4606E+00  0.1392E+01
      3.097  0.5045E+00  0.1496E+01
      3.304  0.5681E+00  0.1615E+01
      3.512  0.5883E+00  0.1737E+01
      3.720  0.5670E+00  0.1855E+01
      3.928  0.6071E+00  0.1981E+01
      4.136  0.5797E+00  0.2101E+01
      4.343  0.4902E+00  0.2203E+01
      4.551  0.5418E+00  0.2316E+01
      4.759  0.7029E+00  0.2462E+01
      4.967  0.8064E+00  0.2629E+01
      5.174  0.8135E+00  0.2798E+01
      5.382  0.7637E+00  0.2957E+01
      5.590  0.7213E+00  0.3107E+01
      5.798  0.7136E+00  0.3255E+01
      6.006  0.7477E+00  0.3410E+01
      6.213  0.7958E+00  0.3576E+01
      6.421  0.7990E+00  0.3742E+01
      6.629  0.7511E+00  0.3898E+01
      6.837  0.6331E+00  0.4029E+01
      7.045  0.5198E+00  0.4137E+01
      7.252  0.4181E+00  0.4224E+01
      7.460  0.3301E+00  0.4293E+01
      7.668  0.3209E+00  0.4360E+01
      7.876  0.3188E+00  0.4426E+01
      8.083  0.3557E+00  0.4500E+01
      8.291  0.4187E+00  0.4587E+01
      8.499  0.3975E+00  0.4669E+01
      8.707  0.3248E+00  0.4737E+01
      8.915  0.2084E+00  0.4780E+01
      9.122  0.8557E-01  0.4798E+01
      9.330  0.1189E-01  0.4800E+01
      9.538 -0.1523E-02  0.4800E+01
      9.746 -0.2081E-03  0.4800E+01
      9.953 -0.2283E-05  0.4800E+01
     10.161 -0.2861E-08  0.4800E+01
     10.369 -0.4212E-12  0.4800E+01
     10.577 -0.7523E-17  0.4800E+01
     10.785  0.0000E+00  0.4800E+01
     10.992  0.0000E+00  0.4800E+01
     11.200  0.0000E+00  0.4800E+01
     11.408  0.0000E+00  0.4800E+01
     11.616  0.0000E+00  0.4800E+01
     11.824  0.0000E+00  0.4800E+01
     12.031  0.0000E+00  0.4800E+01
