   29   29   50    1
  0.1679057E+02  0.5525242E-09  0.8287863E-09  0.1139058E-08  0.5000000E-15
  1.000000000000000E-004
  CAR 
 SQS with 1 vacancy for VFE and VRV      
    199     63    120
 
  0.0000000E+00  0.0000000E+00  0.0000000E+00  0.8000000E-02
    1      -47.470181   1.000000
    2      -47.399644   1.000000
    3      -47.271482   1.000000
    4      -47.201797   1.000000
    5      -47.150563   1.000000
    6      -47.081244   1.000000
    7      -24.117794   1.000000
    8      -23.865109   1.000000
    9      -23.769650   1.000000
   10      -23.666871   1.000000
   11      -23.621907   1.000000
   12      -23.588442   1.000000
   13      -23.567728   1.000000
   14      -23.478474   1.000000
   15      -23.419743   1.000000
   16      -23.407840   1.000000
   17      -23.365323   1.000000
   18      -23.330423   1.000000
   19      -23.318543   1.000000
   20      -23.235561   1.000000
   21      -23.120697   1.000000
   22      -23.086469   1.000000
   23      -22.934690   1.000000
   24      -22.759203   1.000000
   25       -0.598161   1.000000
   26        0.851130   1.000000
   27        1.037222   1.000000
   28        1.922679   1.000000
   29        2.016320   1.000000
   30        2.102158   1.000000
   31        2.203295   1.000000
   32        2.431774   1.000000
   33        2.475106   1.000000
   34        2.577990   1.000000
   35        2.601062   1.000000
   36        2.639926   1.000000
   37        2.793897   1.000000
   38        2.826122   1.000000
   39        2.857580   1.000000
   40        2.951210   1.000000
   41        2.996048   1.000000
   42        3.177311   1.000000
   43        3.256302   1.000000
   44        3.327324   1.000000
   45        3.421007   1.000000
   46        3.444865   1.000000
   47        3.535178   1.000000
   48        3.598009   1.000000
   49        3.643002   1.000000
   50        3.768814   1.000000
   51        3.790252   1.000000
   52        3.848419   1.000000
   53        3.961793   1.000000
   54        3.982347   1.000000
   55        4.063116   1.000000
   56        4.092044   1.000000
   57        4.235853   1.000000
   58        4.402642   1.000000
   59        4.481640   1.000000
   60        4.502918   1.000000
   61        4.578473   1.000000
   62        4.651036   1.000000
   63        4.701137   1.000000
   64        4.734927   1.000000
   65        4.797892   1.000000
   66        4.829728   1.000000
   67        4.888083   1.000000
   68        4.921409   1.000000
   69        4.961913   1.000000
   70        5.024658   1.000000
   71        5.066704   1.000000
   72        5.163860   1.000000
   73        5.217463   1.000000
   74        5.290835   1.000000
   75        5.326874   1.000000
   76        5.390961   1.000000
   77        5.497848   1.000000
   78        5.542489   1.000000
   79        5.687264   1.000000
   80        5.764353   1.000000
   81        5.824494   1.000000
   82        5.847433   1.000000
   83        5.912343   1.000000
   84        5.959277   1.000000
   85        5.986371   1.000000
   86        6.074091   1.000009
   87        6.151628   1.000088
   88        6.233765   1.000734
   89        6.270907   1.001688
   90        6.383804   1.012611
   91        6.500236   1.035197
   92        6.524884   1.034335
   93        6.588925   0.995855
   94        6.622812   0.942866
   95        6.694989   0.736799
   96        6.728836   0.604138
   97        6.863257   0.104688
   98        6.905576   0.021024
   99        6.950493  -0.023407
  100        6.970676  -0.031853
  101        7.034293  -0.031655
  102        7.120898  -0.013079
  103        7.307733  -0.000318
  104        7.522436  -0.000000
  105        7.581289  -0.000000
  106        7.643911  -0.000000
  107        7.802507  -0.000000
  108        7.884117  -0.000000
  109        8.013825  -0.000000
  110        8.381494  -0.000000
  111        8.476032  -0.000000
  112        8.545365  -0.000000
  113        8.643230  -0.000000
  114        8.653974  -0.000000
  115        8.769580  -0.000000
  116        8.882575  -0.000000
  117        8.944866  -0.000000
  118        8.997053  -0.000000
  119        9.043386  -0.000000
  120        9.113480  -0.000000
 
  0.2000000E+00 -0.1387779E-16  0.0000000E+00  0.1600000E-01
    1      -47.469602   1.000000
    2      -47.387075   1.000000
    3      -47.271477   1.000000
    4      -47.210720   1.000000
    5      -47.153704   1.000000
    6      -47.081071   1.000000
    7      -24.002408   1.000000
    8      -23.864065   1.000000
    9      -23.767244   1.000000
   10      -23.659601   1.000000
   11      -23.622521   1.000000
   12      -23.595003   1.000000
   13      -23.556717   1.000000
   14      -23.488416   1.000000
   15      -23.421531   1.000000
   16      -23.416390   1.000000
   17      -23.375872   1.000000
   18      -23.336077   1.000000
   19      -23.321962   1.000000
   20      -23.239096   1.000000
   21      -23.125239   1.000000
   22      -23.091558   1.000000
   23      -22.939733   1.000000
   24      -22.888010   1.000000
   25       -0.276145   1.000000
   26        1.103365   1.000000
   27        1.320220   1.000000
   28        2.044298   1.000000
   29        2.196866   1.000000
   30        2.385289   1.000000
   31        2.416038   1.000000
   32        2.528218   1.000000
   33        2.676643   1.000000
   34        2.733315   1.000000
   35        2.825813   1.000000
   36        2.865838   1.000000
   37        2.943091   1.000000
   38        3.007701   1.000000
   39        3.034136   1.000000
   40        3.138484   1.000000
   41        3.228016   1.000000
   42        3.263995   1.000000
   43        3.313650   1.000000
   44        3.403607   1.000000
   45        3.467255   1.000000
   46        3.569605   1.000000
   47        3.649140   1.000000
   48        3.767356   1.000000
   49        3.849324   1.000000
   50        3.873505   1.000000
   51        3.924658   1.000000
   52        3.999807   1.000000
   53        4.047379   1.000000
   54        4.117627   1.000000
   55        4.180907   1.000000
   56        4.251838   1.000000
   57        4.342597   1.000000
   58        4.482125   1.000000
   59        4.519624   1.000000
   60        4.591432   1.000000
   61        4.651572   1.000000
   62        4.725550   1.000000
   63        4.760386   1.000000
   64        4.813650   1.000000
   65        4.904789   1.000000
   66        4.942724   1.000000
   67        5.007751   1.000000
   68        5.019955   1.000000
   69        5.093218   1.000000
   70        5.125967   1.000000
   71        5.169114   1.000000
   72        5.235123   1.000000
   73        5.271287   1.000000
   74        5.320693   1.000000
   75        5.348204   1.000000
   76        5.433640   1.000000
   77        5.490748   1.000000
   78        5.521757   1.000000
   79        5.580327   1.000000
   80        5.652423   1.000000
   81        5.678276   1.000000
   82        5.770442   1.000000
   83        5.877393   1.000000
   84        5.948697   1.000000
   85        5.997922   1.000001
   86        6.042783   1.000003
   87        6.095240   1.000017
   88        6.121477   1.000037
   89        6.230533   1.000680
   90        6.292081   1.002616
   91        6.332002   1.005548
   92        6.414177   1.018661
   93        6.461059   1.029266
   94        6.501755   1.035280
   95        6.540411   1.030705
   96        6.627134   0.934114
   97        6.651467   0.876054
   98        6.768459   0.437560
   99        6.813434   0.259155
  100        6.904762   0.022222
  101        6.956745  -0.026656
  102        6.990678  -0.035202
  103        7.083254  -0.020865
  104        7.136573  -0.010432
  105        7.293276  -0.000457
  106        7.419678  -0.000013
  107        7.504633  -0.000001
  108        7.562139  -0.000000
  109        7.718380  -0.000000
  110        7.952156  -0.000000
  111        7.997377  -0.000000
  112        8.032217  -0.000000
  113        8.114850  -0.000000
  114        8.206062  -0.000000
  115        8.351132  -0.000000
  116        8.417890  -0.000000
  117        8.468038  -0.000000
  118        8.558597  -0.000000
  119        8.600842  -0.000000
  120        8.694398  -0.000000
 
  0.4000000E+00 -0.2775558E-16  0.0000000E+00  0.1600000E-01
    1      -47.468665   1.000000
    2      -47.361488   1.000000
    3      -47.273030   1.000000
    4      -47.230627   1.000000
    5      -47.157005   1.000000
    6      -47.080789   1.000000
    7      -23.868737   1.000000
    8      -23.771530   1.000000
    9      -23.700668   1.000000
   10      -23.637006   1.000000
   11      -23.616019   1.000000
   12      -23.604372   1.000000
   13      -23.536597   1.000000
   14      -23.502288   1.000000
   15      -23.433765   1.000000
   16      -23.424087   1.000000
   17      -23.396036   1.000000
   18      -23.350832   1.000000
   19      -23.325627   1.000000
   20      -23.246213   1.000000
   21      -23.242273   1.000000
   22      -23.121761   1.000000
   23      -23.091968   1.000000
   24      -22.933537   1.000000
   25        0.557101   1.000000
   26        1.467285   1.000000
   27        1.953063   1.000000
   28        2.127838   1.000000
   29        2.419662   1.000000
   30        2.551919   1.000000
   31        2.581712   1.000000
   32        2.843686   1.000000
   33        2.972794   1.000000
   34        3.139055   1.000000
   35        3.175950   1.000000
   36        3.182230   1.000000
   37        3.302961   1.000000
   38        3.328238   1.000000
   39        3.389397   1.000000
   40        3.408302   1.000000
   41        3.539518   1.000000
   42        3.599092   1.000000
   43        3.630719   1.000000
   44        3.671728   1.000000
   45        3.740530   1.000000
   46        3.826180   1.000000
   47        3.875563   1.000000
   48        3.950641   1.000000
   49        3.986306   1.000000
   50        4.064197   1.000000
   51        4.125640   1.000000
   52        4.203345   1.000000
   53        4.291254   1.000000
   54        4.386558   1.000000
   55        4.465126   1.000000
   56        4.530428   1.000000
   57        4.569428   1.000000
   58        4.631657   1.000000
   59        4.641286   1.000000
   60        4.703291   1.000000
   61        4.737211   1.000000
   62        4.787843   1.000000
   63        4.840190   1.000000
   64        4.897134   1.000000
   65        4.945225   1.000000
   66        4.968577   1.000000
   67        5.000284   1.000000
   68        5.095984   1.000000
   69        5.120023   1.000000
   70        5.187222   1.000000
   71        5.210766   1.000000
   72        5.302732   1.000000
   73        5.320701   1.000000
   74        5.398794   1.000000
   75        5.408666   1.000000
   76        5.478567   1.000000
   77        5.543188   1.000000
   78        5.581146   1.000000
   79        5.595129   1.000000
   80        5.655197   1.000000
   81        5.716303   1.000000
   82        5.767358   1.000000
   83        5.836039   1.000000
   84        5.888381   1.000000
   85        5.979499   1.000000
   86        6.014485   1.000001
   87        6.097823   1.000018
   88        6.109766   1.000026
   89        6.155058   1.000097
   90        6.206568   1.000379
   91        6.252197   1.001121
   92        6.272185   1.001734
   93        6.317177   1.004245
   94        6.360363   1.008896
   95        6.417372   1.019364
   96        6.475828   1.032162
   97        6.490583   1.034342
   98        6.580010   1.005504
   99        6.609702   0.966589
  100        6.646490   0.889141
  101        6.705100   0.698901
  102        6.772013   0.422689
  103        6.862796   0.105846
  104        6.919808   0.002498
  105        6.970024  -0.031668
  106        7.047212  -0.029062
  107        7.116559  -0.013880
  108        7.159784  -0.007232
  109        7.236193  -0.001695
  110        7.441345  -0.000007
  111        7.507669  -0.000001
  112        7.554607  -0.000000
  113        7.638056  -0.000000
  114        7.751317  -0.000000
  115        7.861153  -0.000000
  116        7.928191  -0.000000
  117        8.044946  -0.000000
  118        8.213677  -0.000000
  119        8.298643  -0.000000
  120        8.362755  -0.000000
 
  0.0000000E+00  0.2000000E+00  0.1387779E-16  0.1600000E-01
    1      -47.470115   1.000000
    2      -47.399641   1.000000
    3      -47.271485   1.000000
    4      -47.201796   1.000000
    5      -47.150561   1.000000
    6      -47.081305   1.000000
    7      -24.117808   1.000000
    8      -23.863031   1.000000
    9      -23.767627   1.000000
   10      -23.666899   1.000000
   11      -23.621918   1.000000
   12      -23.588496   1.000000
   13      -23.567825   1.000000
   14      -23.478497   1.000000
   15      -23.419865   1.000000
   16      -23.407856   1.000000
   17      -23.365389   1.000000
   18      -23.330422   1.000000
   19      -23.318651   1.000000
   20      -23.235539   1.000000
   21      -23.121296   1.000000
   22      -23.090245   1.000000
   23      -22.935029   1.000000
   24      -22.759207   1.000000
   25       -0.468768   1.000000
   26        0.829179   1.000000
   27        1.148940   1.000000
   28        1.609178   1.000000
   29        1.953907   1.000000
   30        2.138735   1.000000
   31        2.292520   1.000000
   32        2.492139   1.000000
   33        2.528052   1.000000
   34        2.552833   1.000000
   35        2.601600   1.000000
   36        2.686522   1.000000
   37        2.752544   1.000000
   38        2.801262   1.000000
   39        2.830948   1.000000
   40        2.914057   1.000000
   41        3.020095   1.000000
   42        3.089226   1.000000
   43        3.198257   1.000000
   44        3.274572   1.000000
   45        3.349092   1.000000
   46        3.456263   1.000000
   47        3.543806   1.000000
   48        3.677480   1.000000
   49        3.728308   1.000000
   50        3.750161   1.000000
   51        3.814771   1.000000
   52        3.860121   1.000000
   53        3.964117   1.000000
   54        4.013328   1.000000
   55        4.097841   1.000000
   56        4.233524   1.000000
   57        4.295837   1.000000
   58        4.402508   1.000000
   59        4.486937   1.000000
   60        4.550349   1.000000
   61        4.619183   1.000000
   62        4.674763   1.000000
   63        4.719900   1.000000
   64        4.774866   1.000000
   65        4.884727   1.000000
   66        4.892414   1.000000
   67        4.970883   1.000000
   68        4.997850   1.000000
   69        5.011517   1.000000
   70        5.028685   1.000000
   71        5.088543   1.000000
   72        5.156972   1.000000
   73        5.198059   1.000000
   74        5.249383   1.000000
   75        5.331285   1.000000
   76        5.434338   1.000000
   77        5.536865   1.000000
   78        5.588952   1.000000
   79        5.712060   1.000000
   80        5.768261   1.000000
   81        5.800918   1.000000
   82        5.839449   1.000000
   83        5.880378   1.000000
   84        5.972581   1.000000
   85        6.003501   1.000001
   86        6.064471   1.000006
   87        6.077566   1.000010
   88        6.152500   1.000090
   89        6.214536   1.000462
   90        6.293794   1.002707
   91        6.327917   1.005160
   92        6.413961   1.018614
   93        6.461161   1.029287
   94        6.496914   1.034964
   95        6.601167   0.979808
   96        6.672397   0.814393
   97        6.765297   0.450838
   98        6.808999   0.275472
   99        6.880329   0.065578
  100        7.132064  -0.011153
  101        7.155218  -0.007795
  102        7.325562  -0.000200
  103        7.352519  -0.000096
  104        7.502958  -0.000001
  105        7.613269  -0.000000
  106        7.709249  -0.000000
  107        7.759403  -0.000000
  108        7.827347  -0.000000
  109        7.977843  -0.000000
  110        8.053139  -0.000000
  111        8.174131  -0.000000
  112        8.268516  -0.000000
  113        8.379155  -0.000000
  114        8.559425  -0.000000
  115        8.613538  -0.000000
  116        8.749131  -0.000000
  117        8.766340  -0.000000
  118        8.852459  -0.000000
  119        8.900269  -0.000000
  120        8.950077  -0.000000
 
  0.2000000E+00  0.2000000E+00 -0.4857226E-16  0.1600000E-01
    1      -47.469664   1.000000
    2      -47.387077   1.000000
    3      -47.271474   1.000000
    4      -47.210722   1.000000
    5      -47.153706   1.000000
    6      -47.081012   1.000000
    7      -24.002396   1.000000
    8      -23.866086   1.000000
    9      -23.769220   1.000000
   10      -23.659575   1.000000
   11      -23.622510   1.000000
   12      -23.595009   1.000000
   13      -23.556655   1.000000
   14      -23.488390   1.000000
   15      -23.421405   1.000000
   16      -23.416375   1.000000
   17      -23.375790   1.000000
   18      -23.336057   1.000000
   19      -23.321873   1.000000
   20      -23.239070   1.000000
   21      -23.124690   1.000000
   22      -23.087828   1.000000
   23      -22.939415   1.000000
   24      -22.887985   1.000000
   25       -0.267887   1.000000
   26        1.054088   1.000000
   27        1.351161   1.000000
   28        1.959383   1.000000
   29        2.181401   1.000000
   30        2.299119   1.000000
   31        2.431289   1.000000
   32        2.497088   1.000000
   33        2.658309   1.000000
   34        2.711271   1.000000
   35        2.744502   1.000000
   36        2.871701   1.000000
   37        2.921689   1.000000
   38        3.010903   1.000000
   39        3.042009   1.000000
   40        3.106050   1.000000
   41        3.173674   1.000000
   42        3.286999   1.000000
   43        3.349842   1.000000
   44        3.403606   1.000000
   45        3.527880   1.000000
   46        3.586845   1.000000
   47        3.634123   1.000000
   48        3.750148   1.000000
   49        3.809781   1.000000
   50        3.840892   1.000000
   51        3.958448   1.000000
   52        4.002789   1.000000
   53        4.047571   1.000000
   54        4.132720   1.000000
   55        4.229716   1.000000
   56        4.292716   1.000000
   57        4.389525   1.000000
   58        4.450438   1.000000
   59        4.530600   1.000000
   60        4.559658   1.000000
   61        4.634465   1.000000
   62        4.671627   1.000000
   63        4.795714   1.000000
   64        4.861627   1.000000
   65        4.895793   1.000000
   66        4.919600   1.000000
   67        4.948850   1.000000
   68        4.992217   1.000000
   69        5.038703   1.000000
   70        5.111871   1.000000
   71        5.134400   1.000000
   72        5.185134   1.000000
   73        5.253153   1.000000
   74        5.270117   1.000000
   75        5.323663   1.000000
   76        5.436533   1.000000
   77        5.486629   1.000000
   78        5.578872   1.000000
   79        5.606996   1.000000
   80        5.687500   1.000000
   81        5.734574   1.000000
   82        5.756402   1.000000
   83        5.826823   1.000000
   84        5.934678   1.000000
   85        5.958436   1.000000
   86        6.043102   1.000003
   87        6.095692   1.000017
   88        6.211881   1.000433
   89        6.246123   1.000977
   90        6.291023   1.002561
   91        6.340634   1.006441
   92        6.386650   1.013121
   93        6.466154   1.030324
   94        6.514918   1.035303
   95        6.624971   0.938553
   96        6.651650   0.875560
   97        6.718460   0.646406
   98        6.792416   0.339364
   99        6.853038   0.131608
  100        6.914385   0.009028
  101        6.988768  -0.035059
  102        7.018946  -0.034075
  103        7.071062  -0.023666
  104        7.205846  -0.003149
  105        7.275438  -0.000702
  106        7.363757  -0.000070
  107        7.433441  -0.000008
  108        7.565102  -0.000000
  109        7.669817  -0.000000
  110        7.850569  -0.000000
  111        7.952953  -0.000000
  112        8.207446  -0.000000
  113        8.339017  -0.000000
  114        8.414474  -0.000000
  115        8.582787  -0.000000
  116        8.600803  -0.000000
  117        8.762715  -0.000000
  118        8.870979  -0.000000
  119        8.910389  -0.000000
  120        8.978487  -0.000000
 
  0.4000000E+00  0.2000000E+00 -0.5551115E-16  0.1600000E-01
    1      -47.468767   1.000000
    2      -47.361492   1.000000
    3      -47.273027   1.000000
    4      -47.230628   1.000000
    5      -47.157007   1.000000
    6      -47.080693   1.000000
    7      -23.871605   1.000000
    8      -23.775121   1.000000
    9      -23.700783   1.000000
   10      -23.636955   1.000000
   11      -23.615989   1.000000
   12      -23.604370   1.000000
   13      -23.536526   1.000000
   14      -23.502187   1.000000
   15      -23.433691   1.000000
   16      -23.423945   1.000000
   17      -23.395905   1.000000
   18      -23.350780   1.000000
   19      -23.325514   1.000000
   20      -23.246198   1.000000
   21      -23.242249   1.000000
   22      -23.119243   1.000000
   23      -23.087361   1.000000
   24      -22.933059   1.000000
   25        0.479988   1.000000
   26        1.474461   1.000000
   27        1.824569   1.000000
   28        2.084590   1.000000
   29        2.182526   1.000000
   30        2.499474   1.000000
   31        2.631015   1.000000
   32        2.911271   1.000000
   33        3.071004   1.000000
   34        3.133648   1.000000
   35        3.173589   1.000000
   36        3.244627   1.000000
   37        3.297180   1.000000
   38        3.375411   1.000000
   39        3.417766   1.000000
   40        3.491452   1.000000
   41        3.529441   1.000000
   42        3.585382   1.000000
   43        3.610168   1.000000
   44        3.676584   1.000000
   45        3.782139   1.000000
   46        3.811174   1.000000
   47        3.842926   1.000000
   48        3.908729   1.000000
   49        3.986886   1.000000
   50        4.031976   1.000000
   51        4.089910   1.000000
   52        4.139478   1.000000
   53        4.269754   1.000000
   54        4.314131   1.000000
   55        4.353144   1.000000
   56        4.432999   1.000000
   57        4.475639   1.000000
   58        4.579841   1.000000
   59        4.630294   1.000000
   60        4.643773   1.000000
   61        4.735048   1.000000
   62        4.798542   1.000000
   63        4.861510   1.000000
   64        4.899393   1.000000
   65        4.964075   1.000000
   66        4.997553   1.000000
   67        5.044760   1.000000
   68        5.085162   1.000000
   69        5.166508   1.000000
   70        5.195174   1.000000
   71        5.249845   1.000000
   72        5.294462   1.000000
   73        5.355655   1.000000
   74        5.368951   1.000000
   75        5.456888   1.000000
   76        5.482011   1.000000
   77        5.551734   1.000000
   78        5.576088   1.000000
   79        5.642156   1.000000
   80        5.720148   1.000000
   81        5.739551   1.000000
   82        5.788756   1.000000
   83        5.831206   1.000000
   84        5.885541   1.000000
   85        5.943469   1.000000
   86        5.983708   1.000000
   87        6.035161   1.000002
   88        6.106498   1.000024
   89        6.109745   1.000026
   90        6.166221   1.000132
   91        6.232092   1.000706
   92        6.277885   1.001956
   93        6.315524   1.004117
   94        6.353888   1.008025
   95        6.393712   1.014442
   96        6.436641   1.023756
   97        6.482660   1.033282
   98        6.504779   1.035400
   99        6.534259   1.032486
  100        6.636142   0.914361
  101        6.681278   0.785162
  102        6.746026   0.532264
  103        6.858697   0.116378
  104        6.928107  -0.006292
  105        6.979814  -0.033917
  106        7.093751  -0.018527
  107        7.144975  -0.009175
  108        7.236314  -0.001691
  109        7.351579  -0.000099
  110        7.536703  -0.000000
  111        7.687198  -0.000000
  112        7.801364  -0.000000
  113        7.955054  -0.000000
  114        8.043017  -0.000000
  115        8.115253  -0.000000
  116        8.161057  -0.000000
  117        8.274695  -0.000000
  118        8.321450  -0.000000
  119        8.416229  -0.000000
  120        8.482656  -0.000000
 
 -0.4000000E+00  0.2000000E+00 -0.3908332E-16  0.1600000E-01
    1      -47.468663   1.000000
    2      -47.361487   1.000000
    3      -47.273030   1.000000
    4      -47.230628   1.000000
    5      -47.157005   1.000000
    6      -47.080790   1.000000
    7      -23.868710   1.000000
    8      -23.771514   1.000000
    9      -23.700679   1.000000
   10      -23.637010   1.000000
   11      -23.616024   1.000000
   12      -23.604396   1.000000
   13      -23.536606   1.000000
   14      -23.502301   1.000000
   15      -23.433755   1.000000
   16      -23.424090   1.000000
   17      -23.396030   1.000000
   18      -23.350828   1.000000
   19      -23.325630   1.000000
   20      -23.246190   1.000000
   21      -23.242256   1.000000
   22      -23.121759   1.000000
   23      -23.092032   1.000000
   24      -22.933545   1.000000
   25        0.789401   1.000000
   26        1.410174   1.000000
   27        1.703091   1.000000
   28        2.159499   1.000000
   29        2.331929   1.000000
   30        2.461102   1.000000
   31        2.745869   1.000000
   32        2.773073   1.000000
   33        2.908887   1.000000
   34        3.092568   1.000000
   35        3.158545   1.000000
   36        3.207574   1.000000
   37        3.299604   1.000000
   38        3.326406   1.000000
   39        3.355014   1.000000
   40        3.424145   1.000000
   41        3.516100   1.000000
   42        3.573863   1.000000
   43        3.656077   1.000000
   44        3.681453   1.000000
   45        3.742017   1.000000
   46        3.843541   1.000000
   47        3.894464   1.000000
   48        3.933125   1.000000
   49        4.014539   1.000000
   50        4.130090   1.000000
   51        4.198312   1.000000
   52        4.267530   1.000000
   53        4.351058   1.000000
   54        4.393523   1.000000
   55        4.437470   1.000000
   56        4.485441   1.000000
   57        4.556149   1.000000
   58        4.592124   1.000000
   59        4.663313   1.000000
   60        4.700211   1.000000
   61        4.765615   1.000000
   62        4.835054   1.000000
   63        4.851256   1.000000
   64        4.912502   1.000000
   65        4.945275   1.000000
   66        4.974115   1.000000
   67        5.027878   1.000000
   68        5.061785   1.000000
   69        5.144758   1.000000
   70        5.164258   1.000000
   71        5.210042   1.000000
   72        5.247641   1.000000
   73        5.280960   1.000000
   74        5.345084   1.000000
   75        5.440421   1.000000
   76        5.457123   1.000000
   77        5.504526   1.000000
   78        5.587634   1.000000
   79        5.623468   1.000000
   80        5.683295   1.000000
   81        5.713868   1.000000
   82        5.767793   1.000000
   83        5.844152   1.000000
   84        5.900506   1.000000
   85        5.934191   1.000000
   86        6.017780   1.000001
   87        6.035972   1.000002
   88        6.081902   1.000011
   89        6.173776   1.000162
   90        6.207507   1.000389
   91        6.239795   1.000845
   92        6.291765   1.002599
   93        6.312192   1.003868
   94        6.367384   1.009916
   95        6.436023   1.023613
   96        6.468749   1.030841
   97        6.515545   1.035269
   98        6.593958   0.989662
   99        6.640769   0.903418
  100        6.676412   0.801393
  101        6.703326   0.705674
  102        6.750737   0.512355
  103        6.805418   0.288903
  104        6.837803   0.176491
  105        6.958957  -0.027663
  106        7.017202  -0.034288
  107        7.095003  -0.018255
  108        7.162642  -0.006896
  109        7.208855  -0.002969
  110        7.322692  -0.000216
  111        7.531321  -0.000000
  112        7.616038  -0.000000
  113        7.733966  -0.000000
  114        7.843304  -0.000000
  115        7.932845  -0.000000
  116        8.072778  -0.000000
  117        8.186081  -0.000000
  118        8.263658  -0.000000
  119        8.345403  -0.000000
  120        8.396907  -0.000000
 
 -0.2000000E+00  0.2000000E+00  0.1006140E-15  0.1600000E-01
    1      -47.469497   1.000000
    2      -47.387070   1.000000
    3      -47.271480   1.000000
    4      -47.210718   1.000000
    5      -47.153701   1.000000
    6      -47.081169   1.000000
    7      -24.002430   1.000000
    8      -23.860836   1.000000
    9      -23.763774   1.000000
   10      -23.659649   1.000000
   11      -23.622538   1.000000
   12      -23.595068   1.000000
   13      -23.556859   1.000000
   14      -23.488467   1.000000
   15      -23.421722   1.000000
   16      -23.416418   1.000000
   17      -23.375991   1.000000
   18      -23.336095   1.000000
   19      -23.322114   1.000000
   20      -23.239067   1.000000
   21      -23.126414   1.000000
   22      -23.097574   1.000000
   23      -22.940247   1.000000
   24      -22.888039   1.000000
   25       -0.046189   1.000000
   26        1.030590   1.000000
   27        1.453150   1.000000
   28        1.734417   1.000000
   29        2.143964   1.000000
   30        2.415218   1.000000
   31        2.562221   1.000000
   32        2.620963   1.000000
   33        2.711827   1.000000
   34        2.755935   1.000000
   35        2.827128   1.000000
   36        2.879346   1.000000
   37        2.909493   1.000000
   38        2.958103   1.000000
   39        3.047758   1.000000
   40        3.118317   1.000000
   41        3.147711   1.000000
   42        3.194481   1.000000
   43        3.289547   1.000000
   44        3.328519   1.000000
   45        3.383280   1.000000
   46        3.553277   1.000000
   47        3.685424   1.000000