       N       E                     dE             d eps       ncg     rms          rms(c)
DAV:   1     0.217175081478E+04    0.21718E+04   -0.91641E+04 15120   0.176E+03
DAV:   2     0.777432746356E+02   -0.20940E+04   -0.20322E+04 15176   0.522E+02
DAV:   3    -0.300537976750E+03   -0.37828E+03   -0.36023E+03 26296   0.184E+02
DAV:   4    -0.347940615383E+03   -0.47403E+02   -0.43883E+02 23392   0.608E+01
DAV:   5    -0.353171379011E+03   -0.52308E+01   -0.50925E+01 28784   0.222E+01    0.754E+01
DAV:   6    -0.346682622045E+03    0.64888E+01   -0.14898E+02 21256   0.327E+01    0.420E+01
DAV:   7    -0.355693957637E+03   -0.90113E+01   -0.56533E+02 21936   0.103E+02    0.280E+01
DAV:   8    -0.350459141419E+03    0.52348E+01   -0.11965E+02 22888   0.349E+01    0.208E+01
DAV:   9    -0.338419691969E+03    0.12039E+02   -0.24189E+01 22544   0.157E+01    0.147E+01
DAV:  10    -0.334152244183E+03    0.42674E+01   -0.88992E+00 21872   0.872E+00    0.116E+01
DAV:  11    -0.331604320014E+03    0.25479E+01   -0.41191E+00 21544   0.566E+00    0.822E+00
DAV:  12    -0.330433980867E+03    0.11703E+01   -0.34513E+00 22360   0.505E+00    0.428E+00
DAV:  13    -0.330281289876E+03    0.15269E+00   -0.13736E+00 21800   0.321E+00    0.331E+00
DAV:  14    -0.330302631204E+03   -0.21341E-01   -0.29745E+00 22080   0.450E+00    0.380E+00
DAV:  15    -0.330170868671E+03    0.13176E+00   -0.77175E-01 22416   0.254E+00    0.176E+00
DAV:  16    -0.330137586354E+03    0.33282E-01   -0.19810E-01 22368   0.132E+00    0.806E-01
DAV:  17    -0.330137414342E+03    0.17201E-03   -0.78260E-02 22144   0.845E-01    0.769E-01
DAV:  18    -0.330131069830E+03    0.63445E-02   -0.55034E-02 21672   0.667E-01    0.326E-01
DAV:  19    -0.330130880595E+03    0.18924E-03   -0.16538E-02 22776   0.401E-01    0.271E-01
DAV:  20    -0.330129977446E+03    0.90315E-03   -0.84691E-03 20024   0.255E-01    0.116E-01
DAV:  21    -0.330130306965E+03   -0.32952E-03   -0.40194E-03 20680   0.196E-01    0.180E-01
DAV:  22    -0.330129863584E+03    0.44338E-03   -0.28824E-03 19176   0.151E-01    0.391E-02
DAV:  23    -0.330129843900E+03    0.19684E-04   -0.24388E-04 11968   0.633E-02
   1 F= -.33012984E+03 E0= -.33012398E+03  d E =-.330130E+03
       N       E                     dE             d eps       ncg     rms          rms(c)
DAV:   1    -0.332033896522E+03   -0.19040E+01   -0.16092E+02 19168   0.544E+01    0.148E+01
DAV:   2    -0.332575248896E+03   -0.54135E+00   -0.34038E+01 23272   0.250E+01    0.102E+01
DAV:   3    -0.331073065249E+03    0.15022E+01   -0.19589E+01 21512   0.130E+01    0.741E+00
DAV:   4    -0.330798910214E+03    0.27416E+00   -0.10031E+01 23408   0.101E+01    0.518E+00
DAV:   5    -0.330444908350E+03    0.35400E+00   -0.40604E+00 22488   0.654E+00    0.304E+00
DAV:   6    -0.330293322635E+03    0.15159E+00   -0.11506E+00 24952   0.351E+00    0.176E+00
DAV:   7    -0.330307708846E+03   -0.14386E-01   -0.44517E-01 24976   0.192E+00    0.146E+00
DAV:   8    -0.330296412439E+03    0.11296E-01   -0.20083E-01 23176   0.142E+00    0.104E+00
DAV:   9    -0.330300058349E+03   -0.36459E-02   -0.87272E-02 22480   0.829E-01    0.764E-01
DAV:  10    -0.330305646996E+03   -0.55886E-02   -0.81683E-02 23696   0.797E-01    0.624E-01
DAV:  11    -0.330305793239E+03   -0.14624E-03   -0.39810E-02 23304   0.595E-01    0.296E-01
DAV:  12    -0.330305580399E+03    0.21284E-03   -0.14194E-02 23248   0.381E-01    0.167E-01
DAV:  13    -0.330305558862E+03    0.21536E-04   -0.51681E-03 22664   0.197E-01    0.106E-01
DAV:  14    -0.330305572112E+03   -0.13250E-04   -0.15636E-03 20672   0.114E-01    0.487E-02
DAV:  15    -0.330305548143E+03    0.23969E-04   -0.28099E-04 11224   0.672E-02
   2 F= -.33030555E+03 E0= -.33030240E+03  d E =-.175704E+00
       N       E                     dE             d eps       ncg     rms          rms(c)
DAV:   1    -0.330749247233E+03   -0.44368E+00   -0.26817E+01 18920   0.222E+01    0.606E+00
DAV:   2    -0.330836292341E+03   -0.87045E-01   -0.51808E+00 25392   0.963E+00    0.486E+00
DAV:   3    -0.330686577848E+03    0.14971E+00   -0.48026E+00 22272   0.669E+00    0.351E+00
DAV:   4    -0.330584365107E+03    0.10221E+00   -0.16275E+00 24344   0.375E+00    0.242E+00
DAV:   5    -0.330507754732E+03    0.76610E-01   -0.96999E-01 22592   0.304E+00    0.147E+00
DAV:   6    -0.330472282126E+03    0.35473E-01   -0.25667E-01 23440   0.166E+00    0.752E-01
DAV:   7    -0.330474416413E+03   -0.21343E-02   -0.90253E-02 24848   0.885E-01    0.625E-01
DAV:   8    -0.330472468355E+03    0.19481E-02   -0.40916E-02 22448   0.645E-01    0.440E-01
DAV:   9    -0.330472757149E+03   -0.28879E-03   -0.18560E-02 21992   0.385E-01    0.327E-01
DAV:  10    -0.330473483089E+03   -0.72594E-03   -0.14950E-02 21928   0.336E-01    0.268E-01
DAV:  11    -0.330473509675E+03   -0.26587E-04   -0.70495E-03 22872   0.248E-01    0.141E-01
DAV:  12    -0.330473517699E+03   -0.80240E-05   -0.28069E-03 21208   0.167E-01    0.864E-02
DAV:  13    -0.330473509216E+03    0.84836E-05   -0.12598E-03 19976   0.101E-01    0.565E-02
DAV:  14    -0.330473486167E+03    0.23049E-04   -0.29239E-04 11296   0.672E-02
   3 F= -.33047349E+03 E0= -.33046934E+03  d E =-.343642E+00
       N       E                     dE             d eps       ncg     rms          rms(c)
DAV:   1    -0.330292190952E+03    0.18132E+00   -0.13182E+02 15272   0.402E+01    0.473E+00
DAV:   2    -0.330879863377E+03   -0.58767E+00   -0.94474E+00 20896   0.122E+01    0.294E+00
DAV:   3    -0.330920753388E+03   -0.40890E-01   -0.21456E+00 23048   0.524E+00    0.279E+00
DAV:   4    -0.330827714649E+03    0.93039E-01   -0.76371E-01 22568   0.272E+00    0.166E+00
DAV:   5    -0.330816731182E+03    0.10983E-01   -0.32453E-01 22600   0.182E+00    0.138E+00
DAV:   6    -0.330810010922E+03    0.67203E-02   -0.33437E-01 23368   0.172E+00    0.102E+00
DAV:   7    -0.330794614945E+03    0.15396E-01   -0.13343E-01 24736   0.109E+00    0.467E-01
DAV:   8    -0.330793356546E+03    0.12584E-02   -0.36328E-02 24160   0.564E-01    0.337E-01
DAV:   9    -0.330792988738E+03    0.36781E-03   -0.87672E-03 22104   0.271E-01    0.254E-01
DAV:  10    -0.330793183892E+03   -0.19515E-03   -0.25665E-03 21072   0.156E-01    0.193E-01
DAV:  11    -0.330793727283E+03   -0.54339E-03   -0.42331E-03 21264   0.207E-01    0.170E-01
DAV:  12    -0.330793348855E+03    0.37843E-03   -0.27261E-03 19840   0.179E-01    0.571E-02
DAV:  13    -0.330793292688E+03    0.56167E-04   -0.69556E-04 16456   0.917E-02
   4 F= -.33079329E+03 E0= -.33079063E+03  d E =-.319807E+00
       N       E                     dE             d eps       ncg     rms          rms(c)
DAV:   1    -0.330793279115E+03    0.69740E-04   -0.36474E-04 12136   0.810E-02    0.279E-02
DAV:   2    -0.330793287303E+03   -0.81877E-05   -0.11856E-04  9136   0.612E-02
   5 F= -.33079329E+03 E0= -.33079063E+03  d E =-.319801E+00
       N       E                     dE             d eps       ncg     rms          rms(c)
DAV:   1    -0.330803396120E+03   -0.10117E-01   -0.92034E+00 15824   0.107E+01    0.108E+00
DAV:   2    -0.330853687224E+03   -0.50291E-01   -0.61144E-01 22624   0.324E+00    0.108E+00
DAV:   3    -0.330847142071E+03    0.65452E-02   -0.17674E-01 23520   0.139E+00    0.743E-01
DAV:   4    -0.330842120020E+03    0.50221E-02   -0.42425E-02 23368   0.698E-01    0.476E-01
DAV:   5    -0.330842062342E+03    0.57679E-04   -0.30063E-02 22720   0.522E-01    0.394E-01
DAV:   6    -0.330841498571E+03    0.56377E-03   -0.24013E-02 23848   0.473E-01    0.308E-01
DAV:   7    -0.330839777153E+03    0.17214E-02   -0.10519E-02 23224   0.323E-01    0.105E-01
DAV:   8    -0.330839682575E+03    0.94578E-04   -0.13841E-03 19960   0.113E-01    0.652E-02
DAV:   9    -0.330839678793E+03    0.37825E-05   -0.23903E-04 11704   0.598E-02
   6 F= -.33083968E+03 E0= -.33083739E+03  d E =-.463915E-01
       N       E                     dE             d eps       ncg     rms          rms(c)
DAV:   1    -0.330831631048E+03    0.80515E-02   -0.47631E+00 15824   0.768E+00    0.768E-01
DAV:   2    -0.330857863186E+03   -0.26232E-01   -0.31689E-01 22728   0.234E+00    0.789E-01
DAV:   3    -0.330853933144E+03    0.39300E-02   -0.91721E-02 23320   0.997E-01    0.526E-01
DAV:   4    -0.330851493643E+03    0.24395E-02   -0.21023E-02 23392   0.496E-01    0.341E-01
DAV:   5    -0.330851494845E+03   -0.12027E-05   -0.15566E-02 22200   0.374E-01    0.285E-01
DAV:   6    -0.330851181530E+03    0.31332E-03   -0.12406E-02 23040   0.340E-01    0.220E-01
DAV:   7    -0.330850296440E+03    0.88509E-03   -0.52770E-03 21184   0.231E-01    0.747E-02
DAV:   8    -0.330850246824E+03    0.49617E-04   -0.59683E-04 15936   0.832E-02
   7 F= -.33085025E+03 E0= -.33084821E+03  d E =-.569595E-01
       N       E                     dE             d eps       ncg     rms          rms(c)
DAV:   1    -0.330895914031E+03   -0.45618E-01   -0.71485E+00 16536   0.112E+01    0.255E+00
DAV:   2    -0.330920198219E+03   -0.24284E-01   -0.11286E+00 22800   0.435E+00    0.173E+00
DAV:   3    -0.330905340906E+03    0.14857E-01   -0.73006E-01 21800   0.265E+00    0.147E+00
DAV:   4    -0.330881382985E+03    0.23958E-01   -0.28952E-01 22024   0.172E+00    0.876E-01
DAV:   5    -0.330869919145E+03    0.11464E-01   -0.12222E-01 22536   0.112E+00    0.489E-01
DAV:   6    -0.330865759271E+03    0.41599E-02   -0.34783E-02 24224   0.597E-01    0.268E-01
DAV:   7    -0.330866478438E+03   -0.71917E-03   -0.14579E-02 24480   0.347E-01    0.248E-01
DAV:   8    -0.330865965479E+03    0.51296E-03   -0.60096E-03 20416   0.227E-01    0.154E-01
DAV:   9    -0.330866083082E+03   -0.11760E-03   -0.16233E-03 19672   0.123E-01    0.119E-01
DAV:  10    -0.330866239347E+03   -0.15627E-03   -0.16725E-03 19232   0.122E-01    0.899E-02
DAV:  11    -0.330866297211E+03   -0.57864E-04   -0.92725E-04 18800   0.985E-02
   8 F= -.33086630E+03 E0= -.33086461E+03  d E =-.160504E-01
       N       E                     dE             d eps       ncg     rms          rms(c)
DAV:   1    -0.330868230364E+03   -0.19910E-02   -0.23165E-01 17280   0.202E+00    0.463E-01
DAV:   2    -0.330869427476E+03   -0.11971E-02   -0.39662E-02 23688   0.808E-01    0.347E-01
DAV:   3    -0.330868824463E+03    0.60301E-03   -0.27665E-02 22264   0.508E-01    0.283E-01
DAV:   4    -0.330867957397E+03    0.86707E-03   -0.91094E-03 21936   0.300E-01    0.172E-01
DAV:   5    -0.330867473652E+03    0.48375E-03   -0.45000E-03 20536   0.212E-01    0.875E-02
DAV:   6    -0.330867345542E+03    0.12811E-03   -0.12055E-03 18496   0.117E-01    0.482E-02
DAV:   7    -0.330867363728E+03   -0.18186E-04   -0.71692E-04 16584   0.881E-02
   9 F= -.33086736E+03 E0= -.33086563E+03  d E =-.171169E-01
       N       E                     dE             d eps       ncg     rms          rms(c)
DAV:   1    -0.330868867276E+03   -0.15217E-02   -0.23211E+00 16464   0.535E+00    0.371E-01
DAV:   2    -0.330882427031E+03   -0.13560E-01   -0.14770E-01 23144   0.165E+00    0.454E-01
DAV:   3    -0.330880481256E+03    0.19458E-02   -0.32226E-02 23960   0.582E-01    0.258E-01
DAV:   4    -0.330879768758E+03    0.71250E-03   -0.44705E-03 23432   0.248E-01    0.167E-01
DAV:   5    -0.330879783238E+03   -0.14480E-04   -0.22449E-03 19792   0.156E-01    0.153E-01
DAV:   6    -0.330879621556E+03    0.16168E-03   -0.23266E-03 20472   0.160E-01    0.102E-01
DAV:   7    -0.330879520290E+03    0.10127E-03   -0.15142E-03 20040   0.121E-01    0.610E-02
DAV:   8    -0.330879461168E+03    0.59122E-04   -0.53167E-04 14752   0.790E-02
  10 F= -.33087946E+03 E0= -.33087785E+03  d E =-.120974E-01
       N       E                     dE             d eps       ncg     rms          rms(c)
DAV:   1    -0.330845891687E+03    0.33629E-01   -0.95650E+00 16392   0.109E+01    0.799E-01
DAV:   2    -0.330902800837E+03   -0.56909E-01   -0.62436E-01 23464   0.339E+00    0.936E-01
DAV:   3    -0.330894904233E+03    0.78966E-02   -0.13866E-01 24024   0.119E+00    0.556E-01
DAV:   4    -0.330891603979E+03    0.33003E-02   -0.18981E-02 23968   0.509E-01    0.363E-01
DAV:   5    -0.330891734696E+03   -0.13072E-03   -0.91261E-03 22784   0.310E-01    0.332E-01
DAV:   6    -0.330891110277E+03    0.62442E-03   -0.10342E-02 22888   0.337E-01    0.225E-01
DAV:   7    -0.330890636269E+03    0.47401E-03   -0.70337E-03 23792   0.256E-01    0.135E-01
DAV:   8    -0.330890353172E+03    0.28310E-03   -0.25929E-03 20208   0.154E-01    0.567E-02
DAV:   9    -0.330890312603E+03    0.40569E-04   -0.41536E-04 13376   0.752E-02
  11 F= -.33089031E+03 E0= -.33088896E+03  d E =-.229489E-01
       N       E                     dE             d eps       ncg     rms          rms(c)
DAV:   1    -0.330896028604E+03   -0.56754E-02   -0.12739E+00 15120   0.430E+00    0.834E-01
DAV:   2    -0.330900232848E+03   -0.42042E-02   -0.12871E-01 21368   0.137E+00    0.474E-01
DAV:   3    -0.330901820557E+03   -0.15877E-02   -0.64503E-02 22616   0.834E-01    0.504E-01
DAV:   4    -0.330897842851E+03    0.39777E-02   -0.29062E-02 21368   0.533E-01    0.224E-01
DAV:   5    -0.330897379883E+03    0.46297E-03   -0.11072E-02 22440   0.329E-01    0.166E-01
DAV:   6    -0.330896975730E+03    0.40415E-03   -0.38958E-03 20912   0.192E-01    0.799E-02
DAV:   7    -0.330896936206E+03    0.39524E-04   -0.10793E-03 18296   0.109E-01    0.623E-02
DAV:   8    -0.330896915852E+03    0.20353E-04   -0.41319E-04 13336   0.745E-02
  12 F= -.33089692E+03 E0= -.33089563E+03  d E =-.660325E-02
       N       E                     dE             d eps       ncg     rms          rms(c)
DAV:   1    -0.330897226287E+03   -0.29008E-03   -0.20622E-01 15120   0.173E+00    0.329E-01
DAV:   2    -0.330897931890E+03   -0.70560E-03   -0.20488E-02 21008   0.557E-01    0.195E-01
DAV:   3    -0.330898225571E+03   -0.29368E-03   -0.11354E-02 22120   0.341E-01    0.215E-01
DAV:   4    -0.330897536098E+03    0.68947E-03   -0.53876E-03 19944   0.227E-01    0.961E-02
DAV:   5    -0.330897435079E+03    0.10102E-03   -0.18718E-03 19168   0.136E-01    0.653E-02
DAV:   6    -0.330897369033E+03    0.66046E-04   -0.48240E-04 13336   0.826E-02
  13 F= -.33089737E+03 E0= -.33089614E+03  d E =-.705643E-02
       N       E                     dE             d eps       ncg     rms          rms(c)
DAV:   1    -0.330900317057E+03   -0.28820E-02   -0.25432E-01 15928   0.171E+00    0.203E-01
DAV:   2    -0.330901754497E+03   -0.14374E-02   -0.19863E-02 23480   0.545E-01    0.219E-01
DAV:   3    -0.330901191839E+03    0.56266E-03   -0.68327E-03 21072   0.266E-01    0.138E-01
DAV:   4    -0.330901073325E+03    0.11851E-03   -0.18300E-03 19760   0.136E-01    0.986E-02
DAV:   5    -0.330901017772E+03    0.55553E-04   -0.11602E-03 17688   0.108E-01    0.689E-02
DAV:   6    -0.330900964191E+03    0.53581E-04   -0.54622E-04 14160   0.896E-02
  14 F= -.33090096E+03 E0= -.33089978E+03  d E =-.359516E-02
       N       E                     dE             d eps       ncg     rms          rms(c)
DAV:   1    -0.330900761065E+03    0.25671E-03   -0.22822E+00 15928   0.514E+00    0.595E-01
DAV:   2    -0.330914118028E+03   -0.13357E-01   -0.17591E-01 22944   0.164E+00    0.640E-01
DAV:   3    -0.330908665160E+03    0.54529E-02   -0.60924E-02 22616   0.807E-01    0.370E-01
DAV:   4    -0.330907991552E+03    0.67361E-03   -0.16822E-02 22264   0.407E-01    0.280E-01
DAV:   5    -0.330907270557E+03    0.72100E-03   -0.98579E-03 22128   0.298E-01    0.167E-01
DAV:   6    -0.330907040376E+03    0.23018E-03   -0.39726E-03 22992   0.209E-01    0.109E-01
DAV:   7    -0.330906905695E+03    0.13468E-03   -0.22147E-03 21496   0.154E-01    0.700E-02
DAV:   8    -0.330906830655E+03    0.75040E-04   -0.50010E-04 14240   0.812E-02
  15 F= -.33090683E+03 E0= -.33090582E+03  d E =-.946162E-02
       N       E                     dE             d eps       ncg     rms          rms(c)
DAV:   1    -0.330908803723E+03   -0.18980E-02   -0.72406E-02 15184   0.980E-01    0.196E-01
DAV:   2    -0.330908967195E+03   -0.16347E-03   -0.64197E-03 21248   0.320E-01    0.116E-01
DAV:   3    -0.330909077334E+03   -0.11014E-03   -0.38591E-03 19832   0.200E-01    0.124E-01
DAV:   4    -0.330908845107E+03    0.23223E-03   -0.16840E-03 18256   0.140E-01    0.559E-02
DAV:   5    -0.330908806416E+03    0.38692E-04   -0.61923E-04 15296   0.868E-02
  16 F= -.33090881E+03 E0= -.33090780E+03  d E =-.197576E-02
       N       E                     dE             d eps       ncg     rms          rms(c)
DAV:   1    -0.330911723370E+03   -0.28783E-02   -0.64504E-01 15120   0.292E+00    0.599E-01
DAV:   2    -0.330912716921E+03   -0.99355E-03   -0.58454E-02 21800   0.942E-01    0.344E-01
DAV:   3    -0.330913076940E+03   -0.36002E-03   -0.31183E-02 22352   0.580E-01    0.327E-01
DAV:   4    -0.330911562297E+03    0.15146E-02   -0.14415E-02 21888   0.401E-01    0.184E-01
DAV:   5    -0.330911229122E+03    0.33317E-03   -0.69125E-03 22808   0.255E-01    0.132E-01
DAV:   6    -0.330910959838E+03    0.26928E-03   -0.23666E-03 20136   0.143E-01    0.595E-02
DAV:   7    -0.330910962164E+03   -0.23256E-05   -0.47801E-04 14728   0.717E-02
  17 F= -.33091096E+03 E0= -.33090996E+03  d E =-.413151E-02
       N       E                     dE             d eps       ncg     rms          rms(c)
DAV:   1    -0.330912229317E+03   -0.12695E-02   -0.44349E-02 15152   0.728E-01    0.137E-01
DAV:   2    -0.330912466662E+03   -0.23734E-03   -0.46183E-03 22680   0.254E-01    0.118E-01
DAV:   3    -0.330912363394E+03    0.10327E-03   -0.24786E-03 19392   0.159E-01    0.877E-02
DAV:   4    -0.330912317716E+03    0.45678E-04   -0.71242E-04 15880   0.927E-02
  18 F= -.33091232E+03 E0= -.33091132E+03  d E =-.135555E-02
       N       E                     dE             d eps       ncg     rms          rms(c)
DAV:   1    -0.330914178656E+03   -0.18153E-02   -0.39544E-01 15120   0.217E+00    0.373E-01
DAV:   2    -0.330916066483E+03   -0.18878E-02   -0.36373E-02 21904   0.726E-01    0.324E-01
DAV:   3    -0.330915482931E+03    0.58355E-03   -0.20669E-02 22288   0.453E-01    0.248E-01
DAV:   4    -0.330914815643E+03    0.66729E-03   -0.60233E-03 20872   0.259E-01    0.135E-01
DAV:   5    -0.330914487109E+03    0.32853E-03   -0.32236E-03 21328   0.191E-01    0.699E-02
DAV:   6    -0.330914404104E+03    0.83005E-04   -0.10042E-03 17832   0.103E-01    0.388E-02
DAV:   7    -0.330914394299E+03    0.98056E-05   -0.28429E-04 11280   0.712E-02
  19 F= -.33091439E+03 E0= -.33091335E+03  d E =-.343213E-02
       N       E                     dE             d eps       ncg     rms          rms(c)
DAV:   1    -0.330915284647E+03   -0.88054E-03   -0.20713E-02 15216   0.510E-01    0.103E-01
DAV:   2    -0.330915307634E+03   -0.22988E-04   -0.13742E-03 19096   0.147E-01    0.551E-02
DAV:   3    -0.330915333041E+03   -0.25407E-04   -0.86785E-04 16280   0.989E-02
  20 F= -.33091533E+03 E0= -.33091438E+03  d E =-.938743E-03
       N       E                     dE             d eps       ncg     rms          rms(c)
DAV:   1    -0.330917143370E+03   -0.18357E-02   -0.18647E-01 15120   0.150E+00    0.334E-01
DAV:   2    -0.330917343273E+03   -0.19990E-03   -0.15886E-02 21896   0.478E-01    0.206E-01
DAV:   3    -0.330917452593E+03   -0.10932E-03   -0.11067E-02 21160   0.331E-01    0.198E-01
DAV:   4    -0.330916883850E+03    0.56874E-03   -0.43737E-03 20504   0.222E-01    0.936E-02
DAV:   5    -0.330916750384E+03    0.13347E-03   -0.19059E-03 19624   0.143E-01    0.606E-02
DAV:   6    -0.330916693352E+03    0.57032E-04   -0.54428E-04 14304   0.800E-02
  21 F= -.33091669E+03 E0= -.33091578E+03  d E =-.229905E-02
       N       E                     dE             d eps       ncg     rms          rms(c)
DAV:   1    -0.330917800116E+03   -0.10497E-02   -0.34708E-02 15136   0.698E-01    0.171E-01
DAV:   2    -0.330917947459E+03   -0.14734E-03   -0.49477E-03 23144   0.277E-01    0.133E-01
DAV:   3    -0.330917810802E+03    0.13666E-03   -0.31414E-03 19648   0.181E-01    0.103E-01
DAV:   4    -0.330917733154E+03    0.77647E-04   -0.13374E-03 18040   0.119E-01    0.745E-02
DAV:   5    -0.330917656193E+03    0.76962E-04   -0.81170E-04 16304   0.939E-02
  22 F= -.33091766E+03 E0= -.33091678E+03  d E =-.962841E-03
       N       E                     dE             d eps       ncg     rms          rms(c)
DAV:   1    -0.330919967807E+03   -0.22347E-02   -0.30714E-01 15120   0.208E+00    0.479E-01
DAV:   2    -0.330920923998E+03   -0.95619E-03   -0.37267E-02 22144   0.786E-01    0.349E-01
DAV:   3    -0.330919944889E+03    0.97911E-03   -0.26169E-02 22576   0.514E-01    0.260E-01
DAV:   4    -0.330919259747E+03    0.68514E-03   -0.99423E-03 21976   0.319E-01    0.171E-01
DAV:   5    -0.330918862708E+03    0.39704E-03   -0.52257E-03 21584   0.221E-01    0.965E-02
DAV:   6    -0.330918696758E+03    0.16595E-03   -0.11513E-03 18360   0.113E-01    0.435E-02
DAV:   7    -0.330918718982E+03   -0.22225E-04   -0.36730E-04 12536   0.730E-02
  23 F= -.33091872E+03 E0= -.33091797E+03  d E =-.202563E-02
       N       E                     dE             d eps       ncg     rms          rms(c)
DAV:   1    -0.330919175961E+03   -0.47920E-03   -0.16845E-02 16496   0.410E-01    0.424E-02
DAV:   2    -0.330919244600E+03   -0.68639E-04   -0.77628E-04 18856   0.123E-01
  24 F= -.33091924E+03 E0= -.33091850E+03  d E =-.525617E-03
       N       E                     dE             d eps       ncg     rms          rms(c)
DAV:   1    -0.330920312274E+03   -0.11363E-02   -0.15088E-01 16008   0.121E+00    0.101E-01
DAV:   2    -0.330921171060E+03   -0.85879E-03   -0.90629E-03 25424   0.391E-01    0.182E-01
DAV:   3    -0.330920663895E+03    0.50716E-03   -0.35488E-03 19488   0.185E-01    0.726E-02
DAV:   4    -0.330920636661E+03    0.27234E-04   -0.46543E-04 14440   0.767E-02
  25 F= -.33092064E+03 E0= -.33092001E+03  d E =-.191768E-02
       N       E                     dE             d eps       ncg     rms          rms(c)
DAV:   1    -0.330921534397E+03   -0.87050E-03   -0.59747E-01 16096   0.242E+00    0.185E-01
DAV:   2    -0.330924340450E+03   -0.28061E-02   -0.31056E-02 25328   0.736E-01    0.311E-01
DAV:   3    -0.330922950029E+03    0.13904E-02   -0.11314E-02 23208   0.337E-01    0.140E-01
DAV:   4    -0.330922814886E+03    0.13514E-03   -0.18402E-03 21256   0.131E-01    0.955E-02
DAV:   5    -0.330922753180E+03    0.61706E-04   -0.12647E-03 18336   0.108E-01    0.800E-02
DAV:   6    -0.330922675898E+03    0.77282E-04   -0.85814E-04 16648   0.958E-02
  26 F= -.33092268E+03 E0= -.33092224E+03  d E =-.395692E-02
       N       E                     dE             d eps       ncg     rms          rms(c)
DAV:   1    -0.330919066252E+03    0.36869E-02   -0.23920E+00 16184   0.484E+00    0.355E-01
DAV:   2    -0.330931123788E+03   -0.12058E-01   -0.13013E-01 25152   0.149E+00    0.634E-01
DAV:   3    -0.330925139790E+03    0.59840E-02   -0.45718E-02 23640   0.667E-01    0.245E-01
DAV:   4    -0.330924861152E+03    0.27864E-03   -0.67365E-03 22840   0.256E-01    0.185E-01
DAV:   5    -0.330924539629E+03    0.32152E-03   -0.40956E-03 20480   0.185E-01    0.134E-01
DAV:   6    -0.330924346448E+03    0.19318E-03   -0.19288E-03 20312   0.145E-01    0.919E-02
DAV:   7    -0.330924242734E+03    0.10371E-03   -0.10410E-03 17432   0.111E-01    0.549E-02
DAV:   8    -0.330924185064E+03    0.57671E-04   -0.36067E-04 12880   0.782E-02
  27 F= -.33092419E+03 E0= -.33092414E+03  d E =-.546608E-02
       N       E                     dE             d eps       ncg     rms          rms(c)
DAV:   1    -0.330926694698E+03   -0.24520E-02   -0.21527E-01 15120   0.162E+00    0.268E-01
DAV:   2    -0.330927927969E+03   -0.12333E-02   -0.21436E-02 22472   0.553E-01    0.248E-01
DAV:   3    -0.330927362501E+03    0.56547E-03   -0.11419E-02 22088   0.335E-01    0.165E-01
DAV:   4    -0.330927112827E+03    0.24967E-03   -0.30201E-03 20392   0.184E-01    0.102E-01
DAV:   5    -0.330926919392E+03    0.19343E-03   -0.16448E-03 19056   0.135E-01    0.491E-02
DAV:   6    -0.330926881936E+03    0.37456E-04   -0.42114E-04 13256   0.784E-02
  28 F= -.33092688E+03 E0= -.33092694E+03  d E =-.269687E-02
       N       E                     dE             d eps       ncg     rms          rms(c)
DAV:   1    -0.330928080301E+03   -0.11609E-02   -0.16888E+00 15120   0.455E+00    0.746E-01
DAV:   2    -0.330937303956E+03   -0.92237E-02   -0.15983E-01 22528   0.149E+00    0.677E-01
DAV:   3    -0.330933687215E+03    0.36167E-02   -0.84861E-02 22584   0.929E-01    0.470E-01
DAV:   4    -0.330931525558E+03    0.21617E-02   -0.23569E-02 22392   0.515E-01    0.277E-01
DAV:   5    -0.330930058768E+03    0.14668E-02   -0.13207E-02 22696   0.374E-01    0.131E-01
DAV:   6    -0.330929854650E+03    0.20412E-03   -0.37266E-03 23184   0.192E-01    0.902E-02
DAV:   7    -0.330929806014E+03    0.48636E-04   -0.16388E-03 20048   0.119E-01    0.635E-02
DAV:   8    -0.330929769471E+03    0.36544E-04   -0.33374E-04 12416   0.637E-02
  29 F= -.33092977E+03 E0= -.33093007E+03  d E =-.558441E-02
       N       E                     dE             d eps       ncg     rms          rms(c)
DAV:   1    -0.330932290489E+03   -0.24845E-02   -0.45221E-01 15136   0.226E+00    0.338E-01
DAV:   2    -0.330934104494E+03   -0.18140E-02   -0.36286E-02 23264   0.716E-01    0.282E-01
DAV:   3    -0.330933730673E+03    0.37382E-03   -0.14775E-02 22160   0.395E-01    0.228E-01
DAV:   4    -0.330933125308E+03    0.60536E-03   -0.49285E-03 20816   0.230E-01    0.128E-01
DAV:   5    -0.330933005091E+03    0.12022E-03   -0.29652E-03 21056   0.172E-01    0.902E-02
DAV:   6    -0.330932852569E+03    0.15252E-03   -0.12838E-03 18608   0.114E-01    0.340E-02
DAV:   7    -0.330932841273E+03    0.11296E-04   -0.21918E-04 10952   0.655E-02
  30 F= -.33093284E+03 E0= -.33093325E+03  d E =-.307180E-02
       N       E                     dE             d eps       ncg     rms          rms(c)
DAV:   1    -0.330933165763E+03   -0.31319E-03   -0.52479E-01 15136   0.243E+00    0.349E-01
DAV:   2    -0.330935336205E+03   -0.21704E-02   -0.40868E-02 22584   0.766E-01    0.290E-01
DAV:   3    -0.330934916079E+03    0.42013E-03   -0.16744E-02 21624   0.428E-01    0.230E-01
DAV:   4    -0.330934261239E+03    0.65484E-03   -0.53981E-03 20712   0.242E-01    0.121E-01
DAV:   5    -0.330934158395E+03    0.10284E-03   -0.29396E-03 21176   0.172E-01    0.887E-02
DAV:   6    -0.330934028289E+03    0.13011E-03   -0.13262E-03 18936   0.113E-01    0.397E-02
DAV:   7    -0.330934017518E+03    0.10771E-04   -0.28663E-04 11864   0.673E-02
  31 F= -.33093402E+03 E0= -.33093453E+03  d E =-.424805E-02
       N       E                     dE             d eps       ncg     rms          rms(c)
DAV:   1    -0.330934579668E+03   -0.55138E-03   -0.35029E-02 15656   0.588E-01    0.663E-02
DAV:   2    -0.330934710924E+03   -0.13126E-03   -0.18879E-03 22312   0.173E-01    0.574E-02
DAV:   3    -0.330934699285E+03    0.11638E-04   -0.54993E-04 14608   0.811E-02
  32 F= -.33093470E+03 E0= -.33093527E+03  d E =-.681767E-03
       N       E                     dE             d eps       ncg     rms          rms(c)
DAV:   1    -0.330934847582E+03   -0.13666E-03   -0.31449E-01 15576   0.175E+00    0.204E-01
DAV:   2    -0.330935951118E+03   -0.11035E-02   -0.18821E-02 23976   0.533E-01    0.197E-01
DAV:   3    -0.330935676716E+03    0.27440E-03   -0.58688E-03 21200   0.230E-01    0.125E-01
DAV:   4    -0.330935519558E+03    0.15716E-03   -0.12657E-03 18752   0.119E-01    0.730E-02
DAV:   5    -0.330935549857E+03   -0.30299E-04   -0.76589E-04 16152   0.100E-01
  33 F= -.33093555E+03 E0= -.33093626E+03  d E =-.153234E-02
       N       E                     dE             d eps       ncg     rms          rms(c)
DAV:   1    -0.330936165611E+03   -0.64605E-03   -0.56868E-02 15152   0.915E-01    0.214E-01
DAV:   2    -0.330936380509E+03   -0.21490E-03   -0.82004E-03 23376   0.345E-01    0.157E-01
DAV:   3    -0.330936213944E+03    0.16656E-03   -0.52996E-03 20400   0.229E-01    0.121E-01
DAV:   4    -0.330936001469E+03    0.21248E-03   -0.15090E-03 19016   0.128E-01    0.543E-02
DAV:   5    -0.330935972248E+03    0.29221E-04   -0.60596E-04 15160   0.898E-02
  34 F= -.33093597E+03 E0= -.33093673E+03  d E =-.422391E-03
       N       E                     dE             d eps       ncg     rms          rms(c)
DAV:   1    -0.330936162198E+03   -0.16073E-03   -0.44594E-02 15168   0.806E-01    0.172E-01
DAV:   2    -0.330936372323E+03   -0.21013E-03   -0.58321E-03 22488   0.307E-01    0.139E-01
DAV:   3    -0.330936210695E+03    0.16163E-03   -0.39615E-03 19960   0.195E-01    0.992E-02
DAV:   4    -0.330936089964E+03    0.12073E-03   -0.11666E-03 17360   0.118E-01    0.560E-02
DAV:   5    -0.330936029176E+03    0.60788E-04   -0.51638E-04 13976   0.866E-02
  35 F= -.33093603E+03 E0= -.33093684E+03  d E =-.479319E-03
