<?xml version="1.0" encoding="ISO-8859-1"?>
<modeling>
 <generator>
  <i name="program" type="string">vasp </i>
  <i name="version" type="string">5.4.4.18Apr17-6-g9f103f2a35  </i>
  <i name="subversion" type="string">(build Aug 09 2018 16:20:53) complex            parallel </i>
  <i name="platform" type="string">LinuxIFC </i>
  <i name="date" type="string">2020 04 13 </i>
  <i name="time" type="string">16:12:04 </i>
 </generator>
 <incar>
  <i type="string" name="SYSTEM"> SQS with 1 vacancy for VFE and VRV</i>
  <i type="string" name="PREC">normal</i>
  <i type="int" name="IALGO">    38</i>
  <i type="int" name="ICHARG">     2</i>
  <i type="int" name="IBRION">     2</i>
  <i type="int" name="NSW">    50</i>
  <i type="int" name="ISIF">     3</i>
  <i type="int" name="ISYM">     0</i>
  <i name="ENCUT">    600.00000000</i>
  <i type="string" name="LREAL"> Auto</i>
  <i type="int" name="ISMEAR">     1</i>
  <i name="SIGMA">      0.20000000</i>
  <v type="int" name="KPOINT_BSE">    -1     0     0     0</v>
  <i type="string" name="GGA"> PS</i>
 </incar>
 <structure name="primitive_cell" >
  <crystal>
   <varray name="basis" >
    <v>      -3.19000000      -3.19000000      -3.19000000 </v>
    <v>       1.59500000       1.59500000      -7.97500000 </v>
    <v>       7.97500000      -7.97500000      -1.59500000 </v>
   </varray>
   <i name="volume">    486.92638500 </i>
   <varray name="rec_basis" >
    <v>      -0.13584117      -0.12539185      -0.05224660 </v>
    <v>       0.04179728       0.06269592      -0.10449321 </v>
    <v>       0.06269592      -0.06269592       0.00000000 </v>
   </varray>
  </crystal>
  <varray name="positions" >
   <v>      -0.03333333      -0.06666667       0.40000000 </v>
   <v>       0.30000000      -0.40000000       0.40000000 </v>
   <v>      -0.10000000      -0.20000000       0.20000000 </v>
   <v>       0.06666667       0.13333333       0.20000000 </v>
   <v>       0.46666667      -0.06666667       0.40000000 </v>
   <v>      -0.13333333      -0.26666667      -0.40000000 </v>
   <v>       0.03333333       0.06666667      -0.40000000 </v>
   <v>      -0.36666667       0.26666667       0.40000000 </v>
   <v>       0.40000000      -0.20000000       0.20000000 </v>
   <v>      -0.20000000      -0.40000000       0.40000000 </v>
   <v>       0.36666667      -0.26666667      -0.40000000 </v>
   <v>       0.13333333       0.26666667       0.40000000 </v>
   <v>      -0.46666667       0.06666667      -0.40000000 </v>
   <v>       0.23333333       0.46666667       0.20000000 </v>
   <v>       0.20000000       0.40000000      -0.40000000 </v>
   <v>       0.00000000       0.00000000       0.00000000 </v>
   <v>      -0.06666667      -0.13333333      -0.20000000 </v>
   <v>      -0.30000000       0.40000000      -0.40000000 </v>
   <v>      -0.26666667       0.46666667       0.20000000 </v>
   <v>       0.33333333      -0.33333333       0.00000000 </v>
   <v>       0.43333333      -0.13333333      -0.20000000 </v>
   <v>      -0.50000000       0.00000000       0.00000000 </v>
   <v>       0.26666667      -0.46666667      -0.20000000 </v>
   <v>      -0.33333333       0.33333333       0.00000000 </v>
   <v>      -0.40000000       0.20000000      -0.20000000 </v>
   <v>      -0.16666667      -0.33333333       0.00000000 </v>
   <v>      -0.23333333      -0.46666667      -0.20000000 </v>
   <v>       0.16666667       0.33333333       0.00000000 </v>
   <v>       0.10000000       0.20000000      -0.20000000 </v>
  </varray>
 </structure>
 <varray name="primitive_index" >
  <v type="int" >        1 </v>
  <v type="int" >       17 </v>
  <v type="int" >        7 </v>
  <v type="int" >       23 </v>
  <v type="int" >       19 </v>
  <v type="int" >       18 </v>
  <v type="int" >        6 </v>
  <v type="int" >        2 </v>
  <v type="int" >       15 </v>
  <v type="int" >        8 </v>
  <v type="int" >       11 </v>
  <v type="int" >       12 </v>
  <v type="int" >       27 </v>
  <v type="int" >       29 </v>
  <v type="int" >       22 </v>
  <v type="int" >        4 </v>
  <v type="int" >       14 </v>
  <v type="int" >       25 </v>
  <v type="int" >        9 </v>
  <v type="int" >       28 </v>
  <v type="int" >       16 </v>
  <v type="int" >        3 </v>
  <v type="int" >       21 </v>
  <v type="int" >       10 </v>
  <v type="int" >       26 </v>
  <v type="int" >       13 </v>
  <v type="int" >       24 </v>
  <v type="int" >       20 </v>
  <v type="int" >        5 </v>
 </varray>
 <kpoints>
  <generation param="Gamma">
   <v type="int" name="divisions">       5        5        5 </v>
   <v name="usershift">      0.00000000       0.00000000       0.00000000 </v>
   <v name="genvec1">      0.20000000      -0.00000000      -0.00000000 </v>
   <v name="genvec2">      0.00000000       0.20000000       0.00000000 </v>
   <v name="genvec3">      0.00000000       0.00000000       0.20000000 </v>
   <v name="shift">      0.00000000       0.00000000       0.00000000 </v>
  </generation>
  <varray name="kpointlist" >
   <v>       0.00000000       0.00000000       0.00000000 </v>
   <v>       0.20000000      -0.00000000       0.00000000 </v>
   <v>       0.40000000      -0.00000000       0.00000000 </v>
   <v>       0.00000000       0.20000000       0.00000000 </v>
   <v>       0.20000000       0.20000000      -0.00000000 </v>
   <v>       0.40000000       0.20000000      -0.00000000 </v>
   <v>      -0.40000000       0.20000000      -0.00000000 </v>
   <v>      -0.20000000       0.20000000       0.00000000 </v>
   <v>       0.00000000       0.40000000       0.00000000 </v>
   <v>       0.20000000       0.40000000       0.00000000 </v>
   <v>       0.40000000       0.40000000      -0.00000000 </v>
   <v>      -0.40000000       0.40000000       0.00000000 </v>
   <v>      -0.20000000       0.40000000       0.00000000 </v>
   <v>       0.00000000       0.00000000       0.20000000 </v>
   <v>       0.20000000      -0.00000000       0.20000000 </v>
   <v>       0.40000000       0.00000000       0.20000000 </v>
   <v>      -0.40000000       0.00000000       0.20000000 </v>
   <v>      -0.20000000       0.00000000       0.20000000 </v>
   <v>       0.00000000       0.20000000       0.20000000 </v>
   <v>       0.20000000       0.20000000       0.20000000 </v>
   <v>       0.40000000       0.20000000       0.20000000 </v>
   <v>      -0.40000000       0.20000000       0.20000000 </v>
   <v>      -0.20000000       0.20000000       0.20000000 </v>
   <v>       0.00000000       0.40000000       0.20000000 </v>
   <v>       0.20000000       0.40000000       0.20000000 </v>
   <v>       0.40000000       0.40000000       0.20000000 </v>
   <v>      -0.40000000       0.40000000       0.20000000 </v>
   <v>      -0.20000000       0.40000000       0.20000000 </v>
   <v>       0.00000000      -0.40000000       0.20000000 </v>
   <v>       0.20000000      -0.40000000       0.20000000 </v>
   <v>       0.40000000      -0.40000000       0.20000000 </v>
   <v>      -0.40000000      -0.40000000       0.20000000 </v>
   <v>      -0.20000000      -0.40000000       0.20000000 </v>
   <v>       0.00000000      -0.20000000       0.20000000 </v>
   <v>       0.20000000      -0.20000000       0.20000000 </v>
   <v>       0.40000000      -0.20000000       0.20000000 </v>
   <v>      -0.40000000      -0.20000000       0.20000000 </v>
   <v>      -0.20000000      -0.20000000       0.20000000 </v>
   <v>       0.00000000       0.00000000       0.40000000 </v>
   <v>       0.20000000      -0.00000000       0.40000000 </v>
   <v>       0.40000000      -0.00000000       0.40000000 </v>
   <v>      -0.40000000       0.00000000       0.40000000 </v>
   <v>      -0.20000000       0.00000000       0.40000000 </v>
   <v>      -0.00000000       0.20000000       0.40000000 </v>
   <v>       0.20000000       0.20000000       0.40000000 </v>
   <v>       0.40000000       0.20000000       0.40000000 </v>
   <v>      -0.40000000       0.20000000       0.40000000 </v>
   <v>      -0.20000000       0.20000000       0.40000000 </v>
   <v>       0.00000000       0.40000000       0.40000000 </v>
   <v>       0.20000000       0.40000000       0.40000000 </v>
   <v>       0.40000000       0.40000000       0.40000000 </v>
   <v>      -0.40000000       0.40000000       0.40000000 </v>
   <v>      -0.20000000       0.40000000       0.40000000 </v>
   <v>       0.00000000      -0.40000000       0.40000000 </v>
   <v>       0.20000000      -0.40000000       0.40000000 </v>
   <v>       0.40000000      -0.40000000       0.40000000 </v>
   <v>      -0.40000000      -0.40000000       0.40000000 </v>
   <v>      -0.20000000      -0.40000000       0.40000000 </v>
   <v>       0.00000000      -0.20000000       0.40000000 </v>
   <v>       0.20000000      -0.20000000       0.40000000 </v>
   <v>       0.40000000      -0.20000000       0.40000000 </v>
   <v>      -0.40000000      -0.20000000       0.40000000 </v>
   <v>      -0.20000000      -0.20000000       0.40000000 </v>
  </varray>
  <varray name="weights" >
   <v>       0.00800000 </v>
   <v>       0.01600000 </v>
   <v>       0.01600000 </v>
   <v>       0.01600000 </v>
   <v>       0.01600000 </v>
   <v>       0.01600000 </v>
   <v>       0.01600000 </v>
   <v>       0.01600000 </v>
   <v>       0.01600000 </v>
   <v>       0.01600000 </v>
   <v>       0.01600000 </v>
   <v>       0.01600000 </v>
   <v>       0.01600000 </v>
   <v>       0.01600000 </v>
   <v>       0.01600000 </v>
   <v>       0.01600000 </v>
   <v>       0.01600000 </v>
   <v>       0.01600000 </v>
   <v>       0.01600000 </v>
   <v>       0.01600000 </v>
   <v>       0.01600000 </v>
   <v>       0.01600000 </v>
   <v>       0.01600000 </v>
   <v>       0.01600000 </v>
   <v>       0.01600000 </v>
   <v>       0.01600000 </v>
   <v>       0.01600000 </v>
   <v>       0.01600000 </v>
   <v>       0.01600000 </v>
   <v>       0.01600000 </v>
   <v>       0.01600000 </v>
   <v>       0.01600000 </v>
   <v>       0.01600000 </v>
   <v>       0.01600000 </v>
   <v>       0.01600000 </v>
   <v>       0.01600000 </v>
   <v>       0.01600000 </v>
   <v>       0.01600000 </v>
   <v>       0.01600000 </v>
   <v>       0.01600000 </v>
   <v>       0.01600000 </v>
   <v>       0.01600000 </v>
   <v>       0.01600000 </v>
   <v>       0.01600000 </v>
   <v>       0.01600000 </v>
   <v>       0.01600000 </v>
   <v>       0.01600000 </v>
   <v>       0.01600000 </v>
   <v>       0.01600000 </v>
   <v>       0.01600000 </v>
   <v>       0.01600000 </v>
   <v>       0.01600000 </v>
   <v>       0.01600000 </v>
   <v>       0.01600000 </v>
   <v>       0.01600000 </v>
   <v>       0.01600000 </v>
   <v>       0.01600000 </v>
   <v>       0.01600000 </v>
   <v>       0.01600000 </v>
   <v>       0.01600000 </v>
   <v>       0.01600000 </v>
   <v>       0.01600000 </v>
   <v>       0.01600000 </v>
  </varray>
 </kpoints>
 <parameters>
  <separator name="general" >
   <i type="string" name="SYSTEM">SQS with 1 vacancy for VFE and VRV</i>
   <i type="logical" name="LCOMPAT"> F  </i>
  </separator>
  <separator name="electronic" >
   <i type="string" name="PREC">normal</i>
   <i name="ENMAX">    600.00000000</i>
   <i name="ENAUG">    455.65900000</i>
   <i name="EDIFF">      0.00010000</i>
   <i type="int" name="IALGO">    38</i>
   <i type="int" name="IWAVPR">    11</i>
   <i type="int" name="NBANDS">   120</i>
   <i name="NELECT">    199.00000000</i>
   <i type="int" name="TURBO">     0</i>
   <i type="int" name="IRESTART">     0</i>
   <i type="int" name="NREBOOT">     0</i>
   <i type="int" name="NMIN">     0</i>
   <i name="EREF">      0.00000000</i>
   <separator name="electronic smearing" >
    <i type="int" name="ISMEAR">     1</i>
    <i name="SIGMA">      0.20000000</i>
    <i name="KSPACING">      0.50000000</i>
    <i type="logical" name="KGAMMA"> T  </i>
   </separator>
   <separator name="electronic projectors" >
    <i type="logical" name="LREAL"> T  </i>
    <v name="ROPT">     -0.00050000     -0.00050000     -0.00050000     -0.00050000     -0.00050000</v>
    <i type="int" name="LMAXPAW">  -100</i>
    <i type="int" name="LMAXMIX">     2</i>
    <i type="logical" name="NLSPLINE"> F  </i>
   </separator>
   <separator name="electronic startup" >
    <i type="int" name="ISTART">     0</i>
    <i type="int" name="ICHARG">     2</i>
    <i type="int" name="INIWAV">     1</i>
   </separator>
   <separator name="electronic spin" >
    <i type="int" name="ISPIN">     1</i>
    <i type="logical" name="LNONCOLLINEAR"> F  </i>
    <v name="MAGMOM">      1.00000000      1.00000000      1.00000000      1.00000000      1.00000000      1.00000000      1.00000000      1.00000000      1.00000000      1.00000000      1.00000000      1.00000000      1.00000000      1.00000000      1.00000000      1.00000000      1.00000000      1.00000000      1.00000000      1.00000000
      1.00000000      1.00000000      1.00000000      1.00000000      1.00000000      1.00000000      1.00000000      1.00000000      1.00000000</v>
    <i name="NUPDOWN">     -1.00000000</i>
    <i type="logical" name="LSORBIT"> F  </i>
    <v name="SAXIS">      0.00000000      0.00000000      1.00000000</v>
    <i type="logical" name="LSPIRAL"> F  </i>
    <v name="QSPIRAL">      0.00000000      0.00000000      0.00000000</v>
    <i type="logical" name="LZEROZ"> F  </i>
   </separator>
   <separator name="electronic exchange-correlation" >
    <i type="logical" name="LASPH"> F  </i>
    <i type="logical" name="LMETAGGA"> F  </i>
   </separator>
   <separator name="electronic convergence" >
    <i type="int" name="NELM">    60</i>
    <i type="int" name="NELMDL">    -5</i>
    <i type="int" name="NELMIN">     2</i>
    <i name="ENINI">    600.00000000</i>
    <separator name="electronic convergence detail" >
     <i type="logical" name="LDIAG"> T  </i>
     <i type="logical" name="LSUBROT"> F  </i>
     <i name="WEIMIN">      0.00100000</i>
     <i name="EBREAK">      0.00000021</i>
     <i name="DEPER">      0.30000000</i>
     <i type="int" name="NRMM">     4</i>
     <i name="TIME">      0.40000000</i>
    </separator>
   </separator>
   <separator name="electronic mixer" >
    <i name="AMIX">      0.40000000</i>
    <i name="BMIX">      1.00000000</i>
    <i name="AMIN">      0.10000000</i>
    <i name="AMIX_MAG">      1.60000000</i>
    <i name="BMIX_MAG">      1.00000000</i>
    <separator name="electronic mixer details" >
     <i type="int" name="IMIX">     4</i>
     <i type="logical" name="MIXFIRST"> F  </i>
     <i type="int" name="MAXMIX">   -45</i>
     <i name="WC">    100.00000000</i>
     <i type="int" name="INIMIX">     1</i>
     <i type="int" name="MIXPRE">     1</i>
     <i type="int" name="MREMOVE">     5</i>
    </separator>
   </separator>
   <separator name="electronic dipolcorrection" >
    <i type="logical" name="LDIPOL"> F  </i>
    <i type="logical" name="LMONO"> F  </i>
    <i type="int" name="IDIPOL">     0</i>
    <i name="EPSILON">      1.00000000</i>
    <v name="DIPOL">   -100.00000000   -100.00000000   -100.00000000</v>
    <i name="EFIELD">      0.00000000</i>
   </separator>
  </separator>
  <separator name="grids" >
   <i type="int" name="NGX">    36</i>
   <i type="int" name="NGY">    50</i>
   <i type="int" name="NGZ">    70</i>
   <i type="int" name="NGXF">    72</i>
   <i type="int" name="NGYF">   100</i>
   <i type="int" name="NGZF">   140</i>
   <i type="logical" name="ADDGRID"> F  </i>
  </separator>
  <separator name="ionic" >
   <i type="int" name="NSW">    50</i>
   <i type="int" name="IBRION">     2</i>
   <i type="int" name="MDALGO">     0</i>
   <i type="int" name="ISIF">     3</i>
   <i name="PSTRESS">      0.00000000</i>
   <i name="EDIFFG">      0.00100000</i>
   <i type="int" name="NFREE">     1</i>
   <i name="POTIM">      0.50000000</i>
   <i name="SMASS">     -3.00000000</i>
   <i name="SCALEE">      1.00000000</i>
  </separator>
  <separator name="ionic md" >
   <i name="TEBEG">      0.00010000</i>
   <i name="TEEND">      0.00010000</i>
   <i type="int" name="NBLOCK">     1</i>
   <i type="int" name="KBLOCK">    50</i>
   <i type="int" name="NPACO">   256</i>
   <i name="APACO">     16.00000000</i>
  </separator>
  <separator name="symmetry" >
   <i type="int" name="ISYM">     0</i>
   <i name="SYMPREC">      0.00001000</i>
  </separator>
  <separator name="dos" >
   <i type="int" name="LORBIT">     0</i>
   <v name="RWIGS">     -1.00000000     -1.00000000     -1.00000000     -1.00000000     -1.00000000</v>
   <i type="int" name="NEDOS">   301</i>
   <i name="EMIN">     10.00000000</i>
   <i name="EMAX">    -10.00000000</i>
   <i name="EFERMI">      0.00000000</i>
  </separator>
  <separator name="writing" >
   <i type="int" name="NWRITE">     2</i>
   <i type="logical" name="LWAVE"> T  </i>
   <i type="logical" name="LDOWNSAMPLE"> F  </i>
   <i type="logical" name="LCHARG"> T  </i>
   <i type="logical" name="LPARD"> F  </i>
   <i type="logical" name="LVTOT"> F  </i>
   <i type="logical" name="LVHAR"> F  </i>
   <i type="logical" name="LELF"> F  </i>
   <i type="logical" name="LOPTICS"> F  </i>
   <v name="STM">      0.00000000      0.00000000      0.00000000      0.00000000      0.00000000      0.00000000      0.00000000</v>
  </separator>
  <separator name="performance" >
   <i type="int" name="NPAR">     8</i>
   <i type="int" name="NSIM">     4</i>
   <i type="int" name="NBLK">    -1</i>
   <i type="logical" name="LPLANE"> T  </i>
   <i type="logical" name="LSCALAPACK"> T  </i>
   <i type="logical" name="LSCAAWARE"> F  </i>
   <i type="logical" name="LSCALU"> F  </i>
   <i type="logical" name="LASYNC"> F  </i>
   <i type="logical" name="LORBITALREAL"> F  </i>
  </separator>
  <separator name="miscellaneous" >
   <i type="int" name="IDIOT">     3</i>
   <i type="int" name="ISPECIAL">     0</i>
   <i type="logical" name="LMUSIC"> F  </i>
   <v name="POMASS">     92.91000000     95.94000000    180.94800000     47.88000000    183.85000000</v>
   <v name="DARWINR">      0.00000000      0.00000000      0.00000000      0.00000000      0.00000000</v>
   <v name="DARWINV">      1.00000000      1.00000000      1.00000000      1.00000000      1.00000000</v>
   <i type="logical" name="LCORR"> T  </i>
  </separator>
  <i type="logical" name="GGA_COMPAT"> T  </i>
  <i type="logical" name="LBERRY"> F  </i>
  <i type="int" name="ICORELEVEL">     0</i>
  <i type="logical" name="LDAU"> F  </i>
  <i type="int" name="I_CONSTRAINED_M">     0</i>
  <separator name="electronic exchange-correlation" >
   <i type="string" name="GGA">PS</i>
   <i type="int" name="VOSKOWN">     0</i>
   <i type="logical" name="LHFCALC"> F  </i>
   <i type="string" name="PRECFOCK"></i>
   <i type="logical" name="LSYMGRAD"> F  </i>
   <i type="logical" name="LHFONE"> F  </i>
   <i type="logical" name="LRHFCALC"> F  </i>
   <i type="logical" name="LTHOMAS"> F  </i>
   <i type="logical" name="LMODELHF"> F  </i>
   <i name="ENCUT4O">     -1.00000000</i>
   <i type="int" name="EXXOEP">     0</i>
   <i type="int" name="FOURORBIT">     0</i>
   <i name="AEXX">      0.00000000</i>
   <i name="HFALPHA">      0.00000000</i>
   <i name="MCALPHA">      0.00000000</i>
   <i name="ALDAX">      1.00000000</i>
   <i name="AGGAX">      1.00000000</i>
   <i name="ALDAC">      1.00000000</i>
   <i name="AGGAC">      1.00000000</i>
   <i type="int" name="NKREDX">     1</i>
   <i type="int" name="NKREDY">     1</i>
   <i type="int" name="NKREDZ">     1</i>
   <i type="logical" name="SHIFTRED"> F  </i>
   <i type="logical" name="ODDONLY"> F  </i>
   <i type="logical" name="EVENONLY"> F  </i>
   <i type="int" name="LMAXFOCK">     0</i>
   <i type="int" name="NMAXFOCKAE">     0</i>
   <i type="logical" name="LFOCKAEDFT"> F  </i>
   <i name="HFSCREEN">      0.00000000</i>
   <i name="HFSCREENC">      0.00000000</i>
   <i type="int" name="NBANDSGWLOW">     0</i>
  </separator>
  <separator name="vdW DFT" >
   <i type="logical" name="LUSE_VDW"> F  </i>
   <i name="Zab_VDW">     -0.84910000</i>
   <i name="PARAM1">      0.12340000</i>
   <i name="PARAM2">      1.00000000</i>
   <i name="PARAM3">      0.00000000</i>
  </separator>
  <separator name="model GW" >
   <i type="int" name="MODEL_GW">     0</i>
   <i name="MODEL_EPS0">     10.07433900</i>
   <i name="MODEL_ALPHA">      1.00000000</i>
  </separator>
  <separator name="linear response parameters" >
   <i type="logical" name="LEPSILON"> F  </i>
   <i type="logical" name="LRPA"> F  </i>
   <i type="logical" name="LNABLA"> F  </i>
   <i type="logical" name="LVEL"> F  </i>
   <i type="int" name="KINTER">     0</i>
   <i name="CSHIFT">      0.10000000</i>
   <i name="OMEGAMAX">     -1.00000000</i>
   <i name="DEG_THRESHOLD">      0.00200000</i>
   <i name="RTIME">     -0.10000000</i>
   <i name="WPLASMAI">      0.00000000</i>
   <v name="DFIELD">      0.00000000      0.00000000      0.00000000</v>
   <v name="WPLASMA">      0.00000000      0.00000000      0.00000000      0.00000000      0.00000000      0.00000000      0.00000000      0.00000000      0.00000000</v>
  </separator>
  <separator name="orbital magnetization" >
   <i type="logical" name="NUCIND"> F  </i>
   <v name="MAGPOS">      0.00000000      0.00000000      0.00000000</v>
   <i type="logical" name="LNICSALL"> T  </i>
   <i type="logical" name="ORBITALMAG"> F  </i>
   <i type="logical" name="LMAGBLOCH"> F  </i>
   <i type="logical" name="LCHIMAG"> F  </i>
   <i type="logical" name="LGAUGE"> T  </i>
   <i type="int" name="MAGATOM">     0</i>
   <v name="MAGDIPOL">      0.00000000      0.00000000      0.00000000</v>
   <v name="AVECCONST">      0.00000000      0.00000000      0.00000000</v>
  </separator>
  <separator name="response functions" >
   <i type="logical" name="LADDER"> F  </i>
   <i type="logical" name="LRPAFORCE"> F  </i>
   <i type="logical" name="LFXC"> F  </i>
   <i type="logical" name="LHARTREE"> T  </i>
   <i type="int" name="IBSE">     0</i>
   <v type="int" name="KPOINT">    -1     0     0     0</v>
   <i type="logical" name="LTCTE"> F  </i>
   <i type="logical" name="LTETE"> F  </i>
   <i type="logical" name="LTRIPLET"> F  </i>
   <i type="logical" name="LFXCEPS"> F  </i>
   <i type="logical" name="LFXHEG"> F  </i>
   <i type="int" name="NATURALO">     2</i>
   <i type="logical" name="L2ORDER"> F  </i>
   <i type="logical" name="LMP2LT"> F  </i>
   <i type="logical" name="LUSEW"> F  </i>
   <i name="ENCUTGW">     -2.00000000</i>
   <i name="ENCUTGWSOFT">     -2.00000000</i>
   <i name="ENCUTLF">     -1.00000000</i>
   <i type="int" name="LMAXMP2">    -1</i>
   <i name="SCISSOR">      0.00000000</i>
   <i type="int" name="NOMEGA">     0</i>
   <i type="int" name="NOMEGAR">     0</i>
   <i type="int" name="NBANDSGW">    -1</i>
   <i type="int" name="NBANDSO">    -1</i>
   <i type="int" name="NBANDSV">    -1</i>
   <i type="int" name="NELM">     1</i>
   <i type="int" name="NELMHF">     1</i>
   <i type="int" name="DIM">     3</i>
   <i type="int" name="ANTIRES">     0</i>
   <i name="OMEGAMAX">    -30.00000000</i>
   <i name="OMEGAMIN">    -30.00000000</i>
   <i name="OMEGATL">   -200.00000000</i>
   <i type="int" name="OMEGAGRID">   140</i>
   <i name="CSHIFT">     -0.10000000</i>
   <i type="logical" name="SELFENERGY"> F  </i>
   <i type="logical" name="LSPECTRAL"> F  </i>
   <i type="logical" name="LSPECTRALGW"> F  </i>
   <i type="logical" name="LSINGLES"> F  </i>
   <i type="logical" name="LFERMIGW"> F  </i>
   <i type="logical" name="ODDONLYGW"> F  </i>
   <i type="logical" name="EVENONLYGW"> F  </i>
   <i type="int" name="NKREDLFX">     1</i>
   <i type="int" name="NKREDLFY">     1</i>
   <i type="int" name="NKREDLFZ">     1</i>
   <i type="int" name="MAXMEM">  2800</i>
   <i type="int" name="TELESCOPE">     0</i>
   <i type="int" name="TAUPAR">     1</i>
   <i type="int" name="OMEGAPAR">    -1</i>
   <i name="LAMBDA">      1.00000000</i>
  </separator>
  <separator name="External order field" >
   <i name="OFIELD_KAPPA">      0.00000000</i>
   <v name="OFIELD_K">      0.00000000      0.00000000      0.00000000</v>
   <i name="OFIELD_Q6_NEAR">      0.00000000</i>
   <i name="OFIELD_Q6_FAR">      0.00000000</i>
   <i name="OFIELD_A">      0.00000000</i>
  </separator>
  <separator name="solvation model" >
   <i type="logical" name="LSOL"> F  </i>
  </separator>
 </parameters>
 <atominfo>
  <atoms>      29 </atoms>
  <types>       5 </types>
  <array name="atoms" >
   <dimension dim="1">ion</dimension>
   <field type="string">element</field>
   <field type="int">atomtype</field>
   <set>
    <rc><c>Nb</c><c>   1</c></rc>
    <rc><c>Nb</c><c>   1</c></rc>
    <rc><c>Nb</c><c>   1</c></rc>
    <rc><c>Nb</c><c>   1</c></rc>
    <rc><c>Nb</c><c>   1</c></rc>
    <rc><c>Nb</c><c>   1</c></rc>
    <rc><c>Mo</c><c>   2</c></rc>
    <rc><c>Mo</c><c>   2</c></rc>
    <rc><c>Mo</c><c>   2</c></rc>
    <rc><c>Mo</c><c>   2</c></rc>
    <rc><c>Mo</c><c>   2</c></rc>
    <rc><c>Mo</c><c>   2</c></rc>
    <rc><c>Ta</c><c>   3</c></rc>
    <rc><c>Ta</c><c>   3</c></rc>
    <rc><c>Ta</c><c>   3</c></rc>
    <rc><c>Ta</c><c>   3</c></rc>
    <rc><c>Ta</c><c>   3</c></rc>
    <rc><c>Ti</c><c>   4</c></rc>
    <rc><c>Ti</c><c>   4</c></rc>
    <rc><c>Ti</c><c>   4</c></rc>
    <rc><c>Ti</c><c>   4</c></rc>
    <rc><c>Ti</c><c>   4</c></rc>
    <rc><c>Ti</c><c>   4</c></rc>
    <rc><c>W </c><c>   5</c></rc>
    <rc><c>W </c><c>   5</c></rc>
    <rc><c>W </c><c>   5</c></rc>
    <rc><c>W </c><c>   5</c></rc>
    <rc><c>W </c><c>   5</c></rc>
    <rc><c>W </c><c>   5</c></rc>
   </set>
  </array>
  <array name="atomtypes" >
   <dimension dim="1">type</dimension>
   <field type="int">atomspertype</field>
   <field type="string">element</field>
   <field>mass</field>
   <field>valence</field>
   <field type="string">pseudopotential</field>
   <set>
    <rc><c>   6</c><c>Nb</c><c>     92.91000000</c><c>     13.00000000</c><c>  PAW_PBE Nb_sv 25May2007               </c></rc>
    <rc><c>   6</c><c>Mo</c><c>     95.94000000</c><c>      6.00000000</c><c>  PAW_PBE Mo 08Apr2002                  </c></rc>
    <rc><c>   5</c><c>Ta</c><c>    180.94800000</c><c>      5.00000000</c><c>  PAW_PBE Ta 17Jan2003                  </c></rc>
    <rc><c>   6</c><c>Ti</c><c>     47.88000000</c><c>      4.00000000</c><c>  PAW_PBE Ti 08Apr2002                  </c></rc>
    <rc><c>   6</c><c>W </c><c>    183.85000000</c><c>      6.00000000</c><c>  PAW_PBE W 08Apr2002                   </c></rc>
   </set>
  </array>
 </atominfo>
 <structure name="initialpos" >
  <crystal>
   <varray name="basis" >
    <v>      -3.19000000      -3.19000000      -3.19000000 </v>
    <v>       1.59500000       1.59500000      -7.97500000 </v>
    <v>       7.97500000      -7.97500000      -1.59500000 </v>
   </varray>
   <i name="volume">    486.92638500 </i>
   <varray name="rec_basis" >
    <v>      -0.13584117      -0.12539185      -0.05224660 </v>
    <v>       0.04179728       0.06269592      -0.10449321 </v>
    <v>       0.06269592      -0.06269592       0.00000000 </v>
   </varray>
  </crystal>
  <varray name="positions" >
   <v>       0.96666667       0.93333333       0.40000000 </v>
   <v>       0.63333333       0.26666667       0.40000000 </v>
   <v>       0.50000000       0.00000000       0.00000000 </v>
   <v>       0.00000000       0.00000000       0.00000000 </v>
   <v>       0.10000000       0.20000000       0.80000000 </v>
   <v>       0.03333333       0.06666667       0.60000000 </v>
   <v>       0.90000000       0.80000000       0.20000000 </v>
   <v>       0.80000000       0.60000000       0.40000000 </v>
   <v>       0.73333333       0.46666667       0.20000000 </v>
   <v>       0.66666667       0.33333333       0.00000000 </v>
   <v>       0.36666667       0.73333333       0.60000000 </v>
   <v>       0.13333333       0.26666667       0.40000000 </v>
   <v>       0.83333333       0.66666667       0.00000000 </v>
   <v>       0.93333333       0.86666667       0.80000000 </v>
   <v>       0.40000000       0.80000000       0.20000000 </v>
   <v>       0.43333333       0.86666667       0.80000000 </v>
   <v>       0.30000000       0.60000000       0.40000000 </v>
   <v>       0.86666667       0.73333333       0.60000000 </v>
   <v>       0.46666667       0.93333333       0.40000000 </v>
   <v>       0.16666667       0.33333333       0.00000000 </v>
   <v>       0.26666667       0.53333333       0.80000000 </v>
   <v>       0.20000000       0.40000000       0.60000000 </v>
   <v>       0.06666667       0.13333333       0.20000000 </v>
   <v>       0.76666667       0.53333333       0.80000000 </v>
   <v>       0.70000000       0.40000000       0.60000000 </v>
   <v>       0.60000000       0.20000000       0.80000000 </v>
   <v>       0.53333333       0.06666667       0.60000000 </v>
   <v>       0.33333333       0.66666667       0.00000000 </v>
   <v>       0.23333333       0.46666667       0.20000000 </v>
  </varray>
 </structure>
 <calculation>
  <scstep>
   <time name="dav">   18.24   18.27</time>
   <time name="total">   18.28   18.32</time>
   <energy>
    <i name="alphaZ">   1302.23520220 </i>
    <i name="ewald"> -11637.44415821 </i>
    <i name="hartreedc">  -3129.87584131 </i>
    <i name="XCdc">   -838.92210792 </i>
    <i name="pawpsdc">  12115.92678409 </i>
    <i name="pawaedc"> -10625.29399854 </i>
    <i name="eentropy">      0.00208674 </i>
    <i name="bandstr">   1904.86556826 </i>
    <i name="atom">  13080.25727947 </i>
    <i name="e_fr_energy">   2171.75081478 </i>
    <i name="e_wo_entrp">   2171.74872804 </i>
    <i name="e_0_energy">   2171.75011920 </i>
   </energy>
  </scstep>
  <scstep>
   <time name="dav">   18.28   18.32</time>
   <time name="total">   18.29   18.32</time>
   <energy>
    <i name="e_fr_energy">     77.74327464 </i>
    <i name="e_wo_entrp">     77.74429011 </i>
    <i name="e_0_energy">     77.74361313 </i>
   </energy>
  </scstep>
  <scstep>
   <time name="dav">   28.56   28.60</time>
   <time name="total">   28.56   28.60</time>
   <energy>
    <i name="e_fr_energy">   -300.53797675 </i>
    <i name="e_wo_entrp">   -300.52921079 </i>
    <i name="e_0_energy">   -300.53505476 </i>
   </energy>
  </scstep>
  <scstep>
   <time name="dav">   25.82   25.85</time>
   <time name="total">   25.82   25.86</time>
   <energy>
    <i name="e_fr_energy">   -347.94061538 </i>
    <i name="e_wo_entrp">   -347.93016486 </i>
    <i name="e_0_energy">   -347.93713187 </i>
   </energy>
  </scstep>
  <scstep>
   <time name="dav">   30.89   30.94</time>
   <time name="total">   31.47   31.52</time>
   <energy>
    <i name="e_fr_energy">   -353.17137901 </i>
    <i name="e_wo_entrp">   -353.16157123 </i>
    <i name="e_0_energy">   -353.16810975 </i>
   </energy>
  </scstep>
  <scstep>
   <time name="dav">   23.86   23.89</time>
   <time name="total">   24.47   24.50</time>
   <energy>
    <i name="e_fr_energy">   -346.68262205 </i>
    <i name="e_wo_entrp">   -346.66360193 </i>
    <i name="e_0_energy">   -346.67628201 </i>
   </energy>
  </scstep>
  <scstep>
   <time name="dav">   24.54   24.58</time>
   <time name="total">   25.15   25.18</time>
   <energy>
    <i name="e_fr_energy">   -355.69395764 </i>
    <i name="e_wo_entrp">   -355.69744325 </i>
    <i name="e_0_energy">   -355.69511951 </i>
   </energy>
  </scstep>
  <scstep>
   <time name="dav">   25.40   25.43</time>
   <time name="total">   26.00   26.04</time>
   <energy>
    <i name="e_fr_energy">   -350.45914142 </i>
    <i name="e_wo_entrp">   -350.46039977 </i>
    <i name="e_0_energy">   -350.45956087 </i>
   </energy>
  </scstep>
  <scstep>
   <time name="dav">   25.52   25.56</time>
   <time name="total">   26.15   26.18</time>
   <energy>
    <i name="e_fr_energy">   -338.41969197 </i>
    <i name="e_wo_entrp">   -338.41813009 </i>
    <i name="e_0_energy">   -338.41917134 </i>
   </energy>
  </scstep>
  <scstep>
   <time name="dav">   24.96   24.99</time>
   <time name="total">   25.56   25.60</time>
   <energy>
    <i name="e_fr_energy">   -334.15224418 </i>
    <i name="e_wo_entrp">   -334.14648564 </i>
    <i name="e_0_energy">   -334.15032467 </i>
   </energy>
  </scstep>
  <scstep>
   <time name="dav">   24.78   24.81</time>
   <time name="total">   25.39   25.44</time>
   <energy>
    <i name="e_fr_energy">   -331.60432001 </i>
    <i name="e_wo_entrp">   -331.59391857 </i>
    <i name="e_0_energy">   -331.60085286 </i>
   </energy>
  </scstep>
  <scstep>
   <time name="dav">   25.80   25.83</time>
   <time name="total">   26.40   26.44</time>
   <energy>
    <i name="e_fr_energy">   -330.43398087 </i>
    <i name="e_wo_entrp">   -330.41873254 </i>
    <i name="e_0_energy">   -330.42889809 </i>
   </energy>
  </scstep>
  <scstep>
   <time name="dav">   24.50   24.53</time>
   <time name="total">   25.11   25.14</time>
   <energy>
    <i name="e_fr_energy">   -330.28128988 </i>
    <i name="e_wo_entrp">   -330.26788832 </i>
    <i name="e_0_energy">   -330.27682269 </i>
   </energy>
  </scstep>
  <scstep>
   <time name="dav">   24.70   24.73</time>
   <time name="total">   25.31   25.35</time>
   <energy>
    <i name="e_fr_energy">   -330.30263120 </i>
    <i name="e_wo_entrp">   -330.28416921 </i>
    <i name="e_0_energy">   -330.29647721 </i>
   </energy>
  </scstep>
  <scstep>
   <time name="dav">   25.00   25.03</time>
   <time name="total">   25.60   25.64</time>
   <energy>
    <i name="e_fr_energy">   -330.17086867 </i>
    <i name="e_wo_entrp">   -330.15434739 </i>
    <i name="e_0_energy">   -330.16536158 </i>
   </energy>
  </scstep>
  <scstep>
   <time name="dav">   25.01   25.04</time>
   <time name="total">   25.61   25.65</time>
   <energy>
    <i name="e_fr_energy">   -330.13758635 </i>
    <i name="e_wo_entrp">   -330.11930577 </i>
    <i name="e_0_energy">   -330.13149283 </i>
   </energy>
  </scstep>
  <scstep>
   <time name="dav">   24.78   24.81</time>
   <time name="total">   25.39   25.43</time>
   <energy>
    <i name="e_fr_energy">   -330.13741434 </i>
    <i name="e_wo_entrp">   -330.12052552 </i>
    <i name="e_0_energy">   -330.13178473 </i>
   </energy>
  </scstep>
  <scstep>
   <time name="dav">   24.32   24.37</time>
   <time name="total">   24.93   24.98</time>
   <energy>
    <i name="e_fr_energy">   -330.13106983 </i>
    <i name="e_wo_entrp">   -330.11383099 </i>
    <i name="e_0_energy">   -330.12532355 </i>
   </energy>
  </scstep>
  <scstep>
   <time name="dav">   25.34   25.40</time>
   <time name="total">   25.94   26.01</time>
   <energy>
    <i name="e_fr_energy">   -330.13088059 </i>
    <i name="e_wo_entrp">   -330.11339304 </i>
    <i name="e_0_energy">   -330.12505141 </i>
   </energy>
  </scstep>
  <scstep>
   <time name="dav">   22.78   22.89</time>
   <time name="total">   23.39   23.51</time>
   <energy>
    <i name="e_fr_energy">   -330.12997745 </i>
    <i name="e_wo_entrp">   -330.11238946 </i>
    <i name="e_0_energy">   -330.12411478 </i>
   </energy>
  </scstep>
  <scstep>
   <time name="dav">   23.40   23.45</time>
   <time name="total">   24.00   24.06</time>
   <energy>
    <i name="e_fr_energy">   -330.13030696 </i>
    <i name="e_wo_entrp">   -330.11269011 </i>
    <i name="e_0_energy">   -330.12443468 </i>
   </energy>
  </scstep>
  <scstep>
   <time name="dav">   21.99   22.04</time>
   <time name="total">   22.59   22.65</time>
   <energy>
    <i name="e_fr_energy">   -330.12986358 </i>
    <i name="e_wo_entrp">   -330.11220642 </i>
    <i name="e_0_energy">   -330.12397786 </i>
   </energy>
  </scstep>
  <scstep>
   <time name="dav">   15.51   15.54</time>
   <time name="total">   15.55   15.59</time>
   <energy>
    <i name="alphaZ">   1302.23520220 </i>
    <i name="ewald"> -11637.44415821 </i>
    <i name="hartreedc">  -2983.17382789 </i>
    <i name="XCdc">   -833.44318383 </i>
    <i name="pawpsdc">  20794.93668387 </i>
    <i name="pawaedc"> -19305.15603810 </i>
    <i name="eentropy">     -0.01759469 </i>
    <i name="bandstr">   -748.32420671 </i>
    <i name="atom">  13080.25727947 </i>
    <i name="e_fr_energy">   -330.12984390 </i>
    <i name="e_wo_entrp">   -330.11224921 </i>
    <i name="e_0_energy">   -330.12397900 </i>
   </energy>
  </scstep>
  <structure>
   <crystal>
    <varray name="basis" >
     <v>      -3.19000000      -3.19000000      -3.19000000 </v>
     <v>       1.59500000       1.59500000      -7.97500000 </v>
     <v>       7.97500000      -7.97500000      -1.59500000 </v>
    </varray>
    <i name="volume">    486.92638500 </i>
    <varray name="rec_basis" >
     <v>      -0.13584117      -0.12539185      -0.05224660 </v>
     <v>       0.04179728       0.06269592      -0.10449321 </v>
     <v>       0.06269592      -0.06269592       0.00000000 </v>
    </varray>
   </crystal>
   <varray name="positions" >
    <v>       0.96666667       0.93333333       0.40000000 </v>
    <v>       0.63333333       0.26666667       0.40000000 </v>
    <v>       0.50000000       0.00000000       0.00000000 </v>
    <v>       0.00000000       0.00000000       0.00000000 </v>
    <v>       0.10000000       0.20000000       0.80000000 </v>
    <v>       0.03333333       0.06666667       0.60000000 </v>
    <v>       0.90000000       0.80000000       0.20000000 </v>
    <v>       0.80000000       0.60000000       0.40000000 </v>
    <v>       0.73333333       0.46666667       0.20000000 </v>
    <v>       0.66666667       0.33333333       0.00000000 </v>
    <v>       0.36666667       0.73333333       0.60000000 </v>
    <v>       0.13333333       0.26666667       0.40000000 </v>
    <v>       0.83333333       0.66666667       0.00000000 </v>
    <v>       0.93333333       0.86666667       0.80000000 </v>
    <v>       0.40000000       0.80000000       0.20000000 </v>
    <v>       0.43333333       0.86666667       0.80000000 </v>
    <v>       0.30000000       0.60000000       0.40000000 </v>
    <v>       0.86666667       0.73333333       0.60000000 </v>
    <v>       0.46666667       0.93333333       0.40000000 </v>
    <v>       0.16666667       0.33333333       0.00000000 </v>
    <v>       0.26666667       0.53333333       0.80000000 </v>
    <v>       0.20000000       0.40000000       0.60000000 </v>
    <v>       0.06666667       0.13333333       0.20000000 </v>
    <v>       0.76666667       0.53333333       0.80000000 </v>
    <v>       0.70000000       0.40000000       0.60000000 </v>
    <v>       0.60000000       0.20000000       0.80000000 </v>
    <v>       0.53333333       0.06666667       0.60000000 </v>
    <v>       0.33333333       0.66666667       0.00000000 </v>
    <v>       0.23333333       0.46666667       0.20000000 </v>
   </varray>
  </structure>
  <varray name="forces" >
   <v>      -0.39564713       0.32412975       0.08415963 </v>
   <v>      -0.26176438       0.37817416       0.42451155 </v>
   <v>       0.45151599      -0.41747695      -0.81630793 </v>
   <v>       0.27614631      -0.16479057      -0.25859900 </v>
   <v>       0.34462697       0.25744830      -0.48296739 </v>
   <v>      -0.57044143       0.32362840      -0.19565320 </v>
   <v>       0.19322585      -0.39230795       0.05596275 </v>
   <v>      -0.52041314      -0.04914723       0.49157518 </v>
   <v>      -0.18734893       0.15694217      -0.16659178 </v>
   <v>       0.34003084       0.11281476      -0.33160120 </v>
   <v>      -0.15493800      -0.38543997       0.31394610 </v>
   <v>       0.35048068       0.47703253      -0.42851757 </v>
   <v>       0.26100070      -0.60473800       0.34255585 </v>
   <v>       0.40270084       0.38924124      -0.15497559 </v>
   <v>      -0.54991354      -0.12345802       1.03251489 </v>
   <v>      -0.99864639       0.02963215       0.80450371 </v>
   <v>       0.14406578      -0.08823238      -0.33064477 </v>
   <v>       0.16559165       0.41974757       0.24571640 </v>
   <v>       0.24958551      -0.20168620      -0.11853561 </v>
   <v>       0.26775382       0.11376869      -0.17647040 </v>
   <v>      -0.25427693      -0.07416263      -0.22550384 </v>
   <v>      -0.52675818       0.08569187       0.48808563 </v>
   <v>       0.58681297      -0.00583205      -0.66945958 </v>
   <v>      -0.31958801      -0.05262556       0.59194618 </v>
   <v>       0.90892277       0.03204956      -0.78929780 </v>
   <v>      -0.02400379       0.37918002      -0.09693417 </v>
   <v>      -0.01954970      -0.22548695      -0.45777789 </v>
   <v>       0.01068085      -0.51621142       0.69428934 </v>
   <v>      -0.16985200      -0.17788530       0.13007048 </v>
  </varray>
  <varray name="stress" >
   <v>     -32.33442959       2.09757539      -0.10243138 </v>
   <v>       2.09757544     -32.41586354      -7.33700075 </v>
   <v>      -0.10243140      -7.33700085     -30.12462494 </v>
  </varray>
  <energy>
   <i name="e_fr_energy">   -330.12984390 </i>
   <i name="e_wo_entrp">   -330.12397900 </i>
   <i name="e_0_energy">     -0.01759469 </i>
  </energy>
  <time name="totalsc">  583.51  584.64</time>
 </calculation>
 <calculation>
  <scstep>
   <time name="dav">   22.39   22.45</time>
   <time name="total">   23.01   23.07</time>
   <energy>
    <i name="alphaZ">   1366.77235318 </i>
    <i name="ewald"> -11876.55607867 </i>
    <i name="hartreedc">  -2983.28845121 </i>
    <i name="XCdc">   -827.38389863 </i>
    <i name="pawpsdc">  20794.68911801 </i>
    <i name="pawaedc"> -19304.88400923 </i>
    <i name="eentropy">     -0.00923479 </i>
    <i name="bandstr">   -581.63097465 </i>
    <i name="atom">  13080.25727947 </i>
    <i name="e_fr_energy">   -332.03389652 </i>
    <i name="e_wo_entrp">   -332.02466173 </i>
    <i name="e_0_energy">   -332.03081826 </i>
   </energy>
  </scstep>
  <scstep>
   <time name="dav">   26.31   26.37</time>
   <time name="total">   26.91   26.98</time>
   <energy>
    <i name="e_fr_energy">   -332.57524890 </i>
    <i name="e_wo_entrp">   -332.56793673 </i>
    <i name="e_0_energy">   -332.57281151 </i>
   </energy>
  </scstep>
  <scstep>
   <time name="dav">   24.59   24.65</time>
   <time name="total">   25.20   25.27</time>
   <energy>
    <i name="e_fr_energy">   -331.07306525 </i>
    <i name="e_wo_entrp">   -331.06563636 </i>
    <i name="e_0_energy">   -331.07058895 </i>
   </energy>
  </scstep>
  <scstep>
   <time name="dav">   26.40   26.48</time>
   <time name="total">   27.00   27.08</time>
   <energy>
    <i name="e_fr_energy">   -330.79891021 </i>
    <i name="e_wo_entrp">   -330.79773846 </i>
    <i name="e_0_energy">   -330.79851963 </i>
   </energy>
  </scstep>
  <scstep>
   <time name="dav">   25.53   25.60</time>
   <time name="total">   26.14   26.21</time>
   <energy>
    <i name="e_fr_energy">   -330.44490835 </i>
    <i name="e_wo_entrp">   -330.43457327 </i>
    <i name="e_0_energy">   -330.44146333 </i>
   </energy>
  </scstep>
  <scstep>
   <time name="dav">   27.90   27.96</time>
   <time name="total">   28.52   28.59</time>
   <energy>
    <i name="e_fr_energy">   -330.29332264 </i>
    <i name="e_wo_entrp">   -330.28247819 </i>
    <i name="e_0_energy">   -330.28970782 </i>
   </energy>
  </scstep>
  <scstep>
   <time name="dav">   27.93   28.00</time>
   <time name="total">   28.54   28.61</time>
   <energy>
    <i name="e_fr_energy">   -330.30770885 </i>
    <i name="e_wo_entrp">   -330.30131190 </i>
    <i name="e_0_energy">   -330.30557653 </i>
   </energy>
  </scstep>
  <scstep>
   <time name="dav">   26.25   26.31</time>
   <time name="total">   26.86   26.92</time>
   <energy>
    <i name="e_fr_energy">   -330.29641244 </i>
    <i name="e_wo_entrp">   -330.28597549 </i>
    <i name="e_0_energy">   -330.29293346 </i>
   </energy>
  </scstep>
  <scstep>
   <time name="dav">   25.92   25.98</time>
   <time name="total">   26.54   26.62</time>
   <energy>
    <i name="e_fr_energy">   -330.30005835 </i>
    <i name="e_wo_entrp">   -330.29060173 </i>
    <i name="e_0_energy">   -330.29690614 </i>
   </energy>
  </scstep>
  <scstep>
   <time name="dav">   27.30   27.37</time>
   <time name="total">   27.91   27.97</time>
   <energy>
    <i name="e_fr_energy">   -330.30564700 </i>
    <i name="e_wo_entrp">   -330.29661891 </i>
    <i name="e_0_energy">   -330.30263763 </i>
   </energy>
  </scstep>
  <scstep>
   <time name="dav">   26.46   26.53</time>
   <time name="total">   27.06   27.13</time>
   <energy>
    <i name="e_fr_energy">   -330.30579324 </i>
    <i name="e_wo_entrp">   -330.29605302 </i>
    <i name="e_0_energy">   -330.30254650 </i>
   </energy>
  </scstep>
  <scstep>
   <time name="dav">   26.47   26.55</time>
   <time name="total">   27.11   27.20</time>
   <energy>
    <i name="e_fr_energy">   -330.30558040 </i>
    <i name="e_wo_entrp">   -330.29614066 </i>
    <i name="e_0_energy">   -330.30243382 </i>
   </energy>
  </scstep>
  <scstep>
   <time name="dav">   25.84   25.88</time>
   <time name="total">   26.45   26.49</time>
   <energy>
    <i name="e_fr_energy">   -330.30555886 </i>
    <i name="e_wo_entrp">   -330.29609549 </i>
    <i name="e_0_energy">   -330.30240441 </i>
   </energy>
  </scstep>
  <scstep>
   <time name="dav">   24.59   24.62</time>
   <time name="total">   25.20   25.23</time>
   <energy>
    <i name="e_fr_energy">   -330.30557211 </i>
    <i name="e_wo_entrp">   -330.29610457 </i>
    <i name="e_0_energy">   -330.30241627 </i>
   </energy>
  </scstep>
  <scstep>
   <time name="dav">   15.69   15.71</time>
   <time name="total">   15.74   15.76</time>
   <energy>
    <i name="alphaZ">   1366.77235318 </i>
    <i name="ewald"> -11876.55607867 </i>
    <i name="hartreedc">  -2894.99229043 </i>
    <i name="XCdc">   -829.98027350 </i>
    <i name="pawpsdc">  22393.49914085 </i>
    <i name="pawaedc"> -20904.57059690 </i>
    <i name="eentropy">     -0.00945354 </i>
    <i name="bandstr">   -664.72562860 </i>
    <i name="atom">  13080.25727947 </i>
    <i name="e_fr_energy">   -330.30554814 </i>
    <i name="e_wo_entrp">   -330.29609461 </i>
    <i name="e_0_energy">   -330.30239696 </i>
   </energy>
  </scstep>
  <structure>
   <crystal>
    <varray name="basis" >
     <v>      -3.14106924      -3.12927010      -3.12941723 </v>
     <v>       1.57103022       1.60013407      -7.85953771 </v>
     <v>       7.83625401      -7.82992656      -1.54153820 </v>
    </varray>
    <i name="volume">    463.93437645 </i>
    <varray name="rec_basis" >
     <v>      -0.13796406      -0.12753427      -0.05354229 </v>
     <v>       0.04241811       0.06329556      -0.10586863 </v>
     <v>       0.06380666      -0.06381023      -0.00023700 </v>
    </varray>
   </crystal>
   <varray name="positions" >
    <v>       0.96708662       0.93309166       0.39782295 </v>
    <v>       0.63169111       0.26514270       0.39806443 </v>
    <v>       0.50162400       0.00376277       0.00262837 </v>
    <v>      -0.00016102       0.00136200       0.00133367 </v>
    <v>       0.09740150       0.20390825       0.80026368 </v>
    <v>       0.03560707       0.06748157       0.59729578 </v>
    <v>       0.90096583       0.79892093       0.20177102 </v>
    <v>       0.80246872       0.59632394       0.39857460 </v>
    <v>       0.73403161       0.46760338       0.19895865 </v>
    <v>       0.66459170       0.33603181       0.00068724 </v>
    <v>       0.36922234       0.73027249       0.60069718 </v>
    <v>       0.12923091       0.27097639       0.39961723 </v>
    <v>       0.83441769       0.66363702       0.00261853 </v>
    <v>       0.92873030       0.86943722       0.80004071 </v>
    <v>       0.40174813       0.79331280       0.19871014 </v>
    <v>       0.43767078       0.86068709       0.79688985 </v>
    <v>       0.30042302       0.60169042       0.40070261 </v>
    <v>       0.86242301       0.73369814       0.59923128 </v>
    <v>       0.46654987       0.93382412       0.40136492 </v>
    <v>       0.16466857       0.33510693       0.00046575 </v>
    <v>       0.26935005       0.53373306       0.79945522 </v>
    <v>       0.20170343       0.39673657       0.59814757 </v>
    <v>       0.06454375       0.13787371       0.20179252 </v>
    <v>       0.76758737       0.52954572       0.79919254 </v>
    <v>       0.69583908       0.40590857       0.60265221 </v>
    <v>       0.59810788       0.20158712       0.79878052 </v>
    <v>       0.53597931       0.06825291       0.60062288 </v>
    <v>       0.33463605       0.66162693       0.00159365 </v>
    <v>       0.23519465       0.46513045       0.20002430 </v>
   </varray>
  </structure>
  <varray name="forces" >
   <v>      -0.23103960       0.41035214       0.06219799 </v>
   <v>      -0.30711014       0.45018997       0.36004215 </v>
   <v>       0.43846471      -0.38237217      -0.53614952 </v>
   <v>       0.23018274      -0.19027156      -0.31426933 </v>
   <v>       0.03414454      -0.01408254      -0.04153256 </v>
   <v>      -0.20992163       0.13726590      -0.19531932 </v>
   <v>       0.28696773      -0.03158686      -0.11717668 </v>
   <v>      -0.12842890      -0.04848289       0.08406397 </v>
   <v>      -0.16709731      -0.16989500       0.22642945 </v>
   <v>       0.35966098      -0.17311385       0.12788073 </v>
   <v>      -0.11565421      -0.03448127       0.19807438 </v>
   <v>       0.06260232       0.17526890      -0.09994503 </v>
   <v>       0.02776328      -0.16096368      -0.03468791 </v>
   <v>       0.07849252       0.01258426      -0.05717983 </v>
   <v>       0.02101477      -0.09039850       0.13481697 </v>
   <v>      -0.07376812       0.04808529       0.26592760 </v>
   <v>       0.10451683      -0.19785143      -0.03068810 </v>
   <v>      -0.06808922       0.25741123       0.10462118 </v>
   <v>      -0.06163830       0.03918378      -0.15653466 </v>
   <v>       0.16429803      -0.00363191      -0.04151786 </v>
   <v>      -0.11098957       0.03693809      -0.02894528 </v>
   <v>      -0.20425748       0.17153981       0.15881867 </v>
   <v>       0.28132807      -0.08831032      -0.45813566 </v>
   <v>      -0.15733973      -0.14009230       0.02183088 </v>
   <v>       0.18328591       0.12643195      -0.18559235 </v>
   <v>       0.12534911       0.14606590      -0.03476798 </v>
   <v>      -0.11292017       0.03911409      -0.14545148 </v>
   <v>      -0.12084473       0.00997227       0.30278454 </v>
   <v>      -0.32897242      -0.33486930       0.43040504 </v>
  </varray>
  <varray name="stress" >
   <v>      76.89499573       1.29591665       0.84340816 </v>
   <v>       1.29591668      77.31930481      -4.59345488 </v>
   <v>       0.84340820      -4.59345490      77.91054945 </v>
  </varray>
  <energy>
   <i name="e_fr_energy">   -330.30554814 </i>
   <i name="e_wo_entrp">   -330.30239696 </i>
   <i name="e_0_energy">     -0.00945354 </i>
  </energy>
  <time name="totalsc">  407.17  408.15</time>
 </calculation>
 <calculation>
  <scstep>
   <time name="dav">   22.77   22.80</time>
   <time name="total">   23.38   23.41</time>
   <energy>
    <i name="alphaZ">   1340.07538781 </i>
    <i name="ewald"> -11779.26596203 </i>
    <i name="hartreedc">  -2895.01173613 </i>
    <i name="XCdc">   -832.42345261 </i>
    <i name="pawpsdc">  22393.01918943 </i>
    <i name="pawaedc"> -20904.11464801 </i>
    <i name="eentropy">     -0.01225456 </i>
    <i name="bandstr">   -733.27305061 </i>
    <i name="atom">  13080.25727947 </i>
    <i name="e_fr_energy">   -330.74924723 </i>
    <i name="e_wo_entrp">   -330.73699267 </i>
    <i name="e_0_energy">   -330.74516238 </i>
   </energy>
  </scstep>
  <scstep>
   <time name="dav">   29.15   29.19</time>
   <time name="total">   29.75   29.79</time>
   <energy>
    <i name="e_fr_energy">   -330.83629234 </i>
    <i name="e_wo_entrp">   -330.82490639 </i>
    <i name="e_0_energy">   -330.83249702 </i>
   </energy>
  </scstep>
  <scstep>
   <time name="dav">   25.43   25.47</time>
   <time name="total">   26.05   26.09</time>
   <energy>
    <i name="e_fr_energy">   -330.68657785 </i>
    <i name="e_wo_entrp">   -330.67647243 </i>
    <i name="e_0_energy">   -330.68320938 </i>
   </energy>
  </scstep>
  <scstep>
   <time name="dav">   27.21   27.25</time>
   <time name="total">   27.82   27.85</time>
   <energy>
    <i name="e_fr_energy">   -330.58436511 </i>
    <i name="e_wo_entrp">   -330.57247206 </i>
    <i name="e_0_energy">   -330.58040076 </i>
   </energy>
  </scstep>
  <scstep>
   <time name="dav">   25.52   25.55</time>
   <time name="total">   26.13   26.16</time>
   <energy>
    <i name="e_fr_energy">   -330.50775473 </i>
    <i name="e_wo_entrp">   -330.49561484 </i>
    <i name="e_0_energy">   -330.50370810 </i>
   </energy>
  </scstep>
  <scstep>
   <time name="dav">   26.30   26.34</time>
   <time name="total">   26.91   26.95</time>
   <energy>
    <i name="e_fr_energy">   -330.47228213 </i>
    <i name="e_wo_entrp">   -330.46132498 </i>
    <i name="e_0_energy">   -330.46862974 </i>
   </energy>
  </scstep>
  <scstep>
   <time name="dav">   27.68   27.72</time>
   <time name="total">   28.29   28.32</time>
   <energy>
    <i name="e_fr_energy">   -330.47441641 </i>
    <i name="e_wo_entrp">   -330.46066004 </i>
    <i name="e_0_energy">   -330.46983096 </i>
   </energy>
  </scstep>
  <scstep>
   <time name="dav">   25.35   25.38</time>
   <time name="total">   25.95   25.99</time>
   <energy>
    <i name="e_fr_energy">   -330.47246836 </i>
    <i name="e_wo_entrp">   -330.46044127 </i>
    <i name="e_0_energy">   -330.46845933 </i>
   </energy>
  </scstep>
  <scstep>
   <time name="dav">   24.90   24.93</time>
   <time name="total">   25.51   25.55</time>
   <energy>
    <i name="e_fr_energy">   -330.47275715 </i>
    <i name="e_wo_entrp">   -330.46046238 </i>
    <i name="e_0_energy">   -330.46865889 </i>
   </energy>
  </scstep>
  <scstep>
   <time name="dav">   24.83   24.86</time>
   <time name="total">   25.43   25.47</time>
   <energy>
    <i name="e_fr_energy">   -330.47348309 </i>
    <i name="e_wo_entrp">   -330.46087822 </i>
    <i name="e_0_energy">   -330.46928147 </i>
   </energy>
  </scstep>
  <scstep>
   <time name="dav">   25.71   25.74</time>
   <time name="total">   26.31   26.34</time>
   <energy>
    <i name="e_fr_energy">   -330.47350968 </i>
    <i name="e_wo_entrp">   -330.46121367 </i>
    <i name="e_0_energy">   -330.46941101 </i>
   </energy>
  </scstep>
  <scstep>
   <time name="dav">   24.27   24.30</time>
   <time name="total">   24.88   24.92</time>
   <energy>
    <i name="e_fr_energy">   -330.47351770 </i>
    <i name="e_wo_entrp">   -330.46104757 </i>
    <i name="e_0_energy">   -330.46936099 </i>
   </energy>
  </scstep>
  <scstep>
   <time name="dav">   23.16   23.20</time>
   <time name="total">   23.77   23.80</time>
   <energy>
    <i name="e_fr_energy">   -330.47350922 </i>
    <i name="e_wo_entrp">   -330.46108917 </i>
    <i name="e_0_energy">   -330.46936920 </i>
   </energy>
  </scstep>
  <scstep>
   <time name="dav">   15.11   15.13</time>
   <time name="total">   15.14   15.16</time>
   <energy>
    <i name="alphaZ">   1340.07538781 </i>
    <i name="ewald"> -11779.26596203 </i>
    <i name="hartreedc">  -2930.56261645 </i>
    <i name="XCdc">   -831.37591127 </i>
    <i name="pawpsdc">  21707.20588102 </i>
    <i name="pawaedc"> -20217.76752058 </i>
    <i name="eentropy">     -0.01242605 </i>
    <i name="bandstr">   -699.02759809 </i>
    <i name="atom">  13080.25727947 </i>
    <i name="e_fr_energy">   -330.47348617 </i>
    <i name="e_wo_entrp">   -330.46106012 </i>
    <i name="e_0_energy">   -330.46934415 </i>
   </energy>
  </scstep>
  <structure>
   <crystal>
    <varray name="basis" >
     <v>      -3.16092506      -3.15391394      -3.15400137 </v>
     <v>       1.58075702       1.59805070      -7.90639163 </v>
     <v>       7.89255632      -7.88879652      -1.56323269 </v>
    </varray>
    <i name="volume">    473.17687138 </i>
    <varray name="rec_basis" >
     <v>      -0.13709470      -0.12665570      -0.05300972 </v>
     <v>       0.04216388       0.06305125      -0.10530595 </v>
     <v>       0.06335122      -0.06335310      -0.00013895 </v>
    </varray>
   </crystal>
   <varray name="positions" >
    <v>       0.96691549       0.93319300       0.39872245 </v>
    <v>       0.63237326       0.26577129       0.39886578 </v>
    <v>       0.50094554       0.00221329       0.00153908 </v>
    <v>      -0.00009767       0.00080092       0.00078167 </v>
    <v>       0.09846883       0.20230209       0.80015256 </v>
    <v>       0.03466930       0.06714875       0.59841169 </v>
    <v>       0.90056690       0.79936257       0.20103985 </v>
    <v>       0.80145571       0.59783580       0.39916554 </v>
    <v>       0.73374282       0.46721922       0.19938795 </v>
    <v>       0.66544416       0.33492239       0.00040189 </v>
    <v>       0.36817062       0.73152942       0.60041069 </v>
    <v>       0.13091935       0.26920614       0.39977335 </v>
    <v>       0.83397184       0.66487958       0.00153867 </v>
    <v>       0.93062731       0.86829931       0.80002321 </v>
    <v>       0.40103691       0.79606236       0.19924761 </v>
    <v>       0.43589082       0.86314702       0.79817803 </v>
    <v>       0.30024526       0.60099484       0.40041091 </v>
    <v>       0.86417578       0.73354978       0.59954992 </v>
    <v>       0.46659617       0.93362110       0.40080067 </v>
    <v>       0.16549081       0.33437787       0.00027259 </v>
    <v>       0.26824175       0.53356874       0.79967916 </v>
    <v>       0.20100627       0.39807939       0.59891486 </v>
    <v>       0.06541238       0.13600616       0.20104914 </v>
    <v>       0.76721328       0.53110315       0.79952875 </v>
    <v>       0.69754666       0.40347823       0.60155323 </v>
    <v>       0.59888814       0.20093631       0.79928372 </v>
    <v>       0.53488370       0.06759978       0.60036350 </v>
    <v>       0.33410382       0.66369665       0.00093868 </v>
    <v>       0.23442812       0.46576150       0.20001485 </v>
   </varray>
  </structure>
  <varray name="forces" >
   <v>      -0.31303291       0.38375070       0.08056599 </v>
   <v>      -0.28546224       0.42525499       0.39735069 </v>
   <v>       0.44005445      -0.39945955      -0.65986987 </v>
   <v>       0.25564655      -0.17172299      -0.28847029 </v>
   <v>       0.17313552       0.10851180      -0.23450947 </v>
   <v>      -0.36772388       0.22349213      -0.19870862 </v>
   <v>       0.25279740      -0.19151271      -0.04019652 </v>
   <v>      -0.30800021      -0.05196062       0.27167965 </v>
   <v>      -0.17626455      -0.01483373       0.05124158 </v>
   <v>       0.36429623      -0.05109419      -0.08083711 </v>
   <v>      -0.14424982      -0.20779251       0.25930088 </v>
   <v>       0.19059391       0.31690722      -0.25428186 </v>
   <v>       0.13273131      -0.36322578       0.13386508 </v>
   <v>       0.22921586       0.17485636      -0.11903740 </v>
   <v>      -0.22824889      -0.11581412       0.52501879 </v>
   <v>      -0.48703270       0.04601038       0.49616215 </v>
   <v>       0.12698150      -0.15267380      -0.16180547 </v>
   <v>       0.04019342       0.32871831       0.17419337 </v>
   <v>       0.07312014      -0.06367248      -0.14242357 </v>
   <v>       0.22188454       0.04644883      -0.10423834 </v>
   <v>      -0.19078411      -0.01529351      -0.11829291 </v>
   <v>      -0.34652239       0.14002756       0.30416469 </v>
   <v>       0.41599884      -0.05513715      -0.55427668 </v>
   <v>      -0.24593491      -0.08402574       0.29732821 </v>
   <v>       0.52200631       0.07813640      -0.47077140 </v>
   <v>       0.05034944       0.25891658      -0.06455117 </v>
   <v>      -0.06623002      -0.08550949      -0.28565177 </v>
   <v>      -0.06137066      -0.24009868       0.48312979 </v>
   <v>      -0.26814812      -0.26720421       0.30392156 </v>
  </varray>
  <varray name="stress" >
   <v>      29.29544846       1.69640348       0.50436478 </v>
   <v>       1.69640345      29.50568658      -5.75790335 </v>
   <v>       0.50436476      -5.75790334      31.08415921 </v>
  </varray>
  <energy>
   <i name="e_fr_energy">   -330.47348617 </i>
   <i name="e_wo_entrp">   -330.46934415 </i>
   <i name="e_0_energy">     -0.01242605 </i>
  </energy>
  <time name="totalsc">  373.53  374.06</time>
 </calculation>
 <calculation>
  <scstep>
   <time name="dav">   18.55   18.57</time>
   <time name="total">   19.15   19.18</time>
   <energy>
    <i name="alphaZ">   1321.54666272 </i>
    <i name="ewald"> -11780.18389247 </i>
    <i name="hartreedc">  -2862.75991094 </i>
    <i name="XCdc">   -833.37828571 </i>
    <i name="pawpsdc">  21707.80386895 </i>
    <i name="pawaedc"> -20218.42537614 </i>
    <i name="eentropy">     -0.00520288 </i>
    <i name="bandstr">   -745.14733395 </i>
    <i name="atom">  13080.25727947 </i>
    <i name="e_fr_energy">   -330.29219095 </i>
    <i name="e_wo_entrp">   -330.28698807 </i>
    <i name="e_0_energy">   -330.29045666 </i>
   </energy>
  </scstep>
  <scstep>
   <time name="dav">   23.82   23.85</time>
   <time name="total">   24.42   24.45</time>
   <energy>
    <i name="e_fr_energy">   -330.87986338 </i>
    <i name="e_wo_entrp">   -330.87032581 </i>
    <i name="e_0_energy">   -330.87668419 </i>
   </energy>
  </scstep>
  <scstep>
   <time name="dav">   26.23   26.26</time>
   <time name="total">   26.83   26.88</time>
   <energy>
    <i name="e_fr_energy">   -330.92075339 </i>
    <i name="e_wo_entrp">   -330.91692929 </i>
    <i name="e_0_energy">   -330.91947869 </i>
   </energy>
  </scstep>
  <scstep>
   <time name="dav">   25.76   25.80</time>
   <time name="total">   26.36   26.40</time>
   <energy>
    <i name="e_fr_energy">   -330.82771465 </i>
    <i name="e_wo_entrp">   -330.81936267 </i>
    <i name="e_0_energy">   -330.82493066 </i>
   </energy>
  </scstep>
  <scstep>
   <time name="dav">   25.16   25.19</time>
   <time name="total">   25.75   25.79</time>
   <energy>
    <i name="e_fr_energy">   -330.81673118 </i>
    <i name="e_wo_entrp">   -330.80925397 </i>
    <i name="e_0_energy">   -330.81423878 </i>
   </energy>
  </scstep>
  <scstep>
   <time name="dav">   26.16   26.19</time>
   <time name="total">   26.78   26.82</time>
   <energy>
    <i name="e_fr_energy">   -330.81001092 </i>
    <i name="e_wo_entrp">   -330.80331221 </i>
    <i name="e_0_energy">   -330.80777802 </i>
   </energy>
  </scstep>
  <scstep>
   <time name="dav">   27.45   27.49</time>
   <time name="total">   28.05   28.09</time>
   <energy>
    <i name="e_fr_energy">   -330.79461495 </i>
    <i name="e_wo_entrp">   -330.78599136 </i>
    <i name="e_0_energy">   -330.79174042 </i>
   </energy>
  </scstep>
  <scstep>
   <time name="dav">   27.02   27.06</time>
   <time name="total">   27.62   27.66</time>
   <energy>
    <i name="e_fr_energy">   -330.79335655 </i>
    <i name="e_wo_entrp">   -330.78547618 </i>
    <i name="e_0_energy">   -330.79072976 </i>
   </energy>
  </scstep>
  <scstep>
   <time name="dav">   25.36   25.39</time>
   <time name="total">   25.97   26.01</time>
   <energy>
    <i name="e_fr_energy">   -330.79298874 </i>
    <i name="e_wo_entrp">   -330.78501120 </i>
    <i name="e_0_energy">   -330.79032956 </i>
   </energy>
  </scstep>
  <scstep>
   <time name="dav">   23.88   23.91</time>
   <time name="total">   24.48   24.51</time>
   <energy>
    <i name="e_fr_energy">   -330.79318389 </i>
    <i name="e_wo_entrp">   -330.78512773 </i>
    <i name="e_0_energy">   -330.79049850 </i>
   </energy>
  </scstep>
  <scstep>
   <time name="dav">   23.99   24.02</time>
   <time name="total">   24.59   24.62</time>
   <energy>
    <i name="e_fr_energy">   -330.79372728 </i>
    <i name="e_wo_entrp">   -330.78601848 </i>
    <i name="e_0_energy">   -330.79115768 </i>
   </energy>
  </scstep>
  <scstep>
   <time name="dav">   22.80   22.83</time>
   <time name="total">   23.41   23.44</time>
   <energy>
    <i name="e_fr_energy">   -330.79334886 </i>
    <i name="e_wo_entrp">   -330.78530736 </i>
    <i name="e_0_energy">   -330.79066836 </i>
   </energy>
  </scstep>
  <scstep>
   <time name="dav">   19.62   19.65</time>
   <time name="total">   19.65   19.68</time>
   <energy>
    <i name="alphaZ">   1321.54666272 </i>
    <i name="ewald"> -11780.18389247 </i>
    <i name="hartreedc">  -2883.95499380 </i>
    <i name="XCdc">   -832.66955906 </i>
    <i name="pawpsdc">  21216.79973533 </i>
    <i name="pawaedc"> -19728.12716033 </i>
    <i name="eentropy">     -0.00798638 </i>
    <i name="bandstr">   -724.45337818 </i>
    <i name="atom">  13080.25727947 </i>
    <i name="e_fr_energy">   -330.79329269 </i>
    <i name="e_wo_entrp">   -330.78530631 </i>
    <i name="e_0_energy">   -330.79063056 </i>
   </energy>
  </scstep>
  <structure>
   <crystal>
    <varray name="basis" >
     <v>      -3.17897245      -3.15685607      -3.15756715 </v>
     <v>       1.58792360       1.64376711      -7.95769185 </v>
     <v>       7.91439956      -7.90422009      -1.53366524 </v>
    </varray>
    <i name="volume">    479.81104059 </i>
    <varray name="rec_basis" >
     <v>      -0.13634604      -0.12618511      -0.05327249 </v>
     <v>       0.04192597       0.06224477      -0.10444094 </v>
     <v>       0.06317402      -0.06317332      -0.00044318 </v>
    </varray>
   </crystal>
   <varray name="positions" >
    <v>       0.96670745       0.93316777       0.39554512 </v>
    <v>       0.62986356       0.26371827       0.39578140 </v>
    <v>       0.50298068       0.00710417       0.00537639 </v>
    <v>      -0.00009700       0.00290733       0.00273180 </v>
    <v>       0.09590726       0.20620705       0.80048499 </v>
    <v>       0.03738909       0.06846726       0.59523822 </v>
    <v>       0.90074149       0.79888605       0.20327991 </v>
    <v>       0.80435874       0.59379213       0.39764441 </v>
    <v>       0.73516843       0.46713180       0.19835146 </v>
    <v>       0.66254812       0.33734571       0.00195517 </v>
    <v>       0.37103347       0.72775944       0.60097702 </v>
    <v>       0.12628551       0.27404205       0.39920729 </v>
    <v>       0.83549590       0.66179706       0.00439650 </v>
    <v>       0.92595653       0.87131935       0.80019994 </v>
    <v>       0.40281138       0.78912430       0.19820212 </v>
    <v>       0.43984749       0.85670666       0.79493251 </v>
    <v>       0.30095042       0.60250584       0.40159214 </v>
    <v>       0.85929884       0.73393307       0.59830694 </v>
    <v>       0.46678006       0.93451987       0.40195089 </v>
    <v>       0.16300942       0.33639997       0.00102749 </v>
    <v>       0.27126853       0.53394495       0.79888268 </v>
    <v>       0.20256056       0.39457877       0.59650694 </v>
    <v>       0.06331336       0.14175475       0.20338241 </v>
    <v>       0.76899187       0.52690404       0.79861765 </v>
    <v>       0.69271928       0.41017242       0.60429153 </v>
    <v>       0.59622100       0.20294090       0.79801549 </v>
    <v>       0.53792228       0.06945759       0.60077011 </v>
    <v>       0.33541478       0.65784129       0.00232798 </v>
    <v>       0.23788483       0.46223683       0.20002349 </v>
   </varray>
  </structure>
  <varray name="forces" >
   <v>      -0.17153700       0.17603514       0.08428982 </v>
   <v>      -0.05065458       0.27332650       0.04302053 </v>
   <v>       0.10733964      -0.19780941      -0.12026488 </v>
   <v>      -0.01764355      -0.20789355      -0.16196449 </v>
   <v>      -0.11951587      -0.08975710       0.24417145 </v>
   <v>       0.07032571       0.02368150      -0.13024036 </v>
   <v>       0.01907848      -0.00929518       0.07973245 </v>
   <v>       0.00947826      -0.01211814      -0.06192271 </v>
   <v>      -0.03460537      -0.20433227       0.21018073 </v>
   <v>       0.11259440      -0.05686141       0.14551374 </v>
   <v>      -0.07901279       0.18615147       0.06881225 </v>
   <v>       0.00998311       0.03439140       0.05020040 </v>
   <v>       0.03165596       0.17339713      -0.27098259 </v>
   <v>       0.05496786      -0.12192848      -0.08905864 </v>
   <v>       0.14663708      -0.01306401      -0.04354825 </v>
   <v>       0.35941225      -0.03782266      -0.04998380 </v>
   <v>      -0.07929058      -0.10547441       0.10373524 </v>
   <v>      -0.11275119       0.10253188      -0.01575865 </v>
   <v>      -0.06021691       0.03640410      -0.00311934 </v>
   <v>       0.06641111       0.06274116       0.00467650 </v>
   <v>       0.01162363       0.05888424       0.03123227 </v>
   <v>      -0.03235817       0.16219227       0.03890813 </v>
   <v>       0.08965865      -0.13755149      -0.28865233 </v>
   <v>       0.09275343      -0.16943716      -0.27383205 </v>
   <v>      -0.20822149       0.11740803       0.21974276 </v>
   <v>       0.04244270      -0.08357556       0.06151110 </v>
   <v>      -0.08774356       0.06059790      -0.01579314 </v>
   <v>      -0.08598375       0.17316874      -0.01943555 </v>
   <v>      -0.08482748      -0.19399066       0.15882945 </v>
  </varray>
  <varray name="stress" >
   <v>       1.61323448       1.05107017       0.21621715 </v>
   <v>       1.05107017       1.02853197      -2.28224775 </v>
   <v>       0.21621716      -2.28224757       1.58928543 </v>
  </varray>
  <energy>
   <i name="e_fr_energy">   -330.79329269 </i>
   <i name="e_wo_entrp">   -330.79063056 </i>
   <i name="e_0_energy">     -0.00798638 </i>
  </energy>
  <time name="totalsc">  340.75  341.25</time>
 </calculation>
 <calculation>
  <scstep>
   <time name="dav">   15.71   15.73</time>
   <time name="total">   16.31   16.34</time>
   <energy>
    <i name="alphaZ">   1321.56868368 </i>
    <i name="ewald"> -11780.19041262 </i>
    <i name="hartreedc">  -2884.01577447 </i>
    <i name="XCdc">   -832.66778480 </i>
    <i name="pawpsdc">  21216.96776975 </i>
    <i name="pawaedc"> -19728.30634293 </i>
    <i name="eentropy">     -0.00799607 </i>
    <i name="bandstr">   -724.39870113 </i>
    <i name="atom">  13080.25727947 </i>
    <i name="e_fr_energy">   -330.79327911 </i>
    <i name="e_wo_entrp">   -330.78528304 </i>
    <i name="e_0_energy">   -330.79061376 </i>
   </energy>
  </scstep>
  <scstep>
   <time name="dav">   13.05   13.07</time>
   <time name="total">   13.09   13.11</time>
   <energy>
    <i name="alphaZ">   1321.56868368 </i>
    <i name="ewald"> -11780.19041262 </i>
    <i name="hartreedc">  -2883.97854865 </i>
    <i name="XCdc">   -832.66960043 </i>
    <i name="pawpsdc">  21217.72244664 </i>
    <i name="pawaedc"> -19729.08252922 </i>
    <i name="eentropy">     -0.00795929 </i>
    <i name="bandstr">   -724.41264688 </i>
    <i name="atom">  13080.25727947 </i>
    <i name="e_fr_energy">   -330.79328730 </i>
    <i name="e_wo_entrp">   -330.78532801 </i>
    <i name="e_0_energy">   -330.79063421 </i>
   </energy>
  </scstep>
  <structure>
   <crystal>
    <varray name="basis" >
     <v>      -3.17895076      -3.15685254      -3.15756287 </v>
     <v>       1.58791499       1.64371217      -7.95763020 </v>
     <v>       7.91437331      -7.90420156      -1.53370077 </v>
    </varray>
    <i name="volume">    479.80304562 </i>
    <varray name="rec_basis" >
     <v>      -0.13634694      -0.12618567      -0.05327218 </v>
     <v>       0.04192626       0.06224573      -0.10444197 </v>
     <v>       0.06317423      -0.06317354      -0.00044282 </v>
    </varray>
   </crystal>
   <varray name="positions" >
    <v>       0.96670770       0.93316781       0.39554892 </v>
    <v>       0.62986658       0.26372073       0.39578511 </v>
    <v>       0.50297820       0.00709833       0.00537178 </v>
    <v>      -0.00009701       0.00290481       0.00272946 </v>
    <v>       0.09591030       0.20620240       0.80048459 </v>
    <v>       0.03738584       0.06846570       0.59524202 </v>
    <v>       0.90074128       0.79888661       0.20327723 </v>
    <v>       0.80435529       0.59379695       0.39764624 </v>
    <v>       0.73516673       0.46713191       0.19835270 </v>
    <v>       0.66255157       0.33734282       0.00195330 </v>
    <v>       0.37103005       0.72776393       0.60097635 </v>
    <v>       0.12629104       0.27403629       0.39920796 </v>
    <v>       0.83549408       0.66180072       0.00439308 </v>
    <v>       0.92596211       0.87131576       0.80019973 </v>
    <v>       0.40280929       0.78913257       0.19820339 </v>
    <v>       0.43984279       0.85671434       0.79493641 </v>
    <v>       0.30094956       0.60250404       0.40159072 </v>
    <v>       0.85930469       0.73393262       0.59830844 </v>
    <v>       0.46677984       0.93451880       0.40194951 </v>
    <v>       0.16301238       0.33639756       0.00102658 </v>
    <v>       0.27126490       0.53394451       0.79888363 </v>
    <v>       0.20255872       0.39458295       0.59650984 </v>
    <v>       0.06331584       0.14174790       0.20337960 </v>
    <v>       0.76898976       0.52690904       0.79861875 </v>
    <v>       0.69272503       0.41016444       0.60428823 </v>
    <v>       0.59622419       0.20293852       0.79801700 </v>
    <v>       0.53791863       0.06945537       0.60076962 </v>
    <v>       0.33541324       0.65784826       0.00232633 </v>
    <v>       0.23788070       0.46224102       0.20002349 </v>
   </varray>
  </structure>
  <varray name="forces" >
   <v>      -0.17743327       0.18369389       0.08674048 </v>
   <v>      -0.05472268       0.27821549       0.04787977 </v>
   <v>       0.11226783      -0.20043043      -0.13017434 </v>
   <v>      -0.01300185      -0.21102549      -0.16871918 </v>
   <v>      -0.11382806      -0.08853872       0.23729102 </v>
   <v>       0.06442611       0.02773746      -0.13252096 </v>
   <v>       0.02112130      -0.01237345       0.07961491 </v>
   <v>       0.00771205      -0.01469521      -0.05887947 </v>
   <v>      -0.03685554      -0.20433180       0.21150657 </v>
   <v>       0.11538405      -0.05723705       0.14436670 </v>
   <v>      -0.08062125       0.18447577       0.06995299 </v>
   <v>       0.01172027       0.03737530       0.04798191 </v>
   <v>       0.03075222       0.16747344      -0.26573298 </v>
   <v>       0.05646325      -0.11865559      -0.08954535 </v>
   <v>       0.14522559      -0.01400835      -0.03833757 </v>
   <v>       0.35491201      -0.03675543      -0.04717185 </v>
   <v>      -0.07857438      -0.10703295       0.10094831 </v>
   <v>      -0.11359956       0.10486877      -0.01554686 </v>
   <v>      -0.05854761       0.03569182      -0.00393404 </v>
   <v>       0.06928918       0.06006828       0.00539268 </v>
   <v>       0.01299150       0.05645798       0.03300756 </v>
   <v>      -0.03345012       0.16429511       0.04034252 </v>
   <v>       0.09021634      -0.13525615      -0.29164931 </v>
   <v>       0.09030258      -0.16978475      -0.27025275 </v>
   <v>      -0.20321076       0.11792812       0.21499299 </v>
   <v>       0.04257494      -0.08095802       0.06136068 </v>
   <v>      -0.08783775       0.05778900      -0.01787922 </v>
   <v>      -0.08523859       0.16876849      -0.01443702 </v>
   <v>      -0.08843779      -0.19375554       0.16340180 </v>
  </varray>
  <varray name="stress" >
   <v>       1.61402417       1.07324598       0.29858699 </v>
   <v>       1.07324596       1.05284171      -2.24930213 </v>
   <v>       0.29858684      -2.24930214       1.53783171 </v>
  </varray>
  <energy>
   <i name="e_fr_energy">   -330.79328730 </i>
   <i name="e_wo_entrp">   -330.79063421 </i>
   <i name="e_0_energy">     -0.00795929 </i>
  </energy>
  <time name="totalsc">   47.10   47.18</time>
 </calculation>
 <calculation>
  <scstep>
   <time name="dav">   19.06   19.09</time>
   <time name="total">   19.66   19.69</time>
   <energy>
    <i name="alphaZ">   1318.09699163 </i>
    <i name="ewald"> -11774.15723525 </i>
    <i name="hartreedc">  -2877.61056994 </i>
    <i name="XCdc">   -833.02282091 </i>
    <i name="pawpsdc">  21217.97964166 </i>
    <i name="pawaedc"> -19729.34592202 </i>
    <i name="eentropy">     -0.00585099 </i>
    <i name="bandstr">   -732.99490978 </i>
    <i name="atom">  13080.25727947 </i>
    <i name="e_fr_energy">   -330.80339612 </i>
    <i name="e_wo_entrp">   -330.79754513 </i>
    <i name="e_0_energy">   -330.80144579 </i>
   </energy>
  </scstep>
  <scstep>
   <time name="dav">   25.31   25.34</time>
   <time name="total">   25.93   25.97</time>
   <energy>
    <i name="e_fr_energy">   -330.85368722 </i>
    <i name="e_wo_entrp">   -330.84608248 </i>
    <i name="e_0_energy">   -330.85115231 </i>
   </energy>
  </scstep>
  <scstep>
   <time name="dav">   26.11   26.15</time>
   <time name="total">   26.72   26.75</time>
   <energy>
    <i name="e_fr_energy">   -330.84714207 </i>
    <i name="e_wo_entrp">   -330.84117177 </i>
    <i name="e_0_energy">   -330.84515197 </i>
   </energy>
  </scstep>
  <scstep>
   <time name="dav">   25.95   25.98</time>
   <time name="total">   26.56   26.59</time>
   <energy>
    <i name="e_fr_energy">   -330.84212002 </i>
    <i name="e_wo_entrp">   -330.83531840 </i>
    <i name="e_0_energy">   -330.83985281 </i>
   </energy>
  </scstep>
  <scstep>
   <time name="dav">   25.31   25.34</time>
   <time name="total">   25.91   25.95</time>
   <energy>
    <i name="e_fr_energy">   -330.84206234 </i>
    <i name="e_wo_entrp">   -330.83522703 </i>
    <i name="e_0_energy">   -330.83978391 </i>
   </energy>
  </scstep>
  <scstep>
   <time name="dav">   26.35   26.39</time>
   <time name="total">   26.95   26.99</time>
   <energy>
    <i name="e_fr_energy">   -330.84149857 </i>
    <i name="e_wo_entrp">   -330.83478690 </i>
    <i name="e_0_energy">   -330.83926135 </i>
   </energy>
  </scstep>
  <scstep>
   <time name="dav">   25.85   25.89</time>
   <time name="total">   26.46   26.49</time>
   <energy>
    <i name="e_fr_energy">   -330.83977715 </i>
    <i name="e_wo_entrp">   -330.83287704 </i>
    <i name="e_0_energy">   -330.83747712 </i>
   </energy>
  </scstep>
  <scstep>
   <time name="dav">   22.83   22.86</time>
   <time name="total">   23.44   23.48</time>
   <energy>
    <i name="e_fr_energy">   -330.83968258 </i>
    <i name="e_wo_entrp">   -330.83283820 </i>
    <i name="e_0_energy">   -330.83740112 </i>
   </energy>
  </scstep>
  <scstep>
   <time name="dav">   15.42   15.44</time>
   <time name="total">   15.45   15.47</time>
   <energy>
    <i name="alphaZ">   1318.09699163 </i>
    <i name="ewald"> -11774.15723525 </i>
    <i name="hartreedc">  -2882.15218400 </i>
    <i name="XCdc">   -832.88083375 </i>
    <i name="pawpsdc">  21107.85282995 </i>
    <i name="pawaedc"> -19619.01783098 </i>
    <i name="eentropy">     -0.00685293 </i>
    <i name="bandstr">   -728.83184293 </i>
    <i name="atom">  13080.25727947 </i>
    <i name="e_fr_energy">   -330.83967879 </i>
    <i name="e_wo_entrp">   -330.83282586 </i>
    <i name="e_0_energy">   -330.83739448 </i>
   </energy>
  </scstep>
  <structure>
   <crystal>
    <varray name="basis" >
     <v>      -3.18420056      -3.15683496      -3.15715131 </v>
     <v>       1.58917559       1.65581732      -7.96733364 </v>
     <v>       7.91723951      -7.90333536      -1.52404996 </v>
    </varray>
    <i name="volume">    481.06678299 </i>
    <varray name="rec_basis" >
     <v>      -0.13613922      -0.12608916      -0.05335910 </v>
     <v>       0.04186706       0.06204711      -0.10426665 </v>
     <v>       0.06314970      -0.06316557      -0.00053150 </v>
    </varray>
   </crystal>
   <varray name="positions" >
    <v>       0.96653687       0.93294160       0.39437534 </v>
    <v>       0.62840061       0.26406106       0.39469556 </v>
    <v>       0.50383243       0.00760326       0.00644472 </v>
    <v>       0.00156067       0.00318573       0.00338614 </v>
    <v>       0.09640428       0.20484479       0.80042631 </v>
    <v>       0.03729173       0.06934120       0.59518699 </v>
    <v>       0.90050392       0.79849961       0.20348278 </v>
    <v>       0.80467570       0.59383969       0.39763278 </v>
[...]
       <r>    4.5965    1.0000 </r>
       <r>    4.6779    1.0000 </r>
       <r>    4.7109    1.0000 </r>
       <r>    4.7544    1.0000 </r>
       <r>    4.8081    1.0000 </r>
       <r>    4.8894    1.0000 </r>
       <r>    4.9283    1.0000 </r>
       <r>    4.9674    1.0000 </r>
       <r>    5.0410    1.0000 </r>
       <r>    5.0917    1.0000 </r>
       <r>    5.1142    1.0000 </r>
       <r>    5.1938    1.0000 </r>
       <r>    5.2496    1.0000 </r>
       <r>    5.2898    1.0000 </r>
       <r>    5.3213    1.0000 </r>
       <r>    5.3707    1.0000 </r>
       <r>    5.4433    1.0000 </r>
       <r>    5.5167    1.0000 </r>
       <r>    5.5354    1.0000 </r>
       <r>    5.6145    1.0000 </r>
       <r>    5.6264    1.0000 </r>
       <r>    5.7625    1.0000 </r>
       <r>    5.7872    1.0000 </r>
       <r>    5.8421    1.0000 </r>
       <r>    5.9313    1.0000 </r>
       <r>    6.0022    1.0000 </r>
       <r>    6.0410    1.0000 </r>
       <r>    6.0841    1.0000 </r>
       <r>    6.1111    1.0000 </r>
       <r>    6.1842    1.0002 </r>
       <r>    6.2348    1.0008 </r>
       <r>    6.2980    1.0029 </r>
       <r>    6.3356    1.0059 </r>
       <r>    6.3816    1.0122 </r>
       <r>    6.4425    1.0251 </r>
       <r>    6.4612    1.0293 </r>
       <r>    6.5081    1.0355 </r>
       <r>    6.5931    0.9908 </r>
       <r>    6.7067    0.6929 </r>
       <r>    6.7377    0.5674 </r>
       <r>    6.8196    0.2371 </r>
       <r>    6.8466    0.1499 </r>
       <r>    6.9580   -0.0272 </r>
       <r>    7.1126   -0.0146 </r>
       <r>    7.1940   -0.0039 </r>
       <r>    7.2944   -0.0004 </r>
       <r>    7.4450   -0.0000 </r>
       <r>    7.4891   -0.0000 </r>
       <r>    7.6078   -0.0000 </r>
       <r>    7.7063   -0.0000 </r>
       <r>    7.9248   -0.0000 </r>
       <r>    8.0575   -0.0000 </r>
       <r>    8.1804   -0.0000 </r>
       <r>    8.2552   -0.0000 </r>
       <r>    8.5292   -0.0000 </r>
       <r>    8.6561   -0.0000 </r>
       <r>    8.7228   -0.0000 </r>
       <r>    8.8287   -0.0000 </r>
       <r>    8.8723   -0.0000 </r>
       <r>    8.9441   -0.0000 </r>
       <r>    8.9725   -0.0000 </r>
      </set>
     </set>
    </set>
   </array>
  </eigenvalues>
  <separator name="orbital magnetization" >
   <v name="MAGDIPOLOUT">      0.00000000      0.00000000      0.00000000</v>
  </separator>
  <dos>
   <i name="efermi">      6.75365730 </i>
   <total>
    <array>
     <dimension dim="1">gridpoints</dimension>
     <dimension dim="2">spin</dimension>
     <field>energy</field>
     <field>total</field>
     <field>integrated</field>
     <set>
      <set comment="spin 1">
       <r>   -50.3036     0.0000     0.0000 </r>
       <r>   -50.0958     0.0000     0.0000 </r>
       <r>   -49.8880     0.0000     0.0000 </r>
       <r>   -49.6802     0.0000     0.0000 </r>
       <r>   -49.4725     0.0000     0.0000 </r>
       <r>   -49.2647    -0.0000    -0.0000 </r>
       <r>   -49.0569    -0.0000    -0.0000 </r>
       <r>   -48.8491    -0.0000    -0.0000 </r>
       <r>   -48.6413    -0.0000    -0.0000 </r>
       <r>   -48.4335    -0.0000    -0.0000 </r>
       <r>   -48.2258    -0.0000    -0.0000 </r>
       <r>   -48.0180    -0.0038    -0.0008 </r>
       <r>   -47.8102    -0.2255    -0.0477 </r>
       <r>   -47.6024     0.0931    -0.0283 </r>
       <r>   -47.3946    12.0308     2.4715 </r>
       <r>   -47.1868    26.4241     7.9620 </r>
       <r>   -46.9791    19.0091    11.9117 </r>
       <r>   -46.7713     0.8168    12.0814 </r>
       <r>   -46.5635    -0.3831    12.0018 </r>
       <r>   -46.3557    -0.0088    12.0000 </r>
       <r>   -46.1479    -0.0000    12.0000 </r>
       <r>   -45.9401    -0.0000    12.0000 </r>
       <r>   -45.7324    -0.0000    12.0000 </r>
       <r>   -45.5246     0.0000    12.0000 </r>
       <r>   -45.3168     0.0000    12.0000 </r>
       <r>   -45.1090     0.0000    12.0000 </r>
       <r>   -44.9012     0.0000    12.0000 </r>
       <r>   -44.6934     0.0000    12.0000 </r>
       <r>   -44.4857     0.0000    12.0000 </r>
       <r>   -44.2779     0.0000    12.0000 </r>
       <r>   -44.0701     0.0000    12.0000 </r>
       <r>   -43.8623     0.0000    12.0000 </r>
       <r>   -43.6545     0.0000    12.0000 </r>
       <r>   -43.4467     0.0000    12.0000 </r>
       <r>   -43.2390     0.0000    12.0000 </r>
       <r>   -43.0312     0.0000    12.0000 </r>
       <r>   -42.8234     0.0000    12.0000 </r>
       <r>   -42.6156     0.0000    12.0000 </r>
       <r>   -42.4078     0.0000    12.0000 </r>
       <r>   -42.2000     0.0000    12.0000 </r>
       <r>   -41.9923     0.0000    12.0000 </r>
       <r>   -41.7845     0.0000    12.0000 </r>
       <r>   -41.5767     0.0000    12.0000 </r>
       <r>   -41.3689     0.0000    12.0000 </r>
       <r>   -41.1611     0.0000    12.0000 </r>
       <r>   -40.9533     0.0000    12.0000 </r>
       <r>   -40.7456     0.0000    12.0000 </r>
       <r>   -40.5378     0.0000    12.0000 </r>
       <r>   -40.3300     0.0000    12.0000 </r>
       <r>   -40.1222     0.0000    12.0000 </r>
       <r>   -39.9144     0.0000    12.0000 </r>
       <r>   -39.7067     0.0000    12.0000 </r>
       <r>   -39.4989     0.0000    12.0000 </r>
       <r>   -39.2911     0.0000    12.0000 </r>
       <r>   -39.0833     0.0000    12.0000 </r>
       <r>   -38.8755     0.0000    12.0000 </r>
       <r>   -38.6677     0.0000    12.0000 </r>
       <r>   -38.4600     0.0000    12.0000 </r>
       <r>   -38.2522     0.0000    12.0000 </r>
       <r>   -38.0444     0.0000    12.0000 </r>
       <r>   -37.8366     0.0000    12.0000 </r>
       <r>   -37.6288     0.0000    12.0000 </r>
       <r>   -37.4210     0.0000    12.0000 </r>
       <r>   -37.2133     0.0000    12.0000 </r>
       <r>   -37.0055     0.0000    12.0000 </r>
       <r>   -36.7977     0.0000    12.0000 </r>
       <r>   -36.5899     0.0000    12.0000 </r>
       <r>   -36.3821     0.0000    12.0000 </r>
       <r>   -36.1743     0.0000    12.0000 </r>
       <r>   -35.9666     0.0000    12.0000 </r>
       <r>   -35.7588     0.0000    12.0000 </r>
       <r>   -35.5510     0.0000    12.0000 </r>
       <r>   -35.3432     0.0000    12.0000 </r>
       <r>   -35.1354     0.0000    12.0000 </r>
       <r>   -34.9276     0.0000    12.0000 </r>
       <r>   -34.7199     0.0000    12.0000 </r>
       <r>   -34.5121     0.0000    12.0000 </r>
       <r>   -34.3043     0.0000    12.0000 </r>
       <r>   -34.0965     0.0000    12.0000 </r>
       <r>   -33.8887     0.0000    12.0000 </r>
       <r>   -33.6809     0.0000    12.0000 </r>
       <r>   -33.4732     0.0000    12.0000 </r>
       <r>   -33.2654     0.0000    12.0000 </r>
       <r>   -33.0576     0.0000    12.0000 </r>
       <r>   -32.8498     0.0000    12.0000 </r>
       <r>   -32.6420     0.0000    12.0000 </r>
       <r>   -32.4342     0.0000    12.0000 </r>
       <r>   -32.2265     0.0000    12.0000 </r>
       <r>   -32.0187     0.0000    12.0000 </r>
       <r>   -31.8109     0.0000    12.0000 </r>
       <r>   -31.6031     0.0000    12.0000 </r>
       <r>   -31.3953     0.0000    12.0000 </r>
       <r>   -31.1875     0.0000    12.0000 </r>
       <r>   -30.9798     0.0000    12.0000 </r>
       <r>   -30.7720     0.0000    12.0000 </r>
       <r>   -30.5642     0.0000    12.0000 </r>
       <r>   -30.3564     0.0000    12.0000 </r>
       <r>   -30.1486     0.0000    12.0000 </r>
       <r>   -29.9408     0.0000    12.0000 </r>
       <r>   -29.7331     0.0000    12.0000 </r>
       <r>   -29.5253     0.0000    12.0000 </r>
       <r>   -29.3175     0.0000    12.0000 </r>
       <r>   -29.1097     0.0000    12.0000 </r>
       <r>   -28.9019     0.0000    12.0000 </r>
       <r>   -28.6941     0.0000    12.0000 </r>
       <r>   -28.4864     0.0000    12.0000 </r>
       <r>   -28.2786     0.0000    12.0000 </r>
       <r>   -28.0708     0.0000    12.0000 </r>
       <r>   -27.8630     0.0000    12.0000 </r>
       <r>   -27.6552     0.0000    12.0000 </r>
       <r>   -27.4475     0.0000    12.0000 </r>
       <r>   -27.2397     0.0000    12.0000 </r>
       <r>   -27.0319     0.0000    12.0000 </r>
       <r>   -26.8241     0.0000    12.0000 </r>
       <r>   -26.6163     0.0000    12.0000 </r>
       <r>   -26.4085     0.0000    12.0000 </r>
       <r>   -26.2008     0.0000    12.0000 </r>
       <r>   -25.9930     0.0000    12.0000 </r>
       <r>   -25.7852    -0.0000    12.0000 </r>
       <r>   -25.5774    -0.0000    12.0000 </r>
       <r>   -25.3696    -0.0000    12.0000 </r>
       <r>   -25.1618    -0.0000    12.0000 </r>
       <r>   -24.9541    -0.0000    12.0000 </r>
       <r>   -24.7463    -0.0001    12.0000 </r>
       <r>   -24.5385    -0.0128    11.9973 </r>
       <r>   -24.3307    -0.1539    11.9653 </r>
       <r>   -24.1229     0.8416    12.1402 </r>
       <r>   -23.9151     6.5069    13.4922 </r>
       <r>   -23.7074    21.3385    17.9260 </r>
       <r>   -23.4996    42.8598    26.8315 </r>
       <r>   -23.2918    49.3588    37.0875 </r>
       <r>   -23.0840    30.6691    43.4600 </r>
       <r>   -22.8762    16.7861    46.9479 </r>
       <r>   -22.6684     5.2974    48.0486 </r>
       <r>   -22.4607    -0.1414    48.0192 </r>
       <r>   -22.2529    -0.0903    48.0004 </r>
       <r>   -22.0451    -0.0021    48.0000 </r>
       <r>   -21.8373    -0.0000    48.0000 </r>
       <r>   -21.6295    -0.0000    48.0000 </r>
       <r>   -21.4217    -0.0000    48.0000 </r>
       <r>   -21.2140     0.0000    48.0000 </r>
       <r>   -21.0062     0.0000    48.0000 </r>
       <r>   -20.7984     0.0000    48.0000 </r>
       <r>   -20.5906     0.0000    48.0000 </r>
       <r>   -20.3828     0.0000    48.0000 </r>
       <r>   -20.1750     0.0000    48.0000 </r>
       <r>   -19.9673     0.0000    48.0000 </r>
       <r>   -19.7595     0.0000    48.0000 </r>
       <r>   -19.5517     0.0000    48.0000 </r>
       <r>   -19.3439     0.0000    48.0000 </r>
       <r>   -19.1361     0.0000    48.0000 </r>
       <r>   -18.9283     0.0000    48.0000 </r>
       <r>   -18.7206     0.0000    48.0000 </r>
       <r>   -18.5128     0.0000    48.0000 </r>
       <r>   -18.3050     0.0000    48.0000 </r>
       <r>   -18.0972     0.0000    48.0000 </r>
       <r>   -17.8894     0.0000    48.0000 </r>
       <r>   -17.6816     0.0000    48.0000 </r>
       <r>   -17.4739     0.0000    48.0000 </r>
       <r>   -17.2661     0.0000    48.0000 </r>
       <r>   -17.0583     0.0000    48.0000 </r>
       <r>   -16.8505     0.0000    48.0000 </r>
       <r>   -16.6427     0.0000    48.0000 </r>
       <r>   -16.4350     0.0000    48.0000 </r>
       <r>   -16.2272     0.0000    48.0000 </r>
       <r>   -16.0194     0.0000    48.0000 </r>
       <r>   -15.8116     0.0000    48.0000 </r>
       <r>   -15.6038     0.0000    48.0000 </r>
       <r>   -15.3960     0.0000    48.0000 </r>
       <r>   -15.1883     0.0000    48.0000 </r>
       <r>   -14.9805     0.0000    48.0000 </r>
       <r>   -14.7727     0.0000    48.0000 </r>
       <r>   -14.5649     0.0000    48.0000 </r>
       <r>   -14.3571     0.0000    48.0000 </r>
       <r>   -14.1493     0.0000    48.0000 </r>
       <r>   -13.9416     0.0000    48.0000 </r>
       <r>   -13.7338     0.0000    48.0000 </r>
       <r>   -13.5260     0.0000    48.0000 </r>
       <r>   -13.3182     0.0000    48.0000 </r>
       <r>   -13.1104     0.0000    48.0000 </r>
       <r>   -12.9026     0.0000    48.0000 </r>
       <r>   -12.6949     0.0000    48.0000 </r>
       <r>   -12.4871     0.0000    48.0000 </r>
       <r>   -12.2793     0.0000    48.0000 </r>
       <r>   -12.0715     0.0000    48.0000 </r>
       <r>   -11.8637     0.0000    48.0000 </r>
       <r>   -11.6559     0.0000    48.0000 </r>
       <r>   -11.4482     0.0000    48.0000 </r>
       <r>   -11.2404     0.0000    48.0000 </r>
       <r>   -11.0326     0.0000    48.0000 </r>
       <r>   -10.8248     0.0000    48.0000 </r>
       <r>   -10.6170     0.0000    48.0000 </r>
       <r>   -10.4092     0.0000    48.0000 </r>
       <r>   -10.2015     0.0000    48.0000 </r>
       <r>    -9.9937     0.0000    48.0000 </r>
       <r>    -9.7859     0.0000    48.0000 </r>
       <r>    -9.5781     0.0000    48.0000 </r>
       <r>    -9.3703     0.0000    48.0000 </r>
       <r>    -9.1625     0.0000    48.0000 </r>
       <r>    -8.9548     0.0000    48.0000 </r>
       <r>    -8.7470     0.0000    48.0000 </r>
       <r>    -8.5392     0.0000    48.0000 </r>
       <r>    -8.3314     0.0000    48.0000 </r>
       <r>    -8.1236     0.0000    48.0000 </r>
       <r>    -7.9158     0.0000    48.0000 </r>
       <r>    -7.7081     0.0000    48.0000 </r>
       <r>    -7.5003     0.0000    48.0000 </r>
       <r>    -7.2925     0.0000    48.0000 </r>
       <r>    -7.0847     0.0000    48.0000 </r>
       <r>    -6.8769     0.0000    48.0000 </r>
       <r>    -6.6691     0.0000    48.0000 </r>
       <r>    -6.4614     0.0000    48.0000 </r>
       <r>    -6.2536     0.0000    48.0000 </r>
       <r>    -6.0458     0.0000    48.0000 </r>
       <r>    -5.8380     0.0000    48.0000 </r>
       <r>    -5.6302     0.0000    48.0000 </r>
       <r>    -5.4224     0.0000    48.0000 </r>
       <r>    -5.2147     0.0000    48.0000 </r>
       <r>    -5.0069     0.0000    48.0000 </r>
       <r>    -4.7991     0.0000    48.0000 </r>
       <r>    -4.5913     0.0000    48.0000 </r>
       <r>    -4.3835     0.0000    48.0000 </r>
       <r>    -4.1758     0.0000    48.0000 </r>
       <r>    -3.9680     0.0000    48.0000 </r>
       <r>    -3.7602     0.0000    48.0000 </r>
       <r>    -3.5524     0.0000    48.0000 </r>
       <r>    -3.3446     0.0000    48.0000 </r>
       <r>    -3.1368     0.0000    48.0000 </r>
       <r>    -2.9291     0.0000    48.0000 </r>
       <r>    -2.7213     0.0000    48.0000 </r>
       <r>    -2.5135     0.0000    48.0000 </r>
       <r>    -2.3057    -0.0000    48.0000 </r>
       <r>    -2.0979    -0.0000    48.0000 </r>
       <r>    -1.8901    -0.0000    48.0000 </r>
       <r>    -1.6824    -0.0000    48.0000 </r>
       <r>    -1.4746    -0.0000    48.0000 </r>
       <r>    -1.2668    -0.0000    48.0000 </r>
       <r>    -1.0590    -0.0003    47.9999 </r>
       <r>    -0.8512    -0.0095    47.9980 </r>
       <r>    -0.6434     0.0239    48.0029 </r>
       <r>    -0.4357     0.4222    48.0907 </r>
       <r>    -0.2279     1.1091    48.3211 </r>
       <r>    -0.0201     1.8531    48.7061 </r>
       <r>     0.1877     1.6660    49.0523 </r>
       <r>     0.3955     1.4415    49.3518 </r>
       <r>     0.6033     2.6296    49.8982 </r>
       <r>     0.8110     3.4611    50.6174 </r>
       <r>     1.0188     2.8719    51.2141 </r>
       <r>     1.2266     2.7956    51.7950 </r>
       <r>     1.4344     4.0009    52.6263 </r>
       <r>     1.6422     3.7197    53.3992 </r>
       <r>     1.8500     4.5091    54.3361 </r>
       <r>     2.0577     7.4456    55.8832 </r>
       <r>     2.2655     9.5975    57.8774 </r>
       <r>     2.4733    13.6240    60.7082 </r>
       <r>     2.6811    19.6858    64.7986 </r>
       <r>     2.8889    23.0309    69.5840 </r>
       <r>     3.0967    25.2227    74.8249 </r>
       <r>     3.3044    28.4037    80.7267 </r>
       <r>     3.5122    29.4145    86.8385 </r>
       <r>     3.7200    28.3494    92.7291 </r>
       <r>     3.9278    30.3542    99.0361 </r>
       <r>     4.1356    28.9862   105.0590 </r>
       <r>     4.3434    24.5077   110.1512 </r>
       <r>     4.5511    27.0923   115.7806 </r>
       <r>     4.7589    35.1455   123.0832 </r>
       <r>     4.9667    40.3224   131.4615 </r>
       <r>     5.1745    40.6758   139.9133 </r>
       <r>     5.3823    38.1842   147.8473 </r>
       <r>     5.5901    36.0632   155.3406 </r>
       <r>     5.7978    35.6805   162.7544 </r>
       <r>     6.0056    37.3842   170.5222 </r>
       <r>     6.2134    39.7899   178.7899 </r>
       <r>     6.4212    39.9521   187.0912 </r>
       <r>     6.6290    37.5537   194.8943 </r>
       <r>     6.8368    31.6556   201.4718 </r>
       <r>     7.0445    25.9897   206.8720 </r>
       <r>     7.2523    20.9059   211.2159 </r>
       <r>     7.4601    16.5042   214.6452 </r>
       <r>     7.6679    16.0439   217.9788 </r>
       <r>     7.8757    15.9393   221.2907 </r>
       <r>     8.0834    17.7828   224.9857 </r>
       <r>     8.2912    20.9345   229.3355 </r>
       <r>     8.4990    19.8774   233.4657 </r>
       <r>     8.7068    16.2410   236.8403 </r>
       <r>     8.9146    10.4204   239.0055 </r>
       <r>     9.1224     4.2787   239.8945 </r>
       <r>     9.3301     0.5943   240.0180 </r>
       <r>     9.5379    -0.0761   240.0022 </r>
       <r>     9.7457    -0.0104   240.0000 </r>
       <r>     9.9535    -0.0001   240.0000 </r>
       <r>    10.1613    -0.0000   240.0000 </r>
       <r>    10.3691    -0.0000   240.0000 </r>
       <r>    10.5768    -0.0000   240.0000 </r>
       <r>    10.7846     0.0000   240.0000 </r>
       <r>    10.9924     0.0000   240.0000 </r>
       <r>    11.2002     0.0000   240.0000 </r>
       <r>    11.4080     0.0000   240.0000 </r>
       <r>    11.6158     0.0000   240.0000 </r>
       <r>    11.8235     0.0000   240.0000 </r>
       <r>    12.0313     0.0000   240.0000 </r>
      </set>
     </set>
    </array>
   </total>
  </dos>
 </calculation>
 <structure name="finalpos" >
  <crystal>
   <varray name="basis" >
    <v>      -3.18252213      -3.14495738      -3.14694394 </v>
    <v>       1.58047546       1.69165173      -7.97569941 </v>
    <v>       7.88818092      -7.88424432      -1.48330545 </v>
   </varray>
   <i name="volume">    479.80509683 </i>
   <varray name="rec_basis" >
    <v>      -0.13628784      -0.12623758      -0.05378207 </v>
    <v>       0.04198860       0.06157566      -0.10400009 </v>
    <v>       0.06337317      -0.06326841      -0.00086116 </v>
   </varray>
  </crystal>
  <varray name="positions" >
   <v>       0.96714985       0.93058254       0.39179844 </v>
   <v>       0.62562256       0.25837828       0.39038840 </v>
   <v>       0.50409046       0.01138099       0.01061798 </v>
   <v>       0.00466774       0.00837478       0.00814495 </v>
   <v>       0.09432305       0.20464576       0.80050151 </v>
   <v>       0.03310947       0.06796479       0.59582078 </v>
   <v>       0.89959928       0.79549860       0.20336123 </v>
   <v>       0.80232119       0.59117513       0.39720800 </v>
   <v>       0.73924004       0.46277067       0.19751513 </v>
   <v>       0.65935644       0.33983717       0.00242861 </v>
   <v>       0.36610445       0.72662046       0.59956929 </v>
   <v>       0.12321439       0.27081935       0.40058279 </v>
   <v>       0.83308740       0.66816812       0.00432551 </v>
   <v>       0.92355751       0.87533047       0.80192249 </v>
   <v>       0.40044566       0.78732207       0.20014293 </v>
   <v>       0.43357109       0.86091815       0.79800821 </v>
   <v>       0.30062133       0.59679949       0.40096443 </v>
   <v>       0.85571527       0.73274188       0.59680180 </v>
   <v>       0.46797350       0.92720679       0.40441610 </v>
   <v>       0.15650526       0.34200620      -0.00131314 </v>
   <v>       0.26815818       0.53772624       0.79623936 </v>
   <v>       0.19646204       0.39306087       0.59408336 </v>
   <v>       0.11681774       0.14489937       0.20769858 </v>
   <v>       0.76794820       0.53030254       0.79879014 </v>
   <v>       0.68895632       0.40686989       0.60196648 </v>
   <v>       0.59424046       0.20434909       0.79884522 </v>
   <v>       0.53650835       0.06795127       0.59948608 </v>
   <v>       0.33401660       0.66169536       0.00071465 </v>
   <v>       0.23994950       0.46127034       0.19897069 </v>
  </varray>
 </structure>
</modeling>
