SQS with 1 vacancy for VFE and VRV      
           1
    -3.190000   -3.190000   -3.190000
     1.595000    1.595000   -7.975000
     7.975000   -7.975000   -1.595000
   Nb   Mo   Ta   Ti   W 
   6   6   5   6   6
Direct configuration=     1
   0.96666667  0.93333333  0.40000000
   0.63333333  0.26666667  0.40000000
   0.50000000  0.00000000  0.00000000
   0.00000000  0.00000000  0.00000000
   0.10000000  0.20000000  0.80000000
   0.03333333  0.06666667  0.60000000
   0.90000000  0.80000000  0.20000000
   0.80000000  0.60000000  0.40000000
   0.73333333  0.46666667  0.20000000
   0.66666667  0.33333333  0.00000000
   0.36666667  0.73333333  0.60000000
   0.13333333  0.26666667  0.40000000
   0.83333333  0.66666667  0.00000000
   0.93333333  0.86666667  0.80000000
   0.40000000  0.80000000  0.20000000
   0.43333333  0.86666667  0.80000000
   0.30000000  0.60000000  0.40000000
   0.86666667  0.73333333  0.60000000
   0.46666667  0.93333333  0.40000000
   0.16666667  0.33333333  0.00000000
   0.26666667  0.53333333  0.80000000
   0.20000000  0.40000000  0.60000000
   0.06666667  0.13333333  0.20000000
   0.76666667  0.53333333  0.80000000
   0.70000000  0.40000000  0.60000000
   0.60000000  0.20000000  0.80000000
   0.53333333  0.06666667  0.60000000
   0.33333333  0.66666667  0.00000000
   0.23333333  0.46666667  0.20000000
SQS with 1 vacancy for VFE and VRV      
           1
    -3.141069   -3.129270   -3.129417
     1.571030    1.600134   -7.859538
     7.836254   -7.829927   -1.541538
   Nb   Mo   Ta   Ti   W 
   6   6   5   6   6
Direct configuration=     2
   0.96708662  0.93309166  0.39782295
   0.63169111  0.26514270  0.39806443
   0.50162400  0.00376277  0.00262837
  -0.00016102  0.00136200  0.00133367
   0.09740150  0.20390825  0.80026368
   0.03560707  0.06748157  0.59729578
   0.90096583  0.79892093  0.20177102
   0.80246872  0.59632394  0.39857460
   0.73403161  0.46760338  0.19895865
   0.66459170  0.33603181  0.00068724
   0.36922234  0.73027249  0.60069718
   0.12923091  0.27097639  0.39961723
   0.83441769  0.66363702  0.00261853
   0.92873030  0.86943722  0.80004071
   0.40174813  0.79331280  0.19871014
   0.43767078  0.86068709  0.79688985
   0.30042302  0.60169042  0.40070261
   0.86242301  0.73369814  0.59923128
   0.46654987  0.93382412  0.40136492
   0.16466857  0.33510693  0.00046575
   0.26935005  0.53373306  0.79945522
   0.20170343  0.39673657  0.59814757
   0.06454375  0.13787371  0.20179252
   0.76758737  0.52954572  0.79919254
   0.69583908  0.40590857  0.60265221
   0.59810788  0.20158712  0.79878052
   0.53597931  0.06825291  0.60062288
   0.33463605  0.66162693  0.00159365
   0.23519465  0.46513045  0.20002430
SQS with 1 vacancy for VFE and VRV      
           1
    -3.160925   -3.153914   -3.154001
     1.580757    1.598051   -7.906392
     7.892556   -7.888797   -1.563233
   Nb   Mo   Ta   Ti   W 
   6   6   5   6   6
Direct configuration=     3
   0.96691549  0.93319300  0.39872245
   0.63237326  0.26577129  0.39886578
   0.50094554  0.00221329  0.00153908
  -0.00009767  0.00080092  0.00078167
   0.09846883  0.20230209  0.80015256
   0.03466930  0.06714875  0.59841169
   0.90056690  0.79936257  0.20103985
   0.80145571  0.59783580  0.39916554
   0.73374282  0.46721922  0.19938795
   0.66544416  0.33492239  0.00040189
   0.36817062  0.73152942  0.60041069
   0.13091935  0.26920614  0.39977335
   0.83397184  0.66487958  0.00153867
   0.93062731  0.86829931  0.80002321
   0.40103691  0.79606236  0.19924761
   0.43589082  0.86314702  0.79817803
   0.30024526  0.60099484  0.40041091
   0.86417578  0.73354978  0.59954992
   0.46659617  0.93362110  0.40080067
   0.16549081  0.33437787  0.00027259
   0.26824175  0.53356874  0.79967916
   0.20100627  0.39807939  0.59891486
   0.06541238  0.13600616  0.20104914
   0.76721328  0.53110315  0.79952875
   0.69754666  0.40347823  0.60155323
   0.59888814  0.20093631  0.79928372
   0.53488370  0.06759978  0.60036350
   0.33410382  0.66369665  0.00093868
   0.23442812  0.46576150  0.20001485
SQS with 1 vacancy for VFE and VRV      
           1
    -3.178972   -3.156856   -3.157567
     1.587924    1.643767   -7.957692
     7.914400   -7.904220   -1.533665
   Nb   Mo   Ta   Ti   W 
   6   6   5   6   6
Direct configuration=     4
   0.96670745  0.93316777  0.39554512
   0.62986356  0.26371827  0.39578140
   0.50298068  0.00710417  0.00537639
  -0.00009700  0.00290733  0.00273180
   0.09590726  0.20620705  0.80048499
   0.03738909  0.06846726  0.59523822
   0.90074149  0.79888605  0.20327991
   0.80435874  0.59379213  0.39764441
   0.73516843  0.46713180  0.19835146
   0.66254812  0.33734571  0.00195517
   0.37103347  0.72775944  0.60097702
   0.12628551  0.27404205  0.39920729
   0.83549590  0.66179706  0.00439650
   0.92595653  0.87131935  0.80019994
   0.40281138  0.78912430  0.19820212
   0.43984749  0.85670666  0.79493251
   0.30095042  0.60250584  0.40159214
   0.85929884  0.73393307  0.59830694
   0.46678006  0.93451987  0.40195089
   0.16300942  0.33639997  0.00102749
   0.27126853  0.53394495  0.79888268
   0.20256056  0.39457877  0.59650694
   0.06331336  0.14175475  0.20338241
   0.76899187  0.52690404  0.79861765
   0.69271928  0.41017242  0.60429153
   0.59622100  0.20294090  0.79801549
   0.53792228  0.06945759  0.60077011
   0.33541478  0.65784129  0.00232798
   0.23788483  0.46223683  0.20002349
SQS with 1 vacancy for VFE and VRV      
           1
    -3.178951   -3.156853   -3.157563
     1.587915    1.643712   -7.957630
     7.914373   -7.904202   -1.533701
   Nb   Mo   Ta   Ti   W 
   6   6   5   6   6
Direct configuration=     5
   0.96670770  0.93316781  0.39554892
   0.62986658  0.26372073  0.39578511
   0.50297820  0.00709833  0.00537178
  -0.00009701  0.00290481  0.00272946
   0.09591030  0.20620240  0.80048459
   0.03738584  0.06846570  0.59524202
   0.90074128  0.79888661  0.20327723
   0.80435529  0.59379695  0.39764624
   0.73516673  0.46713191  0.19835270
   0.66255157  0.33734282  0.00195330
   0.37103005  0.72776393  0.60097635
   0.12629104  0.27403629  0.39920796
   0.83549408  0.66180072  0.00439308
   0.92596211  0.87131576  0.80019973
   0.40280929  0.78913257  0.19820339
   0.43984279  0.85671434  0.79493641
   0.30094956  0.60250404  0.40159072
   0.85930469  0.73393262  0.59830844
   0.46677984  0.93451880  0.40194951
   0.16301238  0.33639756  0.00102658
   0.27126490  0.53394451  0.79888363
   0.20255872  0.39458295  0.59650984
   0.06331584  0.14174790  0.20337960
   0.76898976  0.52690904  0.79861875
   0.69272503  0.41016444  0.60428823
   0.59622419  0.20293852  0.79801700
   0.53791863  0.06945537  0.60076962
   0.33541324  0.65784826  0.00232633
   0.23788070  0.46224102  0.20002349
SQS with 1 vacancy for VFE and VRV      
           1
    -3.184201   -3.156835   -3.157151
     1.589176    1.655817   -7.967334
     7.917240   -7.903335   -1.524050
   Nb   Mo   Ta   Ti   W 
   6   6   5   6   6
Direct configuration=     6
   0.96653687  0.93294160  0.39437534
   0.62840061  0.26406106  0.39469556
   0.50383243  0.00760326  0.00644472
   0.00156067  0.00318573  0.00338614
   0.09640428  0.20484479  0.80042631
   0.03729173  0.06934120  0.59518699
   0.90050392  0.79849961  0.20348278
   0.80467570  0.59383969  0.39763278
   0.73610470  0.46551629  0.19876502
   0.66168782  0.33685318  0.00251253
   0.37046457  0.72760975  0.60026114
   0.12566444  0.27418214  0.39910690
   0.83507593  0.66339521  0.00415989
   0.92626024  0.87165964  0.80070085
   0.40218883  0.78919206  0.19859626
   0.43821357  0.85716633  0.79586900
   0.30182070  0.60167177  0.40172842
   0.85919459  0.73410174  0.59763400
   0.46695294  0.93457208  0.40174409
   0.16212005  0.33676881  0.00109063
   0.27094583  0.53399050  0.79872117
   0.20182444  0.39461084  0.59583319
   0.06411093  0.14318182  0.20413528
   0.77012059  0.52764801  0.79930566
   0.69254341  0.40945413  0.60352412
   0.59614013  0.20261086  0.79829757
   0.53832257  0.06962794  0.60038322
   0.33508390  0.65792795  0.00168515
   0.23928697  0.46060870  0.20031530
SQS with 1 vacancy for VFE and VRV      
           1
    -3.187974   -3.156822   -3.156856
     1.590082    1.664518   -7.974308
     7.919300   -7.902713   -1.517114
   Nb   Mo   Ta   Ti   W 
   6   6   5   6   6
Direct configuration=     7
   0.96641311  0.93277857  0.39353179
   0.62734718  0.26430430  0.39391236
   0.50444719  0.00796632  0.00721624
   0.00275201  0.00338798  0.00385860
   0.09675788  0.20387084  0.80038388
   0.03722483  0.06996927  0.59514785
   0.90033326  0.79822204  0.20363025
   0.80490586  0.59387040  0.39762320
   0.73677732  0.46435761  0.19906076
   0.66106743  0.33650207  0.00291398
   0.37005776  0.72749860  0.59974694
   0.12521444  0.27428660  0.39903420
   0.83477677  0.66453894  0.00399298
   0.92647503  0.87190671  0.80106122
   0.40174353  0.78923486  0.19887848
   0.43704446  0.85749085  0.79653903
   0.30244578  0.60107492  0.40182718
   0.85911516  0.73422264  0.59714937
   0.46707716  0.93461022  0.40159653
   0.16147950  0.33703503  0.00113663
   0.27071659  0.53402334  0.79860436
   0.20129657  0.39463030  0.59534675
   0.06468376  0.14421118  0.20467924
   0.77093393  0.52817879  0.79979994
   0.69241181  0.40894404  0.60297461
   0.59607967  0.20237593  0.79849902
   0.53861256  0.06975160  0.60010571
   0.33484696  0.65798468  0.00122433
   0.24029583  0.45943805  0.20052456
SQS with 1 vacancy for VFE and VRV      
           1
    -3.181433   -3.145680   -3.145365
     1.585490    1.668688   -7.953985
     7.894828   -7.874551   -1.503556
   Nb   Mo   Ta   Ti   W 
   6   6   5   6   6
Direct configuration=     8
   0.96639223  0.93255350  0.39268690
   0.62628450  0.26428715  0.39308481
   0.50526407  0.00845775  0.00832074
   0.00438613  0.00355933  0.00454899
   0.09697314  0.20306538  0.80044222
   0.03689889  0.07032424  0.59505025
   0.90032609  0.79743893  0.20361289
   0.80514216  0.59383669  0.39757413
   0.73712842  0.46371141  0.19906051
   0.66056174  0.33627728  0.00327437
   0.36975461  0.72749048  0.59934703
   0.12476741  0.27413753  0.39902948
   0.83419672  0.66559424  0.00410970
   0.92622200  0.87235913  0.80123645
   0.40123737  0.78888711  0.19922405
   0.43624242  0.85800813  0.79715911
   0.30289073  0.60051653  0.40161346
   0.85886072  0.73440036  0.59663397
   0.46715030  0.93453749  0.40140590
   0.16032220  0.33752511  0.00099289
   0.27077226  0.53410518  0.79836657
   0.20048323  0.39463728  0.59484374
   0.06623724  0.14548814  0.20543239
   0.77124253  0.52856586  0.80002287
   0.69232626  0.40845961  0.60261575
   0.59623136  0.20218170  0.79873508
   0.53887793  0.06972640  0.59984575
   0.33498580  0.65817074  0.00105152
   0.24117487  0.45836400  0.20067848
SQS with 1 vacancy for VFE and VRV      
           1
    -3.182604   -3.147676   -3.147423
     1.586312    1.667941   -7.957625
     7.899211   -7.879595   -1.505984
   Nb   Mo   Ta   Ti   W 
   6   6   5   6   6
Direct configuration=     9
   0.96639616  0.93259400  0.39283876
   0.62647553  0.26429038  0.39323359
   0.50511706  0.00836937  0.00812216
   0.00409245  0.00352842  0.00442482
   0.09693460  0.20320992  0.80043180
   0.03695739  0.07026055  0.59506777
   0.90032752  0.79757948  0.20361609
   0.80509972  0.59384274  0.39758294
   0.73706547  0.46382738  0.19906060
   0.66065255  0.33631760  0.00320966
   0.36980914  0.72749200  0.59941891
   0.12484774  0.27416430  0.39903037
   0.83430071  0.66540484  0.00408865
   0.92626734  0.87227792  0.80120492
   0.40132830  0.78894950  0.19916201
   0.43638630  0.85791525  0.79704766
   0.30281094  0.60061676  0.40165190
   0.85890648  0.73436854  0.59672658
   0.46713721  0.93455057  0.40144017
   0.16053003  0.33743722  0.00101873
   0.27076229  0.53409052  0.79840930
   0.20062941  0.39463613  0.59493418
   0.06595783  0.14525879  0.20529683
   0.77118699  0.52849635  0.79998275
   0.69234177  0.40854660  0.60268029
   0.59620411  0.20221652  0.79869267
   0.53883031  0.06973094  0.59989245
   0.33496085  0.65813736  0.00108255
   0.24101713  0.45855671  0.20065088
SQS with 1 vacancy for VFE and VRV      
           1
    -3.184431   -3.147127   -3.146438
     1.585705    1.672489   -7.958439
     7.897843   -7.877005   -1.500761
   Nb   Mo   Ta   Ti   W 
   6   6   5   6   6
Direct configuration=    10
   0.96636617  0.93252422  0.39247550
   0.62613312  0.26385943  0.39278408
   0.50562936  0.00883135  0.00905656
   0.00506115  0.00366920  0.00499317
   0.09691962  0.20311417  0.80056466
   0.03662507  0.07005596  0.59496241
   0.90036270  0.79689782  0.20344275
   0.80509227  0.59379750  0.39751519
   0.73694479  0.46401483  0.19877932
   0.66060208  0.33627633  0.00336226
   0.36972865  0.72763531  0.59937871
   0.12470850  0.27375572  0.39912261
   0.83396281  0.66565444  0.00442050
   0.92573338  0.87260431  0.80106808
   0.40108838  0.78857509  0.19937076
   0.43645965  0.85834763  0.79722399
   0.30278913  0.60037315  0.40131934
   0.85864020  0.73446175  0.59648264
   0.46713748  0.93440134  0.40125860
   0.15956828  0.33780871  0.00076950
   0.27104485  0.53423228  0.79814497
   0.20007562  0.39465395  0.59473892
   0.06784121  0.14590070  0.20579963
   0.77082756  0.52852194  0.79977727
   0.69229102  0.40838851  0.60270600
   0.59638107  0.20225122  0.79885414
   0.53878579  0.06955103  0.59977059
   0.33529966  0.65836259  0.00126878
   0.24123377  0.45814619  0.20058909
SQS with 1 vacancy for VFE and VRV      
           1
    -3.188141   -3.146013   -3.144438
     1.584471    1.681723   -7.960090
     7.895067   -7.871745   -1.490157
   Nb   Mo   Ta   Ti   W 
   6   6   5   6   6
Direct configuration=    11
   0.96630493  0.93238228  0.39173782
   0.62543731  0.26298436  0.39187093
   0.50667045  0.00976985  0.01095440
   0.00702806  0.00395568  0.00614765
   0.09688923  0.20291998  0.80083435
   0.03595023  0.06964058  0.59474824
   0.90043334  0.79551432  0.20309032
   0.80507703  0.59370562  0.39737758
   0.73669978  0.46439494  0.19820825
   0.66049971  0.33619271  0.00367208
   0.36956538  0.72792608  0.59929715
   0.12442559  0.27292659  0.39930958
   0.83327744  0.66616116  0.00509440
   0.92464971  0.87326641  0.80079025
   0.40060122  0.78781537  0.19979433
   0.43660909  0.85922528  0.79758235
   0.30274435  0.59987848  0.40064386
   0.85809958  0.73465060  0.59598726
   0.46713773  0.93409833  0.40088982
   0.15761625  0.33856208  0.00026336
   0.27161831  0.53451982  0.79760841
   0.19895136  0.39468977  0.59434228
   0.07166512  0.14720439  0.20682161
   0.77009783  0.52857360  0.79935995
   0.69218787  0.40806769  0.60275808
   0.59674045  0.20232184  0.79918208
   0.53869517  0.06918579  0.59952300
   0.33598773  0.65881994  0.00164718
   0.24167308  0.45731309  0.20046342
SQS with 1 vacancy for VFE and VRV      
           1
    -3.191204   -3.149347   -3.147962
     1.585008    1.683365   -7.967873
     7.900859   -7.879162   -1.490936
   Nb   Mo   Ta   Ti   W 
   6   6   5   6   6
Direct configuration=    12
   0.96623616  0.93209380  0.39171739
   0.62566940  0.26259250  0.39184985
   0.50681067  0.01021590  0.01150561
   0.00705839  0.00406693  0.00631550
   0.09685615  0.20330546  0.80086066
   0.03586050  0.06924384  0.59488256
   0.90045980  0.79532698  0.20319890
   0.80474408  0.59341708  0.39723947
   0.73687460  0.46426221  0.19830910
   0.66055118  0.33650346  0.00353527
   0.36946233  0.72789680  0.59934621
   0.12420417  0.27274521  0.39953812
   0.83382648  0.66597003  0.00480315
   0.92515253  0.87323901  0.80093256
   0.40071134  0.78788348  0.19978058
   0.43644658  0.85931876  0.79746964
   0.30242736  0.59969250  0.40083862
   0.85789553  0.73457026  0.59591583
   0.46704138  0.93373546  0.40088344
   0.15718209  0.33888284 -0.00000704
   0.27155811  0.53489013  0.79752177
   0.19897039  0.39453122  0.59433125
   0.07420550  0.14718989  0.20684615
   0.76994515  0.52866686  0.79922537
   0.69165703  0.40816409  0.60276709
   0.59657243  0.20252424  0.79922070
   0.53823363  0.06910483  0.59958205
   0.33556854  0.65897363  0.00152857
   0.24115183  0.45765925  0.20006167
SQS with 1 vacancy for VFE and VRV      
           1
    -3.192436   -3.150689   -3.149380
     1.585224    1.684026   -7.971004
     7.903189   -7.882147   -1.491249
   Nb   Mo   Ta   Ti   W 
   6   6   5   6   6
Direct configuration=    13
   0.96620854  0.93197783  0.39170917
   0.62576272  0.26243496  0.39184136
   0.50686697  0.01039525  0.01172723
   0.00707056  0.00411166  0.00638298
   0.09684283  0.20346043  0.80087124
   0.03582444  0.06908436  0.59493656
   0.90047043  0.79525168  0.20324255
   0.80461027  0.59330108  0.39718394
   0.73694487  0.46420886  0.19834964
   0.66057187  0.33662838  0.00348027
   0.36942090  0.72788503  0.59936594
   0.12411516  0.27267231  0.39963001
   0.83404721  0.66589317  0.00468604
   0.92535465  0.87322799  0.80098977
   0.40075561  0.78791085  0.19977505
   0.43638126  0.85935633  0.79742432
   0.30229993  0.59961775  0.40091692
   0.85781352  0.73453796  0.59588711
   0.46700267  0.93358958  0.40088087
   0.15700758  0.33901178 -0.00011574
   0.27153390  0.53503899  0.79748695
   0.19897805  0.39446748  0.59432680
   0.07522667  0.14718403  0.20685599
   0.76988377  0.52870435  0.79917126
   0.69144364  0.40820286  0.60277073
   0.59650488  0.20260561  0.79923623
   0.53804810  0.06907230  0.59960579
   0.33540004  0.65903541  0.00148089
   0.24094231  0.45779840  0.19990015
SQS with 1 vacancy for VFE and VRV      
           1
    -3.191804   -3.150334   -3.149106
     1.584367    1.683811   -7.969734
     7.900484   -7.880631   -1.490593
   Nb   Mo   Ta   Ti   W 
   6   6   5   6   6
Direct configuration=    14
   0.96618913  0.93181883  0.39172406
   0.62584749  0.26224767  0.39186269
   0.50689687  0.01060943  0.01194876
   0.00706299  0.00417836  0.00644033
   0.09680119  0.20365508  0.80086903
   0.03575419  0.06889435  0.59502574
   0.90050326  0.79516066  0.20329961
   0.80442981  0.59313894  0.39712500
   0.73702222  0.46414178  0.19838715
   0.66058189  0.33682024  0.00338859
   0.36934909  0.72784873  0.59938283
   0.12401450  0.27261440  0.39974000
   0.83425503  0.66580675  0.00453839
   0.92557629  0.87323636  0.80107453
   0.40084356  0.78791262  0.19975715
   0.43634811  0.85939110  0.79737646
   0.30214752  0.59951240  0.40100929
   0.85770571  0.73447809  0.59587080
   0.46693201  0.93338094  0.40090965
   0.15684275  0.33917508 -0.00025107
   0.27145688  0.53523793  0.79745250
   0.19898222  0.39437145  0.59433054
   0.07661544  0.14713074  0.20684590
   0.76982285  0.52876522  0.79910593
   0.69118761  0.40825095  0.60277545
   0.59643121  0.20270489  0.79924115
   0.53784183  0.06903829  0.59964641
   0.33523099  0.65911831  0.00141109
   0.24066068  0.45802709  0.19971204
SQS with 1 vacancy for VFE and VRV      
           1
    -3.189907   -3.149270   -3.148283
     1.581796    1.683165   -7.965922
     7.892370   -7.876085   -1.488623
   Nb   Mo   Ta   Ti   W 
   6   6   5   6   6
Direct configuration=    15
   0.96613095  0.93134176  0.39176875
   0.62610187  0.26168567  0.39192667
   0.50698646  0.01125217  0.01261357
   0.00704023  0.00437850  0.00661244
   0.09667620  0.20423912  0.80086243
   0.03554340  0.06832426  0.59529334
   0.90060176  0.79488756  0.20347083
   0.80388843  0.59265244  0.39694813
   0.73725429  0.46394051  0.19849969
   0.66061196  0.33739590  0.00311351
   0.36913362  0.72773982  0.59943353
   0.12371247  0.27244066  0.40007006
   0.83487866  0.66554742  0.00409533
   0.92624126  0.87326149  0.80132888
   0.40110747  0.78791791  0.19970342
   0.43624865  0.85949541  0.79723282
   0.30169022  0.59919631  0.40128646
   0.85738227  0.73429846  0.59582185
   0.46672000  0.93275489  0.40099599
   0.15634820  0.33966504 -0.00065714
   0.27122576  0.53583484  0.79734914
   0.19899478  0.39408330  0.59434174
   0.08078240  0.14697077  0.20681555
   0.76964007  0.52894783  0.79890988
   0.69041938  0.40839529  0.60278966
   0.59621016  0.20300280  0.79925594
   0.53722290  0.06893625  0.59976830
   0.33472380  0.65936702  0.00120164
   0.23981569  0.45871324  0.19914758
SQS with 1 vacancy for VFE and VRV      
           1
    -3.189200   -3.148665   -3.147688
     1.581314    1.683131   -7.964572
     7.889706   -7.873978   -1.488010
   Nb   Mo   Ta   Ti   W 
   6   6   5   6   6
Direct configuration=    16
   0.96613933  0.93136229  0.39180170
   0.62596931  0.26164103  0.39193815
   0.50690383  0.01126237  0.01254709
   0.00705846  0.00446393  0.00661105
   0.09663096  0.20419170  0.80083857
   0.03542894  0.06835596  0.59533221
   0.90062266  0.79487324  0.20343416
   0.80385353  0.59263691  0.39699489
   0.73722414  0.46392998  0.19841523
   0.66055617  0.33742366  0.00309807
   0.36902023  0.72771679  0.59941295
   0.12375783  0.27243187  0.40006307
   0.83460437  0.66568965  0.00411488
   0.92600772  0.87334776  0.80134563
   0.40114783  0.78781684  0.19971527
   0.43637535  0.85956608  0.79730569
   0.30168108  0.59912550  0.40121137
   0.85736838  0.73424699  0.59586024
   0.46668409  0.93268508  0.40106584
   0.15645591  0.33968213 -0.00067453
   0.27109128  0.53585089  0.79732778
   0.19889936  0.39404188  0.59437340
   0.08136535  0.14688781  0.20680116
   0.76966012  0.52900755  0.79889562
   0.69049746  0.40831334  0.60276462
   0.59624550  0.20300273  0.79925319
   0.53730230  0.06892315  0.59976125
   0.33491203  0.65944601  0.00118384
   0.23986982  0.45874354  0.19920761
SQS with 1 vacancy for VFE and VRV      
           1
    -3.187078   -3.146851   -3.145901
     1.579867    1.683030   -7.960520
     7.881715   -7.867658   -1.486171
   Nb   Mo   Ta   Ti   W 
   6   6   5   6   6
Direct configuration=    17
   0.96616446  0.93142390  0.39190060
   0.62557153  0.26150709  0.39197258
   0.50665591  0.01129298  0.01234760
   0.00711314  0.00472026  0.00660688
   0.09649521  0.20404942  0.80076699
   0.03508548  0.06845106  0.59544887
   0.90068538  0.79483027  0.20332410
   0.80374877  0.59259034  0.39713521
   0.73713368  0.46389836  0.19816177
   0.66038876  0.33750694  0.00305175
   0.36867998  0.72764769  0.59935117
   0.12389395  0.27240548  0.40004208
   0.83378132  0.66611642  0.00417356
   0.92530696  0.87360659  0.80139592
   0.40126890  0.78751358  0.19975080
   0.43675550  0.85977813  0.79752436
   0.30165367  0.59891303  0.40098600
   0.85732669  0.73409259  0.59597545
   0.46657631  0.93247562  0.40127543
   0.15677911  0.33973340 -0.00072671
   0.27068776  0.53589904  0.79726368
   0.19861304  0.39391762  0.59446839
   0.08311457  0.14663887  0.20675796
   0.76972032  0.52918675  0.79885285
   0.69073176  0.40806744  0.60268946
   0.59635153  0.20300251  0.79924495
   0.53754056  0.06888383  0.59974009
   0.33547685  0.65968300  0.00113044
   0.24003221  0.45883446  0.19938777
SQS with 1 vacancy for VFE and VRV      
           1
    -3.187501   -3.147307   -3.146345
     1.579956    1.683607   -7.961854
     7.882131   -7.868506   -1.486035
   Nb   Mo   Ta   Ti   W 
   6   6   5   6   6
Direct configuration=    18
   0.96616415  0.93144280  0.39192556
   0.62547766  0.26145436  0.39196816
   0.50657077  0.01130130  0.01228920
   0.00710949  0.00480785  0.00661126
   0.09646381  0.20400869  0.80075036
   0.03500658  0.06847300  0.59548020
   0.90068858  0.79483910  0.20329706
   0.80370990  0.59258027  0.39717500
   0.73713062  0.46386521  0.19809907
   0.66034906  0.33753146  0.00304000
   0.36857039  0.72762780  0.59933716
   0.12391320  0.27238087  0.40003677
   0.83361392  0.66623946  0.00419071
   0.92517571  0.87367184  0.80141073
   0.40129346  0.78744669  0.19976373
   0.43679158  0.85984938  0.79758356
   0.30163155  0.59883898  0.40093520
   0.85731194  0.73404212  0.59601126
   0.46655025  0.93240172  0.40134594
   0.15687391  0.33976562 -0.00074358
   0.27057228  0.53592485  0.79724074
   0.19853527  0.39389321  0.59449039
   0.08372398  0.14654553  0.20674819
   0.76972343  0.52923972  0.79884254
   0.69077870  0.40799362  0.60265993
   0.59635123  0.20302177  0.79924529
   0.53759213  0.06886221  0.59973115
   0.33557393  0.65976094  0.00110650
   0.24008583  0.45885630  0.19942790
SQS with 1 vacancy for VFE and VRV      
           1
    -3.188769   -3.148675   -3.147676
     1.580222    1.685336   -7.965855
     7.883380   -7.871052   -1.485626
   Nb   Mo   Ta   Ti   W 
   6   6   5   6   6
Direct configuration=    19
   0.96616322  0.93149949  0.39200044
   0.62519609  0.26129622  0.39195487
   0.50631541  0.01132625  0.01211402
   0.00709856  0.00507058  0.00662441
   0.09636963  0.20388650  0.80070046
   0.03476991  0.06853881  0.59557422
   0.90069817  0.79486559  0.20321596
   0.80359329  0.59255006  0.39729438
   0.73712142  0.46376575  0.19791098
   0.66022996  0.33760498  0.00300475
   0.36824168  0.72756812  0.59929515
   0.12397093  0.27230705  0.40002083
   0.83311179  0.66660850  0.00424217
   0.92478203  0.87386754  0.80145514
   0.40136713  0.78724607  0.19980253
   0.43689980  0.86006311  0.79776115
   0.30156521  0.59861687  0.40078280
   0.85726770  0.73389077  0.59611870
   0.46647208  0.93218008  0.40155743
   0.15715828  0.33986228 -0.00079418
   0.27022588  0.53600225  0.79717194
   0.19830200  0.39381999  0.59455638
   0.08555195  0.14626557  0.20671888
   0.76973279  0.52939860  0.79881161
   0.69091949  0.40777220  0.60257135
   0.59635033  0.20307951  0.79924631
   0.53774683  0.06879736  0.59970434
   0.33586511  0.65999473  0.00103470
   0.24024665  0.45892183  0.19954828
SQS with 1 vacancy for VFE and VRV      
           1
    -3.189239   -3.149026   -3.148037
     1.580343    1.685504   -7.966634
     7.884591   -7.872074   -1.485702
   Nb   Mo   Ta   Ti   W 
   6   6   5   6   6
Direct configuration=    20
   0.96615739  0.93148188  0.39198938
   0.62525720  0.26126532  0.39192537
   0.50628563  0.01132896  0.01211139
   0.00705341  0.00510377  0.00663965
   0.09637030  0.20390705  0.80070824
   0.03481228  0.06852160  0.59556629
   0.90068398  0.79488656  0.20323300
   0.80357819  0.59252522  0.39728001
   0.73718078  0.46371679  0.19793726
   0.66025168  0.33764258  0.00299378
   0.36822634  0.72754954  0.59931398
   0.12389899  0.27228836  0.40002666
   0.83327800  0.66659569  0.00423995
   0.92491387  0.87386797  0.80146391
   0.40136180  0.78727253  0.19979219
   0.43675756  0.86005684  0.79773111
   0.30154466  0.59859754  0.40083220
   0.85724689  0.73387105  0.59613001
   0.46647583  0.93212092  0.40159494
   0.15714014  0.33991975 -0.00080139
   0.27024115  0.53604333  0.79715784
   0.19830922  0.39382942  0.59454022
   0.08586492  0.14623819  0.20673028
   0.76968089  0.52939576  0.79881395
   0.69084662  0.40778328  0.60256309
   0.59628027  0.20312644  0.79924113
   0.53769459  0.06878323  0.59971379
   0.33571280  0.66000485  0.00102232
   0.24022796  0.45894226  0.19950945
SQS with 1 vacancy for VFE and VRV      
           1
    -3.190649   -3.150079   -3.149120
     1.580705    1.686005   -7.968970
     7.888225   -7.875140   -1.485927
   Nb   Mo   Ta   Ti   W 
   6   6   5   6   6
Direct configuration=    21
   0.96613989  0.93142905  0.39195618
   0.62544050  0.26117263  0.39183687
   0.50619631  0.01133710  0.01210351
   0.00691799  0.00520331  0.00668539
   0.09637228  0.20396870  0.80073158
   0.03493936  0.06846996  0.59554252
   0.90064143  0.79494946  0.20328410
   0.80353288  0.59245071  0.39723692
   0.73735886  0.46356992  0.19801608
   0.66031683  0.33775534  0.00296088
   0.36818033  0.72749381  0.59937044
   0.12368321  0.27223231  0.40004416
   0.83377655  0.66655724  0.00423328
   0.92530934  0.87386927  0.80149024
   0.40134581  0.78735191  0.19976119
   0.43633088  0.86003804  0.79764101
   0.30148301  0.59853954  0.40098038
   0.85718447  0.73381192  0.59616393
   0.46648709  0.93194345  0.40170747
   0.15708571  0.34009214 -0.00082300
   0.27028694  0.53616656  0.79711554
   0.19833089  0.39385769  0.59449172
   0.08680371  0.14615607  0.20676446
   0.76952519  0.52938724  0.79882099
   0.69062803  0.40781650  0.60253830
   0.59607014  0.20326723  0.79922561
   0.53753788  0.06874085  0.59974213
   0.33525592  0.66003521  0.00098517
   0.24017189  0.45900354  0.19939296
SQS with 1 vacancy for VFE and VRV      
           1
    -3.190074   -3.149410   -3.148493
     1.580338    1.685791   -7.967444
     7.887054   -7.873894   -1.485460
   Nb   Mo   Ta   Ti   W 
   6   6   5   6   6
Direct configuration=    22
   0.96614517  0.93139070  0.39194318
   0.62549391  0.26111735  0.39179835
   0.50613978  0.01134380  0.01208371
   0.00684669  0.00526627  0.00671278
   0.09634532  0.20401600  0.80074158
   0.03495941  0.06845061  0.59553309
   0.90062913  0.79496708  0.20330396
   0.80350099  0.59240736  0.39721686
   0.73742908  0.46352908  0.19803157
   0.66034298  0.33782362  0.00293652
   0.36815351  0.72746365  0.59939590
   0.12361132  0.27220667  0.40005155
   0.83389597  0.66656368  0.00423977
   0.92540648  0.87388056  0.80150192
   0.40134042  0.78735510  0.19975715
   0.43620797  0.86001865  0.79761227
   0.30145559  0.59852072  0.40100983
   0.85714845  0.73378165  0.59618151
   0.46649985  0.93183335  0.40177547
   0.15706009  0.34018126 -0.00083544
   0.27027883  0.53623113  0.79709794
   0.19831594  0.39385389  0.59447221
   0.08737830  0.14611167  0.20678519
   0.76945733  0.52938436  0.79882629
   0.69053897  0.40782726  0.60253405
   0.59599089  0.20332182  0.79921287
   0.53748865  0.06872185  0.59975369
   0.33513561  0.66005072  0.00097616
   0.24013668  0.45904680  0.19935005
SQS with 1 vacancy for VFE and VRV      
           1
    -3.188347   -3.147404   -3.146613
     1.579237    1.685146   -7.962866
     7.883542   -7.870158   -1.484060
   Nb   Mo   Ta   Ti   W 
   6   6   5   6   6
Direct configuration=    23
   0.96616102  0.93127563  0.39190417
   0.62565417  0.26095150  0.39168278
   0.50597017  0.01136393  0.01202432
   0.00663275  0.00545520  0.00679498