  29  29   0   0
  0.1679057E+02  0.5525242E-09  0.8287863E-09  0.1139058E-08  0.5000000E-15
  1.000000000000000E-004
  CAR 
 SQS with 1 vacancy for VFE and VRV      
     12.04290593    -50.42500864  301      6.72790755      1.00000000
    -50.425  0.0000E+00  0.0000E+00
    -50.217  0.0000E+00  0.0000E+00
    -50.009  0.0000E+00  0.0000E+00
    -49.800  0.0000E+00  0.0000E+00
    -49.592  0.0000E+00  0.0000E+00
    -49.384 -0.3502E-35 -0.7291E-36
    -49.176 -0.1429E-27 -0.2975E-28
    -48.967 -0.6555E-21 -0.1365E-21
    -48.759 -0.3257E-15 -0.6781E-16
    -48.551 -0.1832E-10 -0.3815E-11
    -48.343 -0.1106E-06 -0.2304E-07
    -48.135 -0.6807E-04 -0.1420E-04
    -47.926 -0.3471E-02 -0.7369E-03
    -47.718  0.9313E-02  0.1202E-02
    -47.510  0.1314E+00  0.2856E-01
    -47.302  0.3621E+00  0.1040E+00
    -47.093  0.5005E+00  0.2082E+00
    -46.885  0.1669E+00  0.2430E+00
    -46.677 -0.1214E-01  0.2404E+00
    -46.469 -0.2014E-02  0.2400E+00
    -46.260 -0.1600E-04  0.2400E+00
    -46.052 -0.1265E-07  0.2400E+00
    -45.844 -0.1089E-11  0.2400E+00
    -45.636  0.0000E+00  0.2400E+00
    -45.428  0.0000E+00  0.2400E+00
    -45.219  0.0000E+00  0.2400E+00
    -45.011  0.0000E+00  0.2400E+00
    -44.803  0.0000E+00  0.2400E+00
    -44.595  0.0000E+00  0.2400E+00
    -44.386  0.0000E+00  0.2400E+00
    -44.178  0.0000E+00  0.2400E+00
    -43.970  0.0000E+00  0.2400E+00
    -43.762  0.0000E+00  0.2400E+00
    -43.554  0.0000E+00  0.2400E+00
    -43.345  0.0000E+00  0.2400E+00
    -43.137  0.0000E+00  0.2400E+00
    -42.929  0.0000E+00  0.2400E+00
    -42.721  0.0000E+00  0.2400E+00
    -42.512  0.0000E+00  0.2400E+00
    -42.304  0.0000E+00  0.2400E+00
    -42.096  0.0000E+00  0.2400E+00
    -41.888  0.0000E+00  0.2400E+00
    -41.680  0.0000E+00  0.2400E+00
    -41.471  0.0000E+00  0.2400E+00
    -41.263  0.0000E+00  0.2400E+00
    -41.055  0.0000E+00  0.2400E+00
    -40.847  0.0000E+00  0.2400E+00
    -40.638  0.0000E+00  0.2400E+00
    -40.430  0.0000E+00  0.2400E+00
    -40.222  0.0000E+00  0.2400E+00
    -40.014  0.0000E+00  0.2400E+00
    -39.805  0.0000E+00  0.2400E+00
    -39.597  0.0000E+00  0.2400E+00
    -39.389  0.0000E+00  0.2400E+00
    -39.181  0.0000E+00  0.2400E+00
    -38.973  0.0000E+00  0.2400E+00
    -38.764  0.0000E+00  0.2400E+00
    -38.556  0.0000E+00  0.2400E+00
    -38.348  0.0000E+00  0.2400E+00
    -38.140  0.0000E+00  0.2400E+00
    -37.931  0.0000E+00  0.2400E+00
    -37.723  0.0000E+00  0.2400E+00
    -37.515  0.0000E+00  0.2400E+00
    -37.307  0.0000E+00  0.2400E+00
    -37.099  0.0000E+00  0.2400E+00
    -36.890  0.0000E+00  0.2400E+00
    -36.682  0.0000E+00  0.2400E+00
    -36.474  0.0000E+00  0.2400E+00
    -36.266  0.0000E+00  0.2400E+00
    -36.057  0.0000E+00  0.2400E+00
    -35.849  0.0000E+00  0.2400E+00
    -35.641  0.0000E+00  0.2400E+00
    -35.433  0.0000E+00  0.2400E+00
    -35.224  0.0000E+00  0.2400E+00
    -35.016  0.0000E+00  0.2400E+00
    -34.808  0.0000E+00  0.2400E+00
    -34.600  0.0000E+00  0.2400E+00
    -34.392  0.0000E+00  0.2400E+00
    -34.183  0.0000E+00  0.2400E+00
    -33.975  0.0000E+00  0.2400E+00
    -33.767  0.0000E+00  0.2400E+00
    -33.559  0.0000E+00  0.2400E+00
    -33.350  0.0000E+00  0.2400E+00
    -33.142  0.0000E+00  0.2400E+00
    -32.934  0.0000E+00  0.2400E+00
    -32.726  0.0000E+00  0.2400E+00
    -32.518  0.0000E+00  0.2400E+00
    -32.309  0.0000E+00  0.2400E+00
    -32.101  0.0000E+00  0.2400E+00
    -31.893  0.0000E+00  0.2400E+00
    -31.685  0.0000E+00  0.2400E+00
    -31.476  0.0000E+00  0.2400E+00
    -31.268  0.0000E+00  0.2400E+00
    -31.060  0.0000E+00  0.2400E+00
    -30.852  0.0000E+00  0.2400E+00
    -30.644  0.0000E+00  0.2400E+00
    -30.435  0.0000E+00  0.2400E+00
    -30.227  0.0000E+00  0.2400E+00
    -30.019  0.0000E+00  0.2400E+00
    -29.811  0.0000E+00  0.2400E+00
    -29.602  0.0000E+00  0.2400E+00
    -29.394  0.0000E+00  0.2400E+00
    -29.186  0.0000E+00  0.2400E+00
    -28.978  0.0000E+00  0.2400E+00
    -28.769  0.0000E+00  0.2400E+00
    -28.561  0.0000E+00  0.2400E+00
    -28.353  0.0000E+00  0.2400E+00
    -28.145  0.0000E+00  0.2400E+00
    -27.937  0.0000E+00  0.2400E+00
    -27.728  0.0000E+00  0.2400E+00
    -27.520  0.0000E+00  0.2400E+00
    -27.312  0.0000E+00  0.2400E+00
    -27.104  0.0000E+00  0.2400E+00
    -26.895  0.0000E+00  0.2400E+00
    -26.687  0.0000E+00  0.2400E+00
    -26.479  0.0000E+00  0.2400E+00
    -26.271  0.0000E+00  0.2400E+00
    -26.063  0.0000E+00  0.2400E+00
    -25.854 -0.6546E-36  0.2400E+00
    -25.646 -0.2694E-28  0.2400E+00
    -25.438 -0.1248E-21  0.2400E+00
    -25.230 -0.6268E-16  0.2400E+00
    -25.021 -0.3606E-11  0.2400E+00
    -24.813 -0.2289E-07  0.2400E+00
    -24.605 -0.1632E-04  0.2400E+00
    -24.397 -0.1363E-02  0.2397E+00
    -24.188 -0.9820E-02  0.2377E+00
    -23.980  0.1054E+00  0.2596E+00
    -23.772  0.4644E+00  0.3563E+00
    -23.564  0.6125E+00  0.4838E+00
    -23.356  0.1045E+01  0.7014E+00
    -23.147  0.8054E+00  0.8691E+00
    -22.939  0.3144E+00  0.9345E+00
    -22.731  0.1053E+00  0.9565E+00
    -22.523  0.1982E-01  0.9606E+00
    -22.314 -0.2570E-02  0.9601E+00
    -22.106 -0.2795E-03  0.9600E+00
    -21.898 -0.2022E-05  0.9600E+00
    -21.690 -0.1456E-08  0.9600E+00
    -21.482 -0.1114E-12  0.9600E+00
    -21.273  0.0000E+00  0.9600E+00
    -21.065  0.0000E+00  0.9600E+00
    -20.857  0.0000E+00  0.9600E+00
    -20.649  0.0000E+00  0.9600E+00
    -20.440  0.0000E+00  0.9600E+00
    -20.232  0.0000E+00  0.9600E+00
    -20.024  0.0000E+00  0.9600E+00
    -19.816  0.0000E+00  0.9600E+00
    -19.608  0.0000E+00  0.9600E+00
    -19.399  0.0000E+00  0.9600E+00
    -19.191  0.0000E+00  0.9600E+00
    -18.983  0.0000E+00  0.9600E+00
    -18.775  0.0000E+00  0.9600E+00
    -18.566  0.0000E+00  0.9600E+00
    -18.358  0.0000E+00  0.9600E+00
    -18.150  0.0000E+00  0.9600E+00
    -17.942  0.0000E+00  0.9600E+00
    -17.733  0.0000E+00  0.9600E+00
    -17.525  0.0000E+00  0.9600E+00
    -17.317  0.0000E+00  0.9600E+00
    -17.109  0.0000E+00  0.9600E+00
    -16.901  0.0000E+00  0.9600E+00
    -16.692  0.0000E+00  0.9600E+00
    -16.484  0.0000E+00  0.9600E+00
    -16.276  0.0000E+00  0.9600E+00
    -16.068  0.0000E+00  0.9600E+00
    -15.859  0.0000E+00  0.9600E+00
    -15.651  0.0000E+00  0.9600E+00
    -15.443  0.0000E+00  0.9600E+00
    -15.235  0.0000E+00  0.9600E+00
    -15.027  0.0000E+00  0.9600E+00
    -14.818  0.0000E+00  0.9600E+00
    -14.610  0.0000E+00  0.9600E+00
    -14.402  0.0000E+00  0.9600E+00
    -14.194  0.0000E+00  0.9600E+00
    -13.985  0.0000E+00  0.9600E+00
    -13.777  0.0000E+00  0.9600E+00
    -13.569  0.0000E+00  0.9600E+00
    -13.361  0.0000E+00  0.9600E+00
    -13.152  0.0000E+00  0.9600E+00
    -12.944  0.0000E+00  0.9600E+00
    -12.736  0.0000E+00  0.9600E+00
    -12.528  0.0000E+00  0.9600E+00
    -12.320  0.0000E+00  0.9600E+00
    -12.111  0.0000E+00  0.9600E+00
    -11.903  0.0000E+00  0.9600E+00
    -11.695  0.0000E+00  0.9600E+00
    -11.487  0.0000E+00  0.9600E+00
    -11.278  0.0000E+00  0.9600E+00
    -11.070  0.0000E+00  0.9600E+00
    -10.862  0.0000E+00  0.9600E+00
    -10.654  0.0000E+00  0.9600E+00
    -10.446  0.0000E+00  0.9600E+00
    -10.237  0.0000E+00  0.9600E+00
    -10.029  0.0000E+00  0.9600E+00
     -9.821  0.0000E+00  0.9600E+00
     -9.613  0.0000E+00  0.9600E+00
     -9.404  0.0000E+00  0.9600E+00
     -9.196  0.0000E+00  0.9600E+00
     -8.988  0.0000E+00  0.9600E+00
     -8.780  0.0000E+00  0.9600E+00
     -8.572  0.0000E+00  0.9600E+00
     -8.363  0.0000E+00  0.9600E+00
     -8.155  0.0000E+00  0.9600E+00
     -7.947  0.0000E+00  0.9600E+00
     -7.739  0.0000E+00  0.9600E+00
     -7.530  0.0000E+00  0.9600E+00
     -7.322  0.0000E+00  0.9600E+00
     -7.114  0.0000E+00  0.9600E+00
     -6.906  0.0000E+00  0.9600E+00
     -6.697  0.0000E+00  0.9600E+00
     -6.489  0.0000E+00  0.9600E+00
     -6.281  0.0000E+00  0.9600E+00
     -6.073  0.0000E+00  0.9600E+00
     -5.865  0.0000E+00  0.9600E+00
     -5.656  0.0000E+00  0.9600E+00
     -5.448  0.0000E+00  0.9600E+00
     -5.240  0.0000E+00  0.9600E+00
     -5.032  0.0000E+00  0.9600E+00
     -4.823  0.0000E+00  0.9600E+00
     -4.615  0.0000E+00  0.9600E+00
     -4.407  0.0000E+00  0.9600E+00
     -4.199  0.0000E+00  0.9600E+00
     -3.991  0.0000E+00  0.9600E+00
     -3.782  0.0000E+00  0.9600E+00
     -3.574  0.0000E+00  0.9600E+00
     -3.366  0.0000E+00  0.9600E+00
     -3.158  0.0000E+00  0.9600E+00
     -2.949  0.0000E+00  0.9600E+00
     -2.741  0.0000E+00  0.9600E+00
     -2.533  0.0000E+00  0.9600E+00
     -2.325 -0.1317E-36  0.9600E+00
     -2.116 -0.4530E-29  0.9600E+00
     -1.908 -0.1751E-22  0.9600E+00
     -1.700 -0.7387E-17  0.9600E+00
     -1.492 -0.3611E-12  0.9600E+00
     -1.284 -0.1971E-08  0.9600E+00
     -1.075 -0.1196E-05  0.9600E+00
     -0.867 -0.7578E-04  0.9600E+00
     -0.659 -0.1761E-03  0.9599E+00
     -0.451  0.4363E-02  0.9609E+00
     -0.242  0.1606E-01  0.9642E+00
     -0.034  0.2999E-01  0.9704E+00
      0.174  0.4010E-01  0.9788E+00
      0.382  0.3198E-01  0.9855E+00
      0.590  0.4839E-01  0.9955E+00
      0.799  0.6310E-01  0.1009E+01
      1.007  0.5838E-01  0.1021E+01
      1.215  0.6125E-01  0.1034E+01
      1.423  0.7792E-01  0.1050E+01
      1.632  0.8233E-01  0.1067E+01
      1.840  0.8865E-01  0.1085E+01
      2.048  0.1315E+00  0.1113E+01
      2.256  0.1981E+00  0.1154E+01
      2.464  0.2863E+00  0.1214E+01
      2.673  0.3811E+00  0.1293E+01
      2.881  0.4387E+00  0.1384E+01
      3.089  0.5067E+00  0.1490E+01
      3.297  0.5783E+00  0.1610E+01
      3.506  0.5773E+00  0.1730E+01
      3.714  0.5996E+00  0.1855E+01
      3.922  0.6041E+00  0.1981E+01
      4.130  0.5755E+00  0.2101E+01
      4.339  0.4886E+00  0.2203E+01
      4.547  0.5344E+00  0.2314E+01
      4.755  0.7286E+00  0.2466E+01
      4.963  0.8020E+00  0.2633E+01
      5.171  0.7946E+00  0.2798E+01
      5.380  0.7285E+00  0.2950E+01
      5.588  0.7267E+00  0.3101E+01
      5.796  0.7471E+00  0.3257E+01
      6.004  0.7788E+00  0.3419E+01
      6.213  0.7847E+00  0.3582E+01
      6.421  0.7784E+00  0.3744E+01
      6.629  0.7224E+00  0.3895E+01
      6.837  0.6370E+00  0.4027E+01
      7.045  0.5254E+00  0.4137E+01
      7.254  0.4041E+00  0.4221E+01
      7.462  0.3230E+00  0.4288E+01
      7.670  0.3054E+00  0.4352E+01
      7.878  0.3291E+00  0.4420E+01
      8.087  0.4015E+00  0.4504E+01
      8.295  0.4423E+00  0.4596E+01
      8.503  0.4039E+00  0.4680E+01
      8.711  0.3001E+00  0.4743E+01
      8.920  0.1859E+00  0.4781E+01
      9.128  0.7940E-01  0.4798E+01
      9.336  0.1197E-01  0.4800E+01
      9.544 -0.1378E-02  0.4800E+01
      9.752 -0.2042E-03  0.4800E+01
      9.961 -0.2380E-05  0.4800E+01
     10.169 -0.3036E-08  0.4800E+01
     10.377 -0.4349E-12  0.4800E+01
     10.585 -0.6825E-17  0.4800E+01
     10.794  0.0000E+00  0.4800E+01
     11.002  0.0000E+00  0.4800E+01
     11.210  0.0000E+00  0.4800E+01
     11.418  0.0000E+00  0.4800E+01
     11.626  0.0000E+00  0.4800E+01
     11.835  0.0000E+00  0.4800E+01
     12.043  0.0000E+00  0.4800E+01
