   29   29   50    1
  0.1679057E+02  0.5525242E-09  0.8287863E-09  0.1139058E-08  0.5000000E-15
  1.000000000000000E-004
  CAR 
 SQS with 1 vacancy for VFE and VRV      
    198     63    120
 
  0.0000000E+00  0.0000000E+00  0.0000000E+00  0.8000000E-02
    1      -47.585558   1.000000
    2      -47.335121   1.000000
    3      -47.330735   1.000000
    4      -47.277130   1.000000
    5      -47.136328   1.000000
    6      -47.065813   1.000000
    7      -24.054449   1.000000
    8      -23.915515   1.000000
    9      -23.809995   1.000000
   10      -23.785695   1.000000
   11      -23.705402   1.000000
   12      -23.559036   1.000000
   13      -23.516680   1.000000
   14      -23.491472   1.000000
   15      -23.483399   1.000000
   16      -23.443569   1.000000
   17      -23.377359   1.000000
   18      -23.367409   1.000000
   19      -23.317220   1.000000
   20      -23.259280   1.000000
   21      -23.244003   1.000000
   22      -23.132464   1.000000
   23      -23.003934   1.000000
   24      -22.727280   1.000000
   25       -0.542989   1.000000
   26        0.787492   1.000000
   27        1.046074   1.000000
   28        1.987044   1.000000
   29        2.041617   1.000000
   30        2.150745   1.000000
   31        2.227354   1.000000
   32        2.304877   1.000000
   33        2.481211   1.000000
   34        2.528117   1.000000
   35        2.651850   1.000000
   36        2.712088   1.000000
   37        2.800721   1.000000
   38        2.840106   1.000000
   39        2.883475   1.000000
   40        3.061025   1.000000
   41        3.072210   1.000000
   42        3.096652   1.000000
   43        3.270320   1.000000
   44        3.367387   1.000000
   45        3.385941   1.000000
   46        3.452918   1.000000
   47        3.536201   1.000000
   48        3.624687   1.000000
   49        3.639117   1.000000
   50        3.681386   1.000000
   51        3.733093   1.000000
   52        3.878593   1.000000
   53        3.905203   1.000000
   54        3.966139   1.000000
   55        4.089879   1.000000
   56        4.164772   1.000000
   57        4.193291   1.000000
   58        4.432513   1.000000
   59        4.461499   1.000000
   60        4.530124   1.000000
   61        4.575968   1.000000
   62        4.652743   1.000000
   63        4.664298   1.000000
   64        4.681868   1.000000
   65        4.735006   1.000000
   66        4.836434   1.000000
   67        4.888142   1.000000
   68        4.914406   1.000000
   69        4.985985   1.000000
   70        5.046728   1.000000
   71        5.085493   1.000000
   72        5.151049   1.000000
   73        5.165848   1.000000
   74        5.243098   1.000000
   75        5.355473   1.000000
   76        5.427831   1.000000
   77        5.491916   1.000000
   78        5.597824   1.000000
   79        5.738481   1.000000
   80        5.756791   1.000000
   81        5.815407   1.000000
   82        5.852823   1.000000
   83        5.945791   1.000000
   84        5.960995   1.000000
   85        6.058414   1.000012
   86        6.119513   1.000074
   87        6.230628   1.001230
   88        6.255100   1.002080
   89        6.276467   1.003196
   90        6.299100   1.004884
   91        6.361451   1.013222
   92        6.489250   1.035299
   93        6.537385   1.019485
   94        6.647039   0.813140
   95        6.720838   0.529892
   96        6.789149   0.253842
   97        6.904559  -0.008389
   98        6.952631  -0.033657
   99        6.987173  -0.034743
  100        7.101799  -0.011908
  101        7.159858  -0.004614
  102        7.201957  -0.002027
  103        7.316866  -0.000127
  104        7.477454  -0.000001
  105        7.545173  -0.000000
  106        7.562997  -0.000000
  107        7.721788  -0.000000
  108        7.848769  -0.000000
  109        8.117018  -0.000000
  110        8.334399  -0.000000
  111        8.420435  -0.000000
  112        8.504050  -0.000000
  113        8.616430  -0.000000
  114        8.718652  -0.000000
  115        8.771143  -0.000000
  116        8.840863  -0.000000
  117        8.999117  -0.000000
  118        9.018824  -0.000000
  119        9.055767  -0.000000
  120        9.141439  -0.000000
 
  0.2000000E+00 -0.1387779E-16  0.0000000E+00  0.1600000E-01
    1      -47.584990   1.000000
    2      -47.332319   1.000000
    3      -47.324254   1.000000
    4      -47.276501   1.000000
    5      -47.136414   1.000000
    6      -47.075095   1.000000
    7      -23.956042   1.000000
    8      -23.911154   1.000000
    9      -23.799945   1.000000
   10      -23.781641   1.000000
   11      -23.712317   1.000000
   12      -23.560953   1.000000
   13      -23.515620   1.000000
   14      -23.491353   1.000000
   15      -23.483689   1.000000
   16      -23.448592   1.000000
   17      -23.376237   1.000000
   18      -23.363450   1.000000
   19      -23.320561   1.000000
   20      -23.269644   1.000000
   21      -23.253754   1.000000
   22      -23.133806   1.000000
   23      -23.011125   1.000000
   24      -22.857279   1.000000
   25       -0.216711   1.000000
   26        1.052316   1.000000
   27        1.336341   1.000000
   28        2.113396   1.000000
   29        2.203096   1.000000
   30        2.377561   1.000000
   31        2.507757   1.000000
   32        2.536535   1.000000
   33        2.614817   1.000000
   34        2.701677   1.000000
   35        2.821251   1.000000
   36        2.909373   1.000000
   37        2.942093   1.000000
   38        3.014679   1.000000
   39        3.062052   1.000000
   40        3.142517   1.000000
   41        3.206429   1.000000
   42        3.268660   1.000000
   43        3.361019   1.000000
   44        3.401629   1.000000
   45        3.473873   1.000000
   46        3.585387   1.000000
   47        3.673256   1.000000
   48        3.737123   1.000000
   49        3.830220   1.000000
   50        3.887863   1.000000
   51        3.909260   1.000000
   52        3.978222   1.000000
   53        4.022304   1.000000
   54        4.071201   1.000000
   55        4.150921   1.000000
   56        4.248845   1.000000
   57        4.316633   1.000000
   58        4.447519   1.000000
   59        4.540539   1.000000
   60        4.606195   1.000000
   61        4.657892   1.000000
   62        4.710680   1.000000
   63        4.771928   1.000000
   64        4.837527   1.000000
   65        4.855213   1.000000
   66        4.893914   1.000000
   67        4.960605   1.000000
   68        5.030477   1.000000
   69        5.063200   1.000000
   70        5.114367   1.000000
   71        5.209930   1.000000
   72        5.245402   1.000000
   73        5.269677   1.000000
   74        5.321546   1.000000
   75        5.347540   1.000000
   76        5.492806   1.000000
   77        5.519837   1.000000
   78        5.580241   1.000000
   79        5.605040   1.000000
   80        5.704370   1.000000
   81        5.729060   1.000000
   82        5.826011   1.000000
   83        5.885263   1.000000
   84        5.969767   1.000001
   85        5.998945   1.000002
   86        6.056057   1.000011
   87        6.094319   1.000035
   88        6.154048   1.000190
   89        6.201862   1.000635
   90        6.295335   1.004562
   91        6.330846   1.008381
   92        6.365655   1.014002
   93        6.422675   1.026471
   94        6.482543   1.035457
   95        6.558951   1.000634
   96        6.606062   0.924111
   97        6.629753   0.864989
   98        6.745193   0.427160
   99        6.819088   0.155075
  100        6.894095   0.002456
  101        6.944100  -0.031617
  102        6.981669  -0.035176
  103        7.064299  -0.019340
  104        7.124502  -0.008444
  105        7.251297  -0.000676
  106        7.450753  -0.000002
  107        7.521676  -0.000000
  108        7.605303  -0.000000
  109        7.800883  -0.000000
  110        7.864295  -0.000000
  111        7.965329  -0.000000
  112        8.012980  -0.000000
  113        8.106891  -0.000000
  114        8.184007  -0.000000
  115        8.313141  -0.000000
  116        8.421357  -0.000000
  117        8.521963  -0.000000
  118        8.555264  -0.000000
  119        8.666519  -0.000000
  120        8.720427  -0.000000
 
  0.4000000E+00 -0.2775558E-16  0.0000000E+00  0.1600000E-01
    1      -47.584074   1.000000
    2      -47.330864   1.000000
    3      -47.309132   1.000000
    4      -47.275479   1.000000
    5      -47.136557   1.000000
    6      -47.091666   1.000000
    7      -23.921109   1.000000
    8      -23.832648   1.000000
    9      -23.775165   1.000000
   10      -23.732938   1.000000
   11      -23.611586   1.000000
   12      -23.564333   1.000000
   13      -23.514928   1.000000
   14      -23.503269   1.000000
   15      -23.468553   1.000000
   16      -23.456663   1.000000
   17      -23.377195   1.000000
   18      -23.349928   1.000000
   19      -23.325724   1.000000
   20      -23.289740   1.000000
   21      -23.272951   1.000000
   22      -23.177967   1.000000
   23      -23.135183   1.000000
   24      -23.022768   1.000000
   25        0.630935   1.000000
   26        1.536396   1.000000
   27        2.008808   1.000000
   28        2.123305   1.000000
   29        2.385672   1.000000
   30        2.557307   1.000000
   31        2.733037   1.000000
   32        2.800592   1.000000
   33        2.950472   1.000000
   34        3.043002   1.000000
   35        3.126757   1.000000
   36        3.217385   1.000000
   37        3.275986   1.000000
   38        3.310456   1.000000
   39        3.353917   1.000000
   40        3.464276   1.000000
   41        3.493219   1.000000
   42        3.545596   1.000000
   43        3.575199   1.000000
   44        3.671804   1.000000
   45        3.742051   1.000000
   46        3.839129   1.000000
   47        3.868940   1.000000
   48        3.959336   1.000000
   49        4.042858   1.000000
   50        4.065556   1.000000
   51        4.117002   1.000000
   52        4.210854   1.000000
   53        4.298093   1.000000
   54        4.373415   1.000000
   55        4.439724   1.000000
   56        4.464041   1.000000
   57        4.567361   1.000000
   58        4.596794   1.000000
   59        4.622605   1.000000
   60        4.678966   1.000000
   61        4.731039   1.000000
   62        4.789148   1.000000
   63        4.818071   1.000000
   64        4.880254   1.000000
   65        4.922265   1.000000
   66        4.971217   1.000000
   67        5.000482   1.000000
   68        5.104370   1.000000
   69        5.134719   1.000000
   70        5.207687   1.000000
   71        5.254325   1.000000
   72        5.287288   1.000000
   73        5.327476   1.000000
   74        5.392504   1.000000
   75        5.456980   1.000000
   76        5.511719   1.000000
   77        5.524912   1.000000
   78        5.584049   1.000000
   79        5.598447   1.000000
   80        5.683498   1.000000
   81        5.737999   1.000000
   82        5.772384   1.000000
   83        5.848289   1.000000
   84        5.895522   1.000000
   85        5.952857   1.000000
   86        5.984663   1.000001
   87        6.051089   1.000009
   88        6.118193   1.000071
   89        6.143669   1.000144
   90        6.172045   1.000304
   91        6.228730   1.001179
   92        6.234256   1.001333
   93        6.329644   1.008221
   94        6.369939   1.014825
   95        6.391915   1.019429
   96        6.449846   1.032121
   97        6.507876   1.032642
   98        6.554249   1.005515
   99        6.580858   0.971580
  100        6.631961   0.858763
  101        6.696046   0.632940
  102        6.765193   0.345233
  103        6.850722   0.073770
  104        6.901056  -0.005007
  105        6.964519  -0.035175
  106        7.017680  -0.029859
  107        7.123261  -0.008612
  108        7.199155  -0.002148
  109        7.212576  -0.001620
  110        7.424286  -0.000005
  111        7.459521  -0.000001
  112        7.591561  -0.000000
  113        7.648201  -0.000000
  114        7.765095  -0.000000
  115        7.831513  -0.000000
  116        7.905720  -0.000000
  117        8.022837  -0.000000
  118        8.222398  -0.000000
  119        8.290834  -0.000000
  120        8.367159  -0.000000
 
  0.0000000E+00  0.2000000E+00  0.1387779E-16  0.1600000E-01
    1      -47.585557   1.000000
    2      -47.335093   1.000000
    3      -47.330685   1.000000
    4      -47.276882   1.000000
    5      -47.136654   1.000000
    6      -47.065809   1.000000
    7      -24.054456   1.000000
    8      -23.914680   1.000000
    9      -23.809951   1.000000
   10      -23.780414   1.000000
   11      -23.705407   1.000000
   12      -23.558823   1.000000
   13      -23.516838   1.000000
   14      -23.491578   1.000000
   15      -23.483485   1.000000
   16      -23.443695   1.000000
   17      -23.377351   1.000000
   18      -23.367363   1.000000
   19      -23.316994   1.000000
   20      -23.259342   1.000000
   21      -23.244092   1.000000
   22      -23.133028   1.000000
   23      -23.010848   1.000000
   24      -22.727288   1.000000
   25       -0.404274   1.000000
   26        0.792803   1.000000
   27        1.189454   1.000000
   28        1.635719   1.000000
   29        1.952601   1.000000
   30        2.192147   1.000000
   31        2.303455   1.000000
   32        2.361484   1.000000
   33        2.486602   1.000000
   34        2.572545   1.000000
   35        2.628903   1.000000
   36        2.709824   1.000000
   37        2.752688   1.000000
   38        2.802571   1.000000
   39        2.874749   1.000000
   40        2.936364   1.000000
   41        3.074031   1.000000
   42        3.122516   1.000000
   43        3.226449   1.000000
   44        3.329248   1.000000
   45        3.400175   1.000000
   46        3.471249   1.000000
   47        3.524960   1.000000
   48        3.664106   1.000000
   49        3.682142   1.000000
   50        3.723445   1.000000
   51        3.808202   1.000000
   52        3.877307   1.000000
   53        3.925485   1.000000
   54        4.054684   1.000000
   55        4.145677   1.000000
   56        4.208466   1.000000
   57        4.283149   1.000000
   58        4.426275   1.000000
   59        4.471767   1.000000
   60        4.581760   1.000000
   61        4.612314   1.000000
   62        4.667970   1.000000
   63        4.696822   1.000000
   64        4.776103   1.000000
   65        4.817174   1.000000
   66        4.877421   1.000000
   67        4.945951   1.000000
   68        4.960206   1.000000
   69        4.997869   1.000000
   70        5.084354   1.000000
   71        5.117498   1.000000
   72        5.163464   1.000000
   73        5.213524   1.000000
   74        5.302199   1.000000
   75        5.332438   1.000000
   76        5.476542   1.000000
   77        5.566277   1.000000
   78        5.637896   1.000000
   79        5.703188   1.000000
   80        5.764621   1.000000
   81        5.798924   1.000000
   82        5.860269   1.000000
   83        5.885034   1.000000
   84        5.969669   1.000001
   85        6.031820   1.000005
   86        6.072421   1.000018
   87        6.129013   1.000096
   88        6.174208   1.000321
   89        6.217391   1.000913
   90        6.263600   1.002476
   91        6.316359   1.006604
   92        6.355011   1.012079
   93        6.452514   1.032581
   94        6.517459   1.029734
   95        6.603807   0.929002
   96        6.668719   0.738702
   97        6.796098   0.229213
   98        6.858220   0.058188
   99        7.035504  -0.025931
  100        7.091472  -0.013756
  101        7.188779  -0.002653
  102        7.262655  -0.000515
  103        7.278643  -0.000346
  104        7.435724  -0.000003
  105        7.498367  -0.000000
  106        7.685232  -0.000000
  107        7.811321  -0.000000
  108        7.882016  -0.000000
  109        7.984707  -0.000000
  110        8.086821  -0.000000
  111        8.179419  -0.000000
  112        8.205224  -0.000000
  113        8.418136  -0.000000
  114        8.593921  -0.000000
  115        8.630194  -0.000000
  116        8.702201  -0.000000
  117        8.825913  -0.000000
  118        8.900213  -0.000000
  119        8.922972  -0.000000
  120        8.960617  -0.000000
 
  0.2000000E+00  0.2000000E+00 -0.4857226E-16  0.1600000E-01
    1      -47.584990   1.000000
    2      -47.332381   1.000000
    3      -47.324265   1.000000
    4      -47.276741   1.000000
    5      -47.136099   1.000000
    6      -47.075099   1.000000
    7      -23.956093   1.000000
    8      -23.911920   1.000000
    9      -23.799961   1.000000
   10      -23.786761   1.000000
   11      -23.712308   1.000000
   12      -23.561217   1.000000
   13      -23.515480   1.000000
   14      -23.491353   1.000000
   15      -23.483571   1.000000
   16      -23.448604   1.000000
   17      -23.376299   1.000000
   18      -23.363434   1.000000
   19      -23.320532   1.000000
   20      -23.269584   1.000000
   21      -23.253661   1.000000
   22      -23.133190   1.000000
   23      -23.004493   1.000000
   24      -22.857259   1.000000
   25       -0.217004   1.000000
   26        0.992241   1.000000
   27        1.370635   1.000000
   28        2.057788   1.000000
   29        2.173904   1.000000
   30        2.325836   1.000000
   31        2.445289   1.000000
   32        2.491017   1.000000
   33        2.574555   1.000000
   34        2.684177   1.000000
   35        2.754604   1.000000
   36        2.876514   1.000000
   37        2.937503   1.000000
   38        3.020843   1.000000
   39        3.062602   1.000000
   40        3.140504   1.000000
   41        3.213838   1.000000
   42        3.253954   1.000000
   43        3.388661   1.000000
   44        3.441491   1.000000
   45        3.471760   1.000000
   46        3.631262   1.000000
   47        3.681610   1.000000
   48        3.717717   1.000000
   49        3.802080   1.000000
   50        3.853686   1.000000
   51        3.871727   1.000000
   52        3.956630   1.000000
   53        4.072282   1.000000
   54        4.126204   1.000000
   55        4.189694   1.000000
   56        4.259682   1.000000
   57        4.360997   1.000000
   58        4.456357   1.000000
   59        4.536541   1.000000
   60        4.601787   1.000000
   61        4.635461   1.000000
   62        4.711963   1.000000
   63        4.765483   1.000000
   64        4.782120   1.000000
   65        4.822277   1.000000
   66        4.908915   1.000000
   67        4.935419   1.000000
   68        4.985705   1.000000
   69        5.041837   1.000000
   70        5.068784   1.000000
   71        5.127611   1.000000
   72        5.196687   1.000000
   73        5.238196   1.000000
   74        5.342938   1.000000
   75        5.358254   1.000000
   76        5.456930   1.000000
   77        5.535272   1.000000
   78        5.575078   1.000000
   79        5.615894   1.000000
   80        5.688177   1.000000
   81        5.742200   1.000000
   82        5.795389   1.000000
   83        5.820896   1.000000
   84        5.920387   1.000000
   85        5.970292   1.000001
   86        6.033233   1.000005
   87        6.100471   1.000042
   88        6.157538   1.000209
   89        6.188757   1.000462
   90        6.286346   1.003861
   91        6.321119   1.007153
   92        6.404250   1.022222
   93        6.434490   1.029091
   94        6.540425   1.017354
   95        6.562311   0.996864
   96        6.662404   0.761377
   97        6.729263   0.494264
   98        6.818444   0.156988
   99        6.882443   0.017277
  100        6.932685  -0.027432
  101        7.013991  -0.030609
  102        7.069782  -0.018141
  103        7.122369  -0.008734
  104        7.209147  -0.001743
  105        7.254892  -0.000621
  106        7.332583  -0.000082
  107        7.390462  -0.000015
  108        7.458574  -0.000002
  109        7.782289  -0.000000
  110        7.891419  -0.000000
  111        7.997385  -0.000000
  112        8.223190  -0.000000
  113        8.336394  -0.000000
  114        8.409396  -0.000000
  115        8.627232  -0.000000
  116        8.666772  -0.000000
  117        8.789446  -0.000000
  118        8.893167  -0.000000
  119        8.933948  -0.000000
  120        8.977206  -0.000000
 
  0.4000000E+00  0.2000000E+00 -0.5551115E-16  0.1600000E-01
    1      -47.584075   1.000000
    2      -47.330973   1.000000
    3      -47.309144   1.000000
    4      -47.275874   1.000000
    5      -47.136040   1.000000
    6      -47.091672   1.000000
    7      -23.922259   1.000000
    8      -23.832816   1.000000
    9      -23.783691   1.000000
   10      -23.732949   1.000000
   11      -23.611529   1.000000
   12      -23.564863   1.000000
   13      -23.514734   1.000000
   14      -23.503227   1.000000
   15      -23.468337   1.000000
   16      -23.456632   1.000000
   17      -23.377317   1.000000
   18      -23.349881   1.000000
   19      -23.325753   1.000000
   20      -23.289659   1.000000
   21      -23.272795   1.000000
   22      -23.177922   1.000000
   23      -23.134024   1.000000
   24      -23.011891   1.000000
   25        0.526274   1.000000
   26        1.478001   1.000000
   27        1.905774   1.000000
   28        2.074930   1.000000
   29        2.245849   1.000000
   30        2.421079   1.000000
   31        2.729135   1.000000
   32        2.911647   1.000000
   33        2.962851   1.000000
   34        3.110454   1.000000
   35        3.158358   1.000000
   36        3.247912   1.000000
   37        3.320373   1.000000
   38        3.366229   1.000000
   39        3.394225   1.000000
   40        3.462956   1.000000
   41        3.500362   1.000000
   42        3.580938   1.000000
   43        3.620597   1.000000
   44        3.670439   1.000000
   45        3.731854   1.000000
   46        3.783338   1.000000
   47        3.868935   1.000000
   48        3.921747   1.000000
   49        3.961058   1.000000
   50        4.030404   1.000000
   51        4.071698   1.000000
   52        4.126478   1.000000
   53        4.229868   1.000000
   54        4.302005   1.000000
   55        4.341439   1.000000
   56        4.401208   1.000000
   57        4.489960   1.000000
   58        4.563719   1.000000
   59        4.647349   1.000000
   60        4.653874   1.000000
   61        4.751174   1.000000
   62        4.787964   1.000000
   63        4.832713   1.000000
   64        4.910054   1.000000
   65        4.953217   1.000000
   66        4.984310   1.000000
   67        4.999235   1.000000
   68        5.105008   1.000000
   69        5.127845   1.000000
   70        5.192220   1.000000
   71        5.240449   1.000000
   72        5.294559   1.000000
   73        5.313129   1.000000
   74        5.433412   1.000000
   75        5.463178   1.000000
   76        5.486200   1.000000
   77        5.521780   1.000000
   78        5.592036   1.000000
   79        5.620823   1.000000
   80        5.693927   1.000000
   81        5.752597   1.000000
   82        5.818798   1.000000
   83        5.857097   1.000000
   84        5.875985   1.000000
   85        5.944241   1.000000
   86        5.963109   1.000000
   87        5.993667   1.000001
   88        6.055917   1.000011
   89        6.087299   1.000029
   90        6.149794   1.000170
   91        6.193722   1.000522
   92        6.259569   1.002281
   93        6.281267   1.003506
   94        6.299388   1.004910
   95        6.354947   1.012068
   96        6.405815   1.022583
   97        6.456473   1.033216
   98        6.499569   1.034271
   99        6.569790   0.987600
  100        6.584325   0.965971
  101        6.679886   0.696846
  102        6.743723   0.433312
  103        6.836881   0.106261
  104        6.901369  -0.005320
  105        6.974445  -0.035448
  106        7.060489  -0.020190
  107        7.126207  -0.008217
  108        7.273266  -0.000396
  109        7.513929  -0.000000
  110        7.639902  -0.000000
  111        7.698693  -0.000000
  112        7.820856  -0.000000
  113        7.984358  -0.000000
  114        8.048021  -0.000000
  115        8.083285  -0.000000
  116        8.168171  -0.000000
  117        8.338227  -0.000000
  118        8.388084  -0.000000
  119        8.415615  -0.000000
  120        8.485002  -0.000000
 
 -0.4000000E+00  0.2000000E+00 -0.3908332E-16  0.1600000E-01
    1      -47.584074   1.000000
    2      -47.330863   1.000000
    3      -47.309131   1.000000
    4      -47.275475   1.000000
    5      -47.136563   1.000000
    6      -47.091666   1.000000
    7      -23.921097   1.000000
    8      -23.832647   1.000000
    9      -23.775095   1.000000
   10      -23.732939   1.000000
   11      -23.611600   1.000000
   12      -23.564346   1.000000
   13      -23.514931   1.000000
   14      -23.503320   1.000000
   15      -23.468558   1.000000
   16      -23.456718   1.000000
   17      -23.377185   1.000000
   18      -23.349928   1.000000
   19      -23.325605   1.000000
   20      -23.289741   1.000000
   21      -23.272947   1.000000
   22      -23.177954   1.000000
   23      -23.135162   1.000000
   24      -23.022916   1.000000
   25        0.902483   1.000000
   26        1.390394   1.000000
   27        1.902697   1.000000
   28        2.152858   1.000000
   29        2.238573   1.000000
   30        2.466209   1.000000
   31        2.679870   1.000000
   32        2.769400   1.000000
   33        2.981699   1.000000
   34        3.059408   1.000000
   35        3.132682   1.000000
   36        3.160058   1.000000
   37        3.249825   1.000000
   38        3.312010   1.000000
   39        3.424410   1.000000
   40        3.445070   1.000000
   41        3.485709   1.000000
   42        3.549003   1.000000
   43        3.620960   1.000000
   44        3.641712   1.000000
   45        3.684130   1.000000
   46        3.807389   1.000000
   47        3.925637   1.000000
   48        4.040601   1.000000
   49        4.084438   1.000000
   50        4.104728   1.000000
   51        4.134234   1.000000
   52        4.281876   1.000000
   53        4.304638   1.000000
   54        4.342925   1.000000
   55        4.427825   1.000000
   56        4.491828   1.000000
   57        4.534601   1.000000
   58        4.586294   1.000000
   59        4.671062   1.000000
   60        4.719361   1.000000
   61        4.748327   1.000000
   62        4.810206   1.000000
   63        4.845314   1.000000
   64        4.892194   1.000000
   65        4.922229   1.000000
   66        4.950682   1.000000
   67        5.032638   1.000000
   68        5.082788   1.000000
   69        5.109399   1.000000
   70        5.186884   1.000000
   71        5.215391   1.000000
   72        5.255118   1.000000
   73        5.337202   1.000000
   74        5.375529   1.000000
   75        5.449337   1.000000
   76        5.466905   1.000000
   77        5.544195   1.000000
   78        5.574950   1.000000
   79        5.665397   1.000000
   80        5.678332   1.000000
   81        5.722874   1.000000
   82        5.772709   1.000000
   83        5.819275   1.000000
   84        5.863884   1.000000
   85        5.921177   1.000000
   86        5.951997   1.000000
   87        6.007999   1.000002
   88        6.078176   1.000022
   89        6.158063   1.000212
   90        6.178367   1.000357
   91        6.214911   1.000862
   92        6.250242   1.001879
   93        6.320357   1.007063
   94        6.354520   1.011994
   95        6.406803   1.022811
   96        6.467777   1.034659
   97        6.519179   1.029083
   98        6.539122   1.018287
   99        6.601469   0.933938
  100        6.649533   0.805086
  101        6.709385   0.578003
  102        6.752815   0.395508
  103        6.805306   0.198107
  104        6.894267   0.002259
  105        6.960178  -0.034784
  106        7.031409  -0.026864
  107        7.128563  -0.007910
  108        7.217930  -0.001443
  109        7.262665  -0.000515
  110        7.357439  -0.000040
  111        7.449637  -0.000002
  112        7.627731  -0.000000
  113        7.718315  -0.000000
  114        7.792285  -0.000000
  115        7.923863  -0.000000
  116        8.055721  -0.000000
  117        8.214994  -0.000000
  118        8.224530  -0.000000
  119        8.285239  -0.000000
  120        8.325016  -0.000000
 
 -0.2000000E+00  0.2000000E+00  0.1006140E-15  0.1600000E-01
    1      -47.584989   1.000000
    2      -47.332215   1.000000
    3      -47.324233   1.000000
    4      -47.276099   1.000000
    5      -47.136942   1.000000
    6      -47.075089   1.000000
    7      -23.955964   1.000000
    8      -23.909973   1.000000
    9      -23.799970   1.000000
   10      -23.772817   1.000000
   11      -23.712330   1.000000
   12      -23.560497   1.000000
   13      -23.515858   1.000000
   14      -23.491469   1.000000
   15      -23.483894   1.000000
   16      -23.448744   1.000000
   17      -23.376132   1.000000
   18      -23.363452   1.000000
   19      -23.320282   1.000000
   20      -23.269747   1.000000
   21      -23.253897   1.000000
   22      -23.134922   1.000000
   23      -23.022317   1.000000
   24      -22.857296   1.000000
   25        0.040531   1.000000
   26        1.023100   1.000000
   27        1.542034   1.000000
   28        1.701140   1.000000
   29        2.129483   1.000000
   30        2.465468   1.000000
   31        2.481364   1.000000
   32        2.674450   1.000000
   33        2.699255   1.000000
   34        2.766165   1.000000
   35        2.798391   1.000000
   36        2.853670   1.000000
   37        2.938586   1.000000
   38        3.011536   1.000000
   39        3.042203   1.000000
   40        3.101829   1.000000
   41        3.128085   1.000000
   42        3.167806   1.000000
   43        3.303066   1.000000
   44        3.365101   1.000000
   45        3.450839   1.000000
   46        3.627550   1.000000
   47        3.681654   1.000000