       N       E                     dE             d eps       ncg     rms          rms(c)
DAV:   1     0.215647414740E+04    0.21565E+04   -0.91345E+04 15120   0.175E+03
DAV:   2     0.747234806215E+02   -0.20818E+04   -0.20189E+04 15184   0.518E+02
DAV:   3    -0.299729122565E+03   -0.37445E+03   -0.35577E+03 26376   0.182E+02
DAV:   4    -0.346774833950E+03   -0.47046E+02   -0.43526E+02 23416   0.603E+01
DAV:   5    -0.351876852917E+03   -0.51020E+01   -0.49770E+01 28592   0.221E+01    0.741E+01
DAV:   6    -0.347394738792E+03    0.44821E+01   -0.15631E+02 21896   0.333E+01    0.434E+01
DAV:   7    -0.355060046793E+03   -0.76653E+01   -0.60595E+02 21400   0.107E+02    0.298E+01
DAV:   8    -0.353228283554E+03    0.18318E+01   -0.19246E+02 22272   0.462E+01    0.225E+01
DAV:   9    -0.337753103315E+03    0.15475E+02   -0.25298E+01 21552   0.172E+01    0.160E+01
DAV:  10    -0.333406211234E+03    0.43469E+01   -0.89580E+00 22136   0.906E+00    0.124E+01
DAV:  11    -0.331427094195E+03    0.19791E+01   -0.30365E+00 22672   0.497E+00    0.102E+01
DAV:  12    -0.330195056037E+03    0.12320E+01   -0.12616E+00 21680   0.338E+00    0.798E+00
DAV:  13    -0.329023189019E+03    0.11719E+01   -0.36430E+00 21048   0.552E+00    0.270E+00
DAV:  14    -0.329008158305E+03    0.15031E-01   -0.12119E+00 22504   0.329E+00    0.269E+00
DAV:  15    -0.328961734595E+03    0.46424E-01   -0.15735E+00 22416   0.329E+00    0.221E+00
DAV:  16    -0.328914344920E+03    0.47390E-01   -0.34370E-01 23656   0.165E+00    0.108E+00
DAV:  17    -0.328901166626E+03    0.13178E-01   -0.86575E-02 21744   0.812E-01    0.542E-01
DAV:  18    -0.328899432806E+03    0.17338E-02   -0.24754E-02 22400   0.467E-01    0.333E-01
DAV:  19    -0.328899065118E+03    0.36769E-03   -0.17035E-02 20512   0.386E-01    0.242E-01
DAV:  20    -0.328898405671E+03    0.65945E-03   -0.69527E-03 20872   0.233E-01    0.116E-01
DAV:  21    -0.328898242887E+03    0.16278E-03   -0.16980E-03 19584   0.129E-01    0.512E-02
DAV:  22    -0.328898275389E+03   -0.32502E-04   -0.80280E-04 17248   0.948E-02
   1 F= -.32889828E+03 E0= -.32889345E+03  d E =-.328898E+03
       N       E                     dE             d eps       ncg     rms          rms(c)
DAV:   1    -0.329815471435E+03   -0.91723E+00   -0.11721E+02 15264   0.415E+01    0.925E+00
DAV:   2    -0.330304075262E+03   -0.48860E+00   -0.15265E+01 21992   0.161E+01    0.679E+00
DAV:   3    -0.329892995602E+03    0.41108E+00   -0.87855E+00 21888   0.909E+00    0.592E+00
DAV:   4    -0.329630319819E+03    0.26268E+00   -0.48985E+00 23072   0.722E+00    0.347E+00
DAV:   5    -0.329443327398E+03    0.18699E+00   -0.17951E+00 22616   0.460E+00    0.191E+00
DAV:   6    -0.329381330573E+03    0.61997E-01   -0.62607E-01 23288   0.238E+00    0.117E+00
DAV:   7    -0.329383876119E+03   -0.25455E-02   -0.24274E-01 24392   0.142E+00    0.965E-01
DAV:   8    -0.329377465884E+03    0.64102E-02   -0.76638E-02 22800   0.877E-01    0.629E-01
DAV:   9    -0.329378522218E+03   -0.10563E-02   -0.27139E-02 22896   0.489E-01    0.470E-01
DAV:  10    -0.329380891459E+03   -0.23692E-02   -0.21990E-02 22704   0.428E-01    0.365E-01
DAV:  11    -0.329381440328E+03   -0.54887E-03   -0.15555E-02 23056   0.382E-01    0.199E-01
DAV:  12    -0.329381570863E+03   -0.13054E-03   -0.53735E-03 23856   0.218E-01    0.952E-02
DAV:  13    -0.329381673530E+03   -0.10267E-03   -0.14781E-03 21288   0.107E-01    0.533E-02
DAV:  14    -0.329381689258E+03   -0.15727E-04   -0.33863E-04 12416   0.760E-02
   2 F= -.32938169E+03 E0= -.32937910E+03  d E =-.483414E+00
       N       E                     dE             d eps       ncg     rms          rms(c)
DAV:   1    -0.329382421195E+03   -0.74766E-03   -0.80622E-02 16064   0.110E+00    0.253E-01
DAV:   2    -0.329382846568E+03   -0.42537E-03   -0.11034E-02 22448   0.424E-01    0.201E-01
DAV:   3    -0.329382638298E+03    0.20827E-03   -0.81236E-03 21352   0.285E-01    0.165E-01
DAV:   4    -0.329382325869E+03    0.31243E-03   -0.27228E-03 19960   0.172E-01    0.895E-02
DAV:   5    -0.329382194025E+03    0.13184E-03   -0.13231E-03 17976   0.126E-01    0.534E-02
DAV:   6    -0.329382143245E+03    0.50780E-04   -0.47585E-04 13760   0.789E-02
   3 F= -.32938214E+03 E0= -.32937954E+03  d E =-.483868E+00
       N       E                     dE             d eps       ncg     rms          rms(c)
DAV:   1    -0.329609463826E+03   -0.22727E+00   -0.45844E+01 15624   0.236E+01    0.356E+00
DAV:   2    -0.329751255013E+03   -0.14179E+00   -0.32685E+00 20312   0.689E+00    0.210E+00
DAV:   3    -0.329765417969E+03   -0.14163E-01   -0.12444E+00 22816   0.380E+00    0.195E+00
DAV:   4    -0.329710212874E+03    0.55205E-01   -0.46731E-01 22360   0.211E+00    0.103E+00
DAV:   5    -0.329704044071E+03    0.61688E-02   -0.19515E-01 22792   0.140E+00    0.821E-01
DAV:   6    -0.329697570913E+03    0.64732E-02   -0.10705E-01 23616   0.103E+00    0.509E-01
DAV:   7    -0.329693676086E+03    0.38948E-02   -0.32358E-02 24960   0.601E-01    0.280E-01
DAV:   8    -0.329693614319E+03    0.61767E-04   -0.10133E-02 22464   0.288E-01    0.221E-01
DAV:   9    -0.329693667071E+03   -0.52752E-04   -0.34444E-03 20560   0.165E-01    0.169E-01
DAV:  10    -0.329693893994E+03   -0.22692E-03   -0.18718E-03 19712   0.145E-01    0.135E-01
DAV:  11    -0.329694016929E+03   -0.12294E-03   -0.22185E-03 19592   0.157E-01    0.104E-01
DAV:  12    -0.329693932474E+03    0.84455E-04   -0.12375E-03 19936   0.120E-01    0.423E-02
DAV:  13    -0.329693906584E+03    0.25890E-04   -0.32039E-04 12208   0.760E-02
   4 F= -.32969391E+03 E0= -.32969106E+03  d E =-.311763E+00
       N       E                     dE             d eps       ncg     rms          rms(c)
DAV:   1    -0.329709404149E+03   -0.15472E-01   -0.23307E+01 15320   0.167E+01    0.251E+00
DAV:   2    -0.329785176420E+03   -0.75772E-01   -0.17550E+00 20224   0.503E+00    0.146E+00
DAV:   3    -0.329793595874E+03   -0.84195E-02   -0.62087E-01 22600   0.266E+00    0.139E+00
DAV:   4    -0.329764893835E+03    0.28702E-01   -0.23941E-01 22280   0.151E+00    0.730E-01
DAV:   5    -0.329761398610E+03    0.34952E-02   -0.95797E-02 22800   0.977E-01    0.571E-01
DAV:   6    -0.329758150328E+03    0.32483E-02   -0.53679E-02 23448   0.722E-01    0.348E-01
DAV:   7    -0.329756413125E+03    0.17372E-02   -0.15912E-02 25048   0.418E-01    0.199E-01
DAV:   8    -0.329756388472E+03    0.24654E-04   -0.54733E-03 21848   0.213E-01    0.163E-01
DAV:   9    -0.329756372363E+03    0.16108E-04   -0.18861E-03 20032   0.123E-01    0.125E-01
DAV:  10    -0.329756449298E+03   -0.76934E-04   -0.84030E-04 16536   0.987E-02
   5 F= -.32975645E+03 E0= -.32975296E+03  d E =-.374306E+00
       N       E                     dE             d eps       ncg     rms          rms(c)
DAV:   1    -0.329781611523E+03   -0.25239E-01   -0.28871E+00 15824   0.565E+00    0.668E-01
DAV:   2    -0.329795801304E+03   -0.14190E-01   -0.19103E-01 21888   0.169E+00    0.580E-01
DAV:   3    -0.329794528597E+03    0.12727E-02   -0.61623E-02 23192   0.805E-01    0.430E-01
DAV:   4    -0.329792368344E+03    0.21603E-02   -0.15771E-02 22976   0.434E-01    0.229E-01
DAV:   5    -0.329792373914E+03   -0.55704E-05   -0.11630E-02 22344   0.326E-01    0.201E-01
DAV:   6    -0.329791778595E+03    0.59532E-03   -0.51946E-03 23336   0.219E-01    0.866E-02
DAV:   7    -0.329791707306E+03    0.71289E-04   -0.11343E-03 19672   0.107E-01    0.578E-02
DAV:   8    -0.329791683397E+03    0.23909E-04   -0.26259E-04 11304   0.639E-02
   6 F= -.32979168E+03 E0= -.32978846E+03  d E =-.352341E-01
       N       E                     dE             d eps       ncg     rms          rms(c)
DAV:   1    -0.329787273246E+03    0.44341E-02   -0.83475E+00 15808   0.962E+00    0.114E+00
DAV:   2    -0.329830352462E+03   -0.43079E-01   -0.57907E-01 21880   0.292E+00    0.105E+00
DAV:   3    -0.329824230009E+03    0.61225E-02   -0.19584E-01 23152   0.142E+00    0.719E-01
DAV:   4    -0.329818893570E+03    0.53364E-02   -0.45356E-02 22848   0.732E-01    0.425E-01
DAV:   5    -0.329818339886E+03    0.55368E-03   -0.34520E-02 22288   0.566E-01    0.341E-01
DAV:   6    -0.329816775405E+03    0.15645E-02   -0.14640E-02 24160   0.378E-01    0.162E-01
DAV:   7    -0.329816456644E+03    0.31876E-03   -0.42294E-03 23112   0.197E-01    0.981E-02
DAV:   8    -0.329816393920E+03    0.62724E-04   -0.11149E-03 18792   0.101E-01    0.724E-02
DAV:   9    -0.329816385692E+03    0.82279E-05   -0.35760E-04 13168   0.676E-02
   7 F= -.32981639E+03 E0= -.32981363E+03  d E =-.599364E-01
       N       E                     dE             d eps       ncg     rms          rms(c)
DAV:   1    -0.329858432885E+03   -0.42039E-01   -0.40822E+00 17264   0.835E+00    0.200E+00
DAV:   2    -0.329872505738E+03   -0.14073E-01   -0.68175E-01 23712   0.340E+00    0.140E+00
DAV:   3    -0.329858179375E+03    0.14326E-01   -0.46671E-01 21488   0.216E+00    0.114E+00
DAV:   4    -0.329844016941E+03    0.14162E-01   -0.18409E-01 22088   0.135E+00    0.682E-01
DAV:   5    -0.329837237707E+03    0.67792E-02   -0.73220E-02 22528   0.861E-01    0.402E-01
DAV:   6    -0.329834611509E+03    0.26262E-02   -0.27887E-02 22880   0.506E-01    0.230E-01
DAV:   7    -0.329834782450E+03   -0.17094E-03   -0.11596E-02 24608   0.287E-01    0.186E-01
DAV:   8    -0.329834551047E+03    0.23140E-03   -0.35445E-03 20184   0.183E-01    0.122E-01
DAV:   9    -0.329834562606E+03   -0.11559E-04   -0.11703E-03 18544   0.108E-01    0.913E-02
DAV:  10    -0.329834650925E+03   -0.88319E-04   -0.86521E-04 17688   0.911E-02
   8 F= -.32983465E+03 E0= -.32983228E+03  d E =-.182652E-01
       N       E                     dE             d eps       ncg     rms          rms(c)
DAV:   1    -0.329834895719E+03   -0.33311E-03   -0.36348E-02 17944   0.783E-01    0.190E-01
DAV:   2    -0.329834948624E+03   -0.52905E-04   -0.59650E-03 23280   0.331E-01    0.135E-01
DAV:   3    -0.329834841904E+03    0.10672E-03   -0.45019E-03 21264   0.214E-01    0.107E-01
DAV:   4    -0.329834702878E+03    0.13903E-03   -0.16032E-03 18696   0.128E-01    0.597E-02
DAV:   5    -0.329834658699E+03    0.44179E-04   -0.58873E-04 14320   0.868E-02
   9 F= -.32983466E+03 E0= -.32983234E+03  d E =-.182730E-01
       N       E                     dE             d eps       ncg     rms          rms(c)
DAV:   1    -0.329838491853E+03   -0.37890E-02   -0.97371E-01 16384   0.340E+00    0.236E-01
DAV:   2    -0.329843509809E+03   -0.50180E-02   -0.61067E-02 23864   0.103E+00    0.230E-01
DAV:   3    -0.329843316482E+03    0.19333E-03   -0.10523E-02 24280   0.337E-01    0.184E-01
DAV:   4    -0.329842949178E+03    0.36730E-03   -0.27249E-03 21248   0.164E-01    0.115E-01
DAV:   5    -0.329842874173E+03    0.75005E-04   -0.10048E-03 17448   0.111E-01    0.893E-02
DAV:   6    -0.329842845261E+03    0.28912E-04   -0.12092E-03 17776   0.116E-01    0.676E-02
DAV:   7    -0.329842761277E+03    0.83984E-04   -0.51282E-04 14872   0.855E-02
  10 F= -.32984276E+03 E0= -.32984047E+03  d E =-.810258E-02
       N       E                     dE             d eps       ncg     rms          rms(c)
DAV:   1    -0.329816003308E+03    0.26842E-01   -0.87732E+00 16432   0.102E+01    0.762E-01
DAV:   2    -0.329862904763E+03   -0.46901E-01   -0.56636E-01 24248   0.313E+00    0.736E-01
DAV:   3    -0.329860375073E+03    0.25297E-02   -0.10936E-01 24312   0.107E+00    0.573E-01
DAV:   4    -0.329856484431E+03    0.38906E-02   -0.26404E-02 22952   0.514E-01    0.343E-01
DAV:   5    -0.329855759660E+03    0.72477E-03   -0.80146E-03 21952   0.314E-01    0.264E-01
DAV:   6    -0.329855639550E+03    0.12011E-03   -0.10595E-02 22984   0.322E-01    0.215E-01
DAV:   7    -0.329854824185E+03    0.81536E-03   -0.55305E-03 23136   0.240E-01    0.812E-02
DAV:   8    -0.329854749258E+03    0.74927E-04   -0.11855E-03 19960   0.111E-01    0.469E-02
DAV:   9    -0.329854741832E+03    0.74255E-05   -0.44368E-04 13920   0.708E-02
  11 F= -.32985474E+03 E0= -.32985257E+03  d E =-.200831E-01
       N       E                     dE             d eps       ncg     rms          rms(c)
DAV:   1    -0.329860582735E+03   -0.58335E-02   -0.65578E-01 15880   0.329E+00    0.784E-01
DAV:   2    -0.329861703626E+03   -0.11209E-02   -0.88041E-02 22496   0.121E+00    0.475E-01
DAV:   3    -0.329861604111E+03    0.99515E-04   -0.65128E-02 22384   0.821E-01    0.440E-01
DAV:   4    -0.329858588884E+03    0.30152E-02   -0.23242E-02 22080   0.499E-01    0.211E-01
DAV:   5    -0.329858008635E+03    0.58025E-03   -0.85758E-03 22528   0.295E-01    0.149E-01
DAV:   6    -0.329857716907E+03    0.29173E-03   -0.37171E-03 21136   0.181E-01    0.862E-02
DAV:   7    -0.329857699728E+03    0.17179E-04   -0.12847E-03 19840   0.100E-01    0.612E-02
DAV:   8    -0.329857678719E+03    0.21010E-04   -0.28130E-04 11792   0.617E-02
  12 F= -.32985768E+03 E0= -.32985550E+03  d E =-.293689E-02
       N       E                     dE             d eps       ncg     rms          rms(c)
DAV:   1    -0.329857712009E+03   -0.12281E-04   -0.60291E-03 17416   0.316E-01    0.687E-02
DAV:   2    -0.329857745122E+03   -0.33113E-04   -0.85892E-04 16544   0.132E-01
  13 F= -.32985775E+03 E0= -.32985557E+03  d E =-.300329E-02
       N       E                     dE             d eps       ncg     rms          rms(c)
DAV:   1    -0.329859538880E+03   -0.18269E-02   -0.28880E-01 15624   0.178E+00    0.198E-01
DAV:   2    -0.329861232665E+03   -0.16938E-02   -0.21081E-02 24368   0.579E-01    0.233E-01
DAV:   3    -0.329860668325E+03    0.56434E-03   -0.71034E-03 21672   0.257E-01    0.138E-01
DAV:   4    -0.329860491812E+03    0.17651E-03   -0.11426E-03 18264   0.120E-01    0.859E-02
DAV:   5    -0.329860511246E+03   -0.19434E-04   -0.10206E-03 17464   0.106E-01    0.743E-02
DAV:   6    -0.329860440405E+03    0.70841E-04   -0.73716E-04 16456   0.940E-02
  14 F= -.32986044E+03 E0= -.32985830E+03  d E =-.269528E-02
       N       E                     dE             d eps       ncg     rms          rms(c)
DAV:   1    -0.329854996374E+03    0.55149E-02   -0.25698E+00 15648   0.532E+00    0.601E-01
DAV:   2    -0.329866096167E+03   -0.11100E-01   -0.16016E-01 23728   0.157E+00    0.498E-01
DAV:   3    -0.329865756675E+03    0.33949E-03   -0.47481E-02 23024   0.655E-01    0.415E-01
DAV:   4    -0.329863622081E+03    0.21346E-02   -0.14510E-02 23072   0.397E-01    0.221E-01
DAV:   5    -0.329863688700E+03   -0.66619E-04   -0.95749E-03 22696   0.306E-01    0.190E-01
DAV:   6    -0.329863115922E+03    0.57278E-03   -0.48435E-03 21760   0.219E-01    0.897E-02
DAV:   7    -0.329863031580E+03    0.84342E-04   -0.14369E-03 19112   0.128E-01    0.603E-02
DAV:   8    -0.329862985043E+03    0.46537E-04   -0.34326E-04 12264   0.707E-02
  15 F= -.32986299E+03 E0= -.32986093E+03  d E =-.523992E-02
       N       E                     dE             d eps       ncg     rms          rms(c)
DAV:   1    -0.329865690788E+03   -0.26592E-02   -0.22883E-01 15120   0.170E+00    0.365E-01
DAV:   2    -0.329866391150E+03   -0.70036E-03   -0.23274E-02 22504   0.587E-01    0.273E-01
DAV:   3    -0.329866109530E+03    0.28162E-03   -0.16355E-02 22728   0.393E-01    0.229E-01
DAV:   4    -0.329865534177E+03    0.57535E-03   -0.58647E-03 20568   0.251E-01    0.138E-01
DAV:   5    -0.329865223715E+03    0.31046E-03   -0.31984E-03 20752   0.176E-01    0.641E-02
DAV:   6    -0.329865163984E+03    0.59731E-04   -0.77401E-04 16336   0.915E-02
  16 F= -.32986516E+03 E0= -.32986309E+03  d E =-.217894E-02
       N       E                     dE             d eps       ncg     rms          rms(c)
DAV:   1    -0.329865563961E+03   -0.34025E-03   -0.83983E-02 15192   0.103E+00    0.213E-01
DAV:   2    -0.329865857527E+03   -0.29357E-03   -0.77322E-03 21912   0.348E-01    0.158E-01
DAV:   3    -0.329865750408E+03    0.10712E-03   -0.53447E-03 20416   0.231E-01    0.127E-01
DAV:   4    -0.329865590067E+03    0.16034E-03   -0.22389E-03 19592   0.154E-01    0.840E-02
DAV:   5    -0.329865456729E+03    0.13334E-03   -0.11352E-03 17808   0.105E-01    0.339E-02
DAV:   6    -0.329865437257E+03    0.19472E-04   -0.13772E-04  9592   0.513E-02
  17 F= -.32986544E+03 E0= -.32986333E+03  d E =-.245221E-02
       N       E                     dE             d eps       ncg     rms          rms(c)
DAV:   1    -0.329866962087E+03   -0.15054E-02   -0.12751E-01 15120   0.125E+00    0.248E-01
DAV:   2    -0.329867217524E+03   -0.25544E-03   -0.11717E-02 22352   0.413E-01    0.166E-01
DAV:   3    -0.329867183715E+03    0.33809E-04   -0.66962E-03 21864   0.261E-01    0.152E-01
DAV:   4    -0.329866881862E+03    0.30185E-03   -0.30005E-03 19968   0.171E-01    0.816E-02
DAV:   5    -0.329866810447E+03    0.71414E-04   -0.12472E-03 17712   0.115E-01    0.573E-02
DAV:   6    -0.329866751977E+03    0.58470E-04   -0.38626E-04 12832   0.783E-02
  18 F= -.32986675E+03 E0= -.32986467E+03  d E =-.131472E-02
       N       E                     dE             d eps       ncg     rms          rms(c)
DAV:   1    -0.329867435326E+03   -0.62488E-03   -0.18030E-01 15120   0.150E+00    0.286E-01
DAV:   2    -0.329867785264E+03   -0.34994E-03   -0.15268E-02 21512   0.477E-01    0.183E-01
DAV:   3    -0.329867768012E+03    0.17251E-04   -0.88942E-03 20920   0.302E-01    0.168E-01
DAV:   4    -0.329867417864E+03    0.35015E-03   -0.41553E-03 20048   0.204E-01    0.996E-02
DAV:   5    -0.329867282574E+03    0.13529E-03   -0.18155E-03 19328   0.135E-01    0.613E-02
DAV:   6    -0.329867219638E+03    0.62935E-04   -0.43031E-04 13368   0.784E-02
  19 F= -.32986722E+03 E0= -.32986515E+03  d E =-.178238E-02
       N       E                     dE             d eps       ncg     rms          rms(c)
DAV:   1    -0.329867875449E+03   -0.59288E-03   -0.46280E-02 16408   0.689E-01    0.585E-02
DAV:   2    -0.329868036837E+03   -0.16139E-03   -0.21406E-03 24032   0.204E-01    0.468E-02
DAV:   3    -0.329868037356E+03   -0.51937E-06   -0.41307E-04 13608   0.696E-02
  20 F= -.32986804E+03 E0= -.32986596E+03  d E =-.817718E-03
       N       E                     dE             d eps       ncg     rms          rms(c)
DAV:   1    -0.329868855775E+03   -0.81894E-03   -0.41469E-01 16208   0.206E+00    0.162E-01
DAV:   2    -0.329870181348E+03   -0.13256E-02   -0.19084E-02 25160   0.609E-01    0.142E-01
DAV:   3    -0.329870166935E+03    0.14413E-04   -0.36495E-03 23104   0.196E-01    0.120E-01
DAV:   4    -0.329869966256E+03    0.20068E-03   -0.11893E-03 17872   0.115E-01    0.681E-02
DAV:   5    -0.329869941238E+03    0.25019E-04   -0.60960E-04 15632   0.867E-02
  21 F= -.32986994E+03 E0= -.32986794E+03  d E =-.272160E-02
       N       E                     dE             d eps       ncg     rms          rms(c)
DAV:   1    -0.329867235706E+03    0.27306E-02   -0.16612E+00 16272   0.412E+00    0.306E-01
DAV:   2    -0.329872712106E+03   -0.54764E-02   -0.74569E-02 24976   0.120E+00    0.274E-01
DAV:   3    -0.329872633330E+03    0.78776E-04   -0.14292E-02 24376   0.378E-01    0.227E-01
DAV:   4    -0.329871911055E+03    0.72228E-03   -0.43062E-03 21368   0.214E-01    0.126E-01
DAV:   5    -0.329871883249E+03    0.27806E-04   -0.24677E-03 20456   0.159E-01    0.118E-01
DAV:   6    -0.329871696005E+03    0.18724E-03   -0.21169E-03 19400   0.139E-01    0.647E-02
DAV:   7    -0.329871645534E+03    0.50471E-04   -0.62909E-04 15088   0.911E-02
  22 F= -.32987165E+03 E0= -.32986982E+03  d E =-.442590E-02
       N       E                     dE             d eps       ncg     rms          rms(c)
DAV:   1    -0.329872544370E+03   -0.84837E-03   -0.92064E-02 15624   0.109E+00    0.180E-01
DAV:   2    -0.329872986612E+03   -0.44224E-03   -0.90594E-03 22824   0.348E-01    0.144E-01
DAV:   3    -0.329872808670E+03    0.17794E-03   -0.44787E-03 20200   0.211E-01    0.106E-01
DAV:   4    -0.329872681146E+03    0.12752E-03   -0.13143E-03 18400   0.119E-01    0.641E-02
DAV:   5    -0.329872616077E+03    0.65069E-04   -0.65171E-04 15152   0.891E-02
  23 F= -.32987262E+03 E0= -.32987078E+03  d E =-.970543E-03
       N       E                     dE             d eps       ncg     rms          rms(c)
DAV:   1    -0.329873129247E+03   -0.44810E-03   -0.82127E-01 15632   0.326E+00    0.518E-01
DAV:   2    -0.329877029002E+03   -0.38998E-02   -0.76563E-02 22400   0.103E+00    0.422E-01
DAV:   3    -0.329875601953E+03    0.14270E-02   -0.38281E-02 22280   0.619E-01    0.309E-01
DAV:   4    -0.329874540033E+03    0.10619E-02   -0.11382E-02 22216   0.346E-01    0.187E-01
DAV:   5    -0.329873981079E+03    0.55895E-03   -0.62457E-03 21344   0.245E-01    0.103E-01
DAV:   6    -0.329873853824E+03    0.12726E-03   -0.21597E-03 20752   0.143E-01    0.707E-02
DAV:   7    -0.329873816209E+03    0.37615E-04   -0.89217E-04 17600   0.917E-02
  24 F= -.32987382E+03 E0= -.32987196E+03  d E =-.217068E-02
       N       E                     dE             d eps       ncg     rms          rms(c)
DAV:   1    -0.329874305022E+03   -0.45120E-03   -0.45392E-02 16000   0.697E-01    0.686E-02
DAV:   2    -0.329874499221E+03   -0.19420E-03   -0.25994E-03 24536   0.216E-01    0.706E-02
DAV:   3    -0.329874470066E+03    0.29155E-04   -0.63173E-04 15120   0.793E-02
  25 F= -.32987447E+03 E0= -.32987262E+03  d E =-.653857E-03
       N       E                     dE             d eps       ncg     rms          rms(c)
DAV:   1    -0.329874615247E+03   -0.11603E-03   -0.40450E-01 15816   0.208E+00    0.180E-01
DAV:   2    -0.329876229565E+03   -0.16143E-02   -0.20857E-02 24968   0.622E-01    0.162E-01
DAV:   3    -0.329876199632E+03    0.29933E-04   -0.40001E-03 22720   0.197E-01    0.137E-01
DAV:   4    -0.329875982915E+03    0.21672E-03   -0.11342E-03 17720   0.111E-01    0.811E-02
DAV:   5    -0.329876012851E+03   -0.29936E-04   -0.95275E-04 17016   0.997E-02
  26 F= -.32987601E+03 E0= -.32987413E+03  d E =-.219664E-02
       N       E                     dE             d eps       ncg     rms          rms(c)
DAV:   1    -0.329876679783E+03   -0.69687E-03   -0.14753E-02 21096   0.598E-01    0.189E-01
DAV:   2    -0.329876847057E+03   -0.16727E-03   -0.58547E-03 24472   0.300E-01    0.163E-01
DAV:   3    -0.329876463033E+03    0.38402E-03   -0.47426E-03 19808   0.208E-01    0.963E-02
DAV:   4    -0.329876439152E+03    0.23881E-04   -0.15700E-03 19064   0.125E-01    0.809E-02
DAV:   5    -0.329876320683E+03    0.11847E-03   -0.87717E-04 16216   0.957E-02    0.337E-02
DAV:   6    -0.329876304126E+03    0.16557E-04   -0.15135E-04  9752   0.556E-02
  27 F= -.32987630E+03 E0= -.32987446E+03  d E =-.291275E-03
       N       E                     dE             d eps       ncg     rms          rms(c)
DAV:   1    -0.329876966122E+03   -0.64544E-03   -0.21500E-02 21016   0.733E-01    0.220E-01
DAV:   2    -0.329877059316E+03   -0.93195E-04   -0.70646E-03 25240   0.338E-01    0.182E-01
DAV:   3    -0.329876686225E+03    0.37309E-03   -0.63491E-03 20080   0.227E-01    0.117E-01
DAV:   4    -0.329876582585E+03    0.10364E-03   -0.20657E-03 20312   0.143E-01    0.816E-02
DAV:   5    -0.329876481131E+03    0.10145E-03   -0.10461E-03 17120   0.107E-01    0.439E-02
DAV:   6    -0.329876450905E+03    0.30226E-04   -0.18188E-04 10024   0.604E-02
  28 F= -.32987645E+03 E0= -.32987462E+03  d E =-.438053E-03
