<?xml version="1.0" encoding="ISO-8859-1"?>
<modeling>
 <generator>
  <i name="program" type="string">vasp </i>
  <i name="version" type="string">5.4.4.18Apr17-6-g9f103f2a35  </i>
  <i name="subversion" type="string">(build Aug 09 2018 16:20:53) complex            parallel </i>
  <i name="platform" type="string">LinuxIFC </i>
  <i name="date" type="string">2020 04 13 </i>
  <i name="time" type="string">18:20:46 </i>
 </generator>
 <incar>
  <i type="string" name="SYSTEM"> SQS with 1 vacancy for VFE and VRV</i>
  <i type="string" name="PREC">normal</i>
  <i type="int" name="IALGO">    38</i>
  <i type="int" name="ICHARG">     2</i>
  <i type="int" name="IBRION">     2</i>
  <i type="int" name="NSW">    50</i>
  <i type="int" name="ISIF">     3</i>
  <i type="int" name="ISYM">     0</i>
  <i name="ENCUT">    600.00000000</i>
  <i type="string" name="LREAL"> Auto</i>
  <i type="int" name="ISMEAR">     1</i>
  <i name="SIGMA">      0.20000000</i>
  <v type="int" name="KPOINT_BSE">    -1     0     0     0</v>
  <i type="string" name="GGA"> PS</i>
 </incar>
 <structure name="primitive_cell" >
  <crystal>
   <varray name="basis" >
    <v>      -3.19000000      -3.19000000      -3.19000000 </v>
    <v>       1.59500000       1.59500000      -7.97500000 </v>
    <v>       7.97500000      -7.97500000      -1.59500000 </v>
   </varray>
   <i name="volume">    486.92638500 </i>
   <varray name="rec_basis" >
    <v>      -0.13584117      -0.12539185      -0.05224660 </v>
    <v>       0.04179728       0.06269592      -0.10449321 </v>
    <v>       0.06269592      -0.06269592       0.00000000 </v>
   </varray>
  </crystal>
  <varray name="positions" >
   <v>      -0.03333333      -0.06666667       0.40000000 </v>
   <v>       0.30000000      -0.40000000       0.40000000 </v>
   <v>      -0.10000000      -0.20000000       0.20000000 </v>
   <v>       0.06666667       0.13333333       0.20000000 </v>
   <v>       0.46666667      -0.06666667       0.40000000 </v>
   <v>      -0.13333333      -0.26666667      -0.40000000 </v>
   <v>       0.03333333       0.06666667      -0.40000000 </v>
   <v>      -0.36666667       0.26666667       0.40000000 </v>
   <v>       0.40000000      -0.20000000       0.20000000 </v>
   <v>      -0.20000000      -0.40000000       0.40000000 </v>
   <v>      -0.43333333       0.13333333       0.20000000 </v>
   <v>       0.36666667      -0.26666667      -0.40000000 </v>
   <v>       0.13333333       0.26666667       0.40000000 </v>
   <v>      -0.46666667       0.06666667      -0.40000000 </v>
   <v>       0.23333333       0.46666667       0.20000000 </v>
   <v>       0.20000000       0.40000000      -0.40000000 </v>
   <v>       0.00000000       0.00000000       0.00000000 </v>
   <v>      -0.06666667      -0.13333333      -0.20000000 </v>
   <v>      -0.30000000       0.40000000      -0.40000000 </v>
   <v>      -0.26666667       0.46666667       0.20000000 </v>
   <v>       0.33333333      -0.33333333       0.00000000 </v>
   <v>       0.43333333      -0.13333333      -0.20000000 </v>
   <v>      -0.50000000       0.00000000       0.00000000 </v>
   <v>       0.26666667      -0.46666667      -0.20000000 </v>
   <v>      -0.33333333       0.33333333       0.00000000 </v>
   <v>      -0.40000000       0.20000000      -0.20000000 </v>
   <v>      -0.16666667      -0.33333333       0.00000000 </v>
   <v>       0.16666667       0.33333333       0.00000000 </v>
   <v>       0.10000000       0.20000000      -0.20000000 </v>
  </varray>
 </structure>
 <varray name="primitive_index" >
  <v type="int" >        1 </v>
  <v type="int" >       18 </v>
  <v type="int" >        7 </v>
  <v type="int" >       24 </v>
  <v type="int" >       20 </v>
  <v type="int" >       19 </v>
  <v type="int" >        6 </v>
  <v type="int" >        2 </v>
  <v type="int" >       16 </v>
  <v type="int" >        8 </v>
  <v type="int" >       15 </v>
  <v type="int" >       11 </v>
  <v type="int" >       12 </v>
  <v type="int" >       27 </v>
  <v type="int" >       29 </v>
  <v type="int" >       23 </v>
  <v type="int" >        4 </v>
  <v type="int" >       14 </v>
  <v type="int" >       25 </v>
  <v type="int" >        9 </v>
  <v type="int" >       28 </v>
  <v type="int" >       17 </v>
  <v type="int" >        3 </v>
  <v type="int" >       22 </v>
  <v type="int" >       10 </v>
  <v type="int" >       26 </v>
  <v type="int" >       13 </v>
  <v type="int" >       21 </v>
  <v type="int" >        5 </v>
 </varray>
 <kpoints>
  <generation param="Gamma">
   <v type="int" name="divisions">       5        5        5 </v>
   <v name="usershift">      0.00000000       0.00000000       0.00000000 </v>
   <v name="genvec1">      0.20000000      -0.00000000      -0.00000000 </v>
   <v name="genvec2">      0.00000000       0.20000000       0.00000000 </v>
   <v name="genvec3">      0.00000000       0.00000000       0.20000000 </v>
   <v name="shift">      0.00000000       0.00000000       0.00000000 </v>
  </generation>
  <varray name="kpointlist" >
   <v>       0.00000000       0.00000000       0.00000000 </v>
   <v>       0.20000000      -0.00000000       0.00000000 </v>
   <v>       0.40000000      -0.00000000       0.00000000 </v>
   <v>       0.00000000       0.20000000       0.00000000 </v>
   <v>       0.20000000       0.20000000      -0.00000000 </v>
   <v>       0.40000000       0.20000000      -0.00000000 </v>
   <v>      -0.40000000       0.20000000      -0.00000000 </v>
   <v>      -0.20000000       0.20000000       0.00000000 </v>
   <v>       0.00000000       0.40000000       0.00000000 </v>
   <v>       0.20000000       0.40000000       0.00000000 </v>
   <v>       0.40000000       0.40000000      -0.00000000 </v>
   <v>      -0.40000000       0.40000000       0.00000000 </v>
   <v>      -0.20000000       0.40000000       0.00000000 </v>
   <v>       0.00000000       0.00000000       0.20000000 </v>
   <v>       0.20000000      -0.00000000       0.20000000 </v>
   <v>       0.40000000       0.00000000       0.20000000 </v>
   <v>      -0.40000000       0.00000000       0.20000000 </v>
   <v>      -0.20000000       0.00000000       0.20000000 </v>
   <v>       0.00000000       0.20000000       0.20000000 </v>
   <v>       0.20000000       0.20000000       0.20000000 </v>
   <v>       0.40000000       0.20000000       0.20000000 </v>
   <v>      -0.40000000       0.20000000       0.20000000 </v>
   <v>      -0.20000000       0.20000000       0.20000000 </v>
   <v>       0.00000000       0.40000000       0.20000000 </v>
   <v>       0.20000000       0.40000000       0.20000000 </v>
   <v>       0.40000000       0.40000000       0.20000000 </v>
   <v>      -0.40000000       0.40000000       0.20000000 </v>
   <v>      -0.20000000       0.40000000       0.20000000 </v>
   <v>       0.00000000      -0.40000000       0.20000000 </v>
   <v>       0.20000000      -0.40000000       0.20000000 </v>
   <v>       0.40000000      -0.40000000       0.20000000 </v>
   <v>      -0.40000000      -0.40000000       0.20000000 </v>
   <v>      -0.20000000      -0.40000000       0.20000000 </v>
   <v>       0.00000000      -0.20000000       0.20000000 </v>
   <v>       0.20000000      -0.20000000       0.20000000 </v>
   <v>       0.40000000      -0.20000000       0.20000000 </v>
   <v>      -0.40000000      -0.20000000       0.20000000 </v>
   <v>      -0.20000000      -0.20000000       0.20000000 </v>
   <v>       0.00000000       0.00000000       0.40000000 </v>
   <v>       0.20000000      -0.00000000       0.40000000 </v>
   <v>       0.40000000      -0.00000000       0.40000000 </v>
   <v>      -0.40000000       0.00000000       0.40000000 </v>
   <v>      -0.20000000       0.00000000       0.40000000 </v>
   <v>      -0.00000000       0.20000000       0.40000000 </v>
   <v>       0.20000000       0.20000000       0.40000000 </v>
   <v>       0.40000000       0.20000000       0.40000000 </v>
   <v>      -0.40000000       0.20000000       0.40000000 </v>
   <v>      -0.20000000       0.20000000       0.40000000 </v>
   <v>       0.00000000       0.40000000       0.40000000 </v>
   <v>       0.20000000       0.40000000       0.40000000 </v>
   <v>       0.40000000       0.40000000       0.40000000 </v>
   <v>      -0.40000000       0.40000000       0.40000000 </v>
   <v>      -0.20000000       0.40000000       0.40000000 </v>
   <v>       0.00000000      -0.40000000       0.40000000 </v>
   <v>       0.20000000      -0.40000000       0.40000000 </v>
   <v>       0.40000000      -0.40000000       0.40000000 </v>
   <v>      -0.40000000      -0.40000000       0.40000000 </v>
   <v>      -0.20000000      -0.40000000       0.40000000 </v>
   <v>       0.00000000      -0.20000000       0.40000000 </v>
   <v>       0.20000000      -0.20000000       0.40000000 </v>
   <v>       0.40000000      -0.20000000       0.40000000 </v>
   <v>      -0.40000000      -0.20000000       0.40000000 </v>
   <v>      -0.20000000      -0.20000000       0.40000000 </v>
  </varray>
  <varray name="weights" >
   <v>       0.00800000 </v>
   <v>       0.01600000 </v>
   <v>       0.01600000 </v>
   <v>       0.01600000 </v>
   <v>       0.01600000 </v>
   <v>       0.01600000 </v>
   <v>       0.01600000 </v>
   <v>       0.01600000 </v>
   <v>       0.01600000 </v>
   <v>       0.01600000 </v>
   <v>       0.01600000 </v>
   <v>       0.01600000 </v>
   <v>       0.01600000 </v>
   <v>       0.01600000 </v>
   <v>       0.01600000 </v>
   <v>       0.01600000 </v>
   <v>       0.01600000 </v>
   <v>       0.01600000 </v>
   <v>       0.01600000 </v>
   <v>       0.01600000 </v>
   <v>       0.01600000 </v>
   <v>       0.01600000 </v>
   <v>       0.01600000 </v>
   <v>       0.01600000 </v>
   <v>       0.01600000 </v>
   <v>       0.01600000 </v>
   <v>       0.01600000 </v>
   <v>       0.01600000 </v>
   <v>       0.01600000 </v>
   <v>       0.01600000 </v>
   <v>       0.01600000 </v>
   <v>       0.01600000 </v>
   <v>       0.01600000 </v>
   <v>       0.01600000 </v>
   <v>       0.01600000 </v>
   <v>       0.01600000 </v>
   <v>       0.01600000 </v>
   <v>       0.01600000 </v>
   <v>       0.01600000 </v>
   <v>       0.01600000 </v>
   <v>       0.01600000 </v>
   <v>       0.01600000 </v>
   <v>       0.01600000 </v>
   <v>       0.01600000 </v>
   <v>       0.01600000 </v>
   <v>       0.01600000 </v>
   <v>       0.01600000 </v>
   <v>       0.01600000 </v>
   <v>       0.01600000 </v>
   <v>       0.01600000 </v>
   <v>       0.01600000 </v>
   <v>       0.01600000 </v>
   <v>       0.01600000 </v>
   <v>       0.01600000 </v>
   <v>       0.01600000 </v>
   <v>       0.01600000 </v>
   <v>       0.01600000 </v>
   <v>       0.01600000 </v>
   <v>       0.01600000 </v>
   <v>       0.01600000 </v>
   <v>       0.01600000 </v>
   <v>       0.01600000 </v>
   <v>       0.01600000 </v>
  </varray>
 </kpoints>
 <parameters>
  <separator name="general" >
   <i type="string" name="SYSTEM">SQS with 1 vacancy for VFE and VRV</i>
   <i type="logical" name="LCOMPAT"> F  </i>
  </separator>
  <separator name="electronic" >
   <i type="string" name="PREC">normal</i>
   <i name="ENMAX">    600.00000000</i>
   <i name="ENAUG">    455.65900000</i>
   <i name="EDIFF">      0.00010000</i>
   <i type="int" name="IALGO">    38</i>
   <i type="int" name="IWAVPR">    11</i>
   <i type="int" name="NBANDS">   120</i>
   <i name="NELECT">    198.00000000</i>
   <i type="int" name="TURBO">     0</i>
   <i type="int" name="IRESTART">     0</i>
   <i type="int" name="NREBOOT">     0</i>
   <i type="int" name="NMIN">     0</i>
   <i name="EREF">      0.00000000</i>
   <separator name="electronic smearing" >
    <i type="int" name="ISMEAR">     1</i>
    <i name="SIGMA">      0.20000000</i>
    <i name="KSPACING">      0.50000000</i>
    <i type="logical" name="KGAMMA"> T  </i>
   </separator>
   <separator name="electronic projectors" >
    <i type="logical" name="LREAL"> T  </i>
    <v name="ROPT">     -0.00050000     -0.00050000     -0.00050000     -0.00050000     -0.00050000</v>
    <i type="int" name="LMAXPAW">  -100</i>
    <i type="int" name="LMAXMIX">     2</i>
    <i type="logical" name="NLSPLINE"> F  </i>
   </separator>
   <separator name="electronic startup" >
    <i type="int" name="ISTART">     0</i>
    <i type="int" name="ICHARG">     2</i>
    <i type="int" name="INIWAV">     1</i>
   </separator>
   <separator name="electronic spin" >
    <i type="int" name="ISPIN">     1</i>
    <i type="logical" name="LNONCOLLINEAR"> F  </i>
    <v name="MAGMOM">      1.00000000      1.00000000      1.00000000      1.00000000      1.00000000      1.00000000      1.00000000      1.00000000      1.00000000      1.00000000      1.00000000      1.00000000      1.00000000      1.00000000      1.00000000      1.00000000      1.00000000      1.00000000      1.00000000      1.00000000
      1.00000000      1.00000000      1.00000000      1.00000000      1.00000000      1.00000000      1.00000000      1.00000000      1.00000000</v>
    <i name="NUPDOWN">     -1.00000000</i>
    <i type="logical" name="LSORBIT"> F  </i>
    <v name="SAXIS">      0.00000000      0.00000000      1.00000000</v>
    <i type="logical" name="LSPIRAL"> F  </i>
    <v name="QSPIRAL">      0.00000000      0.00000000      0.00000000</v>
    <i type="logical" name="LZEROZ"> F  </i>
   </separator>
   <separator name="electronic exchange-correlation" >
    <i type="logical" name="LASPH"> F  </i>
    <i type="logical" name="LMETAGGA"> F  </i>
   </separator>
   <separator name="electronic convergence" >
    <i type="int" name="NELM">    60</i>
    <i type="int" name="NELMDL">    -5</i>
    <i type="int" name="NELMIN">     2</i>
    <i name="ENINI">    600.00000000</i>
    <separator name="electronic convergence detail" >
     <i type="logical" name="LDIAG"> T  </i>
     <i type="logical" name="LSUBROT"> F  </i>
     <i name="WEIMIN">      0.00100000</i>
     <i name="EBREAK">      0.00000021</i>
     <i name="DEPER">      0.30000000</i>
     <i type="int" name="NRMM">     4</i>
     <i name="TIME">      0.40000000</i>
    </separator>
   </separator>
   <separator name="electronic mixer" >
    <i name="AMIX">      0.40000000</i>
    <i name="BMIX">      1.00000000</i>
    <i name="AMIN">      0.10000000</i>
    <i name="AMIX_MAG">      1.60000000</i>
    <i name="BMIX_MAG">      1.00000000</i>
    <separator name="electronic mixer details" >
     <i type="int" name="IMIX">     4</i>
     <i type="logical" name="MIXFIRST"> F  </i>
     <i type="int" name="MAXMIX">   -45</i>
     <i name="WC">    100.00000000</i>
     <i type="int" name="INIMIX">     1</i>
     <i type="int" name="MIXPRE">     1</i>
     <i type="int" name="MREMOVE">     5</i>
    </separator>
   </separator>
   <separator name="electronic dipolcorrection" >
    <i type="logical" name="LDIPOL"> F  </i>
    <i type="logical" name="LMONO"> F  </i>
    <i type="int" name="IDIPOL">     0</i>
    <i name="EPSILON">      1.00000000</i>
    <v name="DIPOL">   -100.00000000   -100.00000000   -100.00000000</v>
    <i name="EFIELD">      0.00000000</i>
   </separator>
  </separator>
  <separator name="grids" >
   <i type="int" name="NGX">    36</i>
   <i type="int" name="NGY">    50</i>
   <i type="int" name="NGZ">    70</i>
   <i type="int" name="NGXF">    72</i>
   <i type="int" name="NGYF">   100</i>
   <i type="int" name="NGZF">   140</i>
   <i type="logical" name="ADDGRID"> F  </i>
  </separator>
  <separator name="ionic" >
   <i type="int" name="NSW">    50</i>
   <i type="int" name="IBRION">     2</i>
   <i type="int" name="MDALGO">     0</i>
   <i type="int" name="ISIF">     3</i>
   <i name="PSTRESS">      0.00000000</i>
   <i name="EDIFFG">      0.00100000</i>
   <i type="int" name="NFREE">     1</i>
   <i name="POTIM">      0.50000000</i>
   <i name="SMASS">     -3.00000000</i>
   <i name="SCALEE">      1.00000000</i>
  </separator>
  <separator name="ionic md" >
   <i name="TEBEG">      0.00010000</i>
   <i name="TEEND">      0.00010000</i>
   <i type="int" name="NBLOCK">     1</i>
   <i type="int" name="KBLOCK">    50</i>
   <i type="int" name="NPACO">   256</i>
   <i name="APACO">     16.00000000</i>
  </separator>
  <separator name="symmetry" >
   <i type="int" name="ISYM">     0</i>
   <i name="SYMPREC">      0.00001000</i>
  </separator>
  <separator name="dos" >
   <i type="int" name="LORBIT">     0</i>
   <v name="RWIGS">     -1.00000000     -1.00000000     -1.00000000     -1.00000000     -1.00000000</v>
   <i type="int" name="NEDOS">   301</i>
   <i name="EMIN">     10.00000000</i>
   <i name="EMAX">    -10.00000000</i>
   <i name="EFERMI">      0.00000000</i>
  </separator>
  <separator name="writing" >
   <i type="int" name="NWRITE">     2</i>
   <i type="logical" name="LWAVE"> T  </i>
   <i type="logical" name="LDOWNSAMPLE"> F  </i>
   <i type="logical" name="LCHARG"> T  </i>
   <i type="logical" name="LPARD"> F  </i>
   <i type="logical" name="LVTOT"> F  </i>
   <i type="logical" name="LVHAR"> F  </i>
   <i type="logical" name="LELF"> F  </i>
   <i type="logical" name="LOPTICS"> F  </i>
   <v name="STM">      0.00000000      0.00000000      0.00000000      0.00000000      0.00000000      0.00000000      0.00000000</v>
  </separator>
  <separator name="performance" >
   <i type="int" name="NPAR">     8</i>
   <i type="int" name="NSIM">     4</i>
   <i type="int" name="NBLK">    -1</i>
   <i type="logical" name="LPLANE"> T  </i>
   <i type="logical" name="LSCALAPACK"> T  </i>
   <i type="logical" name="LSCAAWARE"> F  </i>
   <i type="logical" name="LSCALU"> F  </i>
   <i type="logical" name="LASYNC"> F  </i>
   <i type="logical" name="LORBITALREAL"> F  </i>
  </separator>
  <separator name="miscellaneous" >
   <i type="int" name="IDIOT">     3</i>
   <i type="int" name="ISPECIAL">     0</i>
   <i type="logical" name="LMUSIC"> F  </i>
   <v name="POMASS">     92.91000000     95.94000000    180.94800000     47.88000000    183.85000000</v>
   <v name="DARWINR">      0.00000000      0.00000000      0.00000000      0.00000000      0.00000000</v>
   <v name="DARWINV">      1.00000000      1.00000000      1.00000000      1.00000000      1.00000000</v>
   <i type="logical" name="LCORR"> T  </i>
  </separator>
  <i type="logical" name="GGA_COMPAT"> T  </i>
  <i type="logical" name="LBERRY"> F  </i>
  <i type="int" name="ICORELEVEL">     0</i>
  <i type="logical" name="LDAU"> F  </i>
  <i type="int" name="I_CONSTRAINED_M">     0</i>
  <separator name="electronic exchange-correlation" >
   <i type="string" name="GGA">PS</i>
   <i type="int" name="VOSKOWN">     0</i>
   <i type="logical" name="LHFCALC"> F  </i>
   <i type="string" name="PRECFOCK"></i>
   <i type="logical" name="LSYMGRAD"> F  </i>
   <i type="logical" name="LHFONE"> F  </i>
   <i type="logical" name="LRHFCALC"> F  </i>
   <i type="logical" name="LTHOMAS"> F  </i>
   <i type="logical" name="LMODELHF"> F  </i>
   <i name="ENCUT4O">     -1.00000000</i>
   <i type="int" name="EXXOEP">     0</i>
   <i type="int" name="FOURORBIT">     0</i>
   <i name="AEXX">      0.00000000</i>
   <i name="HFALPHA">      0.00000000</i>
   <i name="MCALPHA">      0.00000000</i>
   <i name="ALDAX">      1.00000000</i>
   <i name="AGGAX">      1.00000000</i>
   <i name="ALDAC">      1.00000000</i>
   <i name="AGGAC">      1.00000000</i>
   <i type="int" name="NKREDX">     1</i>
   <i type="int" name="NKREDY">     1</i>
   <i type="int" name="NKREDZ">     1</i>
   <i type="logical" name="SHIFTRED"> F  </i>
   <i type="logical" name="ODDONLY"> F  </i>
   <i type="logical" name="EVENONLY"> F  </i>
   <i type="int" name="LMAXFOCK">     0</i>
   <i type="int" name="NMAXFOCKAE">     0</i>
   <i type="logical" name="LFOCKAEDFT"> F  </i>
   <i name="HFSCREEN">      0.00000000</i>
   <i name="HFSCREENC">      0.00000000</i>
   <i type="int" name="NBANDSGWLOW">     0</i>
  </separator>
  <separator name="vdW DFT" >
   <i type="logical" name="LUSE_VDW"> F  </i>
   <i name="Zab_VDW">     -0.84910000</i>
   <i name="PARAM1">      0.12340000</i>
   <i name="PARAM2">      1.00000000</i>
   <i name="PARAM3">      0.00000000</i>
  </separator>
  <separator name="model GW" >
   <i type="int" name="MODEL_GW">     0</i>
   <i name="MODEL_EPS0">     10.07433900</i>
   <i name="MODEL_ALPHA">      1.00000000</i>
  </separator>
  <separator name="linear response parameters" >
   <i type="logical" name="LEPSILON"> F  </i>
   <i type="logical" name="LRPA"> F  </i>
   <i type="logical" name="LNABLA"> F  </i>
   <i type="logical" name="LVEL"> F  </i>
   <i type="int" name="KINTER">     0</i>
   <i name="CSHIFT">      0.10000000</i>
   <i name="OMEGAMAX">     -1.00000000</i>
   <i name="DEG_THRESHOLD">      0.00200000</i>
   <i name="RTIME">     -0.10000000</i>
   <i name="WPLASMAI">      0.00000000</i>
   <v name="DFIELD">      0.00000000      0.00000000      0.00000000</v>
   <v name="WPLASMA">      0.00000000      0.00000000      0.00000000      0.00000000      0.00000000      0.00000000      0.00000000      0.00000000      0.00000000</v>
  </separator>
  <separator name="orbital magnetization" >
   <i type="logical" name="NUCIND"> F  </i>
   <v name="MAGPOS">      0.00000000      0.00000000      0.00000000</v>
   <i type="logical" name="LNICSALL"> T  </i>
   <i type="logical" name="ORBITALMAG"> F  </i>
   <i type="logical" name="LMAGBLOCH"> F  </i>
   <i type="logical" name="LCHIMAG"> F  </i>
   <i type="logical" name="LGAUGE"> T  </i>
   <i type="int" name="MAGATOM">     0</i>
   <v name="MAGDIPOL">      0.00000000      0.00000000      0.00000000</v>
   <v name="AVECCONST">      0.00000000      0.00000000      0.00000000</v>
  </separator>
  <separator name="response functions" >
   <i type="logical" name="LADDER"> F  </i>
   <i type="logical" name="LRPAFORCE"> F  </i>
   <i type="logical" name="LFXC"> F  </i>
   <i type="logical" name="LHARTREE"> T  </i>
   <i type="int" name="IBSE">     0</i>
   <v type="int" name="KPOINT">    -1     0     0     0</v>
   <i type="logical" name="LTCTE"> F  </i>
   <i type="logical" name="LTETE"> F  </i>
   <i type="logical" name="LTRIPLET"> F  </i>
   <i type="logical" name="LFXCEPS"> F  </i>
   <i type="logical" name="LFXHEG"> F  </i>
   <i type="int" name="NATURALO">     2</i>
   <i type="logical" name="L2ORDER"> F  </i>
   <i type="logical" name="LMP2LT"> F  </i>
   <i type="logical" name="LUSEW"> F  </i>
   <i name="ENCUTGW">     -2.00000000</i>
   <i name="ENCUTGWSOFT">     -2.00000000</i>
   <i name="ENCUTLF">     -1.00000000</i>
   <i type="int" name="LMAXMP2">    -1</i>
   <i name="SCISSOR">      0.00000000</i>
   <i type="int" name="NOMEGA">     0</i>
   <i type="int" name="NOMEGAR">     0</i>
   <i type="int" name="NBANDSGW">    -1</i>
   <i type="int" name="NBANDSO">    -1</i>
   <i type="int" name="NBANDSV">    -1</i>
   <i type="int" name="NELM">     1</i>
   <i type="int" name="NELMHF">     1</i>
   <i type="int" name="DIM">     3</i>
   <i type="int" name="ANTIRES">     0</i>
   <i name="OMEGAMAX">    -30.00000000</i>
   <i name="OMEGAMIN">    -30.00000000</i>
   <i name="OMEGATL">   -200.00000000</i>
   <i type="int" name="OMEGAGRID">   140</i>
   <i name="CSHIFT">     -0.10000000</i>
   <i type="logical" name="SELFENERGY"> F  </i>
   <i type="logical" name="LSPECTRAL"> F  </i>
   <i type="logical" name="LSPECTRALGW"> F  </i>
   <i type="logical" name="LSINGLES"> F  </i>
   <i type="logical" name="LFERMIGW"> F  </i>
   <i type="logical" name="ODDONLYGW"> F  </i>
   <i type="logical" name="EVENONLYGW"> F  </i>
   <i type="int" name="NKREDLFX">     1</i>
   <i type="int" name="NKREDLFY">     1</i>
   <i type="int" name="NKREDLFZ">     1</i>
   <i type="int" name="MAXMEM">  2800</i>
   <i type="int" name="TELESCOPE">     0</i>
   <i type="int" name="TAUPAR">     1</i>
   <i type="int" name="OMEGAPAR">    -1</i>
   <i name="LAMBDA">      1.00000000</i>
  </separator>
  <separator name="External order field" >
   <i name="OFIELD_KAPPA">      0.00000000</i>
   <v name="OFIELD_K">      0.00000000      0.00000000      0.00000000</v>
   <i name="OFIELD_Q6_NEAR">      0.00000000</i>
   <i name="OFIELD_Q6_FAR">      0.00000000</i>
   <i name="OFIELD_A">      0.00000000</i>
  </separator>
  <separator name="solvation model" >
   <i type="logical" name="LSOL"> F  </i>
  </separator>
 </parameters>
 <atominfo>
  <atoms>      29 </atoms>
  <types>       5 </types>
  <array name="atoms" >
   <dimension dim="1">ion</dimension>
   <field type="string">element</field>
   <field type="int">atomtype</field>
   <set>
    <rc><c>Nb</c><c>   1</c></rc>
    <rc><c>Nb</c><c>   1</c></rc>
    <rc><c>Nb</c><c>   1</c></rc>
    <rc><c>Nb</c><c>   1</c></rc>
    <rc><c>Nb</c><c>   1</c></rc>
    <rc><c>Nb</c><c>   1</c></rc>
    <rc><c>Mo</c><c>   2</c></rc>
    <rc><c>Mo</c><c>   2</c></rc>
    <rc><c>Mo</c><c>   2</c></rc>
    <rc><c>Mo</c><c>   2</c></rc>
    <rc><c>Mo</c><c>   2</c></rc>
    <rc><c>Mo</c><c>   2</c></rc>
    <rc><c>Ta</c><c>   3</c></rc>
    <rc><c>Ta</c><c>   3</c></rc>
    <rc><c>Ta</c><c>   3</c></rc>
    <rc><c>Ta</c><c>   3</c></rc>
    <rc><c>Ta</c><c>   3</c></rc>
    <rc><c>Ta</c><c>   3</c></rc>
    <rc><c>Ti</c><c>   4</c></rc>
    <rc><c>Ti</c><c>   4</c></rc>
    <rc><c>Ti</c><c>   4</c></rc>
    <rc><c>Ti</c><c>   4</c></rc>
    <rc><c>Ti</c><c>   4</c></rc>
    <rc><c>Ti</c><c>   4</c></rc>
    <rc><c>W </c><c>   5</c></rc>
    <rc><c>W </c><c>   5</c></rc>
    <rc><c>W </c><c>   5</c></rc>
    <rc><c>W </c><c>   5</c></rc>
    <rc><c>W </c><c>   5</c></rc>
   </set>
  </array>
  <array name="atomtypes" >
   <dimension dim="1">type</dimension>
   <field type="int">atomspertype</field>
   <field type="string">element</field>
   <field>mass</field>
   <field>valence</field>
   <field type="string">pseudopotential</field>
   <set>
    <rc><c>   6</c><c>Nb</c><c>     92.91000000</c><c>     13.00000000</c><c>  PAW_PBE Nb_sv 25May2007               </c></rc>
    <rc><c>   6</c><c>Mo</c><c>     95.94000000</c><c>      6.00000000</c><c>  PAW_PBE Mo 08Apr2002                  </c></rc>
    <rc><c>   6</c><c>Ta</c><c>    180.94800000</c><c>      5.00000000</c><c>  PAW_PBE Ta 17Jan2003                  </c></rc>
    <rc><c>   6</c><c>Ti</c><c>     47.88000000</c><c>      4.00000000</c><c>  PAW_PBE Ti 08Apr2002                  </c></rc>
    <rc><c>   5</c><c>W </c><c>    183.85000000</c><c>      6.00000000</c><c>  PAW_PBE W 08Apr2002                   </c></rc>
   </set>
  </array>
 </atominfo>
 <structure name="initialpos" >
  <crystal>
   <varray name="basis" >
    <v>      -3.19000000      -3.19000000      -3.19000000 </v>
    <v>       1.59500000       1.59500000      -7.97500000 </v>
    <v>       7.97500000      -7.97500000      -1.59500000 </v>
   </varray>
   <i name="volume">    486.92638500 </i>
   <varray name="rec_basis" >
    <v>      -0.13584117      -0.12539185      -0.05224660 </v>
    <v>       0.04179728       0.06269592      -0.10449321 </v>
    <v>       0.06269592      -0.06269592       0.00000000 </v>
   </varray>
  </crystal>
  <varray name="positions" >
   <v>       0.96666667       0.93333333       0.40000000 </v>
   <v>       0.63333333       0.26666667       0.40000000 </v>
   <v>       0.50000000       0.00000000       0.00000000 </v>
   <v>       0.00000000       0.00000000       0.00000000 </v>
   <v>       0.10000000       0.20000000       0.80000000 </v>
   <v>       0.03333333       0.06666667       0.60000000 </v>
   <v>       0.90000000       0.80000000       0.20000000 </v>
   <v>       0.80000000       0.60000000       0.40000000 </v>
   <v>       0.73333333       0.46666667       0.20000000 </v>
   <v>       0.66666667       0.33333333       0.00000000 </v>
   <v>       0.36666667       0.73333333       0.60000000 </v>
   <v>       0.13333333       0.26666667       0.40000000 </v>
   <v>       0.83333333       0.66666667       0.00000000 </v>
   <v>       0.93333333       0.86666667       0.80000000 </v>
   <v>       0.56666667       0.13333333       0.20000000 </v>
   <v>       0.40000000       0.80000000       0.20000000 </v>
   <v>       0.43333333       0.86666667       0.80000000 </v>
   <v>       0.30000000       0.60000000       0.40000000 </v>
   <v>       0.86666667       0.73333333       0.60000000 </v>
   <v>       0.46666667       0.93333333       0.40000000 </v>
   <v>       0.16666667       0.33333333       0.00000000 </v>
   <v>       0.26666667       0.53333333       0.80000000 </v>
   <v>       0.20000000       0.40000000       0.60000000 </v>
   <v>       0.06666667       0.13333333       0.20000000 </v>
   <v>       0.70000000       0.40000000       0.60000000 </v>
   <v>       0.60000000       0.20000000       0.80000000 </v>
   <v>       0.53333333       0.06666667       0.60000000 </v>
   <v>       0.33333333       0.66666667       0.00000000 </v>
   <v>       0.23333333       0.46666667       0.20000000 </v>
  </varray>
 </structure>
 <calculation>
  <scstep>
   <time name="dav">   18.20   18.23</time>
   <time name="total">   18.24   18.27</time>
   <energy>
    <i name="alphaZ">   1291.39724513 </i>
    <i name="ewald"> -11371.73819962 </i>
    <i name="hartreedc">  -3298.57439745 </i>
    <i name="XCdc">   -857.02002741 </i>
    <i name="pawpsdc">  12063.15090526 </i>
    <i name="pawaedc"> -10557.55889498 </i>
    <i name="eentropy">      0.00655749 </i>
    <i name="bandstr">   1880.59322496 </i>
    <i name="atom">  13006.21773402 </i>
    <i name="e_fr_energy">   2156.47414740 </i>
    <i name="e_wo_entrp">   2156.46758991 </i>
    <i name="e_0_energy">   2156.47196157 </i>
   </energy>
  </scstep>
  <scstep>
   <time name="dav">   18.35   18.37</time>
   <time name="total">   18.35   18.38</time>
   <energy>
    <i name="e_fr_energy">     74.72348062 </i>
    <i name="e_wo_entrp">     74.72326305 </i>
    <i name="e_0_energy">     74.72340810 </i>
   </energy>
  </scstep>
  <scstep>
   <time name="dav">   28.69   28.72</time>
   <time name="total">   28.69   28.72</time>
   <energy>
    <i name="e_fr_energy">   -299.72912256 </i>
    <i name="e_wo_entrp">   -299.72840812 </i>
    <i name="e_0_energy">   -299.72888442 </i>
   </energy>
  </scstep>
  <scstep>
   <time name="dav">   25.75   25.79</time>
   <time name="total">   25.75   25.79</time>
   <energy>
    <i name="e_fr_energy">   -346.77483395 </i>
    <i name="e_wo_entrp">   -346.77005582 </i>
    <i name="e_0_energy">   -346.77324124 </i>
   </energy>
  </scstep>
  <scstep>
   <time name="dav">   30.58   30.62</time>
   <time name="total">   31.16   31.19</time>
   <energy>
    <i name="e_fr_energy">   -351.87685292 </i>
    <i name="e_wo_entrp">   -351.87350247 </i>
    <i name="e_0_energy">   -351.87573610 </i>
   </energy>
  </scstep>
  <scstep>
   <time name="dav">   24.39   24.42</time>
   <time name="total">   24.99   25.03</time>
   <energy>
    <i name="e_fr_energy">   -347.39473879 </i>
    <i name="e_wo_entrp">   -347.38473987 </i>
    <i name="e_0_energy">   -347.39140582 </i>
   </energy>
  </scstep>
  <scstep>
   <time name="dav">   23.92   23.95</time>
   <time name="total">   24.53   24.56</time>
   <energy>
    <i name="e_fr_energy">   -355.06004679 </i>
    <i name="e_wo_entrp">   -355.05586979 </i>
    <i name="e_0_energy">   -355.05865446 </i>
   </energy>
  </scstep>
  <scstep>
   <time name="dav">   24.74   24.77</time>
   <time name="total">   25.34   25.37</time>
   <energy>
    <i name="e_fr_energy">   -353.22828355 </i>
    <i name="e_wo_entrp">   -353.23270459 </i>
    <i name="e_0_energy">   -353.22975723 </i>
   </energy>
  </scstep>
  <scstep>
   <time name="dav">   24.08   24.10</time>
   <time name="total">   24.68   24.70</time>
   <energy>
    <i name="e_fr_energy">   -337.75310331 </i>
    <i name="e_wo_entrp">   -337.73788611 </i>
    <i name="e_0_energy">   -337.74803091 </i>
   </energy>
  </scstep>
  <scstep>
   <time name="dav">   24.57   24.60</time>
   <time name="total">   25.17   25.20</time>
   <energy>
    <i name="e_fr_energy">   -333.40621123 </i>
    <i name="e_wo_entrp">   -333.39781138 </i>
    <i name="e_0_energy">   -333.40341128 </i>
   </energy>
  </scstep>
  <scstep>
   <time name="dav">   25.12   25.15</time>
   <time name="total">   25.72   25.75</time>
   <energy>
    <i name="e_fr_energy">   -331.42709420 </i>
    <i name="e_wo_entrp">   -331.41400979 </i>
    <i name="e_0_energy">   -331.42273273 </i>
   </energy>
  </scstep>
  <scstep>
   <time name="dav">   24.14   24.18</time>
   <time name="total">   24.74   24.78</time>
   <energy>
    <i name="e_fr_energy">   -330.19505604 </i>
    <i name="e_wo_entrp">   -330.18353175 </i>
    <i name="e_0_energy">   -330.19121461 </i>
   </energy>
  </scstep>
  <scstep>
   <time name="dav">   23.57   23.62</time>
   <time name="total">   24.17   24.23</time>
   <energy>
    <i name="e_fr_energy">   -329.02318902 </i>
    <i name="e_wo_entrp">   -329.00923068 </i>
    <i name="e_0_energy">   -329.01853624 </i>
   </energy>
  </scstep>
  <scstep>
   <time name="dav">   25.11   25.14</time>
   <time name="total">   25.71   25.75</time>
   <energy>
    <i name="e_fr_energy">   -329.00815830 </i>
    <i name="e_wo_entrp">   -328.99576480 </i>
    <i name="e_0_energy">   -329.00402714 </i>
   </energy>
  </scstep>
  <scstep>
   <time name="dav">   24.95   24.99</time>
   <time name="total">   25.55   25.59</time>
   <energy>
    <i name="e_fr_energy">   -328.96173460 </i>
    <i name="e_wo_entrp">   -328.94943410 </i>
    <i name="e_0_energy">   -328.95763443 </i>
   </energy>
  </scstep>
  <scstep>
   <time name="dav">   26.09   26.16</time>
   <time name="total">   26.71   26.80</time>
   <energy>
    <i name="e_fr_energy">   -328.91434492 </i>
    <i name="e_wo_entrp">   -328.89943791 </i>
    <i name="e_0_energy">   -328.90937592 </i>
   </energy>
  </scstep>
  <scstep>
   <time name="dav">   24.20   24.23</time>
   <time name="total">   24.80   24.84</time>
   <energy>
    <i name="e_fr_energy">   -328.90116663 </i>
    <i name="e_wo_entrp">   -328.88668717 </i>
    <i name="e_0_energy">   -328.89634014 </i>
   </energy>
  </scstep>
  <scstep>
   <time name="dav">   24.81   24.84</time>
   <time name="total">   25.41   25.45</time>
   <energy>
    <i name="e_fr_energy">   -328.89943281 </i>
    <i name="e_wo_entrp">   -328.88486866 </i>
    <i name="e_0_energy">   -328.89457809 </i>
   </energy>
  </scstep>
  <scstep>
   <time name="dav">   23.08   23.11</time>
   <time name="total">   23.69   23.72</time>
   <energy>
    <i name="e_fr_energy">   -328.89906512 </i>
    <i name="e_wo_entrp">   -328.88472152 </i>
    <i name="e_0_energy">   -328.89428392 </i>
   </energy>
  </scstep>
  <scstep>
   <time name="dav">   23.40   23.46</time>
   <time name="total">   23.99   24.06</time>
   <energy>
    <i name="e_fr_energy">   -328.89840567 </i>
    <i name="e_wo_entrp">   -328.88394403 </i>
    <i name="e_0_energy">   -328.89358513 </i>
   </energy>
  </scstep>
  <scstep>
   <time name="dav">   22.23   22.29</time>
   <time name="total">   22.83   22.89</time>
   <energy>
    <i name="e_fr_energy">   -328.89824289 </i>
    <i name="e_wo_entrp">   -328.88379607 </i>
    <i name="e_0_energy">   -328.89342728 </i>
   </energy>
  </scstep>
  <scstep>
   <time name="dav">   20.22   20.27</time>
   <time name="total">   20.26   20.33</time>
   <energy>
    <i name="alphaZ">   1291.39724513 </i>
    <i name="ewald"> -11371.73819962 </i>
    <i name="hartreedc">  -3156.68279513 </i>
    <i name="XCdc">   -851.61715538 </i>
    <i name="pawpsdc">  20639.62590089 </i>
    <i name="pawaedc"> -19134.83959374 </i>
    <i name="eentropy">     -0.01449075 </i>
    <i name="bandstr">   -751.24692081 </i>
    <i name="atom">  13006.21773402 </i>
    <i name="e_fr_energy">   -328.89827539 </i>
    <i name="e_wo_entrp">   -328.88378464 </i>
    <i name="e_0_energy">   -328.89344514 </i>
   </energy>
  </scstep>
  <structure>
   <crystal>
    <varray name="basis" >
     <v>      -3.19000000      -3.19000000      -3.19000000 </v>
     <v>       1.59500000       1.59500000      -7.97500000 </v>
     <v>       7.97500000      -7.97500000      -1.59500000 </v>
    </varray>
    <i name="volume">    486.92638500 </i>
    <varray name="rec_basis" >
     <v>      -0.13584117      -0.12539185      -0.05224660 </v>
     <v>       0.04179728       0.06269592      -0.10449321 </v>
     <v>       0.06269592      -0.06269592       0.00000000 </v>
    </varray>
   </crystal>
   <varray name="positions" >
    <v>       0.96666667       0.93333333       0.40000000 </v>
    <v>       0.63333333       0.26666667       0.40000000 </v>
    <v>       0.50000000       0.00000000       0.00000000 </v>
    <v>       0.00000000       0.00000000       0.00000000 </v>
    <v>       0.10000000       0.20000000       0.80000000 </v>
    <v>       0.03333333       0.06666667       0.60000000 </v>
    <v>       0.90000000       0.80000000       0.20000000 </v>
    <v>       0.80000000       0.60000000       0.40000000 </v>
    <v>       0.73333333       0.46666667       0.20000000 </v>
    <v>       0.66666667       0.33333333       0.00000000 </v>
    <v>       0.36666667       0.73333333       0.60000000 </v>
    <v>       0.13333333       0.26666667       0.40000000 </v>
    <v>       0.83333333       0.66666667       0.00000000 </v>
    <v>       0.93333333       0.86666667       0.80000000 </v>
    <v>       0.56666667       0.13333333       0.20000000 </v>
    <v>       0.40000000       0.80000000       0.20000000 </v>
    <v>       0.43333333       0.86666667       0.80000000 </v>
    <v>       0.30000000       0.60000000       0.40000000 </v>
    <v>       0.86666667       0.73333333       0.60000000 </v>
    <v>       0.46666667       0.93333333       0.40000000 </v>
    <v>       0.16666667       0.33333333       0.00000000 </v>
    <v>       0.26666667       0.53333333       0.80000000 </v>
    <v>       0.20000000       0.40000000       0.60000000 </v>
    <v>       0.06666667       0.13333333       0.20000000 </v>
    <v>       0.70000000       0.40000000       0.60000000 </v>
    <v>       0.60000000       0.20000000       0.80000000 </v>
    <v>       0.53333333       0.06666667       0.60000000 </v>
    <v>       0.33333333       0.66666667       0.00000000 </v>
    <v>       0.23333333       0.46666667       0.20000000 </v>
   </varray>
  </structure>
  <varray name="forces" >
   <v>      -0.21554105       0.63069526       0.27491593 </v>
   <v>       0.13687640      -0.07771375       0.05198185 </v>
   <v>      -0.05516193       0.29789351      -0.24081764 </v>
   <v>       0.26910437      -0.01783592      -0.10014769 </v>
   <v>       0.54211752       0.79886998      -0.78690350 </v>
   <v>      -0.33044451       0.04826827      -0.25595539 </v>
   <v>       0.27860915      -0.50054236       0.07700396 </v>
   <v>      -0.36106821      -0.28850568       0.53708398 </v>
   <v>      -0.18310225       0.16253917      -0.03688350 </v>
   <v>       0.14401664       0.46214166      -0.52195087 </v>
   <v>      -0.06929535      -0.11870195       0.61591797 </v>
   <v>       0.15169894       0.21957324      -0.48786659 </v>
   <v>      -0.02339176      -0.18468372       0.61420152 </v>
   <v>      -0.03107695       0.11108031      -0.80651851 </v>
   <v>      -0.22220373       0.25210636      -0.01198045 </v>
   <v>      -0.69622113      -0.22788824       0.55016139 </v>
   <v>      -0.93030696      -0.21062705       0.99830330 </v>
   <v>       0.46826016      -0.34308771      -0.29546872 </v>
   <v>       0.17426478       0.37277987       0.39140611 </v>
   <v>       0.40546204      -0.53465543       0.12696754 </v>
   <v>      -0.05116267      -0.79429237      -0.38063316 </v>
   <v>      -0.39809306      -0.34420394      -0.39105041 </v>
   <v>      -0.87196892      -0.05821384       0.48463197 </v>
   <v>       0.61973042      -0.07657519      -0.70700986 </v>
   <v>       0.75455559       0.22632710      -0.52532714 </v>
   <v>       0.06215558       0.60151181       0.13459124 </v>
   <v>       0.21265456      -0.48376663      -0.25167262 </v>
   <v>       0.13242405      -0.33740994       1.01020076 </v>
   <v>       0.08710826       0.41491718      -0.06718145 </v>
  </varray>
  <varray name="stress" >
   <v>     -18.52681538      -6.52875758       1.43534698 </v>
   <v>      -6.52875756     -22.98325716      -0.34700120 </v>
   <v>       1.43534705      -0.34700126     -19.76169995 </v>
  </varray>
  <energy>
   <i name="e_fr_energy">   -328.89827539 </i>
   <i name="e_wo_entrp">   -328.89344514 </i>
   <i name="e_0_energy">     -0.01449075 </i>
  </energy>
  <time name="totalsc">  559.04  560.00</time>
 </calculation>
 <calculation>
  <scstep>
   <time name="dav">   18.56   18.58</time>
   <time name="total">   19.18   19.21</time>
   <energy>
    <i name="alphaZ">   1332.25952102 </i>
    <i name="ewald"> -11547.14148474 </i>
    <i name="hartreedc">  -3135.36331674 </i>
    <i name="XCdc">   -847.82614387 </i>
    <i name="pawpsdc">  20638.72424524 </i>
    <i name="pawaedc"> -19133.93027479 </i>
    <i name="eentropy">     -0.00335711 </i>
    <i name="bandstr">   -642.75239448 </i>
    <i name="atom">  13006.21773402 </i>
    <i name="e_fr_energy">   -329.81547144 </i>
    <i name="e_wo_entrp">   -329.81211432 </i>
    <i name="e_0_energy">   -329.81435240 </i>
   </energy>
  </scstep>
  <scstep>
   <time name="dav">   24.77   24.81</time>
   <time name="total">   25.37   25.41</time>
   <energy>
    <i name="e_fr_energy">   -330.30407526 </i>
    <i name="e_wo_entrp">   -330.28917996 </i>
    <i name="e_0_energy">   -330.29911016 </i>
   </energy>
  </scstep>
  <scstep>
   <time name="dav">   24.82   24.91</time>
   <time name="total">   25.44   25.53</time>
   <energy>
    <i name="e_fr_energy">   -329.89299560 </i>
    <i name="e_wo_entrp">   -329.89519982 </i>
    <i name="e_0_energy">   -329.89373034 </i>
   </energy>
  </scstep>
  <scstep>
   <time name="dav">   25.81   25.83</time>
   <time name="total">   26.40   26.43</time>
   <energy>
    <i name="e_fr_energy">   -329.63031982 </i>
    <i name="e_wo_entrp">   -329.62491735 </i>
    <i name="e_0_energy">   -329.62851900 </i>
   </energy>
  </scstep>
  <scstep>
   <time name="dav">   25.37   25.39</time>
   <time name="total">   25.96   25.99</time>
   <energy>
    <i name="e_fr_energy">   -329.44332740 </i>
    <i name="e_wo_entrp">   -329.43786247 </i>
    <i name="e_0_energy">   -329.44150576 </i>
   </energy>
  </scstep>
  <scstep>
   <time name="dav">   26.04   26.06</time>
   <time name="total">   26.65   26.69</time>
   <energy>
    <i name="e_fr_energy">   -329.38133057 </i>
    <i name="e_wo_entrp">   -329.37176425 </i>
    <i name="e_0_energy">   -329.37814180 </i>
   </energy>
  </scstep>
  <scstep>
   <time name="dav">   26.97   27.00</time>
   <time name="total">   27.57   27.60</time>
   <energy>
    <i name="e_fr_energy">   -329.38387612 </i>
    <i name="e_wo_entrp">   -329.37675136 </i>
    <i name="e_0_energy">   -329.38150120 </i>
   </energy>
  </scstep>
  <scstep>
   <time name="dav">   25.63   25.66</time>
   <time name="total">   26.23   26.26</time>
   <energy>
    <i name="e_fr_energy">   -329.37746588 </i>
    <i name="e_wo_entrp">   -329.36967073 </i>
    <i name="e_0_energy">   -329.37486750 </i>
   </energy>
  </scstep>
  <scstep>
   <time name="dav">   25.98   26.00</time>
   <time name="total">   26.58   26.61</time>
   <energy>
    <i name="e_fr_energy">   -329.37852222 </i>
    <i name="e_wo_entrp">   -329.37059409 </i>
    <i name="e_0_energy">   -329.37587951 </i>
   </energy>
  </scstep>
  <scstep>
   <time name="dav">   25.78   25.80</time>
   <time name="total">   26.38   26.41</time>
   <energy>
    <i name="e_fr_energy">   -329.38089146 </i>
    <i name="e_wo_entrp">   -329.37317765 </i>
    <i name="e_0_energy">   -329.37832019 </i>
   </energy>
  </scstep>
  <scstep>
   <time name="dav">   26.24   26.28</time>
   <time name="total">   26.84   26.87</time>
   <energy>
    <i name="e_fr_energy">   -329.38144033 </i>
    <i name="e_wo_entrp">   -329.37362035 </i>
    <i name="e_0_energy">   -329.37883367 </i>
   </energy>
  </scstep>
  <scstep>
   <time name="dav">   27.11   27.14</time>
   <time name="total">   27.72   27.76</time>
   <energy>
    <i name="e_fr_energy">   -329.38157086 </i>
    <i name="e_wo_entrp">   -329.37378726 </i>
    <i name="e_0_energy">   -329.37897633 </i>
   </energy>
  </scstep>
  <scstep>
   <time name="dav">   24.22   24.25</time>
   <time name="total">   24.82   24.85</time>
   <energy>
    <i name="e_fr_energy">   -329.38167353 </i>
    <i name="e_wo_entrp">   -329.37388722 </i>
    <i name="e_0_energy">   -329.37907809 </i>
   </energy>
  </scstep>
  <scstep>
   <time name="dav">   16.10   16.11</time>
   <time name="total">   16.13   16.14</time>
   <energy>
    <i name="alphaZ">   1332.25952102 </i>
    <i name="ewald"> -11547.14148474 </i>
    <i name="hartreedc">  -3077.59166919 </i>
    <i name="XCdc">   -849.44866932 </i>
    <i name="pawpsdc">  21600.12163728 </i>
    <i name="pawaedc"> -20096.12003195 </i>
    <i name="eentropy">     -0.00776823 </i>
    <i name="bandstr">   -697.67095816 </i>
    <i name="atom">  13006.21773402 </i>
    <i name="e_fr_energy">   -329.38168926 </i>
    <i name="e_wo_entrp">   -329.37392103 </i>
    <i name="e_0_energy">   -329.37909985 </i>
   </energy>
  </scstep>
  <structure>
   <crystal>
    <varray name="basis" >
     <v>      -3.15190564      -3.14184381      -3.15988389 </v>
     <v>       1.56900810       1.57260082      -7.89444391 </v>
     <v>       7.92546681      -7.90837624      -1.57187795 </v>
    </varray>
    <i name="volume">    471.99166698 </i>
    <varray name="rec_basis" >
     <v>      -0.13751126      -0.12733459      -0.05269564 </v>
     <v>       0.04248159       0.06355613      -0.10556761 </v>
     <v>       0.06307812      -0.06322236      -0.00005744 </v>
    </varray>
   </crystal>
   <varray name="positions" >
    <v>       0.96357103       0.93342046       0.39744046 </v>
    <v>       0.63277542       0.26644557       0.40064905 </v>
    <v>       0.49916645       0.00200375      -0.00106786 </v>
    <v>      -0.00140321       0.00099353       0.00086788 </v>
    <v>       0.09359817       0.20747621       0.79922342 </v>
    <v>       0.03585200       0.06743663       0.59885454 </v>
    <v>       0.90100799       0.79865966       0.20235664 </v>
    <v>       0.80275771       0.59569186       0.39978053 </v>
    <v>       0.73364299       0.46697501       0.19895457 </v>
    <v>       0.66424286       0.33765270      -0.00096221 </v>
    <v>       0.36628641       0.72972971       0.60014944 </v>
    <v>       0.13224062       0.27009603       0.39979471 </v>
    <v>       0.83305572       0.66296470       0.00048785 </v>
    <v>       0.93489788       0.87100567       0.79957003 </v>
    <v>       0.56662799       0.13370819       0.19856539 </v>
    <v>       0.40455443       0.79513348       0.19858347 </v>
    <v>       0.43818784       0.85912125       0.79782324 </v>
    <v>       0.29975148       0.60139596       0.40245402 </v>
    <v>       0.86228308       0.73283915       0.59939957 </v>
    <v>       0.46692377       0.93189373       0.40284350 </v>
    <v>       0.17276621       0.33274652       0.00224768 </v>
    <v>       0.27234333       0.53346082       0.79983701 </v>
    <v>       0.20484493       0.39562263       0.59753870 </v>
    <v>       0.06485062       0.13791541       0.20210606 </v>
    <v>       0.69501013       0.40485424       0.60159769 </v>
    <v>       0.59561475       0.20126620       0.79836865 </v>
    <v>       0.53550050       0.06690095       0.60210641 </v>
    <v>       0.33196036       0.66082070       0.00142107 </v>
    <v>       0.23042188       0.46843595       0.19900850 </v>
   </varray>
  </structure>
  <varray name="forces" >
   <v>      -0.03950740       0.34638912       0.06322454 </v>
   <v>       0.01670753       0.02617154       0.04866156 </v>
   <v>      -0.15412357       0.19431255       0.10409590 </v>
   <v>       0.12530418      -0.02000216      -0.18668862 </v>
   <v>       0.52012367       0.63509491      -0.62090653 </v>
   <v>      -0.19904417       0.05488192      -0.18602691 </v>
   <v>       0.06390116      -0.12082935       0.02250706 </v>
   <v>      -0.07460462      -0.17155158       0.16715014 </v>
   <v>      -0.04711436      -0.04382648       0.13583939 </v>
   <v>      -0.10813881       0.37495196      -0.37313174 </v>
   <v>      -0.03280551      -0.11329466       0.28303091 </v>
   <v>       0.09853793       0.05861113      -0.10393978 </v>
   <v>      -0.18045009       0.18491735       0.34641137 </v>
   <v>      -0.01068922      -0.01261585      -0.25634533 </v>
   <v>      -0.02622119       0.06816273       0.10499388 </v>
   <v>      -0.15969535      -0.15595525       0.06648240 </v>
   <v>      -0.56040223      -0.38995498       0.57565198 </v>
   <v>       0.15772157      -0.20639810      -0.05578692 </v>
   <v>       0.21614422       0.11875428       0.36507554 </v>
   <v>       0.20121012      -0.31830614       0.13795395 </v>
   <v>      -0.11479204      -0.47218483      -0.18144612 </v>
   <v>      -0.32740250      -0.19313172      -0.18527696 </v>
   <v>      -0.37815782       0.06155428       0.22983956 </v>
   <v>       0.37876704      -0.06109159      -0.41815540 </v>
   <v>       0.48285226      -0.04771671      -0.42087671 </v>
   <v>       0.12208329       0.31874276      -0.04923273 </v>
   <v>       0.02285465      -0.18430286      -0.00184654 </v>
   <v>      -0.08056576       0.03215063       0.38226826 </v>
   <v>       0.08750699       0.03646709       0.00647385 </v>
  </varray>
  <varray name="stress" >
   <v>      46.60955391      -4.56123981       2.52473999 </v>
   <v>      -4.56123982      46.07473136       0.12469640 </v>
   <v>       2.52473997       0.12469653      46.16919855 </v>
  </varray>
  <energy>
   <i name="e_fr_energy">   -329.38168926 </i>
   <i name="e_wo_entrp">   -329.37909985 </i>
   <i name="e_0_energy">     -0.00776823 </i>
  </energy>
  <time name="totalsc">  369.14  369.65</time>
 </calculation>
 <calculation>
  <scstep>
   <time name="dav">   19.37   19.39</time>
   <time name="total">   19.96   19.99</time>
   <energy>
    <i name="alphaZ">   1331.16801144 </i>
    <i name="ewald"> -11542.57404068 </i>
    <i name="hartreedc">  -3078.19079502 </i>
    <i name="XCdc">   -849.54560213 </i>
    <i name="pawpsdc">  21599.69991454 </i>
    <i name="pawaedc"> -20095.65561502 </i>
    <i name="eentropy">     -0.00800182 </i>
    <i name="bandstr">   -700.49402653 </i>
    <i name="atom">  13006.21773402 </i>
    <i name="e_fr_energy">   -329.38242119 </i>
    <i name="e_wo_entrp">   -329.37441937 </i>
    <i name="e_0_energy">   -329.37975392 </i>
   </energy>
  </scstep>
  <scstep>
   <time name="dav">   25.36   25.38</time>
   <time name="total">   25.95   25.98</time>
   <energy>
    <i name="e_fr_energy">   -329.38284657 </i>
    <i name="e_wo_entrp">   -329.37526828 </i>
    <i name="e_0_energy">   -329.38032047 </i>
   </energy>
  </scstep>
  <scstep>
   <time name="dav">   24.30   24.34</time>
   <time name="total">   24.89   24.95</time>
   <energy>
    <i name="e_fr_energy">   -329.38263830 </i>
    <i name="e_wo_entrp">   -329.37462167 </i>
    <i name="e_0_energy">   -329.37996609 </i>
   </energy>
  </scstep>
  <scstep>
   <time name="dav">   23.04   23.09</time>
   <time name="total">   23.64   23.70</time>
   <energy>
    <i name="e_fr_energy">   -329.38232587 </i>
    <i name="e_wo_entrp">   -329.37444826 </i>
    <i name="e_0_energy">   -329.37970000 </i>
   </energy>
  </scstep>
  <scstep>
   <time name="dav">   21.20   21.24</time>
   <time name="total">   21.79   21.84</time>
   <energy>
    <i name="e_fr_energy">   -329.38219403 </i>
    <i name="e_wo_entrp">   -329.37429384 </i>
    <i name="e_0_energy">   -329.37956063 </i>
   </energy>
  </scstep>
  <scstep>
   <time name="dav">   17.70   17.72</time>
   <time name="total">   17.76   17.78</time>
   <energy>
    <i name="alphaZ">   1331.16801144 </i>
    <i name="ewald"> -11542.57404068 </i>
    <i name="hartreedc">  -3079.87101488 </i>
    <i name="XCdc">   -849.49653740 </i>
    <i name="pawpsdc">  21571.98869749 </i>
    <i name="pawaedc"> -20067.75189193 </i>
    <i name="eentropy">     -0.00781158 </i>
    <i name="bandstr">   -699.05528971 </i>
    <i name="atom">  13006.21773402 </i>
    <i name="e_fr_energy">   -329.38214325 </i>
    <i name="e_wo_entrp">   -329.37433166 </i>
    <i name="e_0_energy">   -329.37953938 </i>
   </energy>
  </scstep>
  <structure>
   <crystal>
    <varray name="basis" >
     <v>      -3.15290247      -3.14310393      -3.16067195 </v>
     <v>       1.56968824       1.57318695      -7.89655185 </v>
     <v>       7.92676297      -7.91011960      -1.57248299 </v>
    </varray>
    <i name="volume">    472.37868306 </i>
    <varray name="rec_basis" >
     <v>      -0.13746700      -0.12728302      -0.05268380 </v>
     <v>       0.04246342       0.06353331      -0.10553922 </v>
     <v>       0.06306807      -0.06320846      -0.00005591 </v>
    </varray>
   </crystal>
   <varray name="positions" >
    <v>       0.96365328       0.93341806       0.39750798 </v>
    <v>       0.63279015       0.26645139       0.40063196 </v>
    <v>       0.49918874       0.00195072      -0.00103971 </v>
    <v>      -0.00136603       0.00096718       0.00084503 </v>
    <v>       0.09376834       0.20727818       0.79924396 </v>
    <v>       0.03578537       0.06741637       0.59888469 </v>
    <v>       0.90098102       0.79869514       0.20229451 </v>
    <v>       0.80268439       0.59580595       0.39978629 </v>
    <v>       0.73363488       0.46696687       0.19898212 </v>
    <v>       0.66430743       0.33753834      -0.00093683 </v>
    <v>       0.36629627       0.72982503       0.60014552 </v>
    <v>       0.13226980       0.27000526       0.39980012 </v>
    <v>       0.83306283       0.66306262       0.00047501 </v>
    <v>       0.93485669       0.87089094       0.79958131 </v>
    <v>       0.56662915       0.13369829       0.19860321 </v>
    <v>       0.40443354       0.79526242       0.19862076 </v>
    <v>       0.43805890       0.85932108       0.79788058 </v>
    <v>       0.29975797       0.60135900       0.40238933 </v>
    <v>       0.86239929       0.73285205       0.59941547 </v>
    <v>       0.46691666       0.93193181       0.40276855 </v>
    <v>       0.17260433       0.33276226       0.00218834 </v>
    <v>       0.27219288       0.53345767       0.79984121 </v>
    <v>       0.20471645       0.39573865       0.59760352 </v>
    <v>       0.06489886       0.13779410       0.20205055 </v>
    <v>       0.69514255       0.40472560       0.60155563 </v>
    <v>       0.59573118       0.20123254       0.79841172 </v>
    <v>       0.53544291       0.06689482       0.60205085 </v>
    <v>       0.33199631       0.66097530       0.00138367 </v>
    <v>       0.23049923       0.46838903       0.19903468 </v>
   </varray>
  </structure>
  <varray name="forces" >
   <v>      -0.04473294       0.35383817       0.07089029 </v>
   <v>       0.02000901       0.02323269       0.05056484 </v>
   <v>      -0.15307226       0.19858785       0.09490716 </v>
   <v>       0.12939342      -0.01842430      -0.18433591 </v>
   <v>       0.52196261       0.64091937      -0.62619802 </v>
   <v>      -0.20283833       0.05423319      -0.18726238 </v>
   <v>       0.07310813      -0.13470772       0.02315394 </v>
   <v>      -0.08136375      -0.17370743       0.17854366 </v>
   <v>      -0.04886893      -0.03665203       0.12803907 </v>
   <v>      -0.09908937       0.37930953      -0.37856723 </v>
   <v>      -0.03504148      -0.11542627       0.29446830 </v>
   <v>       0.10157677       0.05967585      -0.11677762 </v>
   <v>      -0.17590178       0.17775729       0.35999202 </v>
   <v>      -0.01649142      -0.01405092      -0.27129889 </v>
   <v>      -0.02889973       0.06907384       0.10086324 </v>
   <v>      -0.17334744      -0.16244177       0.07586971 </v>
   <v>      -0.57675405      -0.38586582       0.58947918 </v>
   <v>       0.16530717      -0.20985451      -0.05876634 </v>
   <v>       0.21450266       0.12614309       0.36590375 </v>
   <v>       0.20683269      -0.32638790       0.14044102 </v>
   <v>      -0.11346259      -0.47907872      -0.19095612 </v>
   <v>      -0.33034175      -0.19564312      -0.19281110 </v>
   <v>      -0.39482161       0.06078400       0.23566120 </v>
   <v>       0.38748528      -0.06321915      -0.42772589 </v>
   <v>       0.49335255      -0.03804129      -0.42591559 </v>
   <v>       0.12085168       0.33043126      -0.04492609 </v>
   <v>       0.02902838      -0.19004470      -0.00963516 </v>
   <v>      -0.07666282       0.02169097       0.40246485 </v>
   <v>       0.08827991       0.04786856       0.00393410 </v>
  </varray>
  <varray name="stress" >
   <v>      44.96012537      -4.59070121       2.56199127 </v>
   <v>      -4.59070125      44.31592975       0.26814993 </v>
   <v>       2.56199128       0.26814987      44.38982811 </v>
  </varray>
  <energy>
   <i name="e_fr_energy">   -329.38214325 </i>
   <i name="e_wo_entrp">   -329.37953938 </i>
   <i name="e_0_energy">     -0.00781158 </i>
  </energy>
  <time name="totalsc">  152.93  153.20</time>
 </calculation>
 <calculation>
  <scstep>
   <time name="dav">   19.11   19.13</time>
   <time name="total">   19.72   19.74</time>
   <energy>
    <i name="alphaZ">   1315.68252396 </i>
    <i name="ewald"> -11536.98740323 </i>
    <i name="hartreedc">  -3029.87359436 </i>
    <i name="XCdc">   -851.13749380 </i>
    <i name="pawpsdc">  21572.45015716 </i>
    <i name="pawaedc"> -20068.21227901 </i>
    <i name="eentropy">     -0.00881659 </i>
    <i name="bandstr">   -737.74029199 </i>
    <i name="atom">  13006.21773402 </i>
    <i name="e_fr_energy">   -329.60946383 </i>
    <i name="e_wo_entrp">   -329.60064724 </i>
    <i name="e_0_energy">   -329.60652496 </i>
   </energy>
  </scstep>
  <scstep>
   <time name="dav">   23.68   23.71</time>
   <time name="total">   24.30   24.33</time>
   <energy>
    <i name="e_fr_energy">   -329.75125501 </i>
    <i name="e_wo_entrp">   -329.74147527 </i>
    <i name="e_0_energy">   -329.74799510 </i>
   </energy>
  </scstep>
  <scstep>
   <time name="dav">   25.57   25.60</time>
   <time name="total">   26.18   26.22</time>
   <energy>
    <i name="e_fr_energy">   -329.76541797 </i>
    <i name="e_wo_entrp">   -329.75956372 </i>
    <i name="e_0_energy">   -329.76346655 </i>
   </energy>
  </scstep>
  <scstep>
   <time name="dav">   25.11   25.13</time>
   <time name="total">   25.71   25.74</time>
   <energy>
    <i name="e_fr_energy">   -329.71021287 </i>
    <i name="e_wo_entrp">   -329.70068462 </i>
    <i name="e_0_energy">   -329.70703679 </i>
   </energy>
  </scstep>
  <scstep>
   <time name="dav">   25.51   25.53</time>
   <time name="total">   26.12   26.14</time>
   <energy>
    <i name="e_fr_energy">   -329.70404407 </i>
    <i name="e_wo_entrp">   -329.69654151 </i>
    <i name="e_0_energy">   -329.70154322 </i>
   </energy>
  </scstep>
  <scstep>
   <time name="dav">   26.28   26.31</time>
   <time name="total">   26.89   26.93</time>
   <energy>
    <i name="e_fr_energy">   -329.69757091 </i>
    <i name="e_wo_entrp">   -329.68858643 </i>
    <i name="e_0_energy">   -329.69457608 </i>
   </energy>
  </scstep>
  <scstep>
   <time name="dav">   27.63   27.66</time>
   <time name="total">   28.24   28.27</time>
   <energy>
    <i name="e_fr_energy">   -329.69367609 </i>
    <i name="e_wo_entrp">   -329.68510115 </i>
    <i name="e_0_energy">   -329.69081777 </i>
   </energy>
  </scstep>
  <scstep>
   <time name="dav">   25.24   25.27</time>
   <time name="total">   25.85   25.88</time>
   <energy>
    <i name="e_fr_energy">   -329.69361432 </i>
    <i name="e_wo_entrp">   -329.68509959 </i>
    <i name="e_0_energy">   -329.69077608 </i>
   </energy>
  </scstep>
  <scstep>
   <time name="dav">   23.48   23.52</time>
   <time name="total">   24.09   24.15</time>
   <energy>
    <i name="e_fr_energy">   -329.69366707 </i>
    <i name="e_wo_entrp">   -329.68502206 </i>
    <i name="e_0_energy">   -329.69078540 </i>
   </energy>
  </scstep>
  <scstep>
   <time name="dav">   22.70   22.73</time>
   <time name="total">   23.30   23.34</time>
   <energy>
    <i name="e_fr_energy">   -329.69389399 </i>
    <i name="e_wo_entrp">   -329.68539934 </i>
    <i name="e_0_energy">   -329.69106244 </i>
   </energy>
  </scstep>
  <scstep>
   <time name="dav">   22.59   22.64</time>
   <time name="total">   23.20   23.25</time>
   <energy>
    <i name="e_fr_energy">   -329.69401693 </i>
    <i name="e_wo_entrp">   -329.68549606 </i>
    <i name="e_0_energy">   -329.69117664 </i>
   </energy>
  </scstep>
  <scstep>
   <time name="dav">   22.98   23.00</time>
   <time name="total">   23.59   23.62</time>
   <energy>
    <i name="e_fr_energy">   -329.69393247 </i>
    <i name="e_wo_entrp">   -329.68534709 </i>
    <i name="e_0_energy">   -329.69107068 </i>
   </energy>
  </scstep>
  <scstep>
   <time name="dav">   15.87   15.89</time>
   <time name="total">   15.90   15.92</time>
   <energy>
    <i name="alphaZ">   1315.68252396 </i>
    <i name="ewald"> -11536.98740323 </i>
    <i name="hartreedc">  -3048.21436108 </i>
    <i name="XCdc">   -850.52039962 </i>
    <i name="pawpsdc">  21155.93518779 </i>
    <i name="pawaedc"> -19652.12973903 </i>
    <i name="eentropy">     -0.00855454 </i>
    <i name="bandstr">   -719.66889485 </i>
    <i name="atom">  13006.21773402 </i>
    <i name="e_fr_energy">   -329.69390658 </i>
    <i name="e_wo_entrp">   -329.68535204 </i>
    <i name="e_0_energy">   -329.69105507 </i>
   </energy>
  </scstep>
  <structure>
   <crystal>
    <varray name="basis" >
     <v>      -3.16191903      -3.14567631      -3.17595156 </v>
     <v>       1.56627296       1.57476624      -7.92713146 </v>
     <v>       7.97966316      -7.95505118      -1.57199801 </v>
    </varray>
    <i name="volume">    477.93854575 </i>
    <varray name="rec_basis" >
     <v>      -0.13712279      -0.12719974      -0.05236214 </v>
     <v>       0.04251563       0.06342563      -0.10514880 </v>
     <v>       0.06263895      -0.06285192      -0.00010942 </v>
    </varray>
   </crystal>
   <varray name="positions" >
    <v>       0.96139077       0.93371094       0.39583795 </v>
    <v>       0.63237086       0.26629134       0.40092883 </v>
    <v>       0.49862000       0.00280928      -0.00195999 </v>
    <v>      -0.00212992       0.00188563       0.00142588 </v>
    <v>       0.08847224       0.21322990       0.79873808 </v>
    <v>       0.03754786       0.06805216       0.59804406 </v>
    <v>       0.90156789       0.79791978       0.20363885 </v>
    <v>       0.80443142       0.59316091       0.39979654 </v>
    <v>       0.73386635       0.46676729       0.19848254 </v>
    <v>       0.66289009       0.34069538      -0.00196122 </v>
    <v>       0.36619908       0.72738452       0.60031134 </v>
    <v>       0.13146183       0.27199317       0.39975545 </v>
    <v>       0.83260453       0.66068592       0.00027327 </v>
    <v>       0.93593256       0.87342692       0.79938015 </v>
    <v>       0.56641503       0.13372944       0.19781930 </v>
    <v>       0.40733544       0.79250234       0.19795173 </v>
    <v>       0.44218967       0.85367739       0.79664163 </v>
    <v>       0.29977938       0.60200721       0.40398096 </v>
    <v>       0.85911458       0.73221367       0.59924153 </v>
    <v>       0.46715093       0.93074966       0.40473149 </v>
    <v>       0.17710984       0.33219640       0.00367523 </v>
    <v>       0.27637941       0.53339633       0.79960546 </v>
    <v>       0.20762983       0.39297471       0.59591269 </v>
    <v>       0.06361617       0.14103011       0.20357180 </v>
    <v>       0.69203724       0.40820332       0.60293747 </v>
    <v>       0.59260556       0.20241518       0.79740019 </v>
    <v>       0.53685223       0.06681476       0.60329338 </v>
    <v>       0.33110672       0.65740661       0.00192267 </v>
    <v>       0.22878573       0.46933640       0.19862274 </v>
   </varray>
  </structure>
  <varray name="forces" >
   <v>       0.05875390       0.13575742      -0.00938681 </v>
   <v>       0.00040280       0.03908913       0.01105728 </v>
   <v>      -0.26196967       0.08853488       0.26885608 </v>
   <v>       0.04688585      -0.00383566      -0.14039383 </v>
   <v>       0.36928541       0.41084336      -0.34036752 </v>
   <v>      -0.05780076       0.04210242      -0.14090765 </v>
   <v>      -0.09465169       0.09290935       0.01916885 </v>
   <v>       0.04621370      -0.07129879      -0.00559814 </v>
   <v>       0.06950844      -0.09526413       0.14940227 </v>
   <v>      -0.13307154       0.20818246      -0.14024025 </v>
   <v>       0.02081624      -0.00740330       0.07430910 </v>
   <v>       0.03391459      -0.01933281       0.08384901 </v>
   <v>      -0.11468424       0.29455731       0.07138087 </v>
   <v>       0.02955549      -0.06541486      -0.07521458 </v>
   <v>       0.03151332      -0.00097699       0.10207735 </v>
   <v>       0.07210209      -0.06865221      -0.08666945 </v>
   <v>      -0.23322048      -0.36001705       0.22625866 </v>
   <v>      -0.07964095      -0.04833171       0.01009105 </v>
   <v>       0.16166714       0.02934109       0.20703209 </v>
   <v>       0.09535693      -0.15860258       0.12249919 </v>
   <v>      -0.12248753      -0.30113155      -0.07415185 </v>
   <v>      -0.25473512      -0.12885897      -0.09555753 </v>
   <v>      -0.16108704       0.09533234       0.11438760 </v>
   <v>       0.23530873      -0.05327425      -0.20761446 </v>
   <v>       0.19191543      -0.10546167      -0.17563763 </v>
   <v>       0.07963524       0.10601712      -0.05126962 </v>
   <v>      -0.05213436      -0.07050918       0.11722558 </v>
   <v>      -0.06995126       0.20170976      -0.02822457 </v>
   <v>       0.09259935      -0.18601095      -0.00636109 </v>
  </varray>
  <varray name="stress" >
   <v>      17.94362710      -3.03225887       1.83518761 </v>
   <v>      -3.03225889      19.48750736       0.63102179 </v>
   <v>       1.83518767       0.63102182      18.38684485 </v>
  </varray>
  <energy>
   <i name="e_fr_energy">   -329.69390658 </i>
   <i name="e_wo_entrp">   -329.69105507 </i>
   <i name="e_0_energy">     -0.00855454 </i>
  </energy>
  <time name="totalsc">  330.83  331.29</time>
 </calculation>
 <calculation>
  <scstep>
   <time name="dav">   18.51   18.55</time>
   <time name="total">   19.11   19.16</time>
   <energy>
    <i name="alphaZ">   1304.75815289 </i>
    <i name="ewald"> -11531.08295462 </i>
    <i name="hartreedc">  -3014.12299246 </i>
    <i name="XCdc">   -851.68867516 </i>
    <i name="pawpsdc">  21156.16277475 </i>
    <i name="pawaedc"> -19652.36855309 </i>
    <i name="eentropy">     -0.01101387 </i>
    <i name="bandstr">   -747.57387661 </i>
    <i name="atom">  13006.21773402 </i>
    <i name="e_fr_energy">   -329.70940415 </i>
    <i name="e_wo_entrp">   -329.69839028 </i>
    <i name="e_0_energy">   -329.70573286 </i>
   </energy>
  </scstep>
  <scstep>
   <time name="dav">   23.18   23.22</time>
   <time name="total">   23.80   23.85</time>
   <energy>
    <i name="e_fr_energy">   -329.78517642 </i>
    <i name="e_wo_entrp">   -329.77410423 </i>
    <i name="e_0_energy">   -329.78148569 </i>
   </energy>
  </scstep>
  <scstep>
   <time name="dav">   25.28   25.33</time>
   <time name="total">   25.88   25.93</time>
   <energy>
    <i name="e_fr_energy">   -329.79359587 </i>
    <i name="e_wo_entrp">   -329.78510629 </i>
    <i name="e_0_energy">   -329.79076601 </i>
   </energy>
  </scstep>
  <scstep>
   <time name="dav">   25.12   25.17</time>
   <time name="total">   25.72   25.77</time>
   <energy>
    <i name="e_fr_energy">   -329.76489384 </i>
    <i name="e_wo_entrp">   -329.75347526 </i>
    <i name="e_0_energy">   -329.76108764 </i>
   </energy>
  </scstep>
  <scstep>
   <time name="dav">   25.68   25.70</time>
   <time name="total">   26.28   26.31</time>
   <energy>
    <i name="e_fr_energy">   -329.76139861 </i>
    <i name="e_wo_entrp">   -329.75163148 </i>
    <i name="e_0_energy">   -329.75814290 </i>
   </energy>
  </scstep>
  <scstep>
   <time name="dav">   26.45   26.48</time>
   <time name="total">   27.05   27.08</time>
   <energy>
    <i name="e_fr_energy">   -329.75815033 </i>
    <i name="e_wo_entrp">   -329.74741071 </i>
    <i name="e_0_energy">   -329.75457045 </i>
   </energy>
  </scstep>
  <scstep>
   <time name="dav">   27.95   27.98</time>
   <time name="total">   28.55   28.58</time>
   <energy>
    <i name="e_fr_energy">   -329.75641313 </i>
    <i name="e_wo_entrp">   -329.74598610 </i>
    <i name="e_0_energy">   -329.75293745 </i>
   </energy>
  </scstep>
  <scstep>
   <time name="dav">   25.09   25.12</time>
   <time name="total">   25.71   25.74</time>
   <energy>
    <i name="e_fr_energy">   -329.75638847 </i>
    <i name="e_wo_entrp">   -329.74591006 </i>
    <i name="e_0_energy">   -329.75289567 </i>
   </energy>
  </scstep>
  <scstep>
   <time name="dav">   23.30   23.41</time>
   <time name="total">   23.90   24.04</time>
   <energy>
    <i name="e_fr_energy">   -329.75637236 </i>
    <i name="e_wo_entrp">   -329.74586238 </i>
    <i name="e_0_energy">   -329.75286904 </i>
   </energy>
  </scstep>
  <scstep>
   <time name="dav">   20.08   20.11</time>
   <time name="total">   20.12   20.15</time>
   <energy>
    <i name="alphaZ">   1304.75815289 </i>
    <i name="ewald"> -11531.08295462 </i>
    <i name="hartreedc">  -3027.97793953 </i>
    <i name="XCdc">   -851.22824434 </i>
    <i name="pawpsdc">  20888.53905401 </i>
    <i name="pawaedc"> -19384.54174204 </i>
    <i name="eentropy">     -0.01046100 </i>
    <i name="bandstr">   -734.43004870 </i>
    <i name="atom">  13006.21773402 </i>
    <i name="e_fr_energy">   -329.75644930 </i>
    <i name="e_wo_entrp">   -329.74598830 </i>
    <i name="e_0_energy">   -329.75296230 </i>
   </energy>
  </scstep>
  <structure>
   <crystal>
    <varray name="basis" >
     <v>      -3.16837181      -3.14751725      -3.18688657 </v>
     <v>       1.56382878       1.57589648      -7.94901606 </v>
     <v>       8.01752169      -7.98720690      -1.57165093 </v>
    </varray>
    <i name="volume">    481.94019005 </i>
    <varray name="rec_basis" >
     <v>      -0.13687839      -0.12713946      -0.05213387 </v>
     <v>       0.04255201       0.06334916      -0.10487137 </v>
     <v>       0.06233526      -0.06259943      -0.00014701 </v>
    </varray>
   </crystal>
   <varray name="positions" >
    <v>       0.95977315       0.93392082       0.39464952 </v>
    <v>       0.63207205       0.26617761       0.40113982 </v>
    <v>       0.49821175       0.00342177      -0.00261453 </v>
    <v>      -0.00267589       0.00254170       0.00183901 </v>
    <v>       0.08468247       0.21747958       0.79837807 </v>
    <v>       0.03880443       0.06850400       0.59744680 </v>
    <v>       0.90198943       0.79736682       0.20459503 </v>
    <v>       0.80568229       0.59127264       0.39980374 </v>
    <v>       0.73403133       0.46662450       0.19812723 </v>
    <v>       0.66187280       0.34294818      -0.00268955 </v>
    <v>       0.36613314       0.72564363       0.60042872 </v>
    <v>       0.13088226       0.27341192       0.39972388 </v>
    <v>       0.83228028       0.65899066       0.00012912 </v>
    <v>       0.93669708       0.87523516       0.79923794 </v>
    <v>       0.56626124       0.13375147       0.19726167 </v>
    <v>       0.40941025       0.79053082       0.19747609 </v>
    <v>       0.44514507       0.84964753       0.79576033 </v>
    <v>       0.29979558       0.60247036       0.40511318 </v>
    <v>       0.85677007       0.73176066       0.59911672 </v>
    <v>       0.46732197       0.92990706       0.40612748 </v>
    <v>       0.18032905       0.33178999       0.00473398 </v>
    <v>       0.27936827       0.53334928       0.79943898 </v>
    <v>       0.20971170       0.39099995       0.59471028 </v>
    <v>       0.06269775       0.14334033       0.20465416 </v>
    <v>       0.68981704       0.41068729       0.60392021 </v>
    <v>       0.59037125       0.20326076       0.79668008 </v>
    <v>       0.53785994       0.06675716       0.60417755 </v>
    <v>       0.33047695       0.65486166       0.00230500 </v>
    <v>       0.22756062       0.47001336       0.19832947 </v>
   </varray>
  </structure>
  <varray name="forces" >
   <v>       0.14249474      -0.03086007      -0.06382646 </v>
   <v>      -0.02282355       0.05357079      -0.02337152 </v>
   <v>      -0.34194499       0.00196215       0.38471809 </v>
   <v>       0.00429149       0.00653724      -0.10481080 </v>
   <v>       0.27761856       0.26534112      -0.15868847 </v>
   <v>       0.04535509       0.03468216      -0.10215637 </v>
   <v>      -0.21149959       0.24863277       0.02193764 </v>
   <v>       0.13614981       0.00793530      -0.13782492 </v>
   <v>       0.16051943      -0.13707661       0.15144454 </v>
   <v>      -0.15448797       0.08016367       0.03604716 </v>
   <v>       0.07253268       0.07203147      -0.08519383 </v>
   <v>      -0.01534711      -0.07479250       0.21609707 </v>
   <v>      -0.06538393       0.35487897      -0.13909988 </v>
   <v>       0.04845381      -0.09666315       0.06034963 </v>
   <v>       0.06178748      -0.05283621       0.09833253 </v>
   <v>       0.21657808       0.00086866      -0.18439315 </v>
   <v>      -0.02831912      -0.34925982      -0.02484044 </v>
   <v>      -0.25272994       0.07714338       0.09474755 </v>
   <v>       0.12286155      -0.04946608       0.09846166 </v>
   <v>       0.01712593      -0.05716237       0.11770514 </v>
   <v>      -0.12576525      -0.15565008       0.01194081 </v>
   <v>      -0.19231918      -0.07265907      -0.02007423 </v>
   <v>       0.01369370       0.10635645       0.02415622 </v>
   <v>       0.12895118      -0.03260206      -0.07809543 </v>
   <v>      -0.01566187      -0.15790922       0.00555159 </v>
   <v>       0.06311920      -0.04724028      -0.07119266 </v>
   <v>      -0.11723418       0.01769285       0.20829918 </v>
   <v>      -0.06680980       0.33959905      -0.32712608 </v>
   <v>       0.09879374      -0.35321850      -0.00909460 </v>
  </varray>
  <varray name="stress" >
   <v>       1.17430038      -1.63318576       1.46543899 </v>
   <v>      -1.63318573       4.29493727       0.76112667 </v>
   <v>       1.46543903       0.76112665       2.27988319 </v>
  </varray>
  <energy>
   <i name="e_fr_energy">   -329.75644930 </i>
   <i name="e_wo_entrp">   -329.75296230 </i>
   <i name="e_0_energy">     -0.01046100 </i>
  </energy>
  <time name="totalsc">  264.28  264.82</time>
 </calculation>
 <calculation>
  <scstep>
   <time name="dav">   19.47   19.51</time>
   <time name="total">   20.07   20.11</time>
   <energy>
    <i name="alphaZ">   1302.30080413 </i>
    <i name="ewald"> -11525.70169783 </i>
    <i name="hartreedc">  -3024.37019515 </i>
    <i name="XCdc">   -851.47618332 </i>
    <i name="pawpsdc">  20884.66061908 </i>
    <i name="pawaedc"> -19380.91798417 </i>
    <i name="eentropy">     -0.00967117 </i>
    <i name="bandstr">   -740.48503711 </i>
    <i name="atom">  13006.21773402 </i>
    <i name="e_fr_energy">   -329.78161152 </i>
    <i name="e_wo_entrp">   -329.77194035 </i>
    <i name="e_0_energy">   -329.77838780 </i>
   </energy>
  </scstep>
  <scstep>
   <time name="dav">   24.97   25.03</time>
   <time name="total">   25.58   25.63</time>
   <energy>
    <i name="e_fr_energy">   -329.79580130 </i>
    <i name="e_wo_entrp">   -329.78644252 </i>
    <i name="e_0_energy">   -329.79268171 </i>
   </energy>
  </scstep>
  <scstep>
   <time name="dav">   25.70   25.73</time>
   <time name="total">   26.30   26.33</time>
   <energy>
    <i name="e_fr_energy">   -329.79452860 </i>
    <i name="e_wo_entrp">   -329.78471939 </i>
    <i name="e_0_energy">   -329.79125886 </i>
   </energy>
  </scstep>
  <scstep>
   <time name="dav">   25.51   25.55</time>
   <time name="total">   26.11   26.15</time>
   <energy>
    <i name="e_fr_energy">   -329.79236834 </i>
    <i name="e_wo_entrp">   -329.78271401 </i>
    <i name="e_0_energy">   -329.78915023 </i>
   </energy>
  </scstep>
  <scstep>
   <time name="dav">   25.01   25.05</time>
   <time name="total">   25.61   25.65</time>
   <energy>
    <i name="e_fr_energy">   -329.79237391 </i>
    <i name="e_wo_entrp">   -329.78282204 </i>
    <i name="e_0_energy">   -329.78918996 </i>
   </energy>
  </scstep>
  <scstep>
   <time name="dav">   26.08   26.12</time>
   <time name="total">   26.68   26.73</time>
   <energy>
    <i name="e_fr_energy">   -329.79177860 </i>
    <i name="e_wo_entrp">   -329.78201131 </i>
    <i name="e_0_energy">   -329.78852283 </i>
   </energy>
  </scstep>
  <scstep>
   <time name="dav">   22.89   22.92</time>
   <time name="total">   23.49   23.52</time>
   <energy>
    <i name="e_fr_energy">   -329.79170731 </i>
    <i name="e_wo_entrp">   -329.78213887 </i>
    <i name="e_0_energy">   -329.78851783 </i>
   </energy>
  </scstep>
  <scstep>
   <time name="dav">   15.11   15.12</time>
   <time name="total">   15.14   15.16</time>
   <energy>
    <i name="alphaZ">   1302.30080413 </i>
    <i name="ewald"> -11525.70169783 </i>
    <i name="hartreedc">  -3027.44499770 </i>
    <i name="XCdc">   -851.38048508 </i>
    <i name="pawpsdc">  20814.17280197 </i>
    <i name="pawaedc"> -19310.46677978 </i>
    <i name="eentropy">     -0.00968369 </i>
    <i name="bandstr">   -737.47937944 </i>
    <i name="atom">  13006.21773402 </i>
    <i name="e_fr_energy">   -329.79168340 </i>
    <i name="e_wo_entrp">   -329.78199970 </i>
    <i name="e_0_energy">   -329.78845550 </i>
   </energy>
  </scstep>
  <structure>
   <crystal>
    <varray name="basis" >
     <v>      -3.16920866      -3.14998806      -3.19029986 </v>
     <v>       1.56098094       1.57549760      -7.95267210 </v>
     <v>       8.02267930      -7.99872690      -1.57117139 </v>
    </varray>
    <i name="volume">    482.84957682 </i>
    <varray name="rec_basis" >
     <v>      -0.13686794      -0.12705648      -0.05203602 </v>
     <v>       0.04259953       0.06332018      -0.10483799 </v>
     <v>       0.06229089      -0.06251155      -0.00015742 </v>
    </varray>
   </crystal>
   <varray name="positions" >
    <v>       0.95948046       0.93416026       0.39486812 </v>
    <v>       0.63201351       0.26628246       0.40103866 </v>
    <v>       0.49878500       0.00223330      -0.00309456 </v>
    <v>      -0.00259575       0.00280515       0.00184254 </v>
    <v>       0.08323666       0.21853435       0.79838830 </v>
    <v>       0.03870787       0.06883542       0.59745239 </v>
    <v>       0.90191269       0.79745571       0.20398083 </v>
    <v>       0.80542895       0.59169760       0.39997903 </v>
    <v>       0.73376181       0.46623446       0.19852781 </v>
    <v>       0.66205566       0.34286719      -0.00302109 </v>
    <v>       0.36581191       0.72597974       0.60043104 </v>
    <v>       0.13088090       0.27282007       0.39980418 </v>
    <v>       0.83164296       0.65971461      -0.00044759 </v>
    <v>       0.93676363       0.87503551       0.79943397 </v>
    <v>       0.56610872       0.13351058       0.19740943 </v>
    <v>       0.40900147       0.79112635       0.19776349 </v>
    <v>       0.44627443       0.84913276       0.79618652 </v>
    <v>       0.30022985       0.60213182       0.40467998 </v>
    <v>       0.85639179       0.73157376       0.59934970 </v>
    <v>       0.46729810       0.92956101       0.40624995 </v>
    <v>       0.18117384       0.33142371       0.00479172 </v>
[...]
       <r>    4.6064    1.0000 </r>
       <r>    4.6428    1.0000 </r>
       <r>    4.6938    1.0000 </r>
       <r>    4.7611    1.0000 </r>
       <r>    4.7827    1.0000 </r>
       <r>    4.8528    1.0000 </r>
       <r>    4.8791    1.0000 </r>
       <r>    4.9058    1.0000 </r>
       <r>    4.9870    1.0000 </r>
       <r>    5.0383    1.0000 </r>
       <r>    5.1080    1.0000 </r>
       <r>    5.1673    1.0000 </r>
       <r>    5.2161    1.0000 </r>
       <r>    5.2926    1.0000 </r>
       <r>    5.3798    1.0000 </r>
       <r>    5.3949    1.0000 </r>
       <r>    5.4590    1.0000 </r>
       <r>    5.4862    1.0000 </r>
       <r>    5.5329    1.0000 </r>
       <r>    5.5724    1.0000 </r>
       <r>    5.6488    1.0000 </r>
       <r>    5.7273    1.0000 </r>
       <r>    5.7850    1.0000 </r>
       <r>    5.8258    1.0000 </r>
       <r>    5.9403    1.0000 </r>
       <r>    5.9962    1.0000 </r>
       <r>    6.0438    1.0000 </r>
       <r>    6.0747    1.0000 </r>
       <r>    6.1110    1.0001 </r>
       <r>    6.1913    1.0005 </r>
       <r>    6.2685    1.0027 </r>
       <r>    6.3030    1.0052 </r>
       <r>    6.3430    1.0101 </r>
       <r>    6.4142    1.0245 </r>
       <r>    6.4579    1.0334 </r>
       <r>    6.5406    1.0172 </r>
       <r>    6.5676    0.9904 </r>
       <r>    6.5849    0.9650 </r>
       <r>    6.6473    0.8124 </r>
       <r>    6.7681    0.3335 </r>
       <r>    6.8005    0.2142 </r>
       <r>    6.9070   -0.0106 </r>
       <r>    7.0382   -0.0253 </r>
       <r>    7.1433   -0.0062 </r>
       <r>    7.1914   -0.0025 </r>
       <r>    7.2522   -0.0007 </r>
       <r>    7.3402   -0.0001 </r>
       <r>    7.4560   -0.0000 </r>
       <r>    7.7052   -0.0000 </r>
       <r>    7.8672   -0.0000 </r>
       <r>    7.9517   -0.0000 </r>
       <r>    8.0696   -0.0000 </r>
       <r>    8.1537   -0.0000 </r>
       <r>    8.3268   -0.0000 </r>
       <r>    8.4865   -0.0000 </r>
       <r>    8.6414   -0.0000 </r>
       <r>    8.7435   -0.0000 </r>
       <r>    8.7775   -0.0000 </r>
       <r>    8.8610   -0.0000 </r>
       <r>    8.8950   -0.0000 </r>
       <r>    8.9633   -0.0000 </r>
      </set>
     </set>
    </set>
   </array>
  </eigenvalues>
  <separator name="orbital magnetization" >
   <v name="MAGDIPOLOUT">      0.00000000      0.00000000      0.00000000</v>
  </separator>
  <dos>
   <i name="efermi">      6.72790755 </i>
   <total>
    <array>
     <dimension dim="1">gridpoints</dimension>
     <dimension dim="2">spin</dimension>
     <field>energy</field>
     <field>total</field>
     <field>integrated</field>
     <set>
      <set comment="spin 1">
       <r>   -50.4250     0.0000     0.0000 </r>
       <r>   -50.2168     0.0000     0.0000 </r>
       <r>   -50.0086     0.0000     0.0000 </r>
       <r>   -49.8003     0.0000     0.0000 </r>
       <r>   -49.5921     0.0000     0.0000 </r>
       <r>   -49.3839    -0.0000    -0.0000 </r>
       <r>   -49.1757    -0.0000    -0.0000 </r>
       <r>   -48.9674    -0.0000    -0.0000 </r>
       <r>   -48.7592    -0.0000    -0.0000 </r>
       <r>   -48.5510    -0.0000    -0.0000 </r>
       <r>   -48.3427    -0.0000    -0.0000 </r>
       <r>   -48.1345    -0.0034    -0.0007 </r>
       <r>   -47.9263    -0.1735    -0.0368 </r>
       <r>   -47.7181     0.4656     0.0601 </r>
       <r>   -47.5098     6.5689     1.4279 </r>
       <r>   -47.3016    18.1070     5.1983 </r>
       <r>   -47.0934    25.0272    10.4096 </r>
       <r>   -46.8852     8.3463    12.1475 </r>
       <r>   -46.6769    -0.6070    12.0211 </r>
       <r>   -46.4687    -0.1007    12.0002 </r>
       <r>   -46.2605    -0.0008    12.0000 </r>
       <r>   -46.0523    -0.0000    12.0000 </r>
       <r>   -45.8440    -0.0000    12.0000 </r>
       <r>   -45.6358     0.0000    12.0000 </r>
       <r>   -45.4276     0.0000    12.0000 </r>
       <r>   -45.2193     0.0000    12.0000 </r>
       <r>   -45.0111     0.0000    12.0000 </r>
       <r>   -44.8029     0.0000    12.0000 </r>
       <r>   -44.5947     0.0000    12.0000 </r>
       <r>   -44.3864     0.0000    12.0000 </r>
       <r>   -44.1782     0.0000    12.0000 </r>
       <r>   -43.9700     0.0000    12.0000 </r>
       <r>   -43.7618     0.0000    12.0000 </r>
       <r>   -43.5535     0.0000    12.0000 </r>
       <r>   -43.3453     0.0000    12.0000 </r>
       <r>   -43.1371     0.0000    12.0000 </r>
       <r>   -42.9289     0.0000    12.0000 </r>
       <r>   -42.7206     0.0000    12.0000 </r>
       <r>   -42.5124     0.0000    12.0000 </r>
       <r>   -42.3042     0.0000    12.0000 </r>
       <r>   -42.0960     0.0000    12.0000 </r>
       <r>   -41.8877     0.0000    12.0000 </r>
       <r>   -41.6795     0.0000    12.0000 </r>
       <r>   -41.4713     0.0000    12.0000 </r>
       <r>   -41.2630     0.0000    12.0000 </r>
       <r>   -41.0548     0.0000    12.0000 </r>
       <r>   -40.8466     0.0000    12.0000 </r>
       <r>   -40.6384     0.0000    12.0000 </r>
       <r>   -40.4301     0.0000    12.0000 </r>
       <r>   -40.2219     0.0000    12.0000 </r>
       <r>   -40.0137     0.0000    12.0000 </r>
       <r>   -39.8055     0.0000    12.0000 </r>
       <r>   -39.5972     0.0000    12.0000 </r>
       <r>   -39.3890     0.0000    12.0000 </r>
       <r>   -39.1808     0.0000    12.0000 </r>
       <r>   -38.9726     0.0000    12.0000 </r>
       <r>   -38.7643     0.0000    12.0000 </r>
       <r>   -38.5561     0.0000    12.0000 </r>
       <r>   -38.3479     0.0000    12.0000 </r>
       <r>   -38.1397     0.0000    12.0000 </r>
       <r>   -37.9314     0.0000    12.0000 </r>
       <r>   -37.7232     0.0000    12.0000 </r>
       <r>   -37.5150     0.0000    12.0000 </r>
       <r>   -37.3067     0.0000    12.0000 </r>
       <r>   -37.0985     0.0000    12.0000 </r>
       <r>   -36.8903     0.0000    12.0000 </r>
       <r>   -36.6821     0.0000    12.0000 </r>
       <r>   -36.4738     0.0000    12.0000 </r>
       <r>   -36.2656     0.0000    12.0000 </r>
       <r>   -36.0574     0.0000    12.0000 </r>
       <r>   -35.8492     0.0000    12.0000 </r>
       <r>   -35.6409     0.0000    12.0000 </r>
       <r>   -35.4327     0.0000    12.0000 </r>
       <r>   -35.2245     0.0000    12.0000 </r>
       <r>   -35.0163     0.0000    12.0000 </r>
       <r>   -34.8080     0.0000    12.0000 </r>
       <r>   -34.5998     0.0000    12.0000 </r>
       <r>   -34.3916     0.0000    12.0000 </r>
       <r>   -34.1834     0.0000    12.0000 </r>
       <r>   -33.9751     0.0000    12.0000 </r>
       <r>   -33.7669     0.0000    12.0000 </r>
       <r>   -33.5587     0.0000    12.0000 </r>
       <r>   -33.3504     0.0000    12.0000 </r>
       <r>   -33.1422     0.0000    12.0000 </r>
       <r>   -32.9340     0.0000    12.0000 </r>
       <r>   -32.7258     0.0000    12.0000 </r>
       <r>   -32.5175     0.0000    12.0000 </r>
       <r>   -32.3093     0.0000    12.0000 </r>
       <r>   -32.1011     0.0000    12.0000 </r>
       <r>   -31.8929     0.0000    12.0000 </r>
       <r>   -31.6846     0.0000    12.0000 </r>
       <r>   -31.4764     0.0000    12.0000 </r>
       <r>   -31.2682     0.0000    12.0000 </r>
       <r>   -31.0600     0.0000    12.0000 </r>
       <r>   -30.8517     0.0000    12.0000 </r>
       <r>   -30.6435     0.0000    12.0000 </r>
       <r>   -30.4353     0.0000    12.0000 </r>
       <r>   -30.2270     0.0000    12.0000 </r>
       <r>   -30.0188     0.0000    12.0000 </r>
       <r>   -29.8106     0.0000    12.0000 </r>
       <r>   -29.6024     0.0000    12.0000 </r>
       <r>   -29.3941     0.0000    12.0000 </r>
       <r>   -29.1859     0.0000    12.0000 </r>
       <r>   -28.9777     0.0000    12.0000 </r>
       <r>   -28.7695     0.0000    12.0000 </r>
       <r>   -28.5612     0.0000    12.0000 </r>
       <r>   -28.3530     0.0000    12.0000 </r>
       <r>   -28.1448     0.0000    12.0000 </r>
       <r>   -27.9366     0.0000    12.0000 </r>
       <r>   -27.7283     0.0000    12.0000 </r>
       <r>   -27.5201     0.0000    12.0000 </r>
       <r>   -27.3119     0.0000    12.0000 </r>
       <r>   -27.1037     0.0000    12.0000 </r>
       <r>   -26.8954     0.0000    12.0000 </r>
       <r>   -26.6872     0.0000    12.0000 </r>
       <r>   -26.4790     0.0000    12.0000 </r>
       <r>   -26.2707     0.0000    12.0000 </r>
       <r>   -26.0625     0.0000    12.0000 </r>
       <r>   -25.8543    -0.0000    12.0000 </r>
       <r>   -25.6461    -0.0000    12.0000 </r>
       <r>   -25.4378    -0.0000    12.0000 </r>
       <r>   -25.2296    -0.0000    12.0000 </r>
       <r>   -25.0214    -0.0000    12.0000 </r>
       <r>   -24.8132    -0.0000    12.0000 </r>
       <r>   -24.6049    -0.0008    11.9998 </r>
       <r>   -24.3967    -0.0681    11.9856 </r>
       <r>   -24.1885    -0.4910    11.8834 </r>
       <r>   -23.9803     5.2684    12.9804 </r>
       <r>   -23.7720    23.2183    17.8151 </r>
       <r>   -23.5638    30.6237    24.1917 </r>
       <r>   -23.3556    52.2378    35.0690 </r>
       <r>   -23.1474    40.2690    43.4541 </r>
       <r>   -22.9391    15.7193    46.7273 </r>
       <r>   -22.7309     5.2641    47.8234 </r>
       <r>   -22.5227     0.9908    48.0297 </r>
       <r>   -22.3144    -0.1285    48.0029 </r>
       <r>   -22.1062    -0.0140    48.0000 </r>
       <r>   -21.8980    -0.0001    48.0000 </r>
       <r>   -21.6898    -0.0000    48.0000 </r>
       <r>   -21.4815    -0.0000    48.0000 </r>
       <r>   -21.2733     0.0000    48.0000 </r>
       <r>   -21.0651     0.0000    48.0000 </r>
       <r>   -20.8569     0.0000    48.0000 </r>
       <r>   -20.6486     0.0000    48.0000 </r>
       <r>   -20.4404     0.0000    48.0000 </r>
       <r>   -20.2322     0.0000    48.0000 </r>
       <r>   -20.0240     0.0000    48.0000 </r>
       <r>   -19.8157     0.0000    48.0000 </r>
       <r>   -19.6075     0.0000    48.0000 </r>
       <r>   -19.3993     0.0000    48.0000 </r>
       <r>   -19.1911     0.0000    48.0000 </r>
       <r>   -18.9828     0.0000    48.0000 </r>
       <r>   -18.7746     0.0000    48.0000 </r>
       <r>   -18.5664     0.0000    48.0000 </r>
       <r>   -18.3581     0.0000    48.0000 </r>
       <r>   -18.1499     0.0000    48.0000 </r>
       <r>   -17.9417     0.0000    48.0000 </r>
       <r>   -17.7335     0.0000    48.0000 </r>
       <r>   -17.5252     0.0000    48.0000 </r>
       <r>   -17.3170     0.0000    48.0000 </r>
       <r>   -17.1088     0.0000    48.0000 </r>
       <r>   -16.9006     0.0000    48.0000 </r>
       <r>   -16.6923     0.0000    48.0000 </r>
       <r>   -16.4841     0.0000    48.0000 </r>
       <r>   -16.2759     0.0000    48.0000 </r>
       <r>   -16.0677     0.0000    48.0000 </r>
       <r>   -15.8594     0.0000    48.0000 </r>
       <r>   -15.6512     0.0000    48.0000 </r>
       <r>   -15.4430     0.0000    48.0000 </r>
       <r>   -15.2348     0.0000    48.0000 </r>
       <r>   -15.0265     0.0000    48.0000 </r>
       <r>   -14.8183     0.0000    48.0000 </r>
       <r>   -14.6101     0.0000    48.0000 </r>
       <r>   -14.4018     0.0000    48.0000 </r>
       <r>   -14.1936     0.0000    48.0000 </r>
       <r>   -13.9854     0.0000    48.0000 </r>
       <r>   -13.7772     0.0000    48.0000 </r>
       <r>   -13.5689     0.0000    48.0000 </r>
       <r>   -13.3607     0.0000    48.0000 </r>
       <r>   -13.1525     0.0000    48.0000 </r>
       <r>   -12.9443     0.0000    48.0000 </r>
       <r>   -12.7360     0.0000    48.0000 </r>
       <r>   -12.5278     0.0000    48.0000 </r>
       <r>   -12.3196     0.0000    48.0000 </r>
       <r>   -12.1114     0.0000    48.0000 </r>
       <r>   -11.9031     0.0000    48.0000 </r>
       <r>   -11.6949     0.0000    48.0000 </r>
       <r>   -11.4867     0.0000    48.0000 </r>
       <r>   -11.2784     0.0000    48.0000 </r>
       <r>   -11.0702     0.0000    48.0000 </r>
       <r>   -10.8620     0.0000    48.0000 </r>
       <r>   -10.6538     0.0000    48.0000 </r>
       <r>   -10.4455     0.0000    48.0000 </r>
       <r>   -10.2373     0.0000    48.0000 </r>
       <r>   -10.0291     0.0000    48.0000 </r>
       <r>    -9.8209     0.0000    48.0000 </r>
       <r>    -9.6126     0.0000    48.0000 </r>
       <r>    -9.4044     0.0000    48.0000 </r>
       <r>    -9.1962     0.0000    48.0000 </r>
       <r>    -8.9880     0.0000    48.0000 </r>
       <r>    -8.7797     0.0000    48.0000 </r>
       <r>    -8.5715     0.0000    48.0000 </r>
       <r>    -8.3633     0.0000    48.0000 </r>
       <r>    -8.1551     0.0000    48.0000 </r>
       <r>    -7.9468     0.0000    48.0000 </r>
       <r>    -7.7386     0.0000    48.0000 </r>
       <r>    -7.5304     0.0000    48.0000 </r>
       <r>    -7.3221     0.0000    48.0000 </r>
       <r>    -7.1139     0.0000    48.0000 </r>
       <r>    -6.9057     0.0000    48.0000 </r>
       <r>    -6.6975     0.0000    48.0000 </r>
       <r>    -6.4892     0.0000    48.0000 </r>
       <r>    -6.2810     0.0000    48.0000 </r>
       <r>    -6.0728     0.0000    48.0000 </r>
       <r>    -5.8646     0.0000    48.0000 </r>
       <r>    -5.6563     0.0000    48.0000 </r>
       <r>    -5.4481     0.0000    48.0000 </r>
       <r>    -5.2399     0.0000    48.0000 </r>
       <r>    -5.0317     0.0000    48.0000 </r>
       <r>    -4.8234     0.0000    48.0000 </r>
       <r>    -4.6152     0.0000    48.0000 </r>
       <r>    -4.4070     0.0000    48.0000 </r>
       <r>    -4.1988     0.0000    48.0000 </r>
       <r>    -3.9905     0.0000    48.0000 </r>
       <r>    -3.7823     0.0000    48.0000 </r>
       <r>    -3.5741     0.0000    48.0000 </r>
       <r>    -3.3658     0.0000    48.0000 </r>
       <r>    -3.1576     0.0000    48.0000 </r>
       <r>    -2.9494     0.0000    48.0000 </r>
       <r>    -2.7412     0.0000    48.0000 </r>
       <r>    -2.5329     0.0000    48.0000 </r>
       <r>    -2.3247    -0.0000    48.0000 </r>
       <r>    -2.1165    -0.0000    48.0000 </r>
       <r>    -1.9083    -0.0000    48.0000 </r>
       <r>    -1.7000    -0.0000    48.0000 </r>
       <r>    -1.4918    -0.0000    48.0000 </r>
       <r>    -1.2836    -0.0000    48.0000 </r>
       <r>    -1.0754    -0.0001    48.0000 </r>
       <r>    -0.8671    -0.0038    47.9992 </r>
       <r>    -0.6589    -0.0088    47.9974 </r>
       <r>    -0.4507     0.2181    48.0428 </r>
       <r>    -0.2425     0.8029    48.2100 </r>
       <r>    -0.0342     1.4993    48.5222 </r>
       <r>     0.1740     2.0049    48.9397 </r>
       <r>     0.3822     1.5991    49.2726 </r>
       <r>     0.5905     2.4194    49.7764 </r>
       <r>     0.7987     3.1548    50.4333 </r>
       <r>     1.0069     2.9188    51.0411 </r>
       <r>     1.2151     3.0626    51.6788 </r>
       <r>     1.4234     3.8958    52.4900 </r>
       <r>     1.6316     4.1165    53.3472 </r>
       <r>     1.8398     4.4326    54.2702 </r>
       <r>     2.0480     6.5725    55.6387 </r>
       <r>     2.2563     9.9071    57.7016 </r>
       <r>     2.4645    14.3135    60.6821 </r>
       <r>     2.6727    19.0529    64.6494 </r>
       <r>     2.8809    21.9346    69.2168 </r>
       <r>     3.0892    25.3374    74.4927 </r>
       <r>     3.2974    28.9133    80.5132 </r>
       <r>     3.5056    28.8651    86.5237 </r>
       <r>     3.7139    29.9819    92.7667 </r>
       <r>     3.9221    30.2055    99.0563 </r>
       <r>     4.1303    28.7729   105.0476 </r>
       <r>     4.3385    24.4288   110.1343 </r>
       <r>     4.5468    26.7177   115.6976 </r>
       <r>     4.7550    36.4284   123.2830 </r>
       <r>     4.9632    40.0989   131.6326 </r>
       <r>     5.1714    39.7283   139.9051 </r>
       <r>     5.3797    36.4227   147.4893 </r>
       <r>     5.5879    36.3349   155.0551 </r>
       <r>     5.7961    37.3540   162.8332 </r>
       <r>     6.0043    38.9412   170.9418 </r>
       <r>     6.2126    39.2327   179.1111 </r>
       <r>     6.4208    38.9207   187.2154 </r>
       <r>     6.6290    36.1179   194.7361 </r>
       <r>     6.8372    31.8519   201.3685 </r>
       <r>     7.0455    26.2704   206.8387 </r>
       <r>     7.2537    20.2046   211.0458 </r>
       <r>     7.4619    16.1510   214.4089 </r>
       <r>     7.6702    15.2689   217.5883 </r>
       <r>     7.8784    16.4571   221.0151 </r>
       <r>     8.0866    20.0752   225.1953 </r>
       <r>     8.2948    22.1131   229.7998 </r>
       <r>     8.5031    20.1955   234.0051 </r>
       <r>     8.7113    15.0072   237.1300 </r>
       <r>     8.9195     9.2939   239.0652 </r>
       <r>     9.1277     3.9702   239.8919 </r>
       <r>     9.3360     0.5983   240.0165 </r>
       <r>     9.5442    -0.0689   240.0022 </r>
       <r>     9.7524    -0.0102   240.0000 </r>
       <r>     9.9606    -0.0001   240.0000 </r>
       <r>    10.1689    -0.0000   240.0000 </r>
       <r>    10.3771    -0.0000   240.0000 </r>
       <r>    10.5853    -0.0000   240.0000 </r>
       <r>    10.7935     0.0000   240.0000 </r>
       <r>    11.0018     0.0000   240.0000 </r>
       <r>    11.2100     0.0000   240.0000 </r>
       <r>    11.4182     0.0000   240.0000 </r>
       <r>    11.6265     0.0000   240.0000 </r>
       <r>    11.8347     0.0000   240.0000 </r>
       <r>    12.0429     0.0000   240.0000 </r>
      </set>
     </set>
    </array>
   </total>
  </dos>
 </calculation>
 <structure name="finalpos" >
  <crystal>
   <varray name="basis" >
    <v>      -3.16824384      -3.14525434      -3.20016146 </v>
    <v>       1.53091951       1.56243117      -7.93732942 </v>
    <v>       8.02780122      -8.01703010      -1.55356576 </v>
   </varray>
   <i name="volume">    481.64683087 </i>
   <varray name="rec_basis" >
    <v>      -0.13715682      -0.12735663      -0.05152388 </v>
    <v>       0.04312170       0.06355764      -0.10515876 </v>
    <v>       0.06221353      -0.06238302      -0.00028035 </v>
   </varray>
  </crystal>
  <varray name="positions" >
   <v>       0.95554135       0.93214472       0.39615764 </v>
   <v>       0.62981235       0.26331214       0.40146662 </v>
   <v>       0.50058734       0.00016906      -0.00442855 </v>
   <v>      -0.00309324       0.00606169       0.00162113 </v>
   <v>       0.07052867       0.23346978       0.79892871 </v>
   <v>       0.03593163       0.06918277       0.59904614 </v>
   <v>       0.90111143       0.79706911       0.20170927 </v>
   <v>       0.80378595       0.59109803       0.39924556 </v>
   <v>       0.73307938       0.46606415       0.19890882 </v>
   <v>       0.66444939       0.34260867      -0.00199124 </v>
   <v>       0.36434603       0.72645405       0.59981734 </v>
   <v>       0.12833906       0.26910792       0.40086487 </v>
   <v>       0.83372130       0.66090007      -0.00431779 </v>
   <v>       0.94115862       0.87539124       0.79973052 </v>
   <v>       0.56463821       0.12998073       0.19856645 </v>
   <v>       0.40676694       0.79257800       0.19776416 </v>
   <v>       0.44956193       0.85230175       0.79692077 </v>
   <v>       0.29917597       0.59989303       0.40235517 </v>
   <v>       0.85470855       0.72794912       0.60242138 </v>
   <v>       0.46420689       0.92562092       0.40798718 </v>
   <v>       0.18637041       0.33210803       0.00589712 </v>
   <v>       0.30707154       0.53316456       0.79745949 </v>
   <v>       0.20726997       0.39051914       0.59306092 </v>
   <v>       0.05824348       0.14540198       0.20681763 </v>
   <v>       0.69006794       0.40846468       0.60263356 </v>
   <v>       0.58888006       0.20376939       0.79715200 </v>
   <v>       0.53615143       0.06344846       0.60459205 </v>
   <v>       0.33168387       0.65954569       0.00021189 </v>
   <v>       0.22923688       0.46888778       0.19940119 </v>
  </varray>
 </structure>
</modeling>
