SQS with 1 vacancy for VFE and VRV      
           1
    -3.190000   -3.190000   -3.190000
     1.595000    1.595000   -7.975000
     7.975000   -7.975000   -1.595000
   Nb   Mo   Ta   Ti   W 
   6   6   6   6   5
Direct configuration=     1
   0.96666667  0.93333333  0.40000000
   0.63333333  0.26666667  0.40000000
   0.50000000  0.00000000  0.00000000
   0.00000000  0.00000000  0.00000000
   0.10000000  0.20000000  0.80000000
   0.03333333  0.06666667  0.60000000
   0.90000000  0.80000000  0.20000000
   0.80000000  0.60000000  0.40000000
   0.73333333  0.46666667  0.20000000
   0.66666667  0.33333333  0.00000000
   0.36666667  0.73333333  0.60000000
   0.13333333  0.26666667  0.40000000
   0.83333333  0.66666667  0.00000000
   0.93333333  0.86666667  0.80000000
   0.56666667  0.13333333  0.20000000
   0.40000000  0.80000000  0.20000000
   0.43333333  0.86666667  0.80000000
   0.30000000  0.60000000  0.40000000
   0.86666667  0.73333333  0.60000000
   0.46666667  0.93333333  0.40000000
   0.16666667  0.33333333  0.00000000
   0.26666667  0.53333333  0.80000000
   0.20000000  0.40000000  0.60000000
   0.06666667  0.13333333  0.20000000
   0.70000000  0.40000000  0.60000000
   0.60000000  0.20000000  0.80000000
   0.53333333  0.06666667  0.60000000
   0.33333333  0.66666667  0.00000000
   0.23333333  0.46666667  0.20000000
SQS with 1 vacancy for VFE and VRV      
           1
    -3.151906   -3.141844   -3.159884
     1.569008    1.572601   -7.894444
     7.925467   -7.908376   -1.571878
   Nb   Mo   Ta   Ti   W 
   6   6   6   6   5
Direct configuration=     2
   0.96357103  0.93342046  0.39744046
   0.63277542  0.26644557  0.40064905
   0.49916645  0.00200375 -0.00106786
  -0.00140321  0.00099353  0.00086788
   0.09359817  0.20747621  0.79922342
   0.03585200  0.06743663  0.59885454
   0.90100799  0.79865966  0.20235664
   0.80275771  0.59569186  0.39978053
   0.73364299  0.46697501  0.19895457
   0.66424286  0.33765270 -0.00096221
   0.36628641  0.72972971  0.60014944
   0.13224062  0.27009603  0.39979471
   0.83305572  0.66296470  0.00048785
   0.93489788  0.87100567  0.79957003
   0.56662799  0.13370819  0.19856539
   0.40455443  0.79513348  0.19858347
   0.43818784  0.85912125  0.79782324
   0.29975148  0.60139596  0.40245402
   0.86228308  0.73283915  0.59939957
   0.46692377  0.93189373  0.40284350
   0.17276621  0.33274652  0.00224768
   0.27234333  0.53346082  0.79983701
   0.20484493  0.39562263  0.59753870
   0.06485062  0.13791541  0.20210606
   0.69501013  0.40485424  0.60159769
   0.59561475  0.20126620  0.79836865
   0.53550050  0.06690095  0.60210641
   0.33196036  0.66082070  0.00142107
   0.23042188  0.46843595  0.19900850
SQS with 1 vacancy for VFE and VRV      
           1
    -3.152902   -3.143104   -3.160672
     1.569688    1.573187   -7.896552
     7.926763   -7.910120   -1.572483
   Nb   Mo   Ta   Ti   W 
   6   6   6   6   5
Direct configuration=     3
   0.96365328  0.93341806  0.39750798
   0.63279015  0.26645139  0.40063196
   0.49918874  0.00195072 -0.00103971
  -0.00136603  0.00096718  0.00084503
   0.09376834  0.20727818  0.79924396
   0.03578537  0.06741637  0.59888469
   0.90098102  0.79869514  0.20229451
   0.80268439  0.59580595  0.39978629
   0.73363488  0.46696687  0.19898212
   0.66430743  0.33753834 -0.00093683
   0.36629627  0.72982503  0.60014552
   0.13226980  0.27000526  0.39980012
   0.83306283  0.66306262  0.00047501
   0.93485669  0.87089094  0.79958131
   0.56662915  0.13369829  0.19860321
   0.40443354  0.79526242  0.19862076
   0.43805890  0.85932108  0.79788058
   0.29975797  0.60135900  0.40238933
   0.86239929  0.73285205  0.59941547
   0.46691666  0.93193181  0.40276855
   0.17260433  0.33276226  0.00218834
   0.27219288  0.53345767  0.79984121
   0.20471645  0.39573865  0.59760352
   0.06489886  0.13779410  0.20205055
   0.69514255  0.40472560  0.60155563
   0.59573118  0.20123254  0.79841172
   0.53544291  0.06689482  0.60205085
   0.33199631  0.66097530  0.00138367
   0.23049923  0.46838903  0.19903468
SQS with 1 vacancy for VFE and VRV      
           1
    -3.161919   -3.145676   -3.175952
     1.566273    1.574766   -7.927131
     7.979663   -7.955051   -1.571998
   Nb   Mo   Ta   Ti   W 
   6   6   6   6   5
Direct configuration=     4
   0.96139077  0.93371094  0.39583795
   0.63237086  0.26629134  0.40092883
   0.49862000  0.00280928 -0.00195999
  -0.00212992  0.00188563  0.00142588
   0.08847224  0.21322990  0.79873808
   0.03754786  0.06805216  0.59804406
   0.90156789  0.79791978  0.20363885
   0.80443142  0.59316091  0.39979654
   0.73386635  0.46676729  0.19848254
   0.66289009  0.34069538 -0.00196122
   0.36619908  0.72738452  0.60031134
   0.13146183  0.27199317  0.39975545
   0.83260453  0.66068592  0.00027327
   0.93593256  0.87342692  0.79938015
   0.56641503  0.13372944  0.19781930
   0.40733544  0.79250234  0.19795173
   0.44218967  0.85367739  0.79664163
   0.29977938  0.60200721  0.40398096
   0.85911458  0.73221367  0.59924153
   0.46715093  0.93074966  0.40473149
   0.17710984  0.33219640  0.00367523
   0.27637941  0.53339633  0.79960546
   0.20762983  0.39297471  0.59591269
   0.06361617  0.14103011  0.20357180
   0.69203724  0.40820332  0.60293747
   0.59260556  0.20241518  0.79740019
   0.53685223  0.06681476  0.60329338
   0.33110672  0.65740661  0.00192267
   0.22878573  0.46933640  0.19862274
SQS with 1 vacancy for VFE and VRV      
           1
    -3.168372   -3.147517   -3.186887
     1.563829    1.575896   -7.949016
     8.017522   -7.987207   -1.571651
   Nb   Mo   Ta   Ti   W 
   6   6   6   6   5
Direct configuration=     5
   0.95977315  0.93392082  0.39464952
   0.63207205  0.26617761  0.40113982
   0.49821175  0.00342177 -0.00261453
  -0.00267589  0.00254170  0.00183901
   0.08468247  0.21747958  0.79837807
   0.03880443  0.06850400  0.59744680
   0.90198943  0.79736682  0.20459503
   0.80568229  0.59127264  0.39980374
   0.73403133  0.46662450  0.19812723
   0.66187280  0.34294818 -0.00268955
   0.36613314  0.72564363  0.60042872
   0.13088226  0.27341192  0.39972388
   0.83228028  0.65899066  0.00012912
   0.93669708  0.87523516  0.79923794
   0.56626124  0.13375147  0.19726167
   0.40941025  0.79053082  0.19747609
   0.44514507  0.84964753  0.79576033
   0.29979558  0.60247036  0.40511318
   0.85677007  0.73176066  0.59911672
   0.46732197  0.92990706  0.40612748
   0.18032905  0.33178999  0.00473398
   0.27936827  0.53334928  0.79943898
   0.20971170  0.39099995  0.59471028
   0.06269775  0.14334033  0.20465416
   0.68981704  0.41068729  0.60392021
   0.59037125  0.20326076  0.79668008
   0.53785994  0.06675716  0.60417755
   0.33047695  0.65486166  0.00230500
   0.22756062  0.47001336  0.19832947
SQS with 1 vacancy for VFE and VRV      
           1
    -3.169209   -3.149988   -3.190300
     1.560981    1.575498   -7.952672
     8.022679   -7.998727   -1.571171
   Nb   Mo   Ta   Ti   W 
   6   6   6   6   5
Direct configuration=     6
   0.95948046  0.93416026  0.39486812
   0.63201351  0.26628246  0.40103866
   0.49878500  0.00223330 -0.00309456
  -0.00259575  0.00280515  0.00184254
   0.08323666  0.21853435  0.79838830
   0.03870787  0.06883542  0.59745239
   0.90191269  0.79745571  0.20398083
   0.80542895  0.59169760  0.39997903
   0.73376181  0.46623446  0.19852781
   0.66205566  0.34286719 -0.00302109
   0.36581191  0.72597974  0.60043104
   0.13088090  0.27282007  0.39980418
   0.83164296  0.65971461 -0.00044759
   0.93676363  0.87503551  0.79943397
   0.56610872  0.13351058  0.19740943
   0.40900147  0.79112635  0.19776349
   0.44627443  0.84913276  0.79618652
   0.30022985  0.60213182  0.40467998
   0.85639179  0.73157376  0.59934970
   0.46729810  0.92956101  0.40624995
   0.18117384  0.33142371  0.00479172
   0.28021450  0.53311494  0.79927382
   0.20937926  0.39107447  0.59456497
   0.06247739  0.14362954  0.20489131
   0.69026272  0.41047915  0.60412998
   0.59036068  0.20343025  0.79682006
   0.53793959  0.06619397  0.60400631
   0.33009612  0.65598139  0.00175588
   0.22823863  0.46964715  0.19894325
SQS with 1 vacancy for VFE and VRV      
           1
    -3.170631   -3.154187   -3.196100
     1.556141    1.574820   -7.958885
     8.031444   -8.018303   -1.570356
   Nb   Mo   Ta   Ti   W 
   6   6   6   6   5
Direct configuration=     7
   0.95898286  0.93456735  0.39523933
   0.63191410  0.26646051  0.40086696
   0.49976041  0.00021355 -0.00390986
  -0.00245995  0.00325271  0.00184858
   0.08078008  0.22032676  0.79840619
   0.03854351  0.06939852  0.59746198
   0.90178301  0.79760616  0.20293820
   0.80499802  0.59241981  0.40027675
   0.73330400  0.46557226  0.19920778
   0.66236673  0.34272921 -0.00358397
   0.36526598  0.72655087  0.60043512
   0.13087913  0.27181462  0.39994033
   0.83056053  0.66094420 -0.00142630
   0.93687662  0.87469647  0.79976669
   0.56584978  0.13310151  0.19766022
   0.40830623  0.79213851  0.19825161
   0.44819247  0.84825828  0.79690968
   0.30096827  0.60155614  0.40394443
   0.85574926  0.73125656  0.59974521
   0.46725777  0.92897321  0.40645778
   0.18260890  0.33080123  0.00488948
   0.28165211  0.53271641  0.79899324
   0.20881476  0.39120104  0.59431836
   0.06210253  0.14412117  0.20529402
   0.69101959  0.41012561  0.60448595
   0.59034238  0.20371834  0.79705772
   0.53807567  0.06523696  0.60371545
   0.32944883  0.65788333  0.00082406
   0.22938974  0.46902537  0.19998500
SQS with 1 vacancy for VFE and VRV      
           1
    -3.162820   -3.146570   -3.191129
     1.547638    1.568592   -7.939478
     8.017245   -8.007627   -1.564884
   Nb   Mo   Ta   Ti   W 
   6   6   6   6   5
Direct configuration=     8
   0.95855083  0.93471801  0.39542475
   0.63188852  0.26637116  0.40090756
   0.50039125 -0.00086233 -0.00442156
  -0.00251632  0.00364838  0.00180722
   0.07903602  0.22183014  0.79844104
   0.03827400  0.06972778  0.59763292
   0.90172683  0.79766181  0.20237247
   0.80486118  0.59276370  0.40039470
   0.73292064  0.46555478  0.19950647
   0.66235855  0.34276251 -0.00389850
   0.36483048  0.72681797  0.60040202
   0.13085036  0.27120118  0.40010067
   0.83023756  0.66134488 -0.00196827
   0.93731305  0.87475537  0.79983241
   0.56580556  0.13260389  0.19774946
   0.40798263  0.79264194  0.19846260
   0.44924617  0.84781986  0.79714584
   0.30123038  0.60131238  0.40349959
   0.85523783  0.73100587  0.60004722
   0.46717574  0.92848016  0.40666926
   0.18387724  0.33046236  0.00510835
   0.28302753  0.53245248  0.79874443
   0.20863395  0.39117562  0.59405101
   0.06162803  0.14455272  0.20567788
   0.69131436  0.40992839  0.60464503
   0.59011010  0.20372741  0.79712126
   0.53822873  0.06465418  0.60368579
   0.32915740  0.65872426  0.00049291
   0.22995472  0.46882984  0.20036549
SQS with 1 vacancy for VFE and VRV      
           1
    -3.162085   -3.145854   -3.190661
     1.546838    1.568006   -7.937652
     8.015909   -8.006622   -1.564369
   Nb   Mo   Ta   Ti   W 
   6   6   6   6   5
Direct configuration=     9
   0.95851006  0.93473225  0.39544223
   0.63188611  0.26636273  0.40091139
   0.50045087 -0.00096391 -0.00446981
  -0.00252167  0.00368572  0.00180332
   0.07887137  0.22197208  0.79844434
   0.03824854  0.06975887  0.59764904
   0.90172154  0.79766703  0.20231914
   0.80484824  0.59279616  0.40040583
   0.73288448  0.46555316  0.19953462
   0.66235779  0.34276564 -0.00392815
   0.36478938  0.72684318  0.60039890
   0.13084770  0.27114330  0.40011578
   0.83020707  0.66138268 -0.00201935
   0.93735421  0.87476092  0.79983860
   0.56580143  0.13255693  0.19775786
   0.40795205  0.79268947  0.19848249
   0.44934560  0.84777846  0.79716809
   0.30125514  0.60128934  0.40345765
   0.85518960  0.73098224  0.60007568
   0.46716804  0.92843364  0.40668918
   0.18399691  0.33043035  0.00512898
   0.28315730  0.53242752  0.79872097
   0.20861690  0.39117321  0.59402581
   0.06158322  0.14459348  0.20571407
   0.69134217  0.40990978  0.60466002
   0.59008818  0.20372827  0.79712725
   0.53824323  0.06459917  0.60368298
   0.32912984  0.65880362  0.00046171
   0.23000802  0.46881138  0.20040136
SQS with 1 vacancy for VFE and VRV      
           1
    -3.162438   -3.144657   -3.192118
     1.544040    1.565886   -7.936831
     8.020881   -8.009636   -1.563147
   Nb   Mo   Ta   Ti   W 
   6   6   6   6   5
Direct configuration=    10
   0.95821062  0.93469588  0.39550966
   0.63190549  0.26610278  0.40105273
   0.50064658 -0.00114882 -0.00464727
  -0.00265643  0.00401084  0.00174794
   0.07782063  0.22321149  0.79850125
   0.03799217  0.06981969  0.59788312
   0.90169356  0.79768773  0.20217185
   0.80489816  0.59286294  0.40037819
   0.73270750  0.46589580  0.19952646
   0.66228365  0.34290213 -0.00404738
   0.36448719  0.72689584  0.60035430
   0.13082547  0.27087223  0.40028131
   0.83057688  0.66106213 -0.00226685
   0.93804770  0.87491717  0.79970058
   0.56580043  0.13208178  0.19775716
   0.40785351  0.79284946  0.19850790
   0.44967437  0.84763897  0.79703734
   0.30111716  0.60125979  0.40333720
   0.85494969  0.73071235  0.60031577
   0.46707183  0.92808077  0.40685288
   0.18479470  0.33036169  0.00535406
   0.28424237  0.53230001  0.79852392
   0.20865117  0.39111917  0.59382324
   0.06114484  0.14489360  0.20597196
   0.69132558  0.40986622  0.60468347
   0.58971876  0.20362969  0.79710020
   0.53830266  0.06437131  0.60378936
   0.32915875  0.65881016  0.00052466
   0.23008832  0.46890388  0.20027499
SQS with 1 vacancy for VFE and VRV      
           1
    -3.163499   -3.141065   -3.196489
     1.535647    1.559526   -7.934367
     8.035796   -8.018678   -1.559481
   Nb   Mo   Ta   Ti   W 
   6   6   6   6   5
Direct configuration=    11
   0.95731244  0.93458697  0.39571173
   0.63196426  0.26532272  0.40147653
   0.50123387 -0.00170391 -0.00517934
  -0.00306136  0.00498659  0.00158189
   0.07466611  0.22693168  0.79867174
   0.03722317  0.07000245  0.59858497
   0.90160941  0.79774979  0.20173020
   0.80504777  0.59306331  0.40029536
   0.73217591  0.46692417  0.19950197
   0.66206084  0.34331176 -0.00440490
   0.36358047  0.72705402  0.60022050
   0.13075948  0.27005883  0.40077760
   0.83168666  0.66009986 -0.00300893
   0.94012781  0.87538558  0.79928692
   0.56579829  0.13065584  0.19775497
   0.40755762  0.79332967  0.19858408
   0.45066080  0.84722009  0.79664536
   0.30070316  0.60117116  0.40297599
   0.85423068  0.72990262  0.60103556
   0.46678401  0.92702191  0.40734365
   0.18718852  0.33015520  0.00602920
   0.28749769  0.53191657  0.79793339
   0.20875387  0.39095690  0.59321583
   0.05982939  0.14579465  0.20674518
   0.69127590  0.40973551  0.60475379
   0.58861062  0.20333408  0.79701896
   0.53848150  0.06368750  0.60410830
   0.32924552  0.65882980  0.00071340
   0.23032891  0.46918135  0.19989609
SQS with 1 vacancy for VFE and VRV      
           1
    -3.166240   -3.144484   -3.198567
     1.537866    1.562448   -7.941608
     8.040285   -8.024862   -1.560545
   Nb   Mo   Ta   Ti   W 
   6   6   6   6   5
Direct configuration=    12
   0.95719347  0.93433409  0.39578696
   0.63181442  0.26520098  0.40142606
   0.50110402 -0.00143508 -0.00510895
  -0.00309711  0.00503277  0.00158480
   0.07430727  0.22757748  0.79874853
   0.03731197  0.06989121  0.59860376
   0.90164099  0.79778027  0.20188023
   0.80495259  0.59270287  0.40016148
   0.73244953  0.46686954  0.19946752
   0.66212277  0.34330739 -0.00416194
   0.36362294  0.72687858  0.60011597
   0.13055464  0.27024659  0.40079166
   0.83220106  0.65990534 -0.00310835
   0.94006840  0.87525080  0.79943841
   0.56577734  0.13069653  0.19784023
   0.40764474  0.79327526  0.19836709
   0.45086523  0.84752347  0.79654564
   0.30063623  0.60120833  0.40300220
   0.85448494  0.72969255  0.60112196
   0.46658681  0.92699321  0.40742503
   0.18714190  0.33023621  0.00602217
   0.28832262  0.53195370  0.79788637
   0.20883430  0.39081847  0.59320830
   0.05953048  0.14589727  0.20679243
   0.69090865  0.40979638  0.60453451
   0.58856990  0.20336739  0.79695573
   0.53806652  0.06375858  0.60419822
   0.32955438  0.65864338  0.00065893
   0.23016234  0.46926309  0.19981505
SQS with 1 vacancy for VFE and VRV      
           1
    -3.166497   -3.144804   -3.198762
     1.538074    1.562722   -7.942287
     8.040706   -8.025441   -1.560645
   Nb   Mo   Ta   Ti   W 
   6   6   6   6   5
Direct configuration=    13
   0.95718232  0.93431041  0.39579400
   0.63180038  0.26518958  0.40142134
   0.50109187 -0.00140990 -0.00510236
  -0.00310046  0.00503709  0.00158508
   0.07427368  0.22763795  0.79875572
   0.03732028  0.06988079  0.59860552
   0.90164394  0.79778312  0.20189428
   0.80494367  0.59266912  0.40014893
   0.73247515  0.46686443  0.19946429
   0.66212856  0.34330698 -0.00413918
   0.36362692  0.72686215  0.60010618
   0.13053547  0.27026417  0.40079298
   0.83224923  0.65988713 -0.00311766
   0.94006283  0.87523818  0.79945260
   0.56577538  0.13070034  0.19784822
   0.40765290  0.79327017  0.19834676
   0.45088439  0.84755188  0.79653630
   0.30062996  0.60121181  0.40300466
   0.85450875  0.72967289  0.60113005
   0.46656833  0.92699052  0.40743266
   0.18713754  0.33024380  0.00602151
   0.28839987  0.53195718  0.79788196
   0.20884183  0.39080551  0.59320760
   0.05950249  0.14590688  0.20679686
   0.69087426  0.40980208  0.60451397
   0.58856609  0.20337051  0.79694980
   0.53802766  0.06376523  0.60420665
   0.32958330  0.65862593  0.00065383
   0.23014674  0.46927074  0.19980746
SQS with 1 vacancy for VFE and VRV      
           1
    -3.165802   -3.144829   -3.197557
     1.538526    1.563689   -7.941016
     8.036947   -8.023359   -1.560193
   Nb   Mo   Ta   Ti   W 
   6   6   6   6   5
Direct configuration=    14
   0.95708555  0.93411417  0.39585166
   0.63167951  0.26509554  0.40139911
   0.50103959 -0.00124249 -0.00505480
  -0.00312953  0.00505688  0.00159834
   0.07402011  0.22810187  0.79880304
   0.03731365  0.06980824  0.59861931
   0.90167488  0.79779108  0.20201340
   0.80485979  0.59237632  0.40003909
   0.73268265  0.46680730  0.19942664
   0.66219194  0.34328271 -0.00389998
   0.36370584  0.72671406  0.60001975
   0.13034424  0.27041674  0.40078782
   0.83261628  0.65979593 -0.00318026
   0.94005350  0.87513010  0.79957378
   0.56569717  0.13077912  0.19791419
   0.40774011  0.79318002  0.19817368
   0.45093241  0.84787566  0.79647696
   0.30053823  0.60123318  0.40300730
   0.85472856  0.72951537  0.60118800
   0.46638795  0.92696789  0.40749554
   0.18705491  0.33033031  0.00601286
   0.28918917  0.53202312  0.79784589
   0.20886610  0.39068195  0.59320224
   0.05927349  0.14597194  0.20683629
   0.69057896  0.40982699  0.60430234
   0.58856671  0.20338926  0.79690217
   0.53772886  0.06381518  0.60427982
   0.32988269  0.65849147  0.00060319
   0.23003002  0.46933675  0.19976262
SQS with 1 vacancy for VFE and VRV      
           1
    -3.163717   -3.144904   -3.193943
     1.539880    1.566589   -7.937201
     8.025669   -8.017110   -1.558838
   Nb   Mo   Ta   Ti   W 
   6   6   6   6   5
Direct configuration=    15
   0.95679500  0.93352540  0.39602469
   0.63131677  0.26481337  0.40133241
   0.50088282 -0.00074022 -0.00491206
  -0.00321677  0.00511624  0.00163816
   0.07325960  0.22949361  0.79894512
   0.03729368  0.06959058  0.59866067
   0.90176764  0.79781498  0.20237088
   0.80460796  0.59149784  0.39970942
   0.73330524  0.46663597  0.19931361
   0.66238192  0.34320998 -0.00318213
   0.36394260  0.72626977  0.59976033
   0.12977059  0.27087440  0.40077237
   0.83371755  0.65952240 -0.00336819
   0.94002535  0.87480587  0.79993743
   0.56546252  0.13101546  0.19811219
   0.40800183  0.79290954  0.19765423
   0.45107679  0.84884705  0.79629890
   0.30026301  0.60129728  0.40301527
   0.85538795  0.72904286  0.60136189
   0.46584665  0.92689997  0.40768428
   0.18680707  0.33058984  0.00598693
   0.29155749  0.53222117  0.79773755
   0.20893885  0.39031125  0.59318616
   0.05858641  0.14616709  0.20695467
   0.68969309  0.40990160  0.60366728
   0.58856862  0.20344552  0.79675920
   0.53683230  0.06396499  0.60449949
   0.33078092  0.65808815  0.00045118
   0.22967988  0.46953472  0.19962809
SQS with 1 vacancy for VFE and VRV      
           1
    -3.165577   -3.145797   -3.196044
     1.539420    1.566141   -7.940190
     8.030048   -8.019822   -1.559098
   Nb   Mo   Ta   Ti   W 
   6   6   6   6   5
Direct configuration=    16
   0.95678541  0.93355403  0.39603979
   0.63122838  0.26473625  0.40139705
   0.50095735 -0.00081907 -0.00490513
  -0.00316095  0.00516328  0.00166679
   0.07315424  0.22964919  0.79891708
   0.03694970  0.06958505  0.59872513
   0.90174896  0.79777340  0.20221464
   0.80457264  0.59176495  0.39974132
   0.73313610  0.46662349  0.19926497
   0.66258087  0.34311257 -0.00317683
   0.36396544  0.72641352  0.59980375
   0.12980289  0.27058287  0.40076344
   0.83347896  0.65970672 -0.00341662
   0.94034118  0.87482014  0.79982574
   0.56524736  0.13097089  0.19813148
   0.40783857  0.79301982  0.19777254
   0.45079924  0.84894297  0.79641168
   0.30020127  0.60112809  0.40286046
   0.85536629  0.72896004  0.60143626
   0.46576498  0.92684202  0.40766978
   0.18676980  0.33061305  0.00598527
   0.29209577  0.53227107  0.79774359
   0.20859452  0.39044845  0.59318026
   0.05875284  0.14605383  0.20693386
   0.68997691  0.40970032  0.60365502
   0.58856978  0.20343721  0.79686574
   0.53705734  0.06385276  0.60443719
   0.33090574  0.65831012  0.00038350
   0.22985176  0.46944967  0.19967229
SQS with 1 vacancy for VFE and VRV      
           1
    -3.166705   -3.146339   -3.197318
     1.539141    1.565870   -7.942003
     8.032703   -8.021466   -1.559256
   Nb   Mo   Ta   Ti   W 
   6   6   6   6   5
Direct configuration=    17
   0.95677960  0.93357139  0.39604895
   0.63117482  0.26468949  0.40143624
   0.50100254 -0.00086688 -0.00490093
  -0.00312711  0.00519179  0.00168414
   0.07309034  0.22974353  0.79890007
   0.03674118  0.06958171  0.59876419
   0.90173762  0.79774819  0.20211992
   0.80455119  0.59192690  0.39976066
   0.73303356  0.46661594  0.19923547
   0.66270149  0.34305349 -0.00317361
   0.36397927  0.72650068  0.59983006
   0.12982253  0.27040611  0.40075802
   0.83333428  0.65981849 -0.00344599
   0.94053261  0.87482878  0.79975804
   0.56511694  0.13094387  0.19814317
   0.40773960  0.79308669  0.19784425
   0.45063098  0.84900114  0.79648004
   0.30016386  0.60102551  0.40276660
   0.85535318  0.72890982  0.60148135
   0.46571549  0.92680689  0.40766098
   0.18674720  0.33062712  0.00598427
   0.29242207  0.53230130  0.79774726
   0.20838576  0.39053166  0.59317666
   0.05885375  0.14598514  0.20692126
   0.69014900  0.40957827  0.60364760
   0.58857049  0.20343216  0.79693032
   0.53719376  0.06378470  0.60439944
   0.33098136  0.65844470  0.00034247
   0.22995598  0.46939810  0.19969908
SQS with 1 vacancy for VFE and VRV      
           1
    -3.166378   -3.145243   -3.197261
     1.537568    1.564462   -7.939612
     8.031433   -8.019079   -1.558393
   Nb   Mo   Ta   Ti   W 
   6   6   6   6   5
Direct configuration=    18
   0.95674494  0.93356424  0.39605594
   0.63109727  0.26461209  0.40148123
   0.50104418 -0.00090140 -0.00488847
  -0.00307813  0.00523532  0.00170211
   0.07296348  0.22990460  0.79887967
   0.03651160  0.06957629  0.59881124
   0.90171319  0.79770672  0.20200275
   0.80452015  0.59209301  0.39976771
   0.73291281  0.46660423  0.19920489
   0.66285728  0.34297486 -0.00314742
   0.36400599  0.72658609  0.59986203
   0.12980441  0.27018147  0.40076020
   0.83321017  0.65997440 -0.00349056
   0.94068563  0.87488984  0.79968263
   0.56498081  0.13088814  0.19816319
   0.40762712  0.79313683  0.19791186
   0.45043768  0.84913645  0.79656376
   0.30012295  0.60089334  0.40265983
   0.85531247  0.72884466  0.60154220
   0.46563702  0.92674929  0.40765976
   0.18672950  0.33067027  0.00598971
   0.29306455  0.53234040  0.79774245
   0.20814310  0.39061533  0.59315972
   0.05894920  0.14589879  0.20690656
   0.69033097  0.40941662  0.60362277
   0.58858885  0.20342725  0.79700295
   0.53730813  0.06370011  0.60437307
   0.33105161  0.65861267  0.00030745
   0.23005637  0.46933475  0.19971078
SQS with 1 vacancy for VFE and VRV      
           1
    -3.165987   -3.143936   -3.197193
     1.535691    1.562783   -7.936760
     8.029917   -8.016233   -1.557363
   Nb   Mo   Ta   Ti   W 
   6   6   6   6   5
Direct configuration=    19
   0.95670360  0.93355571  0.39606428
   0.63100479  0.26451974  0.40153489
   0.50109387 -0.00094260 -0.00487362
  -0.00301970  0.00528725  0.00172354
   0.07281210  0.23009679  0.79885532
   0.03623775  0.06956985  0.59886736
   0.90168405  0.79765726  0.20186298
   0.80448307  0.59229120  0.39977611
   0.73276875  0.46659027  0.19916840
   0.66304314  0.34288102 -0.00311617
   0.36403785  0.72668799  0.59990016
   0.12978287  0.26991344  0.40076280
   0.83306207  0.66016046 -0.00354373
   0.94086814  0.87496268  0.79959267
   0.56481844  0.13082164  0.19818708
   0.40749294  0.79319667  0.19799252
   0.45020706  0.84929793  0.79666362
   0.30007418  0.60073564  0.40253244
   0.85526394  0.72876691  0.60161478
   0.46554344  0.92668057  0.40765831
   0.18670838  0.33072176  0.00599621
   0.29383096  0.53238700  0.79773673
   0.20785359  0.39071518  0.59313948
   0.05906310  0.14579575  0.20688904
   0.69054809  0.40922373  0.60359316
   0.58861076  0.20342140  0.79708959
   0.53744459  0.06359918  0.60434162
   0.33113537  0.65881308  0.00026568
   0.23017616  0.46925915  0.19972474
SQS with 1 vacancy for VFE and VRV      
           1
    -3.166310   -3.143997   -3.197655
     1.534929    1.562337   -7.936528
     8.029796   -8.016055   -1.556985
   Nb   Mo   Ta   Ti   W 
   6   6   6   6   5
Direct configuration=    20
   0.95664427  0.93348666  0.39605736
   0.63094239  0.26445764  0.40152872
   0.50106668 -0.00089351 -0.00484606
  -0.00299421  0.00532529  0.00171562
   0.07266320  0.23026725  0.79885571
   0.03626063  0.06955241  0.59888237
   0.90164428  0.79763135  0.20183814
   0.80444771  0.59225779  0.39973942
   0.73277530  0.46656639  0.19916832
   0.66313471  0.34285550 -0.00307069
   0.36406048  0.72667051  0.59990780
   0.12969131  0.26984070  0.40078043
   0.83313572  0.66022637 -0.00360773
   0.94081221  0.87500270  0.79960809
   0.56484836  0.13075219  0.19820736
   0.40746340  0.79316416  0.19798262
   0.45023173  0.84947195  0.79666827
   0.30002435  0.60070029  0.40253390
   0.85523384  0.72872136  0.60166212
   0.46546692  0.92662953  0.40767511
   0.18668946  0.33079872  0.00599947
   0.29451156  0.53241951  0.79771348
   0.20780190  0.39071657  0.59312721
   0.05902173  0.14575771  0.20688512
   0.69053057  0.40916828  0.60356047
   0.58864258  0.20344363  0.79709861
   0.53733632  0.06357194  0.60436822
   0.33111861  0.65886408  0.00027427
   0.23012731  0.46923972  0.19968627
SQS with 1 vacancy for VFE and VRV      
           1
    -3.167280   -3.144180   -3.199041
     1.532641    1.561000   -7.935835
     8.029432   -8.015520   -1.555850
   Nb   Mo   Ta   Ti   W 
   6   6   6   6   5
Direct configuration=    21
   0.95646632  0.93327951  0.39603657
   0.63075522  0.26427134  0.40151019
   0.50098509 -0.00074624 -0.00476340
  -0.00291776  0.00543941  0.00169187
   0.07221647  0.23077867  0.79885689
   0.03632930  0.06950010  0.59892741
   0.90152501  0.79755363  0.20176360
   0.80434165  0.59215755  0.39962933
   0.73279496  0.46649472  0.19916807
   0.66340941  0.34277894 -0.00293423
   0.36412838  0.72661807  0.59993071
   0.12941669  0.26962248  0.40083332
   0.83335663  0.66042410 -0.00379972
   0.94064442  0.87512277  0.79965435
   0.56493814  0.13054380  0.19826822
   0.40737479  0.79306662  0.19795294
   0.45030568  0.84999405  0.79668225
   0.29987489  0.60059422  0.40253827
   0.85514359  0.72858470  0.60180412
   0.46523739  0.92647638  0.40772551
   0.18663269  0.33102962  0.00600926
   0.29655318  0.53251695  0.79764375
   0.20764681  0.39072073  0.59309038
   0.05889764  0.14564357  0.20687336
   0.69047804  0.40900190  0.60346238
   0.58873805  0.20351031  0.79712569
   0.53701157  0.06349022  0.60444802
   0.33106832  0.65901710  0.00030002
   0.22998078  0.46918144  0.19957084
SQS with 1 vacancy for VFE and VRV      
           1
    -3.169219   -3.144546   -3.201814
     1.528065    1.558325   -7.934447
     8.028705   -8.014450   -1.553580
   Nb   Mo   Ta   Ti   W 
   6   6   6   6   5
Direct configuration=    22
   0.95611068  0.93286514  0.39599496
   0.63038112  0.26389866  0.40147311
   0.50082182 -0.00045159 -0.00459807
  -0.00276501  0.00566768  0.00164440
   0.07132276  0.23180187  0.79885927
   0.03646665  0.06939544  0.59901749
   0.90128657  0.79739815  0.20161450
   0.80412967  0.59195703  0.39940912
   0.73283433  0.46635135  0.19916757
   0.66395876  0.34262576 -0.00266128
   0.36426421  0.72651314  0.59997655
   0.12886776  0.26918600  0.40093906
   0.83379815  0.66081959 -0.00418367
   0.94030882  0.87536300  0.79974687
   0.56511785  0.13012692  0.19838992
   0.40719769  0.79287150  0.19789354
   0.45045308  0.85103852  0.79671026
   0.29957612  0.60038206  0.40254698
   0.85496326  0.72831136  0.60208812
   0.46477859  0.92617006  0.40782627
   0.18651895  0.33149155  0.00602886
   0.30063541  0.53271150  0.79750449
   0.20733670  0.39072908  0.59301670
   0.05864962  0.14541527  0.20684982
   0.69037314  0.40866905  0.60326617
   0.58892887  0.20364371  0.79717987
   0.53636230  0.06332681  0.60460760
   0.33096762  0.65932323  0.00035156
   0.22968783  0.46906484  0.19933996
SQS with 1 vacancy for VFE and VRV      
           1
    -3.169678   -3.145202   -3.202225
     1.528653    1.559067   -7.936236
     8.029900   -8.016068   -1.553863
   Nb   Mo   Ta   Ti   W 
   6   6   6   6   5
Direct configuration=    23
   0.95602483  0.93276022  0.39601569
   0.63029015  0.26381021  0.40147224
   0.50078962 -0.00035780 -0.00457086
  -0.00280353  0.00572693  0.00163754