  29  29   0   0
  0.1632129E+02  0.5473281E-09  0.8209921E-09  0.1128346E-08  0.5000000E-15
  1.000000000000000E-004
  CAR 
 Nb - Mo - Ta - Ti - V SQS               
     11.55683886    -50.58628552  301      6.40499535      1.00000000
    -50.586  0.0000E+00  0.0000E+00
    -50.379  0.0000E+00  0.0000E+00
    -50.172  0.0000E+00  0.0000E+00
    -49.965  0.0000E+00  0.0000E+00
    -49.758  0.0000E+00  0.0000E+00
    -49.551 -0.8565E-35 -0.1774E-35
    -49.343 -0.3044E-27 -0.6306E-28
    -49.136 -0.1210E-20 -0.2507E-21
    -48.929 -0.5451E-15 -0.1129E-15
    -48.722 -0.2812E-10 -0.5824E-11
    -48.515 -0.1647E-06 -0.3412E-07
    -48.308 -0.1039E-03 -0.2156E-04
    -48.101 -0.6038E-02 -0.1272E-02
    -47.893  0.6604E-02  0.9575E-04
    -47.686  0.3164E+00  0.6563E-01
    -47.479  0.4911E+00  0.1674E+00
    -47.272  0.1716E+00  0.2029E+00
    -47.065 -0.1188E-01  0.2004E+00
    -46.858 -0.2132E-02  0.2000E+00
    -46.651 -0.1971E-04  0.2000E+00
    -46.443 -0.1852E-07  0.2000E+00
    -46.236 -0.1901E-11  0.2000E+00
    -46.029 -0.4113E-16  0.2000E+00
    -45.822  0.0000E+00  0.2000E+00
    -45.615  0.0000E+00  0.2000E+00
    -45.408  0.0000E+00  0.2000E+00
    -45.201  0.0000E+00  0.2000E+00
    -44.993  0.0000E+00  0.2000E+00
    -44.786  0.0000E+00  0.2000E+00
    -44.579  0.0000E+00  0.2000E+00
    -44.372  0.0000E+00  0.2000E+00
    -44.165  0.0000E+00  0.2000E+00
    -43.958  0.0000E+00  0.2000E+00
    -43.751  0.0000E+00  0.2000E+00
    -43.543  0.0000E+00  0.2000E+00
    -43.336  0.0000E+00  0.2000E+00
    -43.129  0.0000E+00  0.2000E+00
    -42.922  0.0000E+00  0.2000E+00
    -42.715  0.0000E+00  0.2000E+00
    -42.508  0.0000E+00  0.2000E+00
    -42.301  0.0000E+00  0.2000E+00
    -42.093  0.0000E+00  0.2000E+00
    -41.886  0.0000E+00  0.2000E+00
    -41.679  0.0000E+00  0.2000E+00
    -41.472  0.0000E+00  0.2000E+00
    -41.265  0.0000E+00  0.2000E+00
    -41.058  0.0000E+00  0.2000E+00
    -40.851  0.0000E+00  0.2000E+00
    -40.643  0.0000E+00  0.2000E+00
    -40.436  0.0000E+00  0.2000E+00
    -40.229  0.0000E+00  0.2000E+00
    -40.022  0.0000E+00  0.2000E+00
    -39.815  0.0000E+00  0.2000E+00
    -39.608  0.0000E+00  0.2000E+00
    -39.401  0.0000E+00  0.2000E+00
    -39.193  0.0000E+00  0.2000E+00
    -38.986  0.0000E+00  0.2000E+00
    -38.779  0.0000E+00  0.2000E+00
    -38.572  0.0000E+00  0.2000E+00
    -38.365  0.0000E+00  0.2000E+00
    -38.158  0.0000E+00  0.2000E+00
    -37.951  0.0000E+00  0.2000E+00
    -37.743  0.0000E+00  0.2000E+00
    -37.536  0.0000E+00  0.2000E+00
    -37.329  0.0000E+00  0.2000E+00
    -37.122  0.0000E+00  0.2000E+00
    -36.915  0.0000E+00  0.2000E+00
    -36.708  0.0000E+00  0.2000E+00
    -36.501  0.0000E+00  0.2000E+00
    -36.293  0.0000E+00  0.2000E+00
    -36.086  0.0000E+00  0.2000E+00
    -35.879  0.0000E+00  0.2000E+00
    -35.672  0.0000E+00  0.2000E+00
    -35.465  0.0000E+00  0.2000E+00
    -35.258  0.0000E+00  0.2000E+00
    -35.051  0.0000E+00  0.2000E+00
    -34.843  0.0000E+00  0.2000E+00
    -34.636  0.0000E+00  0.2000E+00
    -34.429  0.0000E+00  0.2000E+00
    -34.222  0.0000E+00  0.2000E+00
    -34.015  0.0000E+00  0.2000E+00
    -33.808  0.0000E+00  0.2000E+00
    -33.600  0.0000E+00  0.2000E+00
    -33.393  0.0000E+00  0.2000E+00
    -33.186  0.0000E+00  0.2000E+00
    -32.979  0.0000E+00  0.2000E+00
    -32.772  0.0000E+00  0.2000E+00
    -32.565  0.0000E+00  0.2000E+00
    -32.358  0.0000E+00  0.2000E+00
    -32.150  0.0000E+00  0.2000E+00
    -31.943  0.0000E+00  0.2000E+00
    -31.736  0.0000E+00  0.2000E+00
    -31.529  0.0000E+00  0.2000E+00
    -31.322  0.0000E+00  0.2000E+00
    -31.115  0.0000E+00  0.2000E+00
    -30.908  0.0000E+00  0.2000E+00
    -30.700  0.0000E+00  0.2000E+00
    -30.493  0.0000E+00  0.2000E+00
    -30.286  0.0000E+00  0.2000E+00
    -30.079  0.0000E+00  0.2000E+00
    -29.872  0.0000E+00  0.2000E+00
    -29.665  0.0000E+00  0.2000E+00
    -29.458  0.0000E+00  0.2000E+00
    -29.250  0.0000E+00  0.2000E+00
    -29.043  0.0000E+00  0.2000E+00
    -28.836  0.0000E+00  0.2000E+00
    -28.629  0.0000E+00  0.2000E+00
    -28.422  0.0000E+00  0.2000E+00
    -28.215  0.0000E+00  0.2000E+00
    -28.008  0.0000E+00  0.2000E+00
    -27.800  0.0000E+00  0.2000E+00
    -27.593  0.0000E+00  0.2000E+00
    -27.386  0.0000E+00  0.2000E+00
    -27.179  0.0000E+00  0.2000E+00
    -26.972  0.0000E+00  0.2000E+00
    -26.765  0.0000E+00  0.2000E+00
    -26.558  0.0000E+00  0.2000E+00
    -26.350  0.0000E+00  0.2000E+00
    -26.143  0.0000E+00  0.2000E+00
    -25.936 -0.1899E-30  0.2000E+00
    -25.729 -0.1902E-23  0.2000E+00
    -25.522 -0.2185E-17  0.2000E+00
    -25.315 -0.2756E-12  0.2000E+00
    -25.108 -0.3975E-08  0.2000E+00
    -24.900 -0.6161E-05  0.2000E+00
    -24.693 -0.9233E-03  0.1998E+00
    -24.486 -0.6655E-02  0.1984E+00
    -24.279  0.6957E-01  0.2128E+00
    -24.072  0.2330E+00  0.2611E+00
    -23.865  0.8039E+00  0.4276E+00
    -23.658  0.1069E+01  0.6492E+00
    -23.450  0.4293E+00  0.7381E+00
    -23.243  0.2552E+00  0.7910E+00
    -23.036  0.5303E-01  0.8019E+00
    -22.829 -0.8996E-02  0.8001E+00
    -22.622 -0.3556E-03  0.8000E+00
    -22.415 -0.1123E-05  0.8000E+00
    -22.208 -0.3750E-09  0.8000E+00
    -22.000 -0.1395E-13  0.8000E+00
    -21.793  0.0000E+00  0.8000E+00
    -21.586  0.0000E+00  0.8000E+00
    -21.379  0.0000E+00  0.8000E+00
    -21.172  0.0000E+00  0.8000E+00
    -20.965  0.0000E+00  0.8000E+00
    -20.758  0.0000E+00  0.8000E+00
    -20.550  0.0000E+00  0.8000E+00
    -20.343  0.0000E+00  0.8000E+00
    -20.136  0.0000E+00  0.8000E+00
    -19.929  0.0000E+00  0.8000E+00
    -19.722  0.0000E+00  0.8000E+00
    -19.515  0.0000E+00  0.8000E+00
    -19.308  0.0000E+00  0.8000E+00
    -19.100  0.0000E+00  0.8000E+00
    -18.893  0.0000E+00  0.8000E+00
    -18.686  0.0000E+00  0.8000E+00
    -18.479  0.0000E+00  0.8000E+00
    -18.272  0.0000E+00  0.8000E+00
    -18.065  0.0000E+00  0.8000E+00
    -17.858  0.0000E+00  0.8000E+00
    -17.650  0.0000E+00  0.8000E+00
    -17.443  0.0000E+00  0.8000E+00
    -17.236  0.0000E+00  0.8000E+00
    -17.029  0.0000E+00  0.8000E+00
    -16.822  0.0000E+00  0.8000E+00
    -16.615  0.0000E+00  0.8000E+00
    -16.408  0.0000E+00  0.8000E+00
    -16.200  0.0000E+00  0.8000E+00
    -15.993  0.0000E+00  0.8000E+00
    -15.786  0.0000E+00  0.8000E+00
    -15.579  0.0000E+00  0.8000E+00
    -15.372  0.0000E+00  0.8000E+00
    -15.165  0.0000E+00  0.8000E+00
    -14.958  0.0000E+00  0.8000E+00
    -14.750  0.0000E+00  0.8000E+00
    -14.543  0.0000E+00  0.8000E+00
    -14.336  0.0000E+00  0.8000E+00
    -14.129  0.0000E+00  0.8000E+00
    -13.922  0.0000E+00  0.8000E+00
    -13.715  0.0000E+00  0.8000E+00
    -13.508  0.0000E+00  0.8000E+00
    -13.300  0.0000E+00  0.8000E+00
    -13.093  0.0000E+00  0.8000E+00
    -12.886  0.0000E+00  0.8000E+00
    -12.679  0.0000E+00  0.8000E+00
    -12.472  0.0000E+00  0.8000E+00
    -12.265  0.0000E+00  0.8000E+00
    -12.058  0.0000E+00  0.8000E+00
    -11.850  0.0000E+00  0.8000E+00
    -11.643  0.0000E+00  0.8000E+00
    -11.436  0.0000E+00  0.8000E+00
    -11.229  0.0000E+00  0.8000E+00
    -11.022  0.0000E+00  0.8000E+00
    -10.815  0.0000E+00  0.8000E+00
    -10.608  0.0000E+00  0.8000E+00
    -10.400  0.0000E+00  0.8000E+00
    -10.193  0.0000E+00  0.8000E+00
     -9.986  0.0000E+00  0.8000E+00
     -9.779  0.0000E+00  0.8000E+00
     -9.572  0.0000E+00  0.8000E+00
     -9.365  0.0000E+00  0.8000E+00
     -9.158  0.0000E+00  0.8000E+00
     -8.950  0.0000E+00  0.8000E+00
     -8.743  0.0000E+00  0.8000E+00
     -8.536  0.0000E+00  0.8000E+00
     -8.329  0.0000E+00  0.8000E+00
     -8.122  0.0000E+00  0.8000E+00
     -7.915  0.0000E+00  0.8000E+00
     -7.708  0.0000E+00  0.8000E+00
     -7.500  0.0000E+00  0.8000E+00
     -7.293  0.0000E+00  0.8000E+00
     -7.086  0.0000E+00  0.8000E+00
     -6.879  0.0000E+00  0.8000E+00
     -6.672  0.0000E+00  0.8000E+00
     -6.465  0.0000E+00  0.8000E+00
     -6.258  0.0000E+00  0.8000E+00
     -6.050  0.0000E+00  0.8000E+00
     -5.843  0.0000E+00  0.8000E+00
     -5.636  0.0000E+00  0.8000E+00
     -5.429  0.0000E+00  0.8000E+00
     -5.222  0.0000E+00  0.8000E+00
     -5.015  0.0000E+00  0.8000E+00
     -4.808  0.0000E+00  0.8000E+00
     -4.600  0.0000E+00  0.8000E+00
     -4.393  0.0000E+00  0.8000E+00
     -4.186  0.0000E+00  0.8000E+00
     -3.979  0.0000E+00  0.8000E+00
     -3.772  0.0000E+00  0.8000E+00
     -3.565  0.0000E+00  0.8000E+00
     -3.358  0.0000E+00  0.8000E+00
     -3.150  0.0000E+00  0.8000E+00
     -2.943  0.0000E+00  0.8000E+00
     -2.736  0.0000E+00  0.8000E+00
     -2.529  0.0000E+00  0.8000E+00
     -2.322  0.0000E+00  0.8000E+00
     -2.115 -0.1389E-33  0.8000E+00
     -1.908 -0.1763E-26  0.8000E+00
     -1.700 -0.2622E-20  0.8000E+00
     -1.493 -0.4435E-15  0.8000E+00
     -1.286 -0.9040E-11  0.8000E+00
     -1.079 -0.2173E-07  0.8000E+00
     -0.872 -0.6130E-05  0.8000E+00
     -0.665 -0.1870E-03  0.8000E+00
     -0.457  0.2476E-03  0.8000E+00
     -0.250  0.9489E-02  0.8020E+00
     -0.043  0.2308E-01  0.8068E+00
      0.164  0.2948E-01  0.8129E+00
      0.371  0.4217E-01  0.8216E+00
      0.578  0.3890E-01  0.8297E+00
      0.785  0.4610E-01  0.8392E+00
      0.993  0.6148E-01  0.8519E+00
      1.200  0.6388E-01  0.8652E+00
      1.407  0.7097E-01  0.8799E+00
      1.614  0.8089E-01  0.8966E+00
      1.821  0.9616E-01  0.9165E+00
      2.028  0.1096E+00  0.9393E+00
      2.235  0.1570E+00  0.9718E+00
      2.443  0.2464E+00  0.1023E+01
      2.650  0.3770E+00  0.1101E+01
      2.857  0.4878E+00  0.1202E+01
      3.064  0.5202E+00  0.1310E+01
      3.271  0.5498E+00  0.1424E+01
      3.478  0.6094E+00  0.1550E+01
      3.685  0.6530E+00  0.1685E+01
      3.893  0.6578E+00  0.1821E+01
      4.100  0.5894E+00  0.1943E+01
      4.307  0.5442E+00  0.2056E+01
      4.514  0.5775E+00  0.2176E+01
      4.721  0.6658E+00  0.2314E+01
      4.928  0.7748E+00  0.2474E+01
      5.135  0.7946E+00  0.2639E+01
      5.343  0.8142E+00  0.2807E+01
      5.550  0.8331E+00  0.2980E+01
      5.757  0.8370E+00  0.3153E+01
      5.964  0.8489E+00  0.3329E+01
      6.171  0.8671E+00  0.3509E+01
      6.378  0.8231E+00  0.3679E+01
      6.585  0.7279E+00  0.3830E+01
      6.793  0.6155E+00  0.3958E+01
      7.000  0.4729E+00  0.4056E+01
      7.207  0.3955E+00  0.4138E+01
      7.414  0.3769E+00  0.4216E+01
      7.621  0.3611E+00  0.4290E+01
      7.828  0.4176E+00  0.4377E+01
      8.035  0.5306E+00  0.4487E+01
      8.243  0.6083E+00  0.4613E+01
      8.450  0.5473E+00  0.4726E+01
      8.657  0.3141E+00  0.4791E+01
      8.864  0.4946E-01  0.4802E+01
      9.071 -0.6697E-02  0.4800E+01
      9.278 -0.6775E-03  0.4800E+01
      9.485 -0.6477E-05  0.4800E+01
      9.693 -0.7474E-08  0.4800E+01
      9.900 -0.1037E-11  0.4800E+01
     10.107 -0.1638E-16  0.4800E+01
     10.314  0.0000E+00  0.4800E+01
     10.521  0.0000E+00  0.4800E+01
     10.728  0.0000E+00  0.4800E+01
     10.935  0.0000E+00  0.4800E+01
     11.143  0.0000E+00  0.4800E+01
     11.350  0.0000E+00  0.4800E+01
     11.557  0.0000E+00  0.4800E+01
