   29   29   50    1
  0.1632129E+02  0.5473281E-09  0.8209921E-09  0.1128346E-08  0.5000000E-15
  1.000000000000000E-004
  CAR 
 Nb - Mo - Ta - Ti - V SQS               
    185    172    120
 
  0.0000000E+00  0.0000000E+00  0.0000000E+00  0.2915452E-02
    1      -47.761598   1.000000
    2      -47.724707   1.000000
    3      -47.601368   1.000000
    4      -47.553299   1.000000
    5      -47.456781   1.000000
    6      -24.262500   1.000000
    7      -24.044892   1.000000
    8      -24.002728   1.000000
    9      -23.930802   1.000000
   10      -23.905826   1.000000
   11      -23.896988   1.000000
   12      -23.806870   1.000000
   13      -23.783975   1.000000
   14      -23.767336   1.000000
   15      -23.727362   1.000000
   16      -23.708873   1.000000
   17      -23.632133   1.000000
   18      -23.627865   1.000000
   19      -23.378246   1.000000
   20      -23.313006   1.000000
   21       -0.423968   1.000000
   22        0.874602   1.000000
   23        1.260982   1.000000
   24        2.014186   1.000000
   25        2.171529   1.000000
   26        2.244255   1.000000
   27        2.328961   1.000000
   28        2.490863   1.000000
   29        2.533387   1.000000
   30        2.594679   1.000000
   31        2.603007   1.000000
   32        2.776402   1.000000
   33        2.824755   1.000000
   34        2.854992   1.000000
   35        2.915130   1.000000
   36        2.955538   1.000000
   37        3.101332   1.000000
   38        3.225671   1.000000
   39        3.290721   1.000000
   40        3.387946   1.000000
   41        3.430557   1.000000
   42        3.533483   1.000000
   43        3.593444   1.000000
   44        3.623296   1.000000
   45        3.643633   1.000000
   46        3.689220   1.000000
   47        3.752621   1.000000
   48        3.903311   1.000000
   49        3.998891   1.000000
   50        4.044371   1.000000
   51        4.092082   1.000000
   52        4.172305   1.000000
   53        4.321838   1.000000
   54        4.344989   1.000000
   55        4.407027   1.000000
   56        4.442087   1.000000
   57        4.535491   1.000000
   58        4.624114   1.000000
   59        4.688950   1.000000
   60        4.714455   1.000000
   61        4.791228   1.000000
   62        4.827386   1.000000
   63        4.883859   1.000000
   64        4.941855   1.000000
   65        4.996950   1.000000
   66        5.012995   1.000000
   67        5.050069   1.000000
   68        5.114587   1.000000
   69        5.215005   1.000000
   70        5.257548   1.000000
   71        5.315409   1.000000
   72        5.397411   1.000000
   73        5.415388   1.000000
   74        5.481293   1.000000
   75        5.542562   1.000000
   76        5.560649   1.000000
   77        5.668314   1.000001
   78        5.737447   1.000012
   79        5.781305   1.000047
   80        5.819416   1.000139
   81        5.883909   1.000714
   82        5.943648   1.002628
   83        6.005101   1.008008
   84        6.049608   1.015334
   85        6.111539   1.029083
   86        6.126150   1.031981
   87        6.250579   0.982557
   88        6.289598   0.909421
   89        6.321683   0.820897
   90        6.388564   0.569268
   91        6.485589   0.187742
   92        6.571581   0.002002
   93        6.602814  -0.023958
   94        6.670566  -0.034040
   95        6.705536  -0.027531
   96        6.840787  -0.004300
   97        6.881100  -0.001942
   98        6.901530  -0.001251
   99        7.013650  -0.000073
  100        7.181363  -0.000000
  101        7.344751  -0.000000
  102        7.405923  -0.000000
  103        7.541782  -0.000000
  104        7.641889  -0.000000
  105        7.693246  -0.000000
  106        7.867963  -0.000000
  107        7.952768  -0.000000
  108        8.116057  -0.000000
  109        8.223548  -0.000000
  110        8.263890  -0.000000
  111        8.371456  -0.000000
  112        8.422832  -0.000000
  113        8.435549  -0.000000
  114        8.467250  -0.000000
  115        8.519011  -0.000000
  116        8.557027  -0.000000
  117        8.623599  -0.000000
  118        8.641896  -0.000000
  119        8.657407  -0.000000
  120        8.686874  -0.000000
 
  0.1428571E+00  0.0000000E+00 -0.1561251E-16  0.5830904E-02
    1      -47.761529   1.000000
    2      -47.724585   1.000000
    3      -47.601044   1.000000
    4      -47.552977   1.000000
    5      -47.456752   1.000000
    6      -24.262837   1.000000
    7      -24.043927   1.000000
    8      -24.002641   1.000000
    9      -23.931420   1.000000
   10      -23.906811   1.000000
   11      -23.897186   1.000000
   12      -23.806989   1.000000
   13      -23.785380   1.000000
   14      -23.769803   1.000000
   15      -23.729722   1.000000
   16      -23.710627   1.000000
   17      -23.633553   1.000000
   18      -23.629243   1.000000
   19      -23.381258   1.000000
   20      -23.314025   1.000000
   21       -0.259855   1.000000
   22        1.022908   1.000000
   23        1.397798   1.000000
   24        2.043072   1.000000
   25        2.289672   1.000000
   26        2.371473   1.000000
   27        2.435778   1.000000
   28        2.582660   1.000000
   29        2.618221   1.000000
   30        2.650532   1.000000
   31        2.771737   1.000000
   32        2.838662   1.000000
   33        2.926932   1.000000
   34        2.960816   1.000000
   35        3.008031   1.000000
   36        3.044355   1.000000
   37        3.142181   1.000000
   38        3.231340   1.000000
   39        3.341147   1.000000
   40        3.397895   1.000000
   41        3.476410   1.000000
   42        3.561105   1.000000
   43        3.610318   1.000000
   44        3.683406   1.000000
   45        3.735670   1.000000
   46        3.806987   1.000000
   47        3.833125   1.000000
   48        3.960269   1.000000
   49        3.979608   1.000000
   50        4.055756   1.000000
   51        4.149160   1.000000
   52        4.194444   1.000000
   53        4.329476   1.000000
   54        4.359692   1.000000
   55        4.416898   1.000000
   56        4.481949   1.000000
   57        4.572678   1.000000
   58        4.639122   1.000000
   59        4.733640   1.000000
   60        4.795204   1.000000
   61        4.832472   1.000000
   62        4.884812   1.000000
   63        4.912637   1.000000
   64        4.995599   1.000000
   65        5.016195   1.000000
   66        5.045104   1.000000
   67        5.093462   1.000000
   68        5.151107   1.000000
   69        5.226791   1.000000
   70        5.300419   1.000000
   71        5.353217   1.000000
   72        5.367338   1.000000
   73        5.432087   1.000000
   74        5.485471   1.000000
   75        5.527664   1.000000
   76        5.568070   1.000000
   77        5.611896   1.000000
   78        5.687156   1.000002
   79        5.747316   1.000017
   80        5.807930   1.000101
   81        5.852711   1.000333
   82        5.958620   1.003524
   83        5.988451   1.006064
   84        6.007353   1.008303
   85        6.073287   1.020387
   86        6.153185   1.035285
   87        6.206910   1.024105
   88        6.254777   0.976456
   89        6.289463   0.909739
   90        6.335463   0.775432
   91        6.364804   0.666313
   92        6.447071   0.326259
   93        6.495832   0.156094
   94        6.570141   0.003660
   95        6.679157  -0.032784
   96        6.739018  -0.019867
   97        6.822296  -0.005985
   98        6.876819  -0.002123
   99        7.025744  -0.000052
  100        7.057236  -0.000020
  101        7.135580  -0.000002
  102        7.244645  -0.000000
  103        7.321074  -0.000000
  104        7.383164  -0.000000
  105        7.544809  -0.000000
  106        7.732135  -0.000000
  107        7.828682  -0.000000
  108        7.932327  -0.000000
  109        7.994894  -0.000000
  110        8.007207  -0.000000
  111        8.085536  -0.000000
  112        8.129550  -0.000000
  113        8.170005  -0.000000
  114        8.266425  -0.000000
  115        8.352644  -0.000000
  116        8.370348  -0.000000
  117        8.487504  -0.000000
  118        8.506291  -0.000000
  119        8.553499  -0.000000
  120        8.641631  -0.000000
 
  0.2857143E+00  0.1387779E-16  0.3469447E-17  0.5830904E-02
    1      -47.761377   1.000000
    2      -47.724309   1.000000
    3      -47.600318   1.000000
    4      -47.552250   1.000000
    5      -47.456690   1.000000
    6      -24.263611   1.000000
    7      -24.042067   1.000000
    8      -24.002105   1.000000
    9      -23.933302   1.000000
   10      -23.909016   1.000000
   11      -23.897246   1.000000
   12      -23.807119   1.000000
   13      -23.789303   1.000000
   14      -23.775352   1.000000
   15      -23.734731   1.000000
   16      -23.714276   1.000000
   17      -23.638594   1.000000
   18      -23.630312   1.000000
   19      -23.388266   1.000000
   20      -23.316125   1.000000
   21        0.205648   1.000000
   22        1.421942   1.000000
   23        1.757980   1.000000
   24        2.183436   1.000000
   25        2.442270   1.000000
   26        2.555820   1.000000
   27        2.654577   1.000000
   28        2.757014   1.000000
   29        2.856436   1.000000
   30        2.886910   1.000000
   31        2.987497   1.000000
   32        3.069026   1.000000
   33        3.097383   1.000000
   34        3.121861   1.000000
   35        3.180578   1.000000
   36        3.239381   1.000000
   37        3.313152   1.000000
   38        3.363821   1.000000
   39        3.452869   1.000000
   40        3.493684   1.000000
   41        3.536171   1.000000
   42        3.656050   1.000000
   43        3.714239   1.000000
   44        3.822757   1.000000
   45        3.908805   1.000000
   46        3.970048   1.000000
   47        4.007925   1.000000
   48        4.057800   1.000000
   49        4.085398   1.000000
   50        4.182787   1.000000
   51        4.243388   1.000000
   52        4.324026   1.000000
   53        4.383099   1.000000
   54        4.422805   1.000000
   55        4.503900   1.000000
   56        4.547672   1.000000
   57        4.647149   1.000000
   58        4.682976   1.000000
   59        4.780347   1.000000
   60        4.824707   1.000000
   61        4.884222   1.000000
   62        4.946314   1.000000
   63        4.968959   1.000000
   64        5.020278   1.000000
   65        5.055899   1.000000
   66        5.130399   1.000000
   67        5.174757   1.000000
   68        5.234351   1.000000
   69        5.259592   1.000000
   70        5.263793   1.000000
   71        5.339735   1.000000
   72        5.383443   1.000000
   73        5.473602   1.000000
   74        5.489944   1.000000
   75        5.542420   1.000000
   76        5.562211   1.000000
   77        5.620408   1.000000
   78        5.693022   1.000003
   79        5.741697   1.000014
   80        5.767536   1.000032
   81        5.817807   1.000133
   82        5.833046   1.000200
   83        5.895222   1.000928
   84        5.990972   1.006332
   85        6.054114   1.016244
   86        6.095632   1.025525
   87        6.126116   1.031975
   88        6.176044   1.034361
   89        6.228670   1.008085
   90        6.259383   0.969290
   91        6.308234   0.861075
   92        6.366862   0.658147
   93        6.426598   0.409178
   94        6.484359   0.191705
   95        6.536691   0.055466
   96        6.563677   0.011658
   97        6.643512  -0.035291
   98        6.691775  -0.030470
   99        6.775521  -0.012492
  100        6.832494  -0.005001
  101        6.891431  -0.001559
  102        6.971105  -0.000233
  103        7.010384  -0.000080
  104        7.112985  -0.000003
  105        7.232615  -0.000000
  106        7.288720  -0.000000
  107        7.362887  -0.000000
  108        7.480511  -0.000000
  109        7.564407  -0.000000
  110        7.625617  -0.000000
  111        7.716305  -0.000000
  112        7.813323  -0.000000
  113        7.850614  -0.000000
  114        7.952462  -0.000000
  115        8.097525  -0.000000
  116        8.154560  -0.000000
  117        8.184496  -0.000000
  118        8.245486  -0.000000
  119        8.346525  -0.000000
  120        8.447950  -0.000000
 
  0.4285714E+00  0.5551115E-16 -0.4163336E-16  0.5830904E-02
    1      -47.761256   1.000000
    2      -47.724086   1.000000
    3      -47.599738   1.000000
    4      -47.551662   1.000000
    5      -47.456643   1.000000
    6      -24.264255   1.000000
    7      -24.040906   1.000000
    8      -24.001315   1.000000
    9      -23.935331   1.000000
   10      -23.910549   1.000000
   11      -23.897083   1.000000
   12      -23.807044   1.000000
   13      -23.793497   1.000000
   14      -23.779505   1.000000
   15      -23.738460   1.000000
   16      -23.716925   1.000000
   17      -23.643034   1.000000
   18      -23.630592   1.000000
   19      -23.394111   1.000000
   20      -23.317637   1.000000
   21        0.877467   1.000000
   22        1.656178   1.000000
   23        2.078559   1.000000
   24        2.279620   1.000000
   25        2.414342   1.000000
   26        2.656113   1.000000
   27        2.750750   1.000000
   28        2.880611   1.000000
   29        2.930428   1.000000
   30        3.067764   1.000000
   31        3.138573   1.000000
   32        3.180995   1.000000
   33        3.252841   1.000000
   34        3.297983   1.000000
   35        3.357830   1.000000
   36        3.441876   1.000000
   37        3.488653   1.000000
   38        3.561327   1.000000
   39        3.631477   1.000000
   40        3.696278   1.000000
   41        3.713324   1.000000
   42        3.771627   1.000000
   43        3.834199   1.000000
   44        3.923098   1.000000
   45        3.982225   1.000000
   46        4.075413   1.000000
   47        4.111984   1.000000
   48        4.148287   1.000000
   49        4.196517   1.000000
   50        4.255571   1.000000
   51        4.315971   1.000000
   52        4.409451   1.000000
   53        4.480457   1.000000
   54        4.545628   1.000000
   55        4.596663   1.000000
   56        4.635012   1.000000
   57        4.679600   1.000000
   58        4.752772   1.000000
   59        4.781926   1.000000
   60        4.850731   1.000000
   61        4.893584   1.000000
   62        4.940033   1.000000
   63        4.986481   1.000000
   64        5.021367   1.000000
   65        5.090442   1.000000
   66        5.135045   1.000000
   67        5.164975   1.000000
   68        5.206648   1.000000
   69        5.272874   1.000000
   70        5.296553   1.000000
   71        5.334618   1.000000
   72        5.365135   1.000000
   73        5.448326   1.000000
   74        5.490354   1.000000
   75        5.515594   1.000000
   76        5.588330   1.000000
   77        5.621205   1.000000
   78        5.707981   1.000005
   79        5.732698   1.000011
   80        5.777959   1.000043
   81        5.818890   1.000137
   82        5.887509   1.000777
   83        5.938939   1.002389
   84        5.975334   1.004810
   85        5.999952   1.007363
   86        6.034694   1.012531
   87        6.051323   1.015677
   88        6.094469   1.025257
   89        6.145079   1.034680
   90        6.178301   1.034009
   91        6.219914   1.015555
   92        6.276695   0.937769
   93        6.351451   0.717813
   94        6.382790   0.593321
   95        6.472619   0.231187
   96        6.503980   0.132704
   97        6.561921   0.013991
   98        6.622312  -0.031936
   99        6.670367  -0.034065
  100        6.696622  -0.029471
  101        6.746533  -0.018214
  102        6.841753  -0.004223
  103        6.909374  -0.001049
  104        6.956274  -0.000342
  105        7.002398  -0.000100
  106        7.221757  -0.000000
  107        7.252685  -0.000000
  108        7.318526  -0.000000
  109        7.379360  -0.000000
  110        7.416323  -0.000000
  111        7.480160  -0.000000
  112        7.603655  -0.000000
  113        7.662765  -0.000000
  114        7.806476  -0.000000
  115        7.852021  -0.000000
  116        7.963908  -0.000000
  117        8.015533  -0.000000
  118        8.102301  -0.000000
  119        8.156937  -0.000000
  120        8.196558  -0.000000
 
 -0.6938894E-17  0.1428571E+00  0.1040834E-16  0.5830904E-02
    1      -47.761596   1.000000
    2      -47.724705   1.000000
    3      -47.601302   1.000000
    4      -47.553217   1.000000
    5      -47.456932   1.000000
    6      -24.262279   1.000000
    7      -24.043212   1.000000
    8      -24.001775   1.000000
    9      -23.930786   1.000000
   10      -23.905861   1.000000
   11      -23.897013   1.000000
   12      -23.806857   1.000000
   13      -23.783984   1.000000
   14      -23.767392   1.000000
   15      -23.727454   1.000000
   16      -23.708842   1.000000
   17      -23.632043   1.000000
   18      -23.627756   1.000000
   19      -23.380828   1.000000
   20      -23.313857   1.000000
   21       -0.356340   1.000000
   22        0.911610   1.000000
   23        1.320859   1.000000
   24        1.730775   1.000000
   25        2.166600   1.000000
   26        2.275697   1.000000
   27        2.343305   1.000000
   28        2.505602   1.000000
   29        2.515336   1.000000
   30        2.608442   1.000000
   31        2.653232   1.000000
   32        2.752136   1.000000
   33        2.778665   1.000000
   34        2.864029   1.000000
   35        2.896578   1.000000
   36        2.974927   1.000000
   37        3.107943   1.000000
   38        3.232797   1.000000
   39        3.337317   1.000000
   40        3.428761   1.000000
   41        3.442556   1.000000
   42        3.454812   1.000000
   43        3.538448   1.000000
   44        3.644851   1.000000
   45        3.681749   1.000000
   46        3.716014   1.000000
   47        3.831803   1.000000
   48        3.917041   1.000000
   49        3.986824   1.000000
   50        4.050598   1.000000
   51        4.073340   1.000000
   52        4.182269   1.000000
   53        4.240469   1.000000
   54        4.316272   1.000000
   55        4.433932   1.000000
   56        4.483950   1.000000
   57        4.544348   1.000000
   58        4.612671   1.000000
   59        4.721250   1.000000
   60        4.786577   1.000000
   61        4.823589   1.000000
   62        4.833766   1.000000
   63        4.906347   1.000000
   64        4.956077   1.000000
   65        5.020870   1.000000
   66        5.033456   1.000000
   67        5.106575   1.000000
   68        5.134398   1.000000
   69        5.219963   1.000000
   70        5.280054   1.000000
   71        5.316599   1.000000
   72        5.381862   1.000000
   73        5.440769   1.000000
   74        5.464774   1.000000
   75        5.518828   1.000000
   76        5.611752   1.000000
   77        5.682376   1.000002
   78        5.742949   1.000015
   79        5.794796   1.000070
   80        5.818586   1.000136
   81        5.893520   1.000893
   82        5.940626   1.002473
   83        5.982636   1.005479
   84        6.002272   1.007649
   85        6.052608   1.015937
   86        6.149457   1.035056
   87        6.162409   1.035436
   88        6.209912   1.022384
   89        6.245520   0.989373
   90        6.307910   0.861989
   91        6.350980   0.719576
   92        6.489119   0.176559
   93        6.593091  -0.017796
   94        6.676758  -0.033165
   95        6.757427  -0.015928
   96        6.859094  -0.003034
   97        6.980619  -0.000182
   98        7.067433  -0.000015
   99        7.141936  -0.000001
  100        7.221993  -0.000000
  101        7.333122  -0.000000
  102        7.372382  -0.000000
  103        7.476516  -0.000000
  104        7.540058  -0.000000
  105        7.686794  -0.000000
  106        7.818775  -0.000000
  107        7.885707  -0.000000
  108        8.046813  -0.000000
  109        8.069251  -0.000000
  110        8.126948  -0.000000
  111        8.250839  -0.000000
  112        8.300164  -0.000000
  113        8.363073  -0.000000
  114        8.393521  -0.000000
  115        8.445374  -0.000000
  116        8.498912  -0.000000
  117        8.532807  -0.000000
  118        8.605561  -0.000000
  119        8.628177  -0.000000
  120        8.644669  -0.000000
 
  0.1428571E+00  0.1428571E+00 -0.1387779E-16  0.5830904E-02
    1      -47.761531   1.000000
    2      -47.724586   1.000000
    3      -47.601106   1.000000
    4      -47.553055   1.000000
    5      -47.456609   1.000000
    6      -24.263048   1.000000
    7      -24.045535   1.000000
    8      -24.003555   1.000000
    9      -23.931434   1.000000
   10      -23.906792   1.000000
   11      -23.897168   1.000000
   12      -23.806978   1.000000
   13      -23.785416   1.000000
   14      -23.769812   1.000000
   15      -23.729753   1.000000
   16      -23.710617   1.000000
   17      -23.633531   1.000000
   18      -23.629290   1.000000
   19      -23.378759   1.000000
   20      -23.313261   1.000000
   21       -0.256431   1.000000
   22        1.007240   1.000000
   23        1.413468   1.000000
   24        2.027846   1.000000
   25        2.272101   1.000000
   26        2.370891   1.000000
   27        2.430047   1.000000
   28        2.553956   1.000000
   29        2.592337   1.000000
   30        2.655988   1.000000
   31        2.678602   1.000000
   32        2.793309   1.000000
   33        2.894277   1.000000
   34        2.950182   1.000000
   35        2.965658   1.000000
   36        3.026632   1.000000
   37        3.167958   1.000000
   38        3.301975   1.000000
   39        3.371857   1.000000
   40        3.450964   1.000000
   41        3.503566   1.000000
   42        3.564732   1.000000
   43        3.608053   1.000000
   44        3.665618   1.000000
   45        3.705405   1.000000
   46        3.784486   1.000000
   47        3.820509   1.000000
   48        3.922835   1.000000
   49        3.992139   1.000000
   50        4.131393   1.000000
   51        4.179758   1.000000
   52        4.212040   1.000000
   53        4.336901   1.000000
   54        4.373837   1.000000
   55        4.441228   1.000000
   56        4.515800   1.000000
   57        4.596021   1.000000
   58        4.639523   1.000000
   59        4.711309   1.000000
   60        4.758505   1.000000
   61        4.816387   1.000000
   62        4.851341   1.000000
   63        4.895509   1.000000
   64        4.945403   1.000000
   65        4.981637   1.000000
   66        5.043351   1.000000
   67        5.088065   1.000000
   68        5.155560   1.000000
   69        5.206780   1.000000
   70        5.269699   1.000000
   71        5.329858   1.000000
   72        5.393596   1.000000
   73        5.415453   1.000000
   74        5.463627   1.000000
   75        5.506695   1.000000
   76        5.552732   1.000000
   77        5.642841   1.000000
   78        5.703461   1.000004
   79        5.760434   1.000025
   80        5.817674   1.000133
   81        5.865628   1.000460
   82        5.922473   1.001696
   83        5.965010   1.003977
   84        6.048398   1.015094
   85        6.100316   1.026597
   86        6.123602   1.031515
   87        6.183148   1.033065
   88        6.228013   1.008696
   89        6.305353   0.869115
   90        6.351895   0.716147
   91        6.423322   0.422813
   92        6.542058   0.045358
   93        6.594667  -0.018905
   94        6.621075  -0.031585
   95        6.667101  -0.034451
   96        6.728734  -0.022204
   97        6.836708  -0.004634
   98        6.876344  -0.002144
   99        6.972927  -0.000223
  100        7.080188  -0.000010
  101        7.128305  -0.000002
  102        7.230510  -0.000000
  103        7.362175  -0.000000
  104        7.412153  -0.000000
  105        7.530021  -0.000000
  106        7.642765  -0.000000
  107        7.792668  -0.000000
  108        7.964363  -0.000000
  109        8.038202  -0.000000
  110        8.166225  -0.000000
  111        8.201842  -0.000000
  112        8.273953  -0.000000
  113        8.374543  -0.000000
  114        8.430730  -0.000000
  115        8.458206  -0.000000
  116        8.496466  -0.000000
  117        8.548509  -0.000000
  118        8.583410  -0.000000
  119        8.641445  -0.000000
  120        8.685900  -0.000000
 
  0.2857143E+00  0.1428571E+00  0.2775558E-16  0.5830904E-02
    1      -47.761382   1.000000
    2      -47.724313   1.000000
    3      -47.600458   1.000000
    4      -47.552430   1.000000
    5      -47.456361   1.000000
    6      -24.264084   1.000000
    7      -24.045486   1.000000
    8      -24.004499   1.000000
    9      -23.933335   1.000000
   10      -23.908976   1.000000
   11      -23.897191   1.000000
   12      -23.807145   1.000000
   13      -23.789349   1.000000
   14      -23.775329   1.000000
   15      -23.734724   1.000000
   16      -23.714274   1.000000
   17      -23.638596   1.000000
   18      -23.630476   1.000000
   19      -23.382314   1.000000
   20      -23.314533   1.000000
   21        0.150715   1.000000
   22        1.348328   1.000000
   23        1.727446   1.000000
   24        2.304251   1.000000
   25        2.379096   1.000000
   26        2.584309   1.000000
   27        2.655861   1.000000
   28        2.718496   1.000000
   29        2.789161   1.000000
   30        2.856899   1.000000
   31        2.935790   1.000000
   32        2.995892   1.000000
   33        3.088508   1.000000
   34        3.121273   1.000000
   35        3.210315   1.000000
   36        3.257435   1.000000
   37        3.292192   1.000000
   38        3.367877   1.000000
   39        3.442304   1.000000
   40        3.564599   1.000000
   41        3.638988   1.000000
   42        3.688496   1.000000
   43        3.742856   1.000000
   44        3.790659   1.000000
   45        3.869792   1.000000
   46        3.918162   1.000000
   47        3.996755   1.000000
   48        4.012093   1.000000
   49        4.099239   1.000000
   50        4.177331   1.000000
   51        4.221221   1.000000
   52        4.326638   1.000000
   53        4.382609   1.000000
   54        4.431498   1.000000
   55        4.495989   1.000000
   56        4.606030   1.000000
   57        4.660033   1.000000
   58        4.698388   1.000000
   59        4.762287   1.000000
   60        4.838242   1.000000
   61        4.881482   1.000000
   62        4.910000   1.000000
   63        4.962727   1.000000
   64        4.990598   1.000000
   65        5.029813   1.000000
   66        5.089935   1.000000
   67        5.119837   1.000000
   68        5.143334   1.000000
   69        5.234287   1.000000
   70        5.263115   1.000000
   71        5.314301   1.000000
   72        5.374364   1.000000
   73        5.454481   1.000000
   74        5.492824   1.000000
   75        5.540678   1.000000
   76        5.600703   1.000000
   77        5.659227   1.000001
   78        5.697460   1.000003
   79        5.744380   1.000016
   80        5.797451   1.000076
   81        5.856157   1.000363
   82        5.888428   1.000793
   83        5.933496   1.002137
   84        6.002756   1.007709
   85        6.027036   1.011226
   86        6.080437   1.022015
   87        6.120740   1.030968
   88        6.151162   1.035172
   89        6.202631   1.026311
   90        6.232681   1.004166
   91        6.297014   0.891225
   92        6.346806   0.735045
   93        6.391906   0.555257
   94        6.455424   0.293953
   95        6.517206   0.098230
   96        6.581385  -0.008145
   97        6.630461  -0.033794
   98        6.705948  -0.027439
   99        6.773795  -0.012798
  100        6.835518  -0.004735
  101        6.938000  -0.000537
  102        7.004312  -0.000095
  103        7.062092  -0.000017
  104        7.137680  -0.000001
  105        7.286627  -0.000000
  106        7.319999  -0.000000
  107        7.449822  -0.000000
  108        7.659934  -0.000000
  109        7.783980  -0.000000
  110        7.839157  -0.000000
  111        7.940972  -0.000000
  112        7.990624  -0.000000
  113        8.018341  -0.000000
  114        8.089694  -0.000000
  115        8.194781  -0.000000
  116        8.245474  -0.000000
  117        8.295218  -0.000000
  118        8.379876  -0.000000
  119        8.408874  -0.000000
  120        8.491236  -0.000000
 
  0.4285714E+00  0.1428571E+00 -0.2081668E-16  0.5830904E-02
    1      -47.761260   1.000000
    2      -47.724089   1.000000
    3      -47.599849   1.000000
    4      -47.551809   1.000000
    5      -47.456378   1.000000
    6      -24.264622   1.000000
    7      -24.043374   1.000000
    8      -24.003580   1.000000
    9      -23.935362   1.000000
   10      -23.910518   1.000000
   11      -23.897042   1.000000
   12      -23.807107   1.000000
   13      -23.793522   1.000000
   14      -23.779497   1.000000
   15      -23.738458   1.000000
   16      -23.716917   1.000000
   17      -23.643015   1.000000
   18      -23.630732   1.000000
   19      -23.389078   1.000000
   20      -23.316528   1.000000
   21        0.794023   1.000000
   22        1.672600   1.000000
   23        2.019633   1.000000
   24        2.196701   1.000000
   25        2.439677   1.000000
   26        2.517688   1.000000
   27        2.803325   1.000000
   28        2.924489   1.000000
   29        2.996587   1.000000
   30        3.080028   1.000000
   31        3.161382   1.000000
   32        3.190544   1.000000
   33        3.234051   1.000000
   34        3.331992   1.000000
   35        3.399729   1.000000
   36        3.435632   1.000000
   37        3.469375   1.000000
   38        3.576369   1.000000
   39        3.612999   1.000000
   40        3.661167   1.000000
   41        3.701064   1.000000
   42        3.841545   1.000000
   43        3.865261   1.000000
   44        3.915781   1.000000
   45        3.974390   1.000000
   46        4.033898   1.000000
   47        4.089411   1.000000