 running on   96 total cores
 distrk:  each k-point on   96 cores,    1 groups
 distr:  one band on    8 cores,   12 groups
 using from now: INCAR     
 vasp.5.4.4.18Apr17-6-g9f103f2a35 (build Aug 09 2018 16:20:53) complex          
  
 POSCAR found :  5 types and      29 ions
 scaLAPACK will be used

 ----------------------------------------------------------------------------- 
|                                                                             |
|  ADVICE TO THIS USER RUNNING 'VASP/VAMP'   (HEAR YOUR MASTER'S VOICE ...):  |
|                                                                             |
|      You enforced a specific xc-type in the INCAR file,                     |
|      a different type was found on the POTCAR file                          |
|          I HOPE YOU KNOW, WHAT YOU ARE  DOING                               |
|                                                                             |
 ----------------------------------------------------------------------------- 

 LDA part: xc-table for Pade appr. of Perdew
 POSCAR found :  5 types and      29 ions
 POSCAR, INCAR and KPOINTS ok, starting setup
 FFT: planning ...
 WAVECAR not read
 initial charge from wavefunction
 entering main loop
       N       E                     dE             d eps       ncg     rms          rms(c)
DAV:   1    -0.423250809233E+04   -0.42325E+04   -0.15672E+05 58632   0.192E+03
DAV:   2    -0.961290538241E+04   -0.53804E+04   -0.50003E+04 68568   0.114E+03
DAV:   3    -0.107153718650E+05   -0.11025E+04   -0.10493E+04 82560   0.548E+02
DAV:   4    -0.111098934511E+05   -0.39452E+03   -0.35096E+03 82560   0.266E+02
DAV:   5    -0.113158788964E+05   -0.20599E+03   -0.19047E+03 82560   0.207E+02BRMIX: very serious problems
 the old and the new charge density differ
 old charge density:   184.50000 new  185.00000
    0.859E+03
DAV:   6    -0.113377737925E+04    0.10182E+05   -0.39579E+04 70512   0.729E+02    0.374E+03
DAV:   7    -0.813836423639E+03    0.31994E+03   -0.18971E+04 71628   0.716E+02    0.275E+03
DAV:   8    -0.644757733413E+03    0.16908E+03   -0.65463E+03 73920   0.362E+02    0.243E+03
DAV:   9    -0.551008202421E+03    0.93750E+02   -0.11217E+03 72096   0.121E+02    0.232E+03
DAV:  10    -0.532902722947E+03    0.18105E+02   -0.43707E+02 76188   0.949E+01    0.222E+03
DAV:  11    -0.494402449861E+03    0.38500E+02   -0.19577E+02 72912   0.361E+01    0.214E+03
DAV:  12    -0.582688313240E+03   -0.88286E+02   -0.13108E+03 64092   0.216E+02    0.190E+03
DAV:  13    -0.568888245682E+03    0.13800E+02   -0.22390E+03 64920   0.242E+02    0.125E+03
DAV:  14    -0.552616090713E+03    0.16272E+02   -0.22939E+03 74376   0.274E+02    0.573E+02
DAV:  15    -0.433431862962E+03    0.11918E+03   -0.14691E+03 80112   0.179E+02    0.256E+02
DAV:  16    -0.377862581389E+03    0.55569E+02   -0.68375E+02 73200   0.112E+02    0.238E+02
DAV:  17    -0.340266115721E+03    0.37596E+02   -0.45931E+02 74520   0.120E+02    0.195E+02
DAV:  18    -0.349549951208E+03   -0.92838E+01   -0.55461E+02 79452   0.897E+01    0.201E+02
DAV:  19    -0.322697537795E+03    0.26852E+02   -0.39961E+02 72216   0.916E+01    0.169E+02
DAV:  20    -0.326901407743E+03   -0.42039E+01   -0.21627E+02 72624   0.712E+01    0.133E+02
DAV:  21    -0.312194246943E+03    0.14707E+02   -0.88558E+01 72228   0.428E+01    0.958E+01
DAV:  22    -0.309446346776E+03    0.27479E+01   -0.48099E+01 70644   0.301E+01    0.820E+01
DAV:  23    -0.307887906018E+03    0.15584E+01   -0.33326E+01 77112   0.264E+01    0.778E+01
DAV:  24    -0.308446003674E+03   -0.55810E+00   -0.21643E+01 73884   0.171E+01    0.655E+01
DAV:  25    -0.306747905311E+03    0.16981E+01   -0.85077E+00 74772   0.126E+01    0.502E+01
DAV:  26    -0.305857336498E+03    0.89057E+00   -0.25613E+00 74304   0.557E+00    0.433E+01
DAV:  27    -0.306211374481E+03   -0.35404E+00   -0.28675E+00 74688   0.609E+00    0.320E+01
DAV:  28    -0.305437754202E+03    0.77362E+00   -0.27575E+00 77472   0.696E+00    0.220E+01
DAV:  29    -0.305114392586E+03    0.32336E+00   -0.18690E+00 74640   0.554E+00    0.183E+01
DAV:  30    -0.304860758379E+03    0.25363E+00   -0.13032E+00 73572   0.415E+00    0.124E+01
DAV:  31    -0.304817658714E+03    0.43100E-01   -0.49787E-01 71280   0.251E+00    0.102E+01
DAV:  32    -0.304801507600E+03    0.16151E-01   -0.21668E-01 69396   0.193E+00    0.895E+00
DAV:  33    -0.304804011366E+03   -0.25038E-02   -0.10137E-01 75360   0.119E+00    0.824E+00
DAV:  34    -0.304779355462E+03    0.24656E-01   -0.14265E-01 66132   0.140E+00    0.515E+00
DAV:  35    -0.304754578924E+03    0.24777E-01   -0.11289E-01 68772   0.140E+00    0.369E+00
DAV:  36    -0.304743896267E+03    0.10683E-01   -0.24132E-02 68544   0.635E-01    0.342E+00
DAV:  37    -0.304742347093E+03    0.15492E-02   -0.40234E-02 65196   0.793E-01    0.259E+00
DAV:  38    -0.304736194515E+03    0.61526E-02   -0.61383E-03 64812   0.322E-01    0.242E+00
DAV:  39    -0.304732992244E+03    0.32023E-02   -0.10310E-02 67308   0.418E-01    0.184E+00
DAV:  40    -0.304726581546E+03    0.64107E-02   -0.20608E-02 63348   0.588E-01    0.105E+00
DAV:  41    -0.304726123808E+03    0.45774E-03   -0.20828E-03 66852   0.146E-01    0.847E-01
DAV:  42    -0.304725555496E+03    0.56831E-03   -0.12032E-03 59052   0.149E-01    0.615E-01
DAV:  43    -0.304725124097E+03    0.43140E-03   -0.49032E-04 41592   0.103E-01    0.497E-01
DAV:  44    -0.304724757460E+03    0.36664E-03   -0.13323E-03 58920   0.146E-01    0.281E-01
DAV:  45    -0.304724663616E+03    0.93843E-04   -0.10838E-04 27084   0.518E-02
   1 F= -.30472466E+03 E0= -.30471864E+03  d E =-.304725E+03
 curvature:   0.00 expect dE= 0.000E+00 dE for cont linesearch  0.000E+00
 trial: gam= 0.00000 g(F)=  0.627E+00 g(S)=  0.383E+00 ort = 0.000E+00 (trialstep = 0.100E+01)
 search vector abs. value=  0.101E+01
 bond charge predicted
       N       E                     dE             d eps       ncg     rms          rms(c)
DAV:   1    -0.306277968466E+03   -0.15532E+01   -0.11518E+02 53484   0.444E+01    0.118E+01
DAV:   2    -0.307138897948E+03   -0.86093E+00   -0.24302E+01 74352   0.227E+01    0.990E+00
DAV:   3    -0.306189192893E+03    0.94971E+00   -0.16771E+01 73332   0.169E+01    0.923E+00
DAV:   4    -0.306021590025E+03    0.16760E+00   -0.12979E+01 68556   0.179E+01    0.851E+00
DAV:   5    -0.305359822389E+03    0.66177E+00   -0.60513E+00 75216   0.110E+01    0.433E+00
DAV:   6    -0.305229350842E+03    0.13047E+00   -0.25664E+00 74136   0.710E+00    0.367E+00
DAV:   7    -0.305128541302E+03    0.10081E+00   -0.15034E+00 80340   0.531E+00    0.228E+00
DAV:   8    -0.305114223013E+03    0.14318E-01   -0.54401E-01 74484   0.339E+00    0.178E+00
DAV:   9    -0.305097082452E+03    0.17141E-01   -0.21583E-01 73644   0.212E+00    0.116E+00
DAV:  10    -0.305095094671E+03    0.19878E-02   -0.94514E-02 72504   0.136E+00    0.910E-01
DAV:  11    -0.305100814196E+03   -0.57195E-02   -0.70805E-02 69168   0.118E+00    0.908E-01
DAV:  12    -0.305101976010E+03   -0.11618E-02   -0.72782E-02 69708   0.124E+00    0.615E-01
DAV:  13    -0.305100317377E+03    0.16586E-02   -0.37280E-02 78660   0.808E-01    0.286E-01
DAV:  14    -0.305100432075E+03   -0.11470E-03   -0.17075E-02 76260   0.521E-01    0.267E-01
DAV:  15    -0.305100016359E+03    0.41572E-03   -0.69504E-03 70068   0.385E-01    0.159E-01
DAV:  16    -0.305099872395E+03    0.14396E-03   -0.26998E-03 64548   0.216E-01    0.975E-02
DAV:  17    -0.305099829483E+03    0.42912E-04   -0.76288E-04 52440   0.117E-01
   2 F= -.30509983E+03 E0= -.30509488E+03  d E =-.375166E+00
 trial-energy change:   -0.375166  1 .order   -0.367708   -1.009674    0.274259
 step:   0.7921(harm=  0.7864)  dis= 0.03414  next Energy=  -305.128268 (dE=-0.404E+00)
 bond charge predicted
       N       E                     dE             d eps       ncg     rms          rms(c)
DAV:   1    -0.305181030338E+03   -0.81158E-01   -0.50670E+00 54228   0.942E+00    0.241E+00
DAV:   2    -0.305215773585E+03   -0.34743E-01   -0.10136E+00 75060   0.444E+00    0.225E+00
DAV:   3    -0.305178894075E+03    0.36880E-01   -0.88957E-01 74880   0.374E+00    0.188E+00
DAV:   4    -0.305173735039E+03    0.51590E-02   -0.53813E-01 73500   0.312E+00    0.192E+00
DAV:   5    -0.305144312178E+03    0.29423E-01   -0.32385E-01 72840   0.249E+00    0.105E+00
DAV:   6    -0.305134695066E+03    0.96171E-02   -0.13776E-01 73572   0.161E+00    0.761E-01
DAV:   7    -0.305131294162E+03    0.34009E-02   -0.72811E-02 76728   0.116E+00    0.548E-01
DAV:   8    -0.305129438693E+03    0.18555E-02   -0.28367E-02 74232   0.738E-01    0.328E-01
DAV:   9    -0.305128970443E+03    0.46825E-03   -0.91993E-03 70980   0.431E-01    0.260E-01
DAV:  10    -0.305128666914E+03    0.30353E-03   -0.35740E-03 64788   0.275E-01    0.183E-01
DAV:  11    -0.305128792230E+03   -0.12532E-03   -0.15367E-03 58704   0.171E-01    0.166E-01
DAV:  12    -0.305128956942E+03   -0.16471E-03   -0.21985E-03 61236   0.225E-01    0.139E-01
DAV:  13    -0.305128971089E+03   -0.14147E-04   -0.20725E-03 69912   0.200E-01    0.802E-02
DAV:  14    -0.305128922332E+03    0.48757E-04   -0.10650E-03 61872   0.130E-01    0.555E-02
DAV:  15    -0.305128887643E+03    0.34688E-04   -0.20342E-04 27984   0.973E-02
   3 F= -.30512889E+03 E0= -.30512365E+03  d E =-.404224E+00
 curvature:  -0.39 expect dE=-0.339E+00 dE for cont linesearch -0.353E-05
 trial: gam= 0.85242 g(F)=  0.320E+00 g(S)=  0.543E+00 ort = 0.301E-02 (trialstep = 0.604E+00)
 search vector abs. value=  0.160E+01
 bond charge predicted
       N       E                     dE             d eps       ncg     rms          rms(c)
DAV:   1    -0.305366550408E+03   -0.23763E+00   -0.57505E+01 41280   0.246E+01    0.359E+00
DAV:   2    -0.306230022038E+03   -0.86347E+00   -0.83748E+00 72780   0.135E+01    0.709E+00
DAV:   3    -0.305600666401E+03    0.62936E+00   -0.46517E+00 74064   0.940E+00    0.262E+00
DAV:   4    -0.305600290735E+03    0.37567E-03   -0.97219E-01 69708   0.438E+00    0.283E+00
DAV:   5    -0.305544901829E+03    0.55389E-01   -0.68785E-01 66780   0.388E+00    0.157E+00
DAV:   6    -0.305527084668E+03    0.17817E-01   -0.23375E-01 75840   0.205E+00    0.107E+00
DAV:   7    -0.305520846835E+03    0.62378E-02   -0.16891E-01 75384   0.186E+00    0.979E-01
DAV:   8    -0.305518162528E+03    0.26843E-02   -0.11743E-01 70380   0.171E+00    0.785E-01
DAV:   9    -0.305511781723E+03    0.63808E-02   -0.43546E-02 72072   0.947E-01    0.352E-01
DAV:  10    -0.305511223619E+03    0.55810E-03   -0.14244E-02 70908   0.477E-01    0.305E-01
DAV:  11    -0.305510845032E+03    0.37859E-03   -0.60543E-03 63672   0.355E-01    0.214E-01
DAV:  12    -0.305510846472E+03   -0.14403E-05   -0.30490E-03 67068   0.230E-01    0.152E-01
DAV:  13    -0.305510876680E+03   -0.30208E-04   -0.22067E-03 65292   0.189E-01    0.104E-01
DAV:  14    -0.305510909799E+03   -0.33119E-04   -0.20712E-03 64380   0.199E-01    0.115E-01
DAV:  15    -0.305510808138E+03    0.10166E-03   -0.14098E-03 55392   0.181E-01    0.646E-02
DAV:  16    -0.305510764599E+03    0.43539E-04   -0.27617E-04 33780   0.108E-01
   4 F= -.30551076E+03 E0= -.30550747E+03  d E =-.381877E+00
 trial-energy change:   -0.381877  1 .order   -0.382464   -0.523109   -0.241820
 step:   1.1230(harm=  1.1230)  dis= 0.07755  next Energy=  -305.615296 (dE=-0.486E+00)
 bond charge predicted
       N       E                     dE             d eps       ncg     rms          rms(c)
DAV:   1    -0.305508757282E+03    0.20509E-02   -0.42302E+01 41280   0.210E+01    0.301E+00
DAV:   2    -0.306122687895E+03   -0.61393E+00   -0.60292E+00 72876   0.115E+01    0.594E+00
DAV:   3    -0.305680486061E+03    0.44220E+00   -0.33171E+00 74172   0.803E+00    0.222E+00
DAV:   4    -0.305681703370E+03   -0.12173E-02   -0.71633E-01 69192   0.378E+00    0.244E+00
DAV:   5    -0.305637110448E+03    0.44593E-01   -0.48675E-01 67944   0.325E+00    0.124E+00
DAV:   6    -0.305625532270E+03    0.11578E-01   -0.15421E-01 75612   0.164E+00    0.870E-01
DAV:   7    -0.305621601723E+03    0.39305E-02   -0.11864E-01 75708   0.153E+00    0.812E-01
DAV:   8    -0.305619892292E+03    0.17094E-02   -0.80801E-02 69852   0.143E+00    0.663E-01
DAV:   9    -0.305615115536E+03    0.47768E-02   -0.29086E-02 71832   0.783E-01    0.272E-01
DAV:  10    -0.305614872453E+03    0.24308E-03   -0.88392E-03 69552   0.359E-01    0.246E-01
DAV:  11    -0.305614688741E+03    0.18371E-03   -0.44592E-03 62616   0.301E-01    0.184E-01
DAV:  12    -0.305614698895E+03   -0.10154E-04   -0.25190E-03 65040   0.217E-01    0.128E-01
DAV:  13    -0.305614681619E+03    0.17276E-04   -0.17791E-03 64260   0.170E-01    0.872E-02
DAV:  14    -0.305614707325E+03   -0.25706E-04   -0.14214E-03 58404   0.168E-01    0.972E-02
DAV:  15    -0.305614624476E+03    0.82849E-04   -0.88730E-04 49656   0.155E-01
   5 F= -.30561462E+03 E0= -.30561206E+03  d E =-.485737E+00
 curvature:  -1.04 expect dE=-0.151E+00 dE for cont linesearch -0.160E-04
 trial: gam= 0.05066 g(F)=  0.134E+00 g(S)=  0.117E-01 ort = 0.497E-02 (trialstep = 0.708E+00)
 search vector abs. value=  0.150E+00
 bond charge predicted
       N       E                     dE             d eps       ncg     rms          rms(c)
DAV:   1    -0.305670185893E+03   -0.55479E-01   -0.82572E+00 41280   0.989E+00    0.176E+00
DAV:   2    -0.305727408473E+03   -0.57223E-01   -0.89089E-01 69312   0.419E+00    0.163E+00
DAV:   3    -0.305728874147E+03   -0.14657E-02   -0.59876E-01 70044   0.333E+00    0.184E+00
DAV:   4    -0.305703127055E+03    0.25747E-01   -0.28666E-01 66324   0.263E+00    0.942E-01
DAV:   5    -0.305695018211E+03    0.81088E-02   -0.11382E-01 73836   0.138E+00    0.680E-01
DAV:   6    -0.305693002604E+03    0.20156E-02   -0.67182E-02 71952   0.119E+00    0.588E-01
DAV:   7    -0.305690228186E+03    0.27744E-02   -0.29268E-02 75024   0.787E-01    0.327E-01
DAV:   8    -0.305689907867E+03    0.32032E-03   -0.15033E-02 71364   0.549E-01    0.293E-01
DAV:   9    -0.305689369508E+03    0.53836E-03   -0.62297E-03 64716   0.379E-01    0.187E-01
DAV:  10    -0.305689192145E+03    0.17736E-03   -0.22425E-03 62472   0.206E-01    0.128E-01
DAV:  11    -0.305689264924E+03   -0.72779E-04   -0.10836E-03 53928   0.150E-01    0.114E-01
DAV:  12    -0.305689315875E+03   -0.50952E-04   -0.14300E-03 58368   0.177E-01    0.926E-02
DAV:  13    -0.305689257640E+03    0.58235E-04   -0.85302E-04 54720   0.126E-01
   6 F= -.30568926E+03 E0= -.30568706E+03  d E =-.746332E-01
 trial-energy change:   -0.074633  1 .order   -0.075047   -0.103009   -0.047085
 step:   1.3592(harm=  1.3036)  dis= 0.02657  next Energy=  -305.710606 (dE=-0.960E-01)
 bond charge predicted
       N       E                     dE             d eps       ncg     rms          rms(c)
DAV:   1    -0.305693484082E+03   -0.41682E-02   -0.69832E+00 41280   0.908E+00    0.161E+00
DAV:   2    -0.305740149282E+03   -0.46665E-01   -0.74113E-01 69300   0.381E+00    0.146E+00
DAV:   3    -0.305742770385E+03   -0.26211E-02   -0.49460E-01 69324   0.299E+00    0.169E+00
DAV:   4    -0.305720846438E+03    0.21924E-01   -0.24428E-01 66168   0.241E+00    0.866E-01
DAV:   5    -0.305714256350E+03    0.65901E-02   -0.96275E-02 73764   0.127E+00    0.631E-01
DAV:   6    -0.305712515492E+03    0.17409E-02   -0.56473E-02 72012   0.109E+00    0.537E-01
DAV:   7    -0.305710080203E+03    0.24353E-02   -0.24137E-02 75216   0.715E-01    0.290E-01
DAV:   8    -0.305709880160E+03    0.20004E-03   -0.12097E-02 70980   0.497E-01    0.269E-01
DAV:   9    -0.305709423949E+03    0.45621E-03   -0.51865E-03 64908   0.347E-01    0.168E-01
DAV:  10    -0.305709286628E+03    0.13732E-03   -0.18412E-03 62040   0.187E-01    0.117E-01
DAV:  11    -0.305709337339E+03   -0.50711E-04   -0.85376E-04 51264   0.136E-01
   7 F= -.30570934E+03 E0= -.30570741E+03  d E =-.947129E-01
 curvature:  -0.67 expect dE=-0.104E+00 dE for cont linesearch -0.393E-04
 trial: gam= 1.09957 g(F)=  0.262E-01 g(S)=  0.131E+00 ort =-0.298E-02 (trialstep = 0.379E+00)
 search vector abs. value=  0.331E+00
 bond charge predicted
       N       E                     dE             d eps       ncg     rms          rms(c)
DAV:   1    -0.305753730325E+03   -0.44444E-01   -0.49464E+00 41328   0.819E+00    0.179E+00
DAV:   2    -0.305777743657E+03   -0.24013E-01   -0.62007E-01 71460   0.366E+00    0.129E+00
DAV:   3    -0.305779077421E+03   -0.13338E-02   -0.39638E-01 71928   0.259E+00    0.135E+00
DAV:   4    -0.305766081022E+03    0.12996E-01   -0.24975E-01 73116   0.226E+00    0.109E+00
DAV:   5    -0.305752425922E+03    0.13655E-01   -0.11878E-01 72132   0.151E+00    0.504E-01
DAV:   6    -0.305751429725E+03    0.99620E-03   -0.40693E-02 74244   0.928E-01    0.444E-01
DAV:   7    -0.305750089575E+03    0.13402E-02   -0.22268E-02 74352   0.658E-01    0.290E-01
DAV:   8    -0.305749884433E+03    0.20514E-03   -0.91267E-03 66132   0.434E-01    0.261E-01
DAV:   9    -0.305749481606E+03    0.40283E-03   -0.44744E-03 64476   0.301E-01    0.148E-01
DAV:  10    -0.305749446340E+03    0.35265E-04   -0.14523E-03 58776   0.170E-01    0.118E-01
DAV:  11    -0.305749509980E+03   -0.63640E-04   -0.69079E-04 50064   0.113E-01
   8 F= -.30574951E+03 E0= -.30574783E+03  d E =-.401726E-01
 trial-energy change:   -0.040173  1 .order   -0.040774   -0.058173   -0.023375
 step:   0.6932(harm=  0.6336)  dis= 0.02204  next Energy=  -305.758856 (dE=-0.495E-01)
 bond charge predicted
       N       E                     dE             d eps       ncg     rms          rms(c)
DAV:   1    -0.305758063424E+03   -0.86171E-02   -0.34027E+00 41340   0.680E+00    0.149E+00
DAV:   2    -0.305771865130E+03   -0.13802E-01   -0.40913E-01 70620   0.297E+00    0.103E+00
DAV:   3    -0.305776839539E+03   -0.49744E-02   -0.28568E-01 70380   0.219E+00    0.125E+00
DAV:   4    -0.305766708622E+03    0.10131E-01   -0.20540E-01 69204   0.209E+00    0.975E-01
DAV:   5    -0.305756166265E+03    0.10542E-01   -0.86244E-02 71532   0.126E+00    0.385E-01
DAV:   6    -0.305756141861E+03    0.24404E-04   -0.27405E-02 71868   0.727E-01    0.427E-01
DAV:   7    -0.305755137435E+03    0.10044E-02   -0.18088E-02 71148   0.598E-01    0.276E-01
DAV:   8    -0.305754792630E+03    0.34481E-03   -0.55599E-03 69024   0.345E-01    0.188E-01
DAV:   9    -0.305754624399E+03    0.16823E-03   -0.20055E-03 64044   0.211E-01    0.133E-01
DAV:  10    -0.305754652456E+03   -0.28057E-04   -0.10026E-03 53388   0.149E-01    0.115E-01
DAV:  11    -0.305754771099E+03   -0.11864E-03   -0.93534E-04 53220   0.146E-01    0.944E-02
DAV:  12    -0.305754803454E+03   -0.32355E-04   -0.10893E-03 55164   0.167E-01    0.735E-02
DAV:  13    -0.305754763851E+03    0.39604E-04   -0.63955E-04 49260   0.137E-01
   9 F= -.30575476E+03 E0= -.30575321E+03  d E =-.454265E-01
 curvature:  -0.65 expect dE=-0.262E-01 dE for cont linesearch -0.966E-03
 trial: gam= 0.32215 g(F)=  0.348E-01 g(S)=  0.565E-02 ort =-0.223E-01 (trialstep = 0.442E+00)
 search vector abs. value=  0.606E-01
 bond charge predicted
       N       E                     dE             d eps       ncg     rms          rms(c)
DAV:   1    -0.305763199298E+03   -0.83958E-02   -0.10945E+00 41292   0.320E+00    0.316E-01
DAV:   2    -0.305773272980E+03   -0.10074E-01   -0.98335E-02 69120   0.167E+00    0.664E-01
DAV:   3    -0.305768651792E+03    0.46212E-02   -0.37956E-02 69012   0.945E-01    0.232E-01
DAV:   4    -0.305768575448E+03    0.76344E-04   -0.74075E-03 67044   0.404E-01    0.220E-01
DAV:   5    -0.305768082876E+03    0.49257E-03   -0.38364E-03 65640   0.297E-01    0.134E-01
DAV:   6    -0.305768043918E+03    0.38959E-04   -0.20716E-03 59712   0.208E-01    0.129E-01
DAV:   7    -0.305767988624E+03    0.55293E-04   -0.17587E-03 58704   0.201E-01    0.111E-01
DAV:   8    -0.305767926502E+03    0.62123E-04   -0.12181E-03 54852   0.179E-01    0.791E-02
DAV:   9    -0.305767832183E+03    0.94318E-04   -0.34144E-04 37788   0.107E-01
  10 F= -.30576783E+03 E0= -.30576637E+03  d E =-.130683E-01
 ZBRENT: can't locate minimum, use default step
 trial-energy change:   -0.013068  1 .order   -0.013219   -0.014724   -0.011714
 step:   1.7674(harm=  2.1612)  dis= 0.02848  next Energy=  -305.790775 (dE=-0.360E-01)
 bond charge predicted
       N       E                     dE             d eps       ncg     rms          rms(c)
DAV:   1    -0.305745725826E+03    0.22201E-01   -0.98479E+00 41280   0.961E+00    0.952E-01
DAV:   2    -0.305834274013E+03   -0.88548E-01   -0.86722E-01 69396   0.488E+00    0.191E+00
DAV:   3    -0.305794481520E+03    0.39792E-01   -0.33068E-01 69168   0.280E+00    0.696E-01
DAV:   4    -0.305794208811E+03    0.27271E-03   -0.68493E-02 72048   0.123E+00    0.673E-01
DAV:   5    -0.305789494372E+03    0.47144E-02   -0.35792E-02 70020   0.908E-01    0.393E-01
DAV:   6    -0.305789215032E+03    0.27934E-03   -0.18591E-02 69264   0.607E-01    0.387E-01
DAV:   7    -0.305788707539E+03    0.50749E-03   -0.15811E-02 67140   0.585E-01    0.327E-01
DAV:   8    -0.305788088575E+03    0.61896E-03   -0.10796E-02 69624   0.496E-01    0.227E-01
DAV:   9    -0.305787400559E+03    0.68802E-03   -0.39163E-03 65640   0.275E-01    0.704E-02
DAV:  10    -0.305787368489E+03    0.32070E-04   -0.90888E-04 55356   0.113E-01
  11 F= -.30578737E+03 E0= -.30578603E+03  d E =-.326046E-01
 curvature:  -1.86 expect dE=-0.379E-01 dE for cont linesearch -0.287E-03
 trial: gam= 0.07965 g(F)=  0.111E-01 g(S)=  0.924E-02 ort = 0.306E-02 (trialstep = 0.707E+00)
 search vector abs. value=  0.212E-01
 bond charge predicted
       N       E                     dE             d eps       ncg     rms          rms(c)
DAV:   1    -0.305808188475E+03   -0.20788E-01   -0.13250E+00 56112   0.493E+00    0.126E+00
DAV:   2    -0.305817188204E+03   -0.89997E-02   -0.29474E-01 75672   0.240E+00    0.122E+00
DAV:   3    -0.305812748511E+03    0.44397E-02   -0.31371E-01 72552   0.225E+00    0.126E+00
DAV:   4    -0.305801996878E+03    0.10752E-01   -0.14617E-01 67704   0.180E+00    0.738E-01
DAV:   5    -0.305796665181E+03    0.53317E-02   -0.65189E-02 71820   0.109E+00    0.461E-01
DAV:   6    -0.305795351634E+03    0.13135E-02   -0.31904E-02 70068   0.857E-01    0.354E-01
DAV:   7    -0.305794136861E+03    0.12148E-02   -0.12773E-02 79332   0.511E-01    0.156E-01
DAV:   8    -0.305794141647E+03   -0.47853E-05   -0.37274E-03 70140   0.230E-01    0.144E-01
DAV:   9    -0.305794006263E+03    0.13538E-03   -0.12708E-03 57600   0.163E-01    0.967E-02
DAV:  10    -0.305793979926E+03    0.26337E-04   -0.18081E-04 27744   0.860E-02
  12 F= -.30579398E+03 E0= -.30579256E+03  d E =-.661144E-02
 trial-energy change:   -0.006611  1 .order   -0.006975   -0.014574    0.000624
 step:   0.6779(harm=  0.6779)  dis= 0.00435  next Energy=  -305.794356 (dE=-0.699E-02)
 bond charge predicted
       N       E                     dE             d eps       ncg     rms          rms(c)
DAV:   1    -0.305794101351E+03   -0.95088E-04   -0.24497E-03 59604   0.217E-01    0.953E-02
DAV:   2    -0.305794582171E+03   -0.48082E-03   -0.36361E-03 70032   0.283E-01    0.211E-01
DAV:   3    -0.305794142265E+03    0.43991E-03   -0.31178E-03 60300   0.267E-01    0.809E-02
DAV:   4    -0.305794115445E+03    0.26821E-04   -0.61258E-04 45996   0.104E-01
  13 F= -.30579412E+03 E0= -.30579269E+03  d E =-.674696E-02
 curvature:  -0.35 expect dE=-0.446E-02 dE for cont linesearch -0.573E-06
 trial: gam= 0.64917 g(F)=  0.539E-02 g(S)=  0.738E-02 ort =-0.187E-03 (trialstep = 0.693E+00)
 search vector abs. value=  0.215E-01
 bond charge predicted
       N       E                     dE             d eps       ncg     rms          rms(c)
DAV:   1    -0.305797196271E+03   -0.30540E-02   -0.10882E+00 41280   0.328E+00    0.427E-01
DAV:   2    -0.305809701070E+03   -0.12505E-01   -0.12928E-01 70236   0.182E+00    0.874E-01
DAV:   3    -0.305802457599E+03    0.72435E-02   -0.68485E-02 68196   0.126E+00    0.388E-01
DAV:   4    -0.305801689720E+03    0.76788E-03   -0.16279E-02 68460   0.573E-01    0.261E-01
DAV:   5    -0.305801097537E+03    0.59218E-03   -0.73539E-03 70056   0.363E-01    0.201E-01
DAV:   6    -0.305800935731E+03    0.16181E-03   -0.49019E-03 64440   0.316E-01    0.168E-01
DAV:   7    -0.305800765866E+03    0.16986E-03   -0.33083E-03 68364   0.242E-01    0.105E-01
DAV:   8    -0.305800693607E+03    0.72259E-04   -0.17459E-03 63528   0.169E-01    0.835E-02
DAV:   9    -0.305800608194E+03    0.85413E-04   -0.59409E-04 44556   0.132E-01
  14 F= -.30580061E+03 E0= -.30579918E+03  d E =-.649275E-02
 trial-energy change:   -0.006493  1 .order   -0.006455   -0.008772   -0.004139
 step:   1.3128(harm=  1.3128)  dis= 0.01124  next Energy=  -305.802420 (dE=-0.830E-02)
 bond charge predicted
       N       E                     dE             d eps       ncg     rms          rms(c)
DAV:   1    -0.305799637152E+03    0.10565E-02   -0.86864E-01 41280   0.293E+00    0.370E-01
DAV:   2    -0.305809622124E+03   -0.99850E-02   -0.10087E-01 69828   0.162E+00    0.779E-01
DAV:   3    -0.305803873623E+03    0.57485E-02   -0.51285E-02 67908   0.109E+00    0.310E-01
DAV:   4    -0.305803486303E+03    0.38732E-03   -0.11100E-02 67848   0.469E-01    0.220E-01
DAV:   5    -0.305802989794E+03    0.49651E-03   -0.50965E-03 67788   0.303E-01    0.153E-01
DAV:   6    -0.305802949898E+03    0.39896E-04   -0.33081E-03 63984   0.267E-01    0.146E-01
DAV:   7    -0.305802846024E+03    0.10387E-03   -0.24455E-03 66444   0.219E-01    0.993E-02
DAV:   8    -0.305802777424E+03    0.68600E-04   -0.12590E-03 56928   0.153E-01    0.761E-02
DAV:   9    -0.305802706292E+03    0.71131E-04   -0.35418E-04 36600   0.118E-01
  15 F= -.30580271E+03 E0= -.30580127E+03  d E =-.859085E-02
 curvature:  -1.11 expect dE=-0.380E-02 dE for cont linesearch -0.174E-04
 trial: gam= 0.16813 g(F)=  0.315E-02 g(S)=  0.261E-03 ort = 0.579E-03 (trialstep = 0.817E+00)
 search vector abs. value=  0.421E-02
 bond charge predicted
       N       E                     dE             d eps       ncg     rms          rms(c)
DAV:   1    -0.305804794409E+03   -0.20170E-02   -0.24633E-01 41316   0.155E+00    0.226E-01
DAV:   2    -0.305806899318E+03   -0.21049E-02   -0.24412E-02 69444   0.789E-01    0.397E-01
DAV:   3    -0.305805587772E+03    0.13115E-02   -0.14586E-02 67908   0.606E-01    0.183E-01
DAV:   4    -0.305805379540E+03    0.20823E-03   -0.31853E-03 66648   0.262E-01    0.131E-01
DAV:   5    -0.305805315280E+03    0.64259E-04   -0.25335E-03 60876   0.227E-01    0.123E-01
DAV:   6    -0.305805154616E+03    0.16066E-03   -0.97363E-04 47316   0.163E-01    0.458E-02
DAV:   7    -0.305805147755E+03    0.68606E-05   -0.41798E-04 40008   0.894E-02
  16 F= -.30580515E+03 E0= -.30580371E+03  d E =-.244146E-02
 trial-energy change:   -0.002441  1 .order   -0.002472   -0.002865   -0.002079
 step:   2.9769(harm=  2.9769)  dis= 0.01000  next Energy=  -305.807925 (dE=-0.522E-02)
 bond charge predicted
       N       E                     dE             d eps       ncg     rms          rms(c)
DAV:   1    -0.305804937172E+03    0.21744E-03   -0.17171E+00 41280   0.408E+00    0.603E-01
DAV:   2    -0.305819682428E+03   -0.14745E-01   -0.17331E-01 69636   0.208E+00    0.106E+00
DAV:   3    -0.305810287880E+03    0.93945E-02   -0.10476E-01 68064   0.162E+00    0.493E-01
DAV:   4    -0.305808853971E+03    0.14339E-02   -0.23614E-02 70980   0.696E-01    0.358E-01
DAV:   5    -0.305808262233E+03    0.59174E-03   -0.18432E-02 71352   0.590E-01    0.323E-01
DAV:   6    -0.305807268793E+03    0.99344E-03   -0.82631E-03 66504   0.438E-01    0.142E-01
DAV:   7    -0.305807186152E+03    0.82641E-04   -0.42732E-03 76716   0.226E-01    0.119E-01
DAV:   8    -0.305807035562E+03    0.15059E-03   -0.13961E-03 62376   0.139E-01    0.668E-02
DAV:   9    -0.305807009774E+03    0.25788E-04   -0.29752E-04 35820   0.106E-01
  17 F= -.30580701E+03 E0= -.30580563E+03  d E =-.430348E-02
 curvature:  -1.79 expect dE=-0.146E-01 dE for cont linesearch -0.130E-03
 trial: gam= 2.59124 g(F)=  0.217E-02 g(S)=  0.601E-02 ort =-0.554E-03 (trialstep = 0.157E+00)
 search vector abs. value=  0.336E-01
 bond charge predicted
       N       E                     dE             d eps       ncg     rms          rms(c)
DAV:   1    -0.305808009223E+03   -0.97366E-03   -0.70914E-02 41604   0.876E-01    0.178E-01
DAV:   2    -0.305808601694E+03   -0.59247E-03   -0.93116E-03 72684   0.463E-01    0.221E-01
DAV:   3    -0.305808270931E+03    0.33076E-03   -0.67922E-03 68736   0.390E-01    0.169E-01
DAV:   4    -0.305808074544E+03    0.19639E-03   -0.27263E-03 63120   0.247E-01    0.106E-01
DAV:   5    -0.305808004725E+03    0.69819E-04   -0.15876E-03 59172   0.170E-01    0.945E-02
DAV:   6    -0.305807951578E+03    0.53147E-04   -0.89327E-04 47964   0.155E-01
  18 F= -.30580795E+03 E0= -.30580655E+03  d E =-.941804E-03
 ZBRENT: can't locate minimum, use default step
 trial-energy change:   -0.000942  1 .order   -0.000952   -0.001057   -0.000846
 step:   0.6264(harm=  0.7855)  dis= 0.00534  next Energy=  -305.809661 (dE=-0.265E-02)
 bond charge predicted
       N       E                     dE             d eps       ncg     rms          rms(c)
DAV:   1    -0.305809091770E+03   -0.10870E-02   -0.63351E-01 41292   0.261E+00    0.472E-01
DAV:   2    -0.305814203201E+03   -0.51114E-02   -0.75304E-02 72096   0.129E+00    0.635E-01
DAV:   3    -0.305811562020E+03    0.26412E-02   -0.54207E-02 70812   0.110E+00    0.468E-01
DAV:   4    -0.305809945989E+03    0.16160E-02   -0.19224E-02 66624   0.659E-01    0.274E-01
DAV:   5    -0.305809656744E+03    0.28925E-03   -0.12804E-02 68604   0.479E-01    0.271E-01
DAV:   6    -0.305809105179E+03    0.55156E-03   -0.67205E-03 63168   0.397E-01    0.154E-01
DAV:   7    -0.305808834289E+03    0.27089E-03   -0.25252E-03 65508   0.213E-01    0.747E-02
DAV:   8    -0.305808829516E+03    0.47726E-05   -0.10419E-03 57492   0.147E-01    0.698E-02
DAV:   9    -0.305808779219E+03    0.50297E-04   -0.25938E-04 31452   0.112E-01
  19 F= -.30580878E+03 E0= -.30580737E+03  d E =-.176944E-02
 curvature:  -1.83 expect dE=-0.686E-02 dE for cont linesearch -0.121E-04
 trial: gam= 0.21301 g(F)=  0.362E-02 g(S)=  0.125E-03 ort =-0.472E-03 (trialstep = 0.251E+00)
 search vector abs. value=  0.507E-02
 bond charge predicted
       N       E                     dE             d eps       ncg     rms          rms(c)
DAV:   1    -0.305809445150E+03   -0.61563E-03   -0.36344E-02 41964   0.624E-01    0.776E-02
DAV:   2    -0.305809808659E+03   -0.36351E-03   -0.39641E-03 69624   0.326E-01    0.116E-01
DAV:   3    -0.305809668925E+03    0.13973E-03   -0.16438E-03 58248   0.192E-01    0.634E-02
DAV:   4    -0.305809658851E+03    0.10074E-04   -0.38438E-04 38280   0.122E-01
  20 F= -.30580966E+03 E0= -.30580824E+03  d E =-.879632E-03
 ZBRENT: can't locate minimum, use default step
 trial-energy change:   -0.000880  1 .order   -0.000854   -0.000914   -0.000793
 step:   1.0023(harm=  1.8974)  dis= 0.00513  next Energy=  -305.812240 (dE=-0.346E-02)
 bond charge predicted
       N       E                     dE             d eps       ncg     rms          rms(c)
DAV:   1    -0.305809883143E+03   -0.21422E-03   -0.32428E-01 41316   0.186E+00    0.203E-01
DAV:   2    -0.305812879049E+03   -0.29959E-02   -0.33759E-02 69708   0.878E-01    0.313E-01
DAV:   3    -0.305811915576E+03    0.96347E-03   -0.12931E-02 70860   0.541E-01    0.204E-01
DAV:   4    -0.305811785977E+03    0.12960E-03   -0.45291E-03 62700   0.326E-01    0.162E-01
DAV:   5    -0.305811535334E+03    0.25064E-03   -0.21406E-03 59040   0.211E-01    0.869E-02
DAV:   6    -0.305811501600E+03    0.33733E-04   -0.76031E-04 47112   0.139E-01
  21 F= -.30581150E+03 E0= -.30581010E+03  d E =-.272238E-02
 curvature:  -0.93 expect dE=-0.135E-02 dE for cont linesearch -0.877E-03
 trial: gam=-0.13511 g(F)=  0.126E-02 g(S)=  0.190E-03 ort = 0.219E-02 (trialstep = 0.401E+00)
 search vector abs. value=  0.952E-03
 bond charge predicted
       N       E                     dE             d eps       ncg     rms          rms(c)
DAV:   1    -0.305811795756E+03   -0.26042E-03   -0.15844E-02 44616   0.446E-01    0.791E-02
DAV:   2    -0.305812334227E+03   -0.53847E-03   -0.46191E-03 72300   0.335E-01    0.190E-01
DAV:   3    -0.305811868681E+03    0.46555E-03   -0.27880E-03 64716   0.236E-01    0.710E-02
DAV:   4    -0.305811839494E+03    0.29186E-04   -0.51559E-04 44124   0.112E-01
  22 F= -.30581184E+03 E0= -.30581043E+03  d E =-.337894E-03
 ZBRENT: can't locate minimum, use default step
 trial-energy change:   -0.000338  1 .order   -0.000412   -0.000463   -0.000361
 step:   1.6036(harm=  1.8100)  dis= 0.00259  next Energy=  -305.812547 (dE=-0.105E-02)
 bond charge predicted
       N       E                     dE             d eps       ncg     rms          rms(c)
DAV:   1    -0.305812040143E+03   -0.17146E-03   -0.14192E-01 41328   0.130E+00    0.191E-01
DAV:   2    -0.305814982537E+03   -0.29424E-02   -0.27025E-02 69660   0.902E-01    0.453E-01
DAV:   3    -0.305812836429E+03    0.21461E-02   -0.14128E-02 69012   0.586E-01    0.155E-01
DAV:   4    -0.305812855190E+03   -0.18761E-04   -0.36175E-03 62928   0.267E-01    0.157E-01
DAV:   5    -0.305812648380E+03    0.20681E-03   -0.21454E-03 57720   0.214E-01    0.940E-02
DAV:   6    -0.305812591931E+03    0.56448E-04   -0.94818E-04 53412   0.135E-01
  23 F= -.30581259E+03 E0= -.30581122E+03  d E =-.109033E-02
 curvature:  -0.73 expect dE=-0.443E-03 dE for cont linesearch -0.208E-03
 trial: gam=-0.04099 g(F)=  0.560E-03 g(S)=  0.476E-04 ort = 0.521E-03 (trialstep = 0.641E+00)
 search vector abs. value=  0.566E-03
 reached required accuracy - stopping structural energy minimisation
 writing wavefunctions
VASP is done!
