<?xml version="1.0" encoding="ISO-8859-1"?>
<modeling>
 <generator>
  <i name="program" type="string">vasp </i>
  <i name="version" type="string">5.4.4.18Apr17-6-g9f103f2a35  </i>
  <i name="subversion" type="string">(build Aug 09 2018 16:20:53) complex            parallel </i>
  <i name="platform" type="string">LinuxIFC </i>
  <i name="date" type="string">2020 05 01 </i>
  <i name="time" type="string">01:17:21 </i>
 </generator>
 <incar>
  <i type="string" name="SYSTEM"> Nb - Mo - Ta - Ti - V SQS</i>
  <i type="string" name="PREC">normal</i>
  <i type="int" name="ICHARG">     0</i>
  <i type="int" name="IBRION">     2</i>
  <i type="int" name="NSW">    50</i>
  <i type="int" name="ISIF">     3</i>
  <i name="ENCUT">    600.00000000</i>
  <i type="string" name="LREAL"> Auto</i>
  <i type="int" name="ISMEAR">     1</i>
  <i name="SIGMA">      0.20000000</i>
  <v type="int" name="KPOINT_BSE">    -1     0     0     0</v>
  <i type="string" name="GGA"> PS</i>
 </incar>
 <structure name="primitive_cell" >
  <crystal>
   <varray name="basis" >
    <v>      -3.16000000      -3.16000000      -3.16000000 </v>
    <v>       1.58000000       1.58000000      -7.90000000 </v>
    <v>       7.90000000      -7.90000000      -1.58000000 </v>
   </varray>
   <i name="volume">    473.31744000 </i>
   <varray name="rec_basis" >
    <v>      -0.13713080      -0.12658228      -0.05274262 </v>
    <v>       0.04219409       0.06329114      -0.10548523 </v>
    <v>       0.06329114      -0.06329114       0.00000000 </v>
   </varray>
  </crystal>
  <varray name="positions" >
   <v>      -0.03333333      -0.06666667       0.40000000 </v>
   <v>       0.30000000      -0.40000000       0.40000000 </v>
   <v>      -0.10000000      -0.20000000       0.20000000 </v>
   <v>       0.06666667       0.13333333       0.20000000 </v>
   <v>       0.46666667      -0.06666667       0.40000000 </v>
   <v>      -0.13333333      -0.26666667      -0.40000000 </v>
   <v>       0.03333333       0.06666667      -0.40000000 </v>
   <v>      -0.36666667       0.26666667       0.40000000 </v>
   <v>       0.40000000      -0.20000000       0.20000000 </v>
   <v>      -0.20000000      -0.40000000       0.40000000 </v>
   <v>      -0.43333333       0.13333333       0.20000000 </v>
   <v>       0.36666667      -0.26666667      -0.40000000 </v>
   <v>       0.13333333       0.26666667       0.40000000 </v>
   <v>      -0.46666667       0.06666667      -0.40000000 </v>
   <v>       0.23333333       0.46666667       0.20000000 </v>
   <v>       0.20000000       0.40000000      -0.40000000 </v>
   <v>      -0.06666667      -0.13333333      -0.20000000 </v>
   <v>      -0.30000000       0.40000000      -0.40000000 </v>
   <v>      -0.26666667       0.46666667       0.20000000 </v>
   <v>       0.33333333      -0.33333333       0.00000000 </v>
   <v>       0.43333333      -0.13333333      -0.20000000 </v>
   <v>      -0.50000000       0.00000000       0.00000000 </v>
   <v>       0.26666667      -0.46666667      -0.20000000 </v>
   <v>      -0.33333333       0.33333333       0.00000000 </v>
   <v>      -0.40000000       0.20000000      -0.20000000 </v>
   <v>      -0.16666667      -0.33333333       0.00000000 </v>
   <v>      -0.23333333      -0.46666667      -0.20000000 </v>
   <v>       0.16666667       0.33333333       0.00000000 </v>
   <v>       0.10000000       0.20000000      -0.20000000 </v>
  </varray>
 </structure>
 <varray name="primitive_index" >
  <v type="int" >        1 </v>
  <v type="int" >       17 </v>
  <v type="int" >        6 </v>
  <v type="int" >       23 </v>
  <v type="int" >       19 </v>
  <v type="int" >       18 </v>
  <v type="int" >        5 </v>
  <v type="int" >        2 </v>
  <v type="int" >       15 </v>
  <v type="int" >        7 </v>
  <v type="int" >       14 </v>
  <v type="int" >       10 </v>
  <v type="int" >       11 </v>
  <v type="int" >       27 </v>
  <v type="int" >       29 </v>
  <v type="int" >       22 </v>
  <v type="int" >       13 </v>
  <v type="int" >       25 </v>
  <v type="int" >        8 </v>
  <v type="int" >       28 </v>
  <v type="int" >       16 </v>
  <v type="int" >        3 </v>
  <v type="int" >       21 </v>
  <v type="int" >        9 </v>
  <v type="int" >       26 </v>
  <v type="int" >       12 </v>
  <v type="int" >       24 </v>
  <v type="int" >       20 </v>
  <v type="int" >        4 </v>
 </varray>
 <kpoints>
  <generation param="Gamma">
   <v type="int" name="divisions">       7        7        7 </v>
   <v name="usershift">      0.00000000       0.00000000       0.00000000 </v>
   <v name="genvec1">      0.14285714       0.00000000       0.00000000 </v>
   <v name="genvec2">     -0.00000000       0.14285714       0.00000000 </v>
   <v name="genvec3">      0.00000000       0.00000000       0.14285714 </v>
   <v name="shift">      0.00000000       0.00000000       0.00000000 </v>
  </generation>
  <varray name="kpointlist" >
   <v>       0.00000000       0.00000000       0.00000000 </v>
   <v>       0.14285714       0.00000000      -0.00000000 </v>
   <v>       0.28571429       0.00000000       0.00000000 </v>
   <v>       0.42857143       0.00000000      -0.00000000 </v>
   <v>      -0.00000000       0.14285714       0.00000000 </v>
   <v>       0.14285714       0.14285714      -0.00000000 </v>
   <v>       0.28571429       0.14285714       0.00000000 </v>
   <v>       0.42857143       0.14285714      -0.00000000 </v>
   <v>      -0.42857143       0.14285714       0.00000000 </v>
   <v>      -0.28571429       0.14285714       0.00000000 </v>
   <v>      -0.14285714       0.14285714       0.00000000 </v>
   <v>       0.00000000       0.28571429      -0.00000000 </v>
   <v>       0.14285714       0.28571429      -0.00000000 </v>
   <v>       0.28571429       0.28571429      -0.00000000 </v>
   <v>       0.42857143       0.28571429      -0.00000000 </v>
   <v>      -0.42857143       0.28571429      -0.00000000 </v>
   <v>      -0.28571429       0.28571429      -0.00000000 </v>
   <v>      -0.14285714       0.28571429      -0.00000000 </v>
   <v>      -0.00000000       0.42857143      -0.00000000 </v>
   <v>       0.14285714       0.42857143       0.00000000 </v>
   <v>       0.28571429       0.42857143       0.00000000 </v>
   <v>       0.42857143       0.42857143      -0.00000000 </v>
   <v>      -0.42857143       0.42857143       0.00000000 </v>
   <v>      -0.28571429       0.42857143      -0.00000000 </v>
   <v>      -0.14285714       0.42857143      -0.00000000 </v>
   <v>       0.00000000       0.00000000       0.14285714 </v>
   <v>       0.14285714       0.00000000       0.14285714 </v>
   <v>       0.28571429       0.00000000       0.14285714 </v>
   <v>       0.42857143       0.00000000       0.14285714 </v>
   <v>      -0.42857143       0.00000000       0.14285714 </v>
   <v>      -0.28571429       0.00000000       0.14285714 </v>
   <v>      -0.14285714      -0.00000000       0.14285714 </v>
   <v>      -0.00000000       0.14285714       0.14285714 </v>
   <v>       0.14285714       0.14285714       0.14285714 </v>
   <v>       0.28571429       0.14285714       0.14285714 </v>
   <v>       0.42857143       0.14285714       0.14285714 </v>
   <v>      -0.42857143       0.14285714       0.14285714 </v>
   <v>      -0.28571429       0.14285714       0.14285714 </v>
   <v>      -0.14285714       0.14285714       0.14285714 </v>
   <v>      -0.00000000       0.28571429       0.14285714 </v>
   <v>       0.14285714       0.28571429       0.14285714 </v>
   <v>       0.28571429       0.28571429       0.14285714 </v>
   <v>       0.42857143       0.28571429       0.14285714 </v>
   <v>      -0.42857143       0.28571429       0.14285714 </v>
   <v>      -0.28571429       0.28571429       0.14285714 </v>
   <v>      -0.14285714       0.28571429       0.14285714 </v>
   <v>       0.00000000       0.42857143       0.14285714 </v>
   <v>       0.14285714       0.42857143       0.14285714 </v>
   <v>       0.28571429       0.42857143       0.14285714 </v>
   <v>       0.42857143       0.42857143       0.14285714 </v>
   <v>      -0.42857143       0.42857143       0.14285714 </v>
   <v>      -0.28571429       0.42857143       0.14285714 </v>
   <v>      -0.14285714       0.42857143       0.14285714 </v>
   <v>       0.00000000      -0.42857143       0.14285714 </v>
   <v>       0.14285714      -0.42857143       0.14285714 </v>
   <v>       0.28571429      -0.42857143       0.14285714 </v>
   <v>       0.42857143      -0.42857143       0.14285714 </v>
   <v>      -0.42857143      -0.42857143       0.14285714 </v>
   <v>      -0.28571429      -0.42857143       0.14285714 </v>
   <v>      -0.14285714      -0.42857143       0.14285714 </v>
   <v>       0.00000000      -0.28571429       0.14285714 </v>
   <v>       0.14285714      -0.28571429       0.14285714 </v>
   <v>       0.28571429      -0.28571429       0.14285714 </v>
   <v>       0.42857143      -0.28571429       0.14285714 </v>
   <v>      -0.42857143      -0.28571429       0.14285714 </v>
   <v>      -0.28571429      -0.28571429       0.14285714 </v>
   <v>      -0.14285714      -0.28571429       0.14285714 </v>
   <v>       0.00000000      -0.14285714       0.14285714 </v>
   <v>       0.14285714      -0.14285714       0.14285714 </v>
   <v>       0.28571429      -0.14285714       0.14285714 </v>
   <v>       0.42857143      -0.14285714       0.14285714 </v>
   <v>      -0.42857143      -0.14285714       0.14285714 </v>
   <v>      -0.28571429      -0.14285714       0.14285714 </v>
   <v>      -0.14285714      -0.14285714       0.14285714 </v>
   <v>       0.00000000       0.00000000       0.28571429 </v>
   <v>       0.14285714       0.00000000       0.28571429 </v>
   <v>       0.28571429       0.00000000       0.28571429 </v>
   <v>       0.42857143       0.00000000       0.28571429 </v>
   <v>      -0.42857143      -0.00000000       0.28571429 </v>
   <v>      -0.28571429      -0.00000000       0.28571429 </v>
   <v>      -0.14285714      -0.00000000       0.28571429 </v>
   <v>      -0.00000000       0.14285714       0.28571429 </v>
   <v>       0.14285714       0.14285714       0.28571429 </v>
   <v>       0.28571429       0.14285714       0.28571429 </v>
   <v>       0.42857143       0.14285714       0.28571429 </v>
   <v>      -0.42857143       0.14285714       0.28571429 </v>
   <v>      -0.28571429       0.14285714       0.28571429 </v>
   <v>      -0.14285714       0.14285714       0.28571429 </v>
   <v>      -0.00000000       0.28571429       0.28571429 </v>
   <v>       0.14285714       0.28571429       0.28571429 </v>
   <v>       0.28571429       0.28571429       0.28571429 </v>
   <v>       0.42857143       0.28571429       0.28571429 </v>
   <v>      -0.42857143       0.28571429       0.28571429 </v>
   <v>      -0.28571429       0.28571429       0.28571429 </v>
   <v>      -0.14285714       0.28571429       0.28571429 </v>
   <v>       0.00000000       0.42857143       0.28571429 </v>
   <v>       0.14285714       0.42857143       0.28571429 </v>
   <v>       0.28571429       0.42857143       0.28571429 </v>
   <v>       0.42857143       0.42857143       0.28571429 </v>
   <v>      -0.42857143       0.42857143       0.28571429 </v>
   <v>      -0.28571429       0.42857143       0.28571429 </v>
   <v>      -0.14285714       0.42857143       0.28571429 </v>
   <v>      -0.00000000      -0.42857143       0.28571429 </v>
   <v>       0.14285714      -0.42857143       0.28571429 </v>
   <v>       0.28571429      -0.42857143       0.28571429 </v>
   <v>       0.42857143      -0.42857143       0.28571429 </v>
   <v>      -0.42857143      -0.42857143       0.28571429 </v>
   <v>      -0.28571429      -0.42857143       0.28571429 </v>
   <v>      -0.14285714      -0.42857143       0.28571429 </v>
   <v>       0.00000000      -0.28571429       0.28571429 </v>
   <v>       0.14285714      -0.28571429       0.28571429 </v>
   <v>       0.28571429      -0.28571429       0.28571429 </v>
   <v>       0.42857143      -0.28571429       0.28571429 </v>
   <v>      -0.42857143      -0.28571429       0.28571429 </v>
   <v>      -0.28571429      -0.28571429       0.28571429 </v>
   <v>      -0.14285714      -0.28571429       0.28571429 </v>
   <v>       0.00000000      -0.14285714       0.28571429 </v>
   <v>       0.14285714      -0.14285714       0.28571429 </v>
   <v>       0.28571429      -0.14285714       0.28571429 </v>
   <v>       0.42857143      -0.14285714       0.28571429 </v>
   <v>      -0.42857143      -0.14285714       0.28571429 </v>
   <v>      -0.28571429      -0.14285714       0.28571429 </v>
   <v>      -0.14285714      -0.14285714       0.28571429 </v>
   <v>       0.00000000       0.00000000       0.42857143 </v>
   <v>       0.14285714       0.00000000       0.42857143 </v>
   <v>       0.28571429       0.00000000       0.42857143 </v>
   <v>       0.42857143      -0.00000000       0.42857143 </v>
   <v>      -0.42857143      -0.00000000       0.42857143 </v>
   <v>      -0.28571429       0.00000000       0.42857143 </v>
   <v>      -0.14285714      -0.00000000       0.42857143 </v>
   <v>      -0.00000000       0.14285714       0.42857143 </v>
   <v>       0.14285714       0.14285714       0.42857143 </v>
   <v>       0.28571429       0.14285714       0.42857143 </v>
   <v>       0.42857143       0.14285714       0.42857143 </v>
   <v>      -0.42857143       0.14285714       0.42857143 </v>
   <v>      -0.28571429       0.14285714       0.42857143 </v>
   <v>      -0.14285714       0.14285714       0.42857143 </v>
   <v>       0.00000000       0.28571429       0.42857143 </v>
   <v>       0.14285714       0.28571429       0.42857143 </v>
   <v>       0.28571429       0.28571429       0.42857143 </v>
   <v>       0.42857143       0.28571429       0.42857143 </v>
   <v>      -0.42857143       0.28571429       0.42857143 </v>
   <v>      -0.28571429       0.28571429       0.42857143 </v>
   <v>      -0.14285714       0.28571429       0.42857143 </v>
   <v>       0.00000000       0.42857143       0.42857143 </v>
   <v>       0.14285714       0.42857143       0.42857143 </v>
   <v>       0.28571429       0.42857143       0.42857143 </v>
   <v>       0.42857143       0.42857143       0.42857143 </v>
   <v>      -0.42857143       0.42857143       0.42857143 </v>
   <v>      -0.28571429       0.42857143       0.42857143 </v>
   <v>      -0.14285714       0.42857143       0.42857143 </v>
   <v>       0.00000000      -0.42857143       0.42857143 </v>
   <v>       0.14285714      -0.42857143       0.42857143 </v>
   <v>       0.28571429      -0.42857143       0.42857143 </v>
   <v>       0.42857143      -0.42857143       0.42857143 </v>
   <v>      -0.42857143      -0.42857143       0.42857143 </v>
   <v>      -0.28571429      -0.42857143       0.42857143 </v>
   <v>      -0.14285714      -0.42857143       0.42857143 </v>
   <v>      -0.00000000      -0.28571429       0.42857143 </v>
   <v>       0.14285714      -0.28571429       0.42857143 </v>
   <v>       0.28571429      -0.28571429       0.42857143 </v>
   <v>       0.42857143      -0.28571429       0.42857143 </v>
   <v>      -0.42857143      -0.28571429       0.42857143 </v>
   <v>      -0.28571429      -0.28571429       0.42857143 </v>
   <v>      -0.14285714      -0.28571429       0.42857143 </v>
   <v>       0.00000000      -0.14285714       0.42857143 </v>
   <v>       0.14285714      -0.14285714       0.42857143 </v>
   <v>       0.28571429      -0.14285714       0.42857143 </v>
   <v>       0.42857143      -0.14285714       0.42857143 </v>
   <v>      -0.42857143      -0.14285714       0.42857143 </v>
   <v>      -0.28571429      -0.14285714       0.42857143 </v>
   <v>      -0.14285714      -0.14285714       0.42857143 </v>
  </varray>
  <varray name="weights" >
   <v>       0.00291545 </v>
   <v>       0.00583090 </v>
   <v>       0.00583090 </v>
   <v>       0.00583090 </v>
   <v>       0.00583090 </v>
   <v>       0.00583090 </v>
   <v>       0.00583090 </v>
   <v>       0.00583090 </v>
   <v>       0.00583090 </v>
   <v>       0.00583090 </v>
   <v>       0.00583090 </v>
   <v>       0.00583090 </v>
   <v>       0.00583090 </v>
   <v>       0.00583090 </v>
   <v>       0.00583090 </v>
   <v>       0.00583090 </v>
   <v>       0.00583090 </v>
   <v>       0.00583090 </v>
   <v>       0.00583090 </v>
   <v>       0.00583090 </v>
   <v>       0.00583090 </v>
   <v>       0.00583090 </v>
   <v>       0.00583090 </v>
   <v>       0.00583090 </v>
   <v>       0.00583090 </v>
   <v>       0.00583090 </v>
   <v>       0.00583090 </v>
   <v>       0.00583090 </v>
   <v>       0.00583090 </v>
   <v>       0.00583090 </v>
   <v>       0.00583090 </v>
   <v>       0.00583090 </v>
   <v>       0.00583090 </v>
   <v>       0.00583090 </v>
   <v>       0.00583090 </v>
   <v>       0.00583090 </v>
   <v>       0.00583090 </v>
   <v>       0.00583090 </v>
   <v>       0.00583090 </v>
   <v>       0.00583090 </v>
   <v>       0.00583090 </v>
   <v>       0.00583090 </v>
   <v>       0.00583090 </v>
   <v>       0.00583090 </v>
   <v>       0.00583090 </v>
   <v>       0.00583090 </v>
   <v>       0.00583090 </v>
   <v>       0.00583090 </v>
   <v>       0.00583090 </v>
   <v>       0.00583090 </v>
   <v>       0.00583090 </v>
   <v>       0.00583090 </v>
   <v>       0.00583090 </v>
   <v>       0.00583090 </v>
   <v>       0.00583090 </v>
   <v>       0.00583090 </v>
   <v>       0.00583090 </v>
   <v>       0.00583090 </v>
   <v>       0.00583090 </v>
   <v>       0.00583090 </v>
   <v>       0.00583090 </v>
   <v>       0.00583090 </v>
   <v>       0.00583090 </v>
   <v>       0.00583090 </v>
   <v>       0.00583090 </v>
   <v>       0.00583090 </v>
   <v>       0.00583090 </v>
   <v>       0.00583090 </v>
   <v>       0.00583090 </v>
   <v>       0.00583090 </v>
   <v>       0.00583090 </v>
   <v>       0.00583090 </v>
   <v>       0.00583090 </v>
   <v>       0.00583090 </v>
   <v>       0.00583090 </v>
   <v>       0.00583090 </v>
   <v>       0.00583090 </v>
   <v>       0.00583090 </v>
   <v>       0.00583090 </v>
   <v>       0.00583090 </v>
   <v>       0.00583090 </v>
   <v>       0.00583090 </v>
   <v>       0.00583090 </v>
   <v>       0.00583090 </v>
   <v>       0.00583090 </v>
   <v>       0.00583090 </v>
   <v>       0.00583090 </v>
   <v>       0.00583090 </v>
   <v>       0.00583090 </v>
   <v>       0.00583090 </v>
   <v>       0.00583090 </v>
   <v>       0.00583090 </v>
   <v>       0.00583090 </v>
   <v>       0.00583090 </v>
   <v>       0.00583090 </v>
   <v>       0.00583090 </v>
   <v>       0.00583090 </v>
   <v>       0.00583090 </v>
   <v>       0.00583090 </v>
   <v>       0.00583090 </v>
   <v>       0.00583090 </v>
   <v>       0.00583090 </v>
   <v>       0.00583090 </v>
   <v>       0.00583090 </v>
   <v>       0.00583090 </v>
   <v>       0.00583090 </v>
   <v>       0.00583090 </v>
   <v>       0.00583090 </v>
   <v>       0.00583090 </v>
   <v>       0.00583090 </v>
   <v>       0.00583090 </v>
   <v>       0.00583090 </v>
   <v>       0.00583090 </v>
   <v>       0.00583090 </v>
   <v>       0.00583090 </v>
   <v>       0.00583090 </v>
   <v>       0.00583090 </v>
   <v>       0.00583090 </v>
   <v>       0.00583090 </v>
   <v>       0.00583090 </v>
   <v>       0.00583090 </v>
   <v>       0.00583090 </v>
   <v>       0.00583090 </v>
   <v>       0.00583090 </v>
   <v>       0.00583090 </v>
   <v>       0.00583090 </v>
   <v>       0.00583090 </v>
   <v>       0.00583090 </v>
   <v>       0.00583090 </v>
   <v>       0.00583090 </v>
   <v>       0.00583090 </v>
   <v>       0.00583090 </v>
   <v>       0.00583090 </v>
   <v>       0.00583090 </v>
   <v>       0.00583090 </v>
   <v>       0.00583090 </v>
   <v>       0.00583090 </v>
   <v>       0.00583090 </v>
   <v>       0.00583090 </v>
   <v>       0.00583090 </v>
   <v>       0.00583090 </v>
   <v>       0.00583090 </v>
   <v>       0.00583090 </v>
   <v>       0.00583090 </v>
   <v>       0.00583090 </v>
   <v>       0.00583090 </v>
   <v>       0.00583090 </v>
   <v>       0.00583090 </v>
   <v>       0.00583090 </v>
   <v>       0.00583090 </v>
   <v>       0.00583090 </v>
   <v>       0.00583090 </v>
   <v>       0.00583090 </v>
   <v>       0.00583090 </v>
   <v>       0.00583090 </v>
   <v>       0.00583090 </v>
   <v>       0.00583090 </v>
   <v>       0.00583090 </v>
   <v>       0.00583090 </v>
   <v>       0.00583090 </v>
   <v>       0.00583090 </v>
   <v>       0.00583090 </v>
   <v>       0.00583090 </v>
   <v>       0.00583090 </v>
   <v>       0.00583090 </v>
   <v>       0.00583090 </v>
   <v>       0.00583090 </v>
   <v>       0.00583090 </v>
   <v>       0.00583090 </v>
   <v>       0.00583090 </v>
   <v>       0.00583090 </v>
   <v>       0.00583090 </v>
  </varray>
 </kpoints>
 <parameters>
  <separator name="general" >
   <i type="string" name="SYSTEM">Nb - Mo - Ta - Ti - V SQS</i>
   <i type="logical" name="LCOMPAT"> F  </i>
  </separator>
  <separator name="electronic" >
   <i type="string" name="PREC">normal</i>
   <i name="ENMAX">    600.00000000</i>
   <i name="ENAUG">    455.65900000</i>
   <i name="EDIFF">      0.00010000</i>
   <i type="int" name="IALGO">    38</i>
   <i type="int" name="IWAVPR">    11</i>
   <i type="int" name="NBANDS">   120</i>
   <i name="NELECT">    185.00000000</i>
   <i type="int" name="TURBO">     0</i>
   <i type="int" name="IRESTART">     0</i>
   <i type="int" name="NREBOOT">     0</i>
   <i type="int" name="NMIN">     0</i>
   <i name="EREF">      0.00000000</i>
   <separator name="electronic smearing" >
    <i type="int" name="ISMEAR">     1</i>
    <i name="SIGMA">      0.20000000</i>
    <i name="KSPACING">      0.50000000</i>
    <i type="logical" name="KGAMMA"> T  </i>
   </separator>
   <separator name="electronic projectors" >
    <i type="logical" name="LREAL"> T  </i>
    <v name="ROPT">     -0.00050000     -0.00050000     -0.00050000     -0.00050000     -0.00050000</v>
    <i type="int" name="LMAXPAW">  -100</i>
    <i type="int" name="LMAXMIX">     2</i>
    <i type="logical" name="NLSPLINE"> F  </i>
   </separator>
   <separator name="electronic startup" >
    <i type="int" name="ISTART">     0</i>
    <i type="int" name="ICHARG">     0</i>
    <i type="int" name="INIWAV">     1</i>
   </separator>
   <separator name="electronic spin" >
    <i type="int" name="ISPIN">     1</i>
    <i type="logical" name="LNONCOLLINEAR"> F  </i>
    <v name="MAGMOM">      1.00000000      1.00000000      1.00000000      1.00000000      1.00000000      1.00000000      1.00000000      1.00000000      1.00000000      1.00000000      1.00000000      1.00000000      1.00000000      1.00000000      1.00000000      1.00000000      1.00000000      1.00000000      1.00000000      1.00000000
      1.00000000      1.00000000      1.00000000      1.00000000      1.00000000      1.00000000      1.00000000      1.00000000      1.00000000</v>
    <i name="NUPDOWN">     -1.00000000</i>
    <i type="logical" name="LSORBIT"> F  </i>
    <v name="SAXIS">      0.00000000      0.00000000      1.00000000</v>
    <i type="logical" name="LSPIRAL"> F  </i>
    <v name="QSPIRAL">      0.00000000      0.00000000      0.00000000</v>
    <i type="logical" name="LZEROZ"> F  </i>
   </separator>
   <separator name="electronic exchange-correlation" >
    <i type="logical" name="LASPH"> F  </i>
    <i type="logical" name="LMETAGGA"> F  </i>
   </separator>
   <separator name="electronic convergence" >
    <i type="int" name="NELM">    60</i>
    <i type="int" name="NELMDL">    -5</i>
    <i type="int" name="NELMIN">     2</i>
    <i name="ENINI">    600.00000000</i>
    <separator name="electronic convergence detail" >
     <i type="logical" name="LDIAG"> T  </i>
     <i type="logical" name="LSUBROT"> F  </i>
     <i name="WEIMIN">      0.00100000</i>
     <i name="EBREAK">      0.00000021</i>
     <i name="DEPER">      0.30000000</i>
     <i type="int" name="NRMM">     4</i>
     <i name="TIME">      0.40000000</i>
    </separator>
   </separator>
   <separator name="electronic mixer" >
    <i name="AMIX">      0.40000000</i>
    <i name="BMIX">      1.00000000</i>
    <i name="AMIN">      0.10000000</i>
    <i name="AMIX_MAG">      1.60000000</i>
    <i name="BMIX_MAG">      1.00000000</i>
    <separator name="electronic mixer details" >
     <i type="int" name="IMIX">     4</i>
     <i type="logical" name="MIXFIRST"> F  </i>
     <i type="int" name="MAXMIX">   -45</i>
     <i name="WC">    100.00000000</i>
     <i type="int" name="INIMIX">     1</i>
     <i type="int" name="MIXPRE">     1</i>
     <i type="int" name="MREMOVE">     5</i>
    </separator>
   </separator>
   <separator name="electronic dipolcorrection" >
    <i type="logical" name="LDIPOL"> F  </i>
    <i type="logical" name="LMONO"> F  </i>
    <i type="int" name="IDIPOL">     0</i>
    <i name="EPSILON">      1.00000000</i>
    <v name="DIPOL">   -100.00000000   -100.00000000   -100.00000000</v>
    <i name="EFIELD">      0.00000000</i>
   </separator>
  </separator>
  <separator name="grids" >
   <i type="int" name="NGX">    36</i>
   <i type="int" name="NGY">    50</i>
   <i type="int" name="NGZ">    70</i>
   <i type="int" name="NGXF">    72</i>
   <i type="int" name="NGYF">   100</i>
   <i type="int" name="NGZF">   140</i>
   <i type="logical" name="ADDGRID"> F  </i>
  </separator>
  <separator name="ionic" >
   <i type="int" name="NSW">    50</i>
   <i type="int" name="IBRION">     2</i>
   <i type="int" name="MDALGO">     0</i>
   <i type="int" name="ISIF">     3</i>
   <i name="PSTRESS">      0.00000000</i>
   <i name="EDIFFG">      0.00100000</i>
   <i type="int" name="NFREE">     1</i>
   <i name="POTIM">      0.50000000</i>
   <i name="SMASS">     -3.00000000</i>
   <i name="SCALEE">      1.00000000</i>
  </separator>
  <separator name="ionic md" >
   <i name="TEBEG">      0.00010000</i>
   <i name="TEEND">      0.00010000</i>
   <i type="int" name="NBLOCK">     1</i>
   <i type="int" name="KBLOCK">    50</i>
   <i type="int" name="NPACO">   256</i>
   <i name="APACO">     16.00000000</i>
  </separator>
  <separator name="symmetry" >
   <i type="int" name="ISYM">     2</i>
   <i name="SYMPREC">      0.00001000</i>
  </separator>
  <separator name="dos" >
   <i type="int" name="LORBIT">     0</i>
   <v name="RWIGS">     -1.00000000     -1.00000000     -1.00000000     -1.00000000     -1.00000000</v>
   <i type="int" name="NEDOS">   301</i>
   <i name="EMIN">     10.00000000</i>
   <i name="EMAX">    -10.00000000</i>
   <i name="EFERMI">      0.00000000</i>
  </separator>
  <separator name="writing" >
   <i type="int" name="NWRITE">     2</i>
   <i type="logical" name="LWAVE"> T  </i>
   <i type="logical" name="LDOWNSAMPLE"> F  </i>
   <i type="logical" name="LCHARG"> T  </i>
   <i type="logical" name="LPARD"> F  </i>
   <i type="logical" name="LVTOT"> F  </i>
   <i type="logical" name="LVHAR"> F  </i>
   <i type="logical" name="LELF"> F  </i>
   <i type="logical" name="LOPTICS"> F  </i>
   <v name="STM">      0.00000000      0.00000000      0.00000000      0.00000000      0.00000000      0.00000000      0.00000000</v>
  </separator>
  <separator name="performance" >
   <i type="int" name="NPAR">    12</i>
   <i type="int" name="NSIM">     4</i>
   <i type="int" name="NBLK">    -1</i>
   <i type="logical" name="LPLANE"> T  </i>
   <i type="logical" name="LSCALAPACK"> T  </i>
   <i type="logical" name="LSCAAWARE"> F  </i>
   <i type="logical" name="LSCALU"> F  </i>
   <i type="logical" name="LASYNC"> F  </i>
   <i type="logical" name="LORBITALREAL"> F  </i>
  </separator>
  <separator name="miscellaneous" >
   <i type="int" name="IDIOT">     3</i>
   <i type="int" name="ISPECIAL">     0</i>
   <i type="logical" name="LMUSIC"> F  </i>
   <v name="POMASS">     92.91000000     95.94000000    180.94800000     47.88000000     50.94100000</v>
   <v name="DARWINR">      0.00000000      0.00000000      0.00000000      0.00000000      0.00000000</v>
   <v name="DARWINV">      1.00000000      1.00000000      1.00000000      1.00000000      1.00000000</v>
   <i type="logical" name="LCORR"> T  </i>
  </separator>
  <i type="logical" name="GGA_COMPAT"> T  </i>
  <i type="logical" name="LBERRY"> F  </i>
  <i type="int" name="ICORELEVEL">     0</i>
  <i type="logical" name="LDAU"> F  </i>
  <i type="int" name="I_CONSTRAINED_M">     0</i>
  <separator name="electronic exchange-correlation" >
   <i type="string" name="GGA">PS</i>
   <i type="int" name="VOSKOWN">     0</i>
   <i type="logical" name="LHFCALC"> F  </i>
   <i type="string" name="PRECFOCK"></i>
   <i type="logical" name="LSYMGRAD"> F  </i>
   <i type="logical" name="LHFONE"> F  </i>
   <i type="logical" name="LRHFCALC"> F  </i>
   <i type="logical" name="LTHOMAS"> F  </i>
   <i type="logical" name="LMODELHF"> F  </i>
   <i name="ENCUT4O">     -1.00000000</i>
   <i type="int" name="EXXOEP">     0</i>
   <i type="int" name="FOURORBIT">     0</i>
   <i name="AEXX">      0.00000000</i>
   <i name="HFALPHA">      0.00000000</i>
   <i name="MCALPHA">      0.00000000</i>
   <i name="ALDAX">      1.00000000</i>
   <i name="AGGAX">      1.00000000</i>
   <i name="ALDAC">      1.00000000</i>
   <i name="AGGAC">      1.00000000</i>
   <i type="int" name="NKREDX">     1</i>
   <i type="int" name="NKREDY">     1</i>
   <i type="int" name="NKREDZ">     1</i>
   <i type="logical" name="SHIFTRED"> F  </i>
   <i type="logical" name="ODDONLY"> F  </i>
   <i type="logical" name="EVENONLY"> F  </i>
   <i type="int" name="LMAXFOCK">     0</i>
   <i type="int" name="NMAXFOCKAE">     0</i>
   <i type="logical" name="LFOCKAEDFT"> F  </i>
   <i name="HFSCREEN">      0.00000000</i>
   <i name="HFSCREENC">      0.00000000</i>
   <i type="int" name="NBANDSGWLOW">     0</i>
  </separator>
  <separator name="vdW DFT" >
   <i type="logical" name="LUSE_VDW"> F  </i>
   <i name="Zab_VDW">     -0.84910000</i>
   <i name="PARAM1">      0.12340000</i>
   <i name="PARAM2">      1.00000000</i>
   <i name="PARAM3">      0.00000000</i>
  </separator>
  <separator name="model GW" >
   <i type="int" name="MODEL_GW">     0</i>
   <i name="MODEL_EPS0">      9.79277462</i>
   <i name="MODEL_ALPHA">      1.00000000</i>
  </separator>
  <separator name="linear response parameters" >
   <i type="logical" name="LEPSILON"> F  </i>
   <i type="logical" name="LRPA"> F  </i>
   <i type="logical" name="LNABLA"> F  </i>
   <i type="logical" name="LVEL"> F  </i>
   <i type="int" name="KINTER">     0</i>
   <i name="CSHIFT">      0.10000000</i>
   <i name="OMEGAMAX">     -1.00000000</i>
   <i name="DEG_THRESHOLD">      0.00200000</i>
   <i name="RTIME">     -0.10000000</i>
   <i name="WPLASMAI">      0.00000000</i>
   <v name="DFIELD">      0.00000000      0.00000000      0.00000000</v>
   <v name="WPLASMA">      0.00000000      0.00000000      0.00000000      0.00000000      0.00000000      0.00000000      0.00000000      0.00000000      0.00000000</v>
  </separator>
  <separator name="orbital magnetization" >
   <i type="logical" name="NUCIND"> F  </i>
   <v name="MAGPOS">      0.00000000      0.00000000      0.00000000</v>
   <i type="logical" name="LNICSALL"> T  </i>
   <i type="logical" name="ORBITALMAG"> F  </i>
   <i type="logical" name="LMAGBLOCH"> F  </i>
   <i type="logical" name="LCHIMAG"> F  </i>
   <i type="logical" name="LGAUGE"> T  </i>
   <i type="int" name="MAGATOM">     0</i>
   <v name="MAGDIPOL">      0.00000000      0.00000000      0.00000000</v>
   <v name="AVECCONST">      0.00000000      0.00000000      0.00000000</v>
  </separator>
  <separator name="response functions" >
   <i type="logical" name="LADDER"> F  </i>
   <i type="logical" name="LRPAFORCE"> F  </i>
   <i type="logical" name="LFXC"> F  </i>
   <i type="logical" name="LHARTREE"> T  </i>
   <i type="int" name="IBSE">     0</i>
   <v type="int" name="KPOINT">    -1     0     0     0</v>
   <i type="logical" name="LTCTE"> F  </i>
   <i type="logical" name="LTETE"> F  </i>
   <i type="logical" name="LTRIPLET"> F  </i>
   <i type="logical" name="LFXCEPS"> F  </i>
   <i type="logical" name="LFXHEG"> F  </i>
   <i type="int" name="NATURALO">     2</i>
   <i type="logical" name="L2ORDER"> F  </i>
   <i type="logical" name="LMP2LT"> F  </i>
   <i type="logical" name="LUSEW"> F  </i>
   <i name="ENCUTGW">     -2.00000000</i>
   <i name="ENCUTGWSOFT">     -2.00000000</i>
   <i name="ENCUTLF">     -1.00000000</i>
   <i type="int" name="LMAXMP2">    -1</i>
   <i name="SCISSOR">      0.00000000</i>
   <i type="int" name="NOMEGA">     0</i>
   <i type="int" name="NOMEGAR">     0</i>
   <i type="int" name="NBANDSGW">    -1</i>
   <i type="int" name="NBANDSO">    -1</i>
   <i type="int" name="NBANDSV">    -1</i>
   <i type="int" name="NELM">     1</i>
   <i type="int" name="NELMHF">     1</i>
   <i type="int" name="DIM">     3</i>
   <i type="int" name="ANTIRES">     0</i>
   <i name="OMEGAMAX">    -30.00000000</i>
   <i name="OMEGAMIN">    -30.00000000</i>
   <i name="OMEGATL">   -200.00000000</i>
   <i type="int" name="OMEGAGRID">   140</i>
   <i name="CSHIFT">     -0.10000000</i>
   <i type="logical" name="SELFENERGY"> F  </i>
   <i type="logical" name="LSPECTRAL"> F  </i>
   <i type="logical" name="LSPECTRALGW"> F  </i>
   <i type="logical" name="LSINGLES"> F  </i>
   <i type="logical" name="LFERMIGW"> F  </i>
   <i type="logical" name="ODDONLYGW"> F  </i>
   <i type="logical" name="EVENONLYGW"> F  </i>
   <i type="int" name="NKREDLFX">     1</i>
   <i type="int" name="NKREDLFY">     1</i>
   <i type="int" name="NKREDLFZ">     1</i>
   <i type="int" name="MAXMEM">  2800</i>
   <i type="int" name="TELESCOPE">     0</i>
   <i type="int" name="TAUPAR">     1</i>
   <i type="int" name="OMEGAPAR">    -1</i>
   <i name="LAMBDA">      1.00000000</i>
  </separator>
  <separator name="External order field" >
   <i name="OFIELD_KAPPA">      0.00000000</i>
   <v name="OFIELD_K">      0.00000000      0.00000000      0.00000000</v>
   <i name="OFIELD_Q6_NEAR">      0.00000000</i>
   <i name="OFIELD_Q6_FAR">      0.00000000</i>
   <i name="OFIELD_A">      0.00000000</i>
  </separator>
  <separator name="solvation model" >
   <i type="logical" name="LSOL"> F  </i>
  </separator>
 </parameters>
 <atominfo>
  <atoms>      29 </atoms>
  <types>       5 </types>
  <array name="atoms" >
   <dimension dim="1">ion</dimension>
   <field type="string">element</field>
   <field type="int">atomtype</field>
   <set>
    <rc><c>Nb</c><c>   1</c></rc>
    <rc><c>Nb</c><c>   1</c></rc>
    <rc><c>Nb</c><c>   1</c></rc>
    <rc><c>Nb</c><c>   1</c></rc>
    <rc><c>Nb</c><c>   1</c></rc>
    <rc><c>Mo</c><c>   2</c></rc>
    <rc><c>Mo</c><c>   2</c></rc>
    <rc><c>Mo</c><c>   2</c></rc>
    <rc><c>Mo</c><c>   2</c></rc>
    <rc><c>Mo</c><c>   2</c></rc>
    <rc><c>Mo</c><c>   2</c></rc>
    <rc><c>Ta</c><c>   3</c></rc>
    <rc><c>Ta</c><c>   3</c></rc>
    <rc><c>Ta</c><c>   3</c></rc>
    <rc><c>Ta</c><c>   3</c></rc>
    <rc><c>Ta</c><c>   3</c></rc>
    <rc><c>Ta</c><c>   3</c></rc>
    <rc><c>Ti</c><c>   4</c></rc>
    <rc><c>Ti</c><c>   4</c></rc>
    <rc><c>Ti</c><c>   4</c></rc>
    <rc><c>Ti</c><c>   4</c></rc>
    <rc><c>Ti</c><c>   4</c></rc>
    <rc><c>Ti</c><c>   4</c></rc>
    <rc><c>V </c><c>   5</c></rc>
    <rc><c>V </c><c>   5</c></rc>
    <rc><c>V </c><c>   5</c></rc>
    <rc><c>V </c><c>   5</c></rc>
    <rc><c>V </c><c>   5</c></rc>
    <rc><c>V </c><c>   5</c></rc>
   </set>
  </array>
  <array name="atomtypes" >
   <dimension dim="1">type</dimension>
   <field type="int">atomspertype</field>
   <field type="string">element</field>
   <field>mass</field>
   <field>valence</field>
   <field type="string">pseudopotential</field>
   <set>
    <rc><c>   5</c><c>Nb</c><c>     92.91000000</c><c>     13.00000000</c><c>  PAW_PBE Nb_sv 25May2007               </c></rc>
    <rc><c>   6</c><c>Mo</c><c>     95.94000000</c><c>      6.00000000</c><c>  PAW_PBE Mo 08Apr2002                  </c></rc>
    <rc><c>   6</c><c>Ta</c><c>    180.94800000</c><c>      5.00000000</c><c>  PAW_PBE Ta 17Jan2003                  </c></rc>
    <rc><c>   6</c><c>Ti</c><c>     47.88000000</c><c>      4.00000000</c><c>  PAW_PBE Ti 08Apr2002                  </c></rc>
    <rc><c>   6</c><c>V </c><c>     50.94100000</c><c>      5.00000000</c><c>  PAW_PBE V 08Apr2002                   </c></rc>
   </set>
  </array>
 </atominfo>
 <structure name="initialpos" >
  <crystal>
   <varray name="basis" >
    <v>      -3.16000000      -3.16000000      -3.16000000 </v>
    <v>       1.58000000       1.58000000      -7.90000000 </v>
    <v>       7.90000000      -7.90000000      -1.58000000 </v>
   </varray>
   <i name="volume">    473.31744000 </i>
   <varray name="rec_basis" >
    <v>      -0.13713080      -0.12658228      -0.05274262 </v>
    <v>       0.04219409       0.06329114      -0.10548523 </v>
    <v>       0.06329114      -0.06329114       0.00000000 </v>
   </varray>
  </crystal>
  <varray name="positions" >
   <v>       0.96666667       0.93333333       0.40000000 </v>
   <v>       0.63333333       0.26666667       0.40000000 </v>
   <v>       0.50000000       0.00000000       0.00000000 </v>
   <v>       0.10000000       0.20000000       0.80000000 </v>
   <v>       0.03333333       0.06666667       0.60000000 </v>
   <v>       0.90000000       0.80000000       0.20000000 </v>
   <v>       0.80000000       0.60000000       0.40000000 </v>
   <v>       0.73333333       0.46666667       0.20000000 </v>
   <v>       0.66666667       0.33333333       0.00000000 </v>
   <v>       0.36666667       0.73333333       0.60000000 </v>
   <v>       0.13333333       0.26666667       0.40000000 </v>
   <v>       0.83333333       0.66666667       0.00000000 </v>
   <v>       0.93333333       0.86666667       0.80000000 </v>
   <v>       0.56666667       0.13333333       0.20000000 </v>
   <v>       0.40000000       0.80000000       0.20000000 </v>
   <v>       0.43333333       0.86666667       0.80000000 </v>
   <v>       0.30000000       0.60000000       0.40000000 </v>
   <v>       0.86666667       0.73333333       0.60000000 </v>
   <v>       0.46666667       0.93333333       0.40000000 </v>
   <v>       0.16666667       0.33333333       0.00000000 </v>
   <v>       0.26666667       0.53333333       0.80000000 </v>
   <v>       0.20000000       0.40000000       0.60000000 </v>
   <v>       0.06666667       0.13333333       0.20000000 </v>
   <v>       0.76666667       0.53333333       0.80000000 </v>
   <v>       0.70000000       0.40000000       0.60000000 </v>
   <v>       0.60000000       0.20000000       0.80000000 </v>
   <v>       0.53333333       0.06666667       0.60000000 </v>
   <v>       0.33333333       0.66666667       0.00000000 </v>
   <v>       0.23333333       0.46666667       0.20000000 </v>
  </varray>
 </structure>
 <calculation>
  <scstep>
   <time name="dav">   43.35   43.40</time>
   <time name="total">   43.49   43.55</time>
   <energy>
    <i name="alphaZ">   1104.47950323 </i>
    <i name="ewald"> -10227.35964699 </i>
    <i name="hartreedc">    -86.35681497 </i>
    <i name="XCdc">  -1021.22290258 </i>
    <i name="pawpsdc"> 486177.15292204 </i>
    <i name="pawaedc">-484866.01236631 </i>
    <i name="eentropy">     -0.00218008 </i>
    <i name="bandstr">  -6764.76302817 </i>
    <i name="atom">  11451.57642151 </i>
    <i name="e_fr_energy">  -4232.50809233 </i>
    <i name="e_wo_entrp">  -4232.50591225 </i>
    <i name="e_0_energy">  -4232.50736563 </i>
   </energy>
  </scstep>
  <scstep>
   <time name="dav">   48.91   48.97</time>
   <time name="total">   48.91   48.98</time>
   <energy>
    <i name="e_fr_energy">  -9612.90538241 </i>
    <i name="e_wo_entrp">  -9612.90450079 </i>
    <i name="e_0_energy">  -9612.90508854 </i>
   </energy>
  </scstep>
  <scstep>
   <time name="dav">   58.04   58.11</time>
   <time name="total">   58.04   58.12</time>
   <energy>
    <i name="e_fr_energy"> -10715.37186499 </i>
    <i name="e_wo_entrp"> -10715.36978395 </i>
    <i name="e_0_energy"> -10715.37117131 </i>
   </energy>
  </scstep>
  <scstep>
   <time name="dav">   56.98   57.05</time>
   <time name="total">   56.99   57.06</time>
   <energy>
    <i name="e_fr_energy"> -11109.89345108 </i>
    <i name="e_wo_entrp"> -11109.89260283 </i>
    <i name="e_0_energy"> -11109.89316833 </i>
   </energy>
  </scstep>
  <scstep>
   <time name="dav">   57.28   57.36</time>
   <time name="total">   57.93   58.01</time>
   <energy>
    <i name="e_fr_energy"> -11315.87889643 </i>
    <i name="e_wo_entrp"> -11315.88293790 </i>
    <i name="e_0_energy"> -11315.88024359 </i>
   </energy>
  </scstep>
  <scstep>
   <time name="dav">   50.20   50.26</time>
   <time name="total">   50.88   50.94</time>
   <energy>
    <i name="e_fr_energy">  -1133.77737925 </i>
    <i name="e_wo_entrp">  -1133.77526903 </i>
    <i name="e_0_energy">  -1133.77667585 </i>
   </energy>
  </scstep>
  <scstep>
   <time name="dav">   50.63   50.70</time>
   <time name="total">   51.36   51.44</time>
   <energy>
    <i name="e_fr_energy">   -813.83642364 </i>
    <i name="e_wo_entrp">   -813.83750384 </i>
    <i name="e_0_energy">   -813.83678371 </i>
   </energy>
  </scstep>
  <scstep>
   <time name="dav">   51.89   51.95</time>
   <time name="total">   52.57   52.64</time>
   <energy>
    <i name="e_fr_energy">   -644.75773341 </i>
    <i name="e_wo_entrp">   -644.75588585 </i>
    <i name="e_0_energy">   -644.75711756 </i>
   </energy>
  </scstep>
  <scstep>
   <time name="dav">   50.83   50.90</time>
   <time name="total">   51.51   51.59</time>
   <energy>
    <i name="e_fr_energy">   -551.00820242 </i>
    <i name="e_wo_entrp">   -551.00940777 </i>
    <i name="e_0_energy">   -551.00860420 </i>
   </energy>
  </scstep>
  <scstep>
   <time name="dav">   53.40   53.47</time>
   <time name="total">   54.09   54.16</time>
   <energy>
    <i name="e_fr_energy">   -532.90272295 </i>
    <i name="e_wo_entrp">   -532.89874524 </i>
    <i name="e_0_energy">   -532.90139704 </i>
   </energy>
  </scstep>
  <scstep>
   <time name="dav">   51.44   51.51</time>
   <time name="total">   52.12   52.20</time>
   <energy>
    <i name="e_fr_energy">   -494.40244986 </i>
    <i name="e_wo_entrp">   -494.38676289 </i>
    <i name="e_0_energy">   -494.39722087 </i>
   </energy>
  </scstep>
  <scstep>
   <time name="dav">   46.15   46.21</time>
   <time name="total">   46.84   46.90</time>
   <energy>
    <i name="e_fr_energy">   -582.68831324 </i>
    <i name="e_wo_entrp">   -582.68464390 </i>
    <i name="e_0_energy">   -582.68709013 </i>
   </energy>
  </scstep>
  <scstep>
   <time name="dav">   46.76   46.82</time>
   <time name="total">   47.43   47.50</time>
   <energy>
    <i name="e_fr_energy">   -568.88824568 </i>
    <i name="e_wo_entrp">   -568.88357429 </i>
    <i name="e_0_energy">   -568.88668855 </i>
   </energy>
  </scstep>
  <scstep>
   <time name="dav">   52.47   52.54</time>
   <time name="total">   53.14   53.22</time>
   <energy>
    <i name="e_fr_energy">   -552.61609071 </i>
    <i name="e_wo_entrp">   -552.62248792 </i>
    <i name="e_0_energy">   -552.61822311 </i>
   </energy>
  </scstep>
  <scstep>
   <time name="dav">   55.62   55.68</time>
   <time name="total">   56.29   56.37</time>
   <energy>
    <i name="e_fr_energy">   -433.43186296 </i>
    <i name="e_wo_entrp">   -433.43368512 </i>
    <i name="e_0_energy">   -433.43247035 </i>
   </energy>
  </scstep>
  <scstep>
   <time name="dav">   51.58   51.63</time>
   <time name="total">   52.26   52.31</time>
   <energy>
    <i name="e_fr_energy">   -377.86258139 </i>
    <i name="e_wo_entrp">   -377.85815311 </i>
    <i name="e_0_energy">   -377.86110530 </i>
   </energy>
  </scstep>
  <scstep>
   <time name="dav">   52.34   52.40</time>
   <time name="total">   53.01   53.08</time>
   <energy>
    <i name="e_fr_energy">   -340.26611572 </i>
    <i name="e_wo_entrp">   -340.25475110 </i>
    <i name="e_0_energy">   -340.26232751 </i>
   </energy>
  </scstep>
  <scstep>
   <time name="dav">   55.19   55.25</time>
   <time name="total">   55.87   55.93</time>
   <energy>
    <i name="e_fr_energy">   -349.54995121 </i>
    <i name="e_wo_entrp">   -349.55869110 </i>
    <i name="e_0_energy">   -349.55286451 </i>
   </energy>
  </scstep>
  <scstep>
   <time name="dav">   50.96   51.02</time>
   <time name="total">   51.63   51.70</time>
   <energy>
    <i name="e_fr_energy">   -322.69753780 </i>
    <i name="e_wo_entrp">   -322.69037400 </i>
    <i name="e_0_energy">   -322.69514986 </i>
   </energy>
  </scstep>
  <scstep>
   <time name="dav">   51.10   51.16</time>
   <time name="total">   51.78   51.85</time>
   <energy>
    <i name="e_fr_energy">   -326.90140774 </i>
    <i name="e_wo_entrp">   -326.90852864 </i>
    <i name="e_0_energy">   -326.90378138 </i>
   </energy>
  </scstep>
  <scstep>
   <time name="dav">   50.92   50.99</time>
   <time name="total">   51.60   51.67</time>
   <energy>
    <i name="e_fr_energy">   -312.19424694 </i>
    <i name="e_wo_entrp">   -312.17265458 </i>
    <i name="e_0_energy">   -312.18704949 </i>
   </energy>
  </scstep>
  <scstep>
   <time name="dav">   50.02   50.08</time>
   <time name="total">   50.69   50.75</time>
   <energy>
    <i name="e_fr_energy">   -309.44634678 </i>
    <i name="e_wo_entrp">   -309.43207345 </i>
    <i name="e_0_energy">   -309.44158900 </i>
   </energy>
  </scstep>
  <scstep>
   <time name="dav">   54.02   54.10</time>
   <time name="total">   54.69   54.78</time>
   <energy>
    <i name="e_fr_energy">   -307.88790602 </i>
    <i name="e_wo_entrp">   -307.86680683 </i>
    <i name="e_0_energy">   -307.88087296 </i>
   </energy>
  </scstep>
  <scstep>
   <time name="dav">   51.81   51.87</time>
   <time name="total">   52.48   52.55</time>
   <energy>
    <i name="e_fr_energy">   -308.44600367 </i>
    <i name="e_wo_entrp">   -308.43077848 </i>
    <i name="e_0_energy">   -308.44092861 </i>
   </energy>
  </scstep>
  <scstep>
   <time name="dav">   52.31   52.37</time>
   <time name="total">   52.98   53.05</time>
   <energy>
    <i name="e_fr_energy">   -306.74790531 </i>
    <i name="e_wo_entrp">   -306.73010098 </i>
    <i name="e_0_energy">   -306.74197053 </i>
   </energy>
  </scstep>
  <scstep>
   <time name="dav">   52.52   52.80</time>
   <time name="total">   53.20   53.48</time>
   <energy>
    <i name="e_fr_energy">   -305.85733650 </i>
    <i name="e_wo_entrp">   -305.83960342 </i>
    <i name="e_0_energy">   -305.85142547 </i>
   </energy>
  </scstep>
  <scstep>
   <time name="dav">   52.30   52.36</time>
   <time name="total">   52.95   53.03</time>
   <energy>
    <i name="e_fr_energy">   -306.21137448 </i>
    <i name="e_wo_entrp">   -306.19677298 </i>
    <i name="e_0_energy">   -306.20650731 </i>
   </energy>
  </scstep>
  <scstep>
   <time name="dav">   53.85   53.91</time>
   <time name="total">   54.53   54.60</time>
   <energy>
    <i name="e_fr_energy">   -305.43775420 </i>
    <i name="e_wo_entrp">   -305.41992726 </i>
    <i name="e_0_energy">   -305.43181189 </i>
   </energy>
  </scstep>
  <scstep>
   <time name="dav">   52.12   52.18</time>
   <time name="total">   52.79   52.85</time>
   <energy>
    <i name="e_fr_energy">   -305.11439259 </i>
    <i name="e_wo_entrp">   -305.09565326 </i>
    <i name="e_0_energy">   -305.10814614 </i>
   </energy>
  </scstep>
  <scstep>
   <time name="dav">   51.71   51.77</time>
   <time name="total">   52.38   52.45</time>
   <energy>
    <i name="e_fr_energy">   -304.86075838 </i>
    <i name="e_wo_entrp">   -304.84160996 </i>
    <i name="e_0_energy">   -304.85437557 </i>
   </energy>
  </scstep>
  <scstep>
   <time name="dav">   50.13   50.18</time>
   <time name="total">   50.80   50.86</time>
   <energy>
    <i name="e_fr_energy">   -304.81765871 </i>
    <i name="e_wo_entrp">   -304.79658308 </i>
    <i name="e_0_energy">   -304.81063350 </i>
   </energy>
  </scstep>
  <scstep>
   <time name="dav">   48.98   49.03</time>
   <time name="total">   49.65   49.70</time>
   <energy>
    <i name="e_fr_energy">   -304.80150760 </i>
    <i name="e_wo_entrp">   -304.78195991 </i>
    <i name="e_0_energy">   -304.79499170 </i>
   </energy>
  </scstep>
  <scstep>
   <time name="dav">   53.07   53.13</time>
   <time name="total">   53.72   53.80</time>
   <energy>
    <i name="e_fr_energy">   -304.80401137 </i>
    <i name="e_wo_entrp">   -304.78457297 </i>
    <i name="e_0_energy">   -304.79753190 </i>
   </energy>
  </scstep>
  <scstep>
   <time name="dav">   47.39   47.45</time>
   <time name="total">   48.07   48.13</time>
   <energy>
    <i name="e_fr_energy">   -304.77935546 </i>
    <i name="e_wo_entrp">   -304.76084560 </i>
    <i name="e_0_energy">   -304.77318551 </i>
   </energy>
  </scstep>
  <scstep>
   <time name="dav">   48.85   48.91</time>
   <time name="total">   49.52   49.60</time>
   <energy>
    <i name="e_fr_energy">   -304.75457892 </i>
    <i name="e_wo_entrp">   -304.73617615 </i>
    <i name="e_0_energy">   -304.74844467 </i>
   </energy>
  </scstep>
  <scstep>
   <time name="dav">   48.63   48.70</time>
   <time name="total">   49.33   49.40</time>
   <energy>
    <i name="e_fr_energy">   -304.74389627 </i>
    <i name="e_wo_entrp">   -304.72568237 </i>
    <i name="e_0_energy">   -304.73782497 </i>
   </energy>
  </scstep>
  <scstep>
   <time name="dav">   46.79   46.84</time>
   <time name="total">   47.47   47.54</time>
   <energy>
    <i name="e_fr_energy">   -304.74234709 </i>
    <i name="e_wo_entrp">   -304.72402173 </i>
    <i name="e_0_energy">   -304.73623864 </i>
   </energy>
  </scstep>
  <scstep>
   <time name="dav">   46.75   46.80</time>
   <time name="total">   47.43   47.48</time>
   <energy>
    <i name="e_fr_energy">   -304.73619451 </i>
    <i name="e_wo_entrp">   -304.71802254 </i>
    <i name="e_0_energy">   -304.73013719 </i>
   </energy>
  </scstep>
  <scstep>
   <time name="dav">   48.10   48.16</time>
   <time name="total">   48.75   48.84</time>
   <energy>
    <i name="e_fr_energy">   -304.73299224 </i>
    <i name="e_wo_entrp">   -304.71462977 </i>
    <i name="e_0_energy">   -304.72687142 </i>
   </energy>
  </scstep>
  <scstep>
   <time name="dav">   45.71   45.77</time>
   <time name="total">   46.39   46.45</time>
   <energy>
    <i name="e_fr_energy">   -304.72658155 </i>
    <i name="e_wo_entrp">   -304.70871865 </i>
    <i name="e_0_energy">   -304.72062725 </i>
   </energy>
  </scstep>
  <scstep>
   <time name="dav">   47.86   47.91</time>
   <time name="total">   48.53   48.59</time>
   <energy>
    <i name="e_fr_energy">   -304.72612381 </i>
    <i name="e_wo_entrp">   -304.70825156 </i>
    <i name="e_0_energy">   -304.72016639 </i>
   </energy>
  </scstep>
  <scstep>
   <time name="dav">   43.38   43.43</time>
   <time name="total">   44.06   44.11</time>
   <energy>
    <i name="e_fr_energy">   -304.72555550 </i>
    <i name="e_wo_entrp">   -304.70758157 </i>
    <i name="e_0_energy">   -304.71956419 </i>
   </energy>
  </scstep>
  <scstep>
   <time name="dav">   33.91   33.95</time>
   <time name="total">   34.58   34.62</time>
   <energy>
    <i name="e_fr_energy">   -304.72512410 </i>
    <i name="e_wo_entrp">   -304.70719547 </i>
    <i name="e_0_energy">   -304.71914789 </i>
   </energy>
  </scstep>
  <scstep>
   <time name="dav">   43.36   43.41</time>
   <time name="total">   44.03   44.08</time>
   <energy>
    <i name="e_fr_energy">   -304.72475746 </i>
    <i name="e_wo_entrp">   -304.70669850 </i>
    <i name="e_0_energy">   -304.71873781 </i>
   </energy>
  </scstep>
  <scstep>
   <time name="dav">   26.01   26.03</time>
   <time name="total">   26.08   26.12</time>
   <energy>
    <i name="alphaZ">   1104.47950323 </i>
    <i name="ewald"> -10227.35964699 </i>
    <i name="hartreedc">  -2599.65771646 </i>
    <i name="XCdc">   -945.74865734 </i>
    <i name="pawpsdc">  17388.48953766 </i>
    <i name="pawaedc"> -15902.01230956 </i>
    <i name="eentropy">     -0.01805621 </i>
    <i name="bandstr">   -574.47373946 </i>
    <i name="atom">  11451.57642151 </i>
    <i name="e_fr_energy">   -304.72466362 </i>
    <i name="e_wo_entrp">   -304.70660741 </i>
    <i name="e_0_energy">   -304.71864488 </i>
   </energy>
  </scstep>
  <structure>
   <crystal>
    <varray name="basis" >
     <v>      -3.16000000      -3.16000000      -3.16000000 </v>
     <v>       1.58000000       1.58000000      -7.90000000 </v>
     <v>       7.90000000      -7.90000000      -1.58000000 </v>
    </varray>
    <i name="volume">    473.31744000 </i>
    <varray name="rec_basis" >
     <v>      -0.13713080      -0.12658228      -0.05274262 </v>
     <v>       0.04219409       0.06329114      -0.10548523 </v>
     <v>       0.06329114      -0.06329114       0.00000000 </v>
    </varray>
   </crystal>
   <varray name="positions" >
    <v>       0.96666667       0.93333333       0.40000000 </v>
    <v>       0.63333333       0.26666667       0.40000000 </v>
    <v>       0.50000000       0.00000000       0.00000000 </v>
    <v>       0.10000000       0.20000000       0.80000000 </v>
    <v>       0.03333333       0.06666667       0.60000000 </v>
    <v>       0.90000000       0.80000000       0.20000000 </v>
    <v>       0.80000000       0.60000000       0.40000000 </v>
    <v>       0.73333333       0.46666667       0.20000000 </v>
    <v>       0.66666667       0.33333333       0.00000000 </v>
    <v>       0.36666667       0.73333333       0.60000000 </v>
    <v>       0.13333333       0.26666667       0.40000000 </v>
    <v>       0.83333333       0.66666667       0.00000000 </v>
    <v>       0.93333333       0.86666667       0.80000000 </v>
    <v>       0.56666667       0.13333333       0.20000000 </v>
    <v>       0.40000000       0.80000000       0.20000000 </v>
    <v>       0.43333333       0.86666667       0.80000000 </v>
    <v>       0.30000000       0.60000000       0.40000000 </v>
    <v>       0.86666667       0.73333333       0.60000000 </v>
    <v>       0.46666667       0.93333333       0.40000000 </v>
    <v>       0.16666667       0.33333333       0.00000000 </v>
    <v>       0.26666667       0.53333333       0.80000000 </v>
    <v>       0.20000000       0.40000000       0.60000000 </v>
    <v>       0.06666667       0.13333333       0.20000000 </v>
    <v>       0.76666667       0.53333333       0.80000000 </v>
    <v>       0.70000000       0.40000000       0.60000000 </v>
    <v>       0.60000000       0.20000000       0.80000000 </v>
    <v>       0.53333333       0.06666667       0.60000000 </v>
    <v>       0.33333333       0.66666667       0.00000000 </v>
    <v>       0.23333333       0.46666667       0.20000000 </v>
   </varray>
  </structure>
  <varray name="forces" >
   <v>      -0.03920572       0.58721688       0.24947615 </v>
   <v>       0.20478785      -0.21342948       0.08806002 </v>
   <v>      -0.34978180       0.28833555      -0.42423724 </v>
   <v>       0.62250736      -0.00661116      -0.03794428 </v>
   <v>      -0.09915587       0.20301423      -0.34981734 </v>
   <v>      -0.16805786      -0.26564072       0.08265760 </v>
   <v>      -0.49202549      -0.33577294       0.57754159 </v>
   <v>      -0.29639552       0.38563617       0.05681463 </v>
   <v>      -0.02038101       0.55233587      -0.16823334 </v>
   <v>       0.01588870      -0.43250131       0.30953531 </v>
   <v>       0.16869803       0.20541063      -0.52706365 </v>
   <v>       0.23118446      -0.47185786       0.51442713 </v>
   <v>       0.89350806      -0.11017928      -0.52699973 </v>
   <v>      -0.26496098       0.60169733      -0.01947892 </v>
   <v>      -0.73704783      -0.22425916       0.83595771 </v>
   <v>      -1.08911042      -0.25317654       0.53526748 </v>
   <v>       0.30822370      -0.17391658      -0.19616834 </v>
   <v>      -0.05018414       0.22236559       0.56625283 </v>
   <v>       0.46857163      -0.44354653       0.08656658 </v>
   <v>      -0.04520536      -0.19910234      -0.87825883 </v>
   <v>      -0.30681876      -0.09373789      -0.21518587 </v>
   <v>      -0.30930289       0.07541827       0.42974954 </v>
   <v>       0.22498397       0.20570562      -0.51111718 </v>
   <v>       0.06369386      -0.31814845       0.52227510 </v>
   <v>       0.52221047       0.01422130      -0.46859000 </v>
   <v>       0.17189852       0.57809304      -0.24637465 </v>
   <v>       0.31667696      -0.50704995      -0.41962402 </v>
   <v>      -0.03290869      -0.17768999       0.30390921 </v>
   <v>       0.08770877       0.30716970      -0.16939748 </v>
  </varray>
  <varray name="stress" >
   <v>     -29.24970377      -0.69829038       0.78486211 </v>
   <v>      -0.69829039     -28.68708036      -9.22748396 </v>
   <v>       0.78486208      -9.22748392     -28.06411447 </v>
  </varray>
  <energy>
   <i name="e_fr_energy">   -304.72466362 </i>
   <i name="e_wo_entrp">   -304.71864488 </i>
   <i name="e_0_energy">     -0.01805621 </i>
  </energy>
  <time name="totalsc"> 2283.05 2286.34</time>
 </calculation>
 <calculation>
  <scstep>
   <time name="dav">   40.35   40.40</time>
   <time name="total">   41.01   41.07</time>
   <energy>
    <i name="alphaZ">   1152.53166661 </i>
    <i name="ewald"> -10395.00684032 </i>
    <i name="hartreedc">  -2616.62068172 </i>
    <i name="XCdc">   -940.94343786 </i>
    <i name="pawpsdc">  17387.06126580 </i>
    <i name="pawaedc"> -15900.58402998 </i>
    <i name="eentropy">     -0.01471796 </i>
    <i name="bandstr">   -444.27761454 </i>
    <i name="atom">  11451.57642151 </i>
    <i name="e_fr_energy">   -306.27796847 </i>
    <i name="e_wo_entrp">   -306.26325051 </i>
    <i name="e_0_energy">   -306.27306248 </i>
   </energy>
  </scstep>
  <scstep>
   <time name="dav">   52.73   52.80</time>
   <time name="total">   53.39   53.47</time>
   <energy>
    <i name="e_fr_energy">   -307.13889795 </i>
    <i name="e_wo_entrp">   -307.13293337 </i>
    <i name="e_0_energy">   -307.13690975 </i>
   </energy>
  </scstep>
  <scstep>
   <time name="dav">   51.98   52.04</time>
   <time name="total">   52.64   52.70</time>
   <energy>
    <i name="e_fr_energy">   -306.18919289 </i>
    <i name="e_wo_entrp">   -306.17717379 </i>
    <i name="e_0_energy">   -306.18518653 </i>
   </energy>
  </scstep>
  <scstep>
   <time name="dav">   49.03   49.08</time>
   <time name="total">   49.70   49.76</time>
   <energy>
    <i name="e_fr_energy">   -306.02159002 </i>
    <i name="e_wo_entrp">   -306.00945143 </i>
    <i name="e_0_energy">   -306.01754383 </i>
   </energy>
  </scstep>
  <scstep>
   <time name="dav">   53.17   53.23</time>
   <time name="total">   53.83   53.89</time>
   <energy>
    <i name="e_fr_energy">   -305.35982239 </i>
    <i name="e_wo_entrp">   -305.35116231 </i>
    <i name="e_0_energy">   -305.35693570 </i>
   </energy>
  </scstep>
  <scstep>
   <time name="dav">   52.56   52.62</time>
   <time name="total">   53.24   53.30</time>
   <energy>
    <i name="e_fr_energy">   -305.22935084 </i>
    <i name="e_wo_entrp">   -305.21760414 </i>
    <i name="e_0_energy">   -305.22543528 </i>
   </energy>
  </scstep>
  <scstep>
   <time name="dav">   56.06   56.13</time>
   <time name="total">   56.71   56.78</time>
   <energy>
    <i name="e_fr_energy">   -305.12854130 </i>
    <i name="e_wo_entrp">   -305.11293148 </i>
    <i name="e_0_energy">   -305.12333803 </i>
   </energy>
  </scstep>
  <scstep>
   <time name="dav">   52.64   52.70</time>
   <time name="total">   53.31   53.38</time>
   <energy>
    <i name="e_fr_energy">   -305.11422301 </i>
    <i name="e_wo_entrp">   -305.09974849 </i>
    <i name="e_0_energy">   -305.10939817 </i>
   </energy>
  </scstep>
  <scstep>
   <time name="dav">   52.09   52.17</time>
   <time name="total">   52.75   52.83</time>
   <energy>
    <i name="e_fr_energy">   -305.09708245 </i>
    <i name="e_wo_entrp">   -305.08307278 </i>
    <i name="e_0_energy">   -305.09241256 </i>
   </energy>
  </scstep>
  <scstep>
   <time name="dav">   51.53   51.58</time>
   <time name="total">   52.20   52.27</time>
   <energy>
    <i name="e_fr_energy">   -305.09509467 </i>
    <i name="e_wo_entrp">   -305.08057843 </i>
    <i name="e_0_energy">   -305.09025592 </i>
   </energy>
  </scstep>
  <scstep>
   <time name="dav">   49.54   49.59</time>
   <time name="total">   50.20   50.26</time>
   <energy>
    <i name="e_fr_energy">   -305.10081420 </i>
    <i name="e_wo_entrp">   -305.08546268 </i>
    <i name="e_0_energy">   -305.09569702 </i>
   </energy>
  </scstep>
  <scstep>
   <time name="dav">   49.85   49.92</time>
   <time name="total">   50.82   50.95</time>
   <energy>
    <i name="e_fr_energy">   -305.10197601 </i>
    <i name="e_wo_entrp">   -305.08736937 </i>
    <i name="e_0_energy">   -305.09710713 </i>
   </energy>
  </scstep>
  <scstep>
   <time name="dav">   55.14   55.22</time>
   <time name="total">   55.80   55.88</time>
   <energy>
    <i name="e_fr_energy">   -305.10031738 </i>
    <i name="e_wo_entrp">   -305.08571896 </i>
    <i name="e_0_energy">   -305.09545124 </i>
   </energy>
  </scstep>
  <scstep>
   <time name="dav">   53.64   53.75</time>
   <time name="total">   54.32   54.43</time>
   <energy>
    <i name="e_fr_energy">   -305.10043207 </i>
    <i name="e_wo_entrp">   -305.08563668 </i>
    <i name="e_0_energy">   -305.09550028 </i>
   </energy>
  </scstep>
  <scstep>
   <time name="dav">   49.97   50.07</time>
   <time name="total">   50.64   50.74</time>
   <energy>
    <i name="e_fr_energy">   -305.10001636 </i>
    <i name="e_wo_entrp">   -305.08511974 </i>
    <i name="e_0_energy">   -305.09505082 </i>
   </energy>
  </scstep>
  <scstep>
   <time name="dav">   46.91   47.01</time>
   <time name="total">   47.60   47.71</time>
   <energy>
    <i name="e_fr_energy">   -305.09987240 </i>
    <i name="e_wo_entrp">   -305.08507959 </i>
    <i name="e_0_energy">   -305.09494146 </i>
   </energy>
  </scstep>
  <scstep>
   <time name="dav">   40.11   40.20</time>
   <time name="total">   40.18   40.26</time>
   <energy>
    <i name="alphaZ">   1152.53166661 </i>
    <i name="ewald"> -10395.00684032 </i>
    <i name="hartreedc">  -2547.69277644 </i>
    <i name="XCdc">   -942.96697778 </i>
    <i name="pawpsdc">  18393.33150575 </i>
    <i name="pawaedc"> -16908.19605875 </i>
    <i name="eentropy">     -0.01483950 </i>
    <i name="bandstr">   -508.66193056 </i>
    <i name="atom">  11451.57642151 </i>
    <i name="e_fr_energy">   -305.09982948 </i>
    <i name="e_wo_entrp">   -305.08498999 </i>
    <i name="e_0_energy">   -305.09488298 </i>
   </energy>
  </scstep>
  <structure>
   <crystal>
    <varray name="basis" >
     <v>      -3.11471062      -3.10003551      -3.10330625 </v>
     <v>       1.55369872       1.59300769      -7.79759895 </v>
     <v>       7.78854207      -7.78417085      -1.51933657 </v>
    </varray>
    <i name="volume">    453.58355535 </i>
    <varray name="rec_basis" >
     <v>      -0.13915442      -0.12868927      -0.05401753 </v>
     <v>       0.04287340       0.06372040      -0.10668420 </v>
     <v>       0.06419198      -0.06417531      -0.00032020 </v>
    </varray>
   </crystal>
   <varray name="positions" >
    <v>       0.96270532       0.93377694       0.39808732 </v>
    <v>       0.63305782       0.26598373       0.40127696 </v>
    <v>       0.50163268       0.00232728      -0.00194838 </v>
    <v>       0.09601869       0.20144006       0.80192091 </v>
    <v>       0.03363965       0.06886488       0.59907737 </v>
    <v>       0.90252366       0.79842618       0.20029795 </v>
    <v>       0.80383595       0.59503418       0.39952291 </v>
    <v>       0.73279464       0.46695169       0.19791753 </v>
    <v>       0.66385663       0.33583443      -0.00174870 </v>
    <v>       0.36841510       0.73046991       0.60136908 </v>
    <v>       0.13230401       0.27031942       0.39988790 </v>
    <v>       0.83337646       0.66307866       0.00214662 </v>
    <v>       0.92943603       0.87083088       0.80306459 </v>
    <v>       0.56479473       0.13473030       0.19735380 </v>
    <v>       0.40411841       0.79356087       0.19843429 </v>
    <v>       0.44072250       0.86095278       0.79744762 </v>
    <v>       0.29952212       0.60109466       0.40147213 </v>
    <v>       0.86419996       0.73102854       0.59916782 </v>
    <v>       0.46605514       0.93249231       0.40278500 </v>
    <v>       0.17041626       0.33710275       0.00046990 </v>
    <v>       0.26981640       0.53351763       0.79934939 </v>
    <v>       0.20049218       0.39741373       0.59882532 </v>
    <v>       0.06522261       0.13702040       0.20005886 </v>
    <v>       0.76685923       0.52983377       0.80116589 </v>
    <v>       0.69765074       0.40349101       0.60155106 </v>
    <v>       0.59595946       0.20336879       0.79875975 </v>
    <v>       0.53540243       0.06789851       0.60251511 </v>
    <v>       0.33386285       0.66451058       0.00044207 </v>
    <v>       0.23130833       0.46864514       0.19932991 </v>
   </varray>
  </structure>
  <varray name="forces" >
   <v>      -0.00078948       0.36277189       0.12201395 </v>
   <v>       0.10928971      -0.06260101       0.09774645 </v>
   <v>      -0.33166012       0.26345840      -0.17011772 </v>
   <v>       0.49107919      -0.13514605       0.14323369 </v>
   <v>       0.07205446       0.04040815      -0.19955832 </v>
   <v>      -0.30212937       0.00572994      -0.02352324 </v>
   <v>      -0.12767421      -0.19936007       0.24069088 </v>
   <v>      -0.14790986       0.05677037       0.20984204 </v>
   <v>      -0.27136697       0.40869271       0.02809663 </v>
   <v>      -0.02967148      -0.26695679       0.27456626 </v>
   <v>       0.06442844       0.06382255      -0.16383736 </v>
   <v>      -0.00460289      -0.16862264       0.09784258 </v>
   <v>       0.60086553      -0.35944871      -0.64807691 </v>
   <v>      -0.14025351       0.34451560       0.03833221 </v>
   <v>      -0.25679207       0.00922716       0.19490465 </v>
   <v>      -0.38990440      -0.05400392       0.33472507 </v>
   <v>       0.14351085      -0.19242987      -0.03213260 </v>
   <v>       0.01783370       0.06179537       0.38621482 </v>
   <v>       0.28597976      -0.25890305       0.08087683 </v>
   <v>      -0.06179353      -0.15426700      -0.64147215 </v>
   <v>      -0.24851804      -0.00444660      -0.12481639 </v>
   <v>      -0.11884153      -0.01184812       0.31778296 </v>
   <v>      -0.03231479       0.23916681      -0.30040043 </v>
   <v>      -0.09301799      -0.19961588       0.45834019 </v>
   <v>       0.50680446      -0.14013680      -0.29855508 </v>
   <v>       0.09334106       0.55123220      -0.27202926 </v>
   <v>       0.23197097      -0.43069159      -0.33438787 </v>
   <v>      -0.03747373       0.02228342       0.27898405 </v>
   <v>      -0.02244417       0.20860350      -0.09528595 </v>
  </varray>
  <varray name="stress" >
   <v>      54.48038818      -0.16207685       0.66842974 </v>
   <v>      -0.16207685      53.43856411      -5.65927513 </v>
   <v>       0.66842971      -5.65927509      54.60181821 </v>
  </varray>
  <energy>
   <i name="e_fr_energy">   -305.09982948 </i>
   <i name="e_wo_entrp">   -305.09488298 </i>
   <i name="e_0_energy">     -0.01483950 </i>
  </energy>
  <time name="totalsc">  888.06  889.48</time>
 </calculation>
 <calculation>
  <scstep>
   <time name="dav">   40.74   40.82</time>
   <time name="total">   41.40   41.50</time>
   <energy>
    <i name="alphaZ">   1142.31281673 </i>
    <i name="ewald"> -10360.12782178 </i>
    <i name="hartreedc">  -2544.15594755 </i>
    <i name="XCdc">   -943.95620041 </i>
    <i name="pawpsdc">  18393.16654181 </i>
    <i name="pawaedc"> -16907.93412693 </i>
    <i name="eentropy">     -0.01576468 </i>
    <i name="bandstr">   -536.04694903 </i>
    <i name="atom">  11451.57642151 </i>
    <i name="e_fr_energy">   -305.18103034 </i>
    <i name="e_wo_entrp">   -305.16526566 </i>
    <i name="e_0_energy">   -305.17577545 </i>
   </energy>
  </scstep>
  <scstep>
   <time name="dav">   52.82   52.88</time>
   <time name="total">   53.49   53.56</time>
   <energy>
    <i name="e_fr_energy">   -305.21577358 </i>
    <i name="e_wo_entrp">   -305.19645081 </i>
    <i name="e_0_energy">   -305.20933266 </i>
   </energy>
  </scstep>
  <scstep>
   <time name="dav">   52.74   52.80</time>
   <time name="total">   53.40   53.47</time>
   <energy>
    <i name="e_fr_energy">   -305.17889407 </i>
    <i name="e_wo_entrp">   -305.16446009 </i>
    <i name="e_0_energy">   -305.17408275 </i>
   </energy>
  </scstep>
  <scstep>
   <time name="dav">   51.96   52.02</time>
   <time name="total">   52.63   52.70</time>
   <energy>
    <i name="e_fr_energy">   -305.17373504 </i>
    <i name="e_wo_entrp">   -305.16131670 </i>
    <i name="e_0_energy">   -305.16959559 </i>
   </energy>
  </scstep>
  <scstep>
   <time name="dav">   51.50   51.56</time>
   <time name="total">   52.16   52.23</time>
   <energy>
    <i name="e_fr_energy">   -305.14431218 </i>
    <i name="e_wo_entrp">   -305.12757271 </i>
    <i name="e_0_energy">   -305.13873235 </i>
   </energy>
  </scstep>
  <scstep>
   <time name="dav">   52.00   52.06</time>
   <time name="total">   52.68   52.75</time>
   <energy>
    <i name="e_fr_energy">   -305.13469507 </i>
    <i name="e_wo_entrp">   -305.11854504 </i>
    <i name="e_0_energy">   -305.12931172 </i>
   </energy>
  </scstep>
  <scstep>
   <time name="dav">   53.90   53.97</time>
   <time name="total">   54.58   54.64</time>
   <energy>
    <i name="e_fr_energy">   -305.13129416 </i>
    <i name="e_wo_entrp">   -305.11592382 </i>
    <i name="e_0_energy">   -305.12617071 </i>
   </energy>
  </scstep>
  <scstep>
   <time name="dav">   52.22   52.29</time>
   <time name="total">   52.90   52.97</time>
   <energy>
    <i name="e_fr_energy">   -305.12943869 </i>
    <i name="e_wo_entrp">   -305.11389949 </i>
    <i name="e_0_energy">   -305.12425896 </i>
   </energy>
  </scstep>
  <scstep>
   <time name="dav">   50.35   50.41</time>
   <time name="total">   51.02   51.08</time>
   <energy>
    <i name="e_fr_energy">   -305.12897044 </i>
    <i name="e_wo_entrp">   -305.11315469 </i>
    <i name="e_0_energy">   -305.12369853 </i>
   </energy>
  </scstep>
  <scstep>
   <time name="dav">   47.05   47.13</time>
   <time name="total">   47.74   47.85</time>
   <energy>
    <i name="e_fr_energy">   -305.12866691 </i>
    <i name="e_wo_entrp">   -305.11288505 </i>
    <i name="e_0_energy">   -305.12340629 </i>
   </energy>
  </scstep>
  <scstep>
   <time name="dav">   43.50   43.57</time>
   <time name="total">   44.17   44.23</time>
   <energy>
    <i name="e_fr_energy">   -305.12879223 </i>
    <i name="e_wo_entrp">   -305.11315481 </i>
    <i name="e_0_energy">   -305.12357976 </i>
   </energy>
  </scstep>
  <scstep>
   <time name="dav">   44.81   44.87</time>
   <time name="total">   45.48   45.55</time>
   <energy>
    <i name="e_fr_energy">   -305.12895694 </i>
    <i name="e_wo_entrp">   -305.11318375 </i>
    <i name="e_0_energy">   -305.12369921 </i>
   </energy>
  </scstep>
  <scstep>
   <time name="dav">   49.53   49.59</time>
   <time name="total">   50.20   50.26</time>
   <energy>
    <i name="e_fr_energy">   -305.12897109 </i>
    <i name="e_wo_entrp">   -305.11319457 </i>
    <i name="e_0_energy">   -305.12371225 </i>
   </energy>
  </scstep>
  <scstep>
   <time name="dav">   45.21   45.26</time>
   <time name="total">   45.90   45.95</time>
   <energy>
    <i name="e_fr_energy">   -305.12892233 </i>
    <i name="e_wo_entrp">   -305.11316740 </i>
    <i name="e_0_energy">   -305.12367069 </i>
   </energy>
  </scstep>
  <scstep>
   <time name="dav">   26.60   26.62</time>
   <time name="total">   26.67   26.70</time>
   <energy>
    <i name="alphaZ">   1142.31281673 </i>
    <i name="ewald"> -10360.12782178 </i>
    <i name="hartreedc">  -2558.50055789 </i>
    <i name="XCdc">   -943.53310715 </i>
    <i name="pawpsdc">  18168.85428126 </i>
    <i name="pawaedc"> -16683.13233911 </i>
    <i name="eentropy">     -0.01572306 </i>
    <i name="bandstr">   -522.56285814 </i>
    <i name="atom">  11451.57642151 </i>
    <i name="e_fr_energy">   -305.12888764 </i>
    <i name="e_wo_entrp">   -305.11316458 </i>
    <i name="e_0_energy">   -305.12364662 </i>
   </energy>
  </scstep>
  <structure>
   <crystal>
    <varray name="basis" >
     <v>      -3.12412491      -3.11250031      -3.11509115 </v>
     <v>       1.55916595       1.59030379      -7.81888502 </v>
     <v>       7.81171078      -7.80824821      -1.53194666 </v>
    </varray>
    <i name="volume">    457.64120243 </i>
    <varray name="rec_basis" >
     <v>      -0.13872889      -0.12824525      -0.05374811 </v>
     <v>       0.04273046       0.06363104      -0.10643249 </v>
     <v>       0.06400259      -0.06398925      -0.00025217 </v>
    </varray>
   </crystal>
   <varray name="positions" >
    <v>       0.96354357       0.93368546       0.39849127 </v>
    <v>       0.63311586       0.26612627       0.40100806 </v>
    <v>       0.50128687       0.00183955      -0.00153902 </v>
    <v>       0.09685829       0.20113604       0.80151581 </v>
    <v>       0.03357378       0.06840354       0.59927073 </v>
    <v>       0.90199110       0.79875661       0.20023545 </v>
    <v>       0.80302888       0.59607817       0.39962540 </v>
    <v>       0.73290948       0.46689349       0.19835669 </v>
    <v>       0.66444986       0.33531026      -0.00138065 </v>
    <v>       0.36804680       0.73107060       0.60108151 </v>
    <v>       0.13251900       0.26955175       0.39990981 </v>
    <v>       0.83336880       0.66383114       0.00169578 </v>
    <v>       0.93025523       0.86995332       0.80241682 </v>
    <v>       0.56519094       0.13443889       0.19791153 </v>
    <v>       0.40325331       0.79491540       0.19876710 </v>
    <v>       0.43916591       0.86215547       0.79798749 </v>
    <v>       0.29962153       0.60086340       0.40116117 </v>
    <v>       0.86472363       0.73151383       0.59934504 </v>
    <v>       0.46618350       0.93266689       0.40219820 </v>
    <v>       0.16962048       0.33630980       0.00036804 </v>
    <v>       0.26915071       0.53347922       0.79948588 </v>
    <v>       0.20039068       0.39795828       0.59907434 </v>
    <v>       0.06552516       0.13624541       0.20004478 </v>
    <v>       0.76682045       0.53056844       0.80092182 </v>
    <v>       0.69814399       0.40275608       0.60122255 </v>
    <v>       0.59681192       0.20266190       0.79902034 </v>
    <v>       0.53496268       0.06763743       0.60198359 </v>
    <v>       0.33375224       0.66496341       0.00034987 </v>
    <v>       0.23173537       0.46822992       0.19947059 </v>
   </varray>
  </structure>
  <varray name="forces" >
   <v>      -0.01057564       0.41889022       0.14903521 </v>
   <v>       0.14014587      -0.10106761       0.09638808 </v>
   <v>      -0.33905268       0.27515117      -0.23282476 </v>
   <v>       0.52630301      -0.10715088       0.10785313 </v>
   <v>       0.04072070       0.08047966      -0.23959495 </v>
   <v>      -0.27486043      -0.05520579      -0.00014284 </v>
   <v>      -0.20696219      -0.23695927       0.32582394 </v>
   <v>      -0.18455191       0.13991315       0.16621232 </v>
   <v>      -0.21624992       0.44895329      -0.01618166 </v>
   <v>      -0.02447942      -0.31162868       0.28169110 </v>
   <v>       0.09271527       0.09629582      -0.24680444 </v>
   <v>       0.04787560      -0.24872668       0.19473933 </v>
   <v>       0.66975265      -0.29009491      -0.61945445 </v>
   <v>      -0.16090561       0.40226006       0.02435903 </v>
   <v>      -0.36093787      -0.04967805       0.33904173 </v>
   <v>      -0.55114923      -0.09315808       0.37788344 </v>
   <v>       0.16058108      -0.19972240      -0.07093698 </v>
   <v>       0.00643054       0.09877004       0.43310213 </v>
   <v>       0.32428251      -0.30043374       0.07754850 </v>
   <v>      -0.06116796      -0.16789188      -0.69329591 </v>
   <v>      -0.25811629      -0.03714218      -0.14422268 </v>
   <v>      -0.16259959       0.01138789       0.34119809 </v>
   <v>       0.02336980       0.23136371      -0.34927129 </v>
   <v>      -0.05679192      -0.22209055       0.48483465 </v>
   <v>       0.51364142      -0.10493626      -0.33849739 </v>
   <v>       0.10926668       0.56183925      -0.26964881 </v>
   <v>       0.25208715      -0.45093476      -0.35646343 </v>
   <v>      -0.03676376      -0.02793204       0.28774841 </v>
   <v>      -0.00200786       0.23944951      -0.11011951 </v>
  </varray>
  <varray name="stress" >
   <v>      36.24373543      -0.35992599       0.83889863 </v>
   <v>      -0.35992606      35.47387425      -6.46657341 </v>
   <v>       0.83889863      -6.46657336      36.67666906 </v>
  </varray>
  <energy>
   <i name="e_fr_energy">   -305.12888764 </i>
   <i name="e_wo_entrp">   -305.12364662 </i>
   <i name="e_0_energy">     -0.01572306 </i>
  </energy>
  <time name="totalsc">  744.15  745.23</time>
 </calculation>
 <calculation>
  <scstep>
   <time name="dav">   33.63   33.67</time>
   <time name="total">   34.31   34.35</time>
   <energy>
    <i name="alphaZ">   1131.72208165 </i>
    <i name="ewald"> -10345.70426658 </i>
    <i name="hartreedc">  -2533.49749264 </i>
    <i name="XCdc">   -944.67379041 </i>
    <i name="pawpsdc">  18168.96885315 </i>
    <i name="pawaedc"> -16683.25619718 </i>
    <i name="eentropy">     -0.00932593 </i>
    <i name="bandstr">   -550.49283400 </i>
    <i name="atom">  11451.57642151 </i>
    <i name="e_fr_energy">   -305.36655041 </i>
    <i name="e_wo_entrp">   -305.35722448 </i>
    <i name="e_0_energy">   -305.36344177 </i>
   </energy>
  </scstep>
  <scstep>
   <time name="dav">   51.37   51.43</time>
   <time name="total">   52.02   52.09</time>
   <energy>
    <i name="e_fr_energy">   -306.23002204 </i>
    <i name="e_wo_entrp">   -306.21940461 </i>
    <i name="e_0_energy">   -306.22648290 </i>
   </energy>
  </scstep>
  <scstep>
   <time name="dav">   52.17   52.23</time>
   <time name="total">   52.86   52.93</time>
   <energy>
    <i name="e_fr_energy">   -305.60066640 </i>
    <i name="e_wo_entrp">   -305.59219858 </i>
    <i name="e_0_energy">   -305.59784379 </i>
   </energy>
  </scstep>
  <scstep>
   <time name="dav">   49.68   49.73</time>
   <time name="total">   50.34   50.39</time>
   <energy>
    <i name="e_fr_energy">   -305.60029074 </i>
    <i name="e_wo_entrp">   -305.58961378 </i>
    <i name="e_0_energy">   -305.59673175 </i>
   </energy>
  </scstep>
  <scstep>
   <time name="dav">   48.10   48.16</time>
   <time name="total">   48.77   48.84</time>
   <energy>
    <i name="e_fr_energy">   -305.54490183 </i>
    <i name="e_wo_entrp">   -305.53636304 </i>
    <i name="e_0_energy">   -305.54205557 </i>
   </energy>
  </scstep>
  <scstep>
   <time name="dav">   53.09   53.15</time>
   <time name="total">   53.75   53.81</time>
   <energy>
    <i name="e_fr_energy">   -305.52708467 </i>
    <i name="e_wo_entrp">   -305.51788673 </i>
    <i name="e_0_energy">   -305.52401869 </i>
   </energy>
  </scstep>
  <scstep>
   <time name="dav">   52.83   52.89</time>
   <time name="total">   53.49   53.57</time>
   <energy>
    <i name="e_fr_energy">   -305.52084684 </i>
    <i name="e_wo_entrp">   -305.51014208 </i>
    <i name="e_0_energy">   -305.51727858 </i>
   </energy>
  </scstep>
  <scstep>
   <time name="dav">   49.82   49.88</time>
   <time name="total">   50.48   50.54</time>
   <energy>
    <i name="e_fr_energy">   -305.51816253 </i>
    <i name="e_wo_entrp">   -305.50818456 </i>
    <i name="e_0_energy">   -305.51483654 </i>
   </energy>
  </scstep>
  <scstep>
   <time name="dav">   50.85   50.92</time>
   <time name="total">   51.51   51.60</time>
   <energy>
    <i name="e_fr_energy">   -305.51178172 </i>
    <i name="e_wo_entrp">   -305.50198806 </i>
[...]
       <r>    4.7294    1.0000 </r>
       <r>    4.7883    1.0000 </r>
       <r>    4.8546    1.0000 </r>
       <r>    4.8808    1.0000 </r>
       <r>    4.9293    1.0000 </r>
       <r>    5.0161    1.0000 </r>
       <r>    5.0906    1.0000 </r>
       <r>    5.1388    1.0000 </r>
       <r>    5.2225    1.0000 </r>
       <r>    5.2705    1.0000 </r>
       <r>    5.3108    1.0000 </r>
       <r>    5.3588    1.0000 </r>
       <r>    5.4415    1.0000 </r>
       <r>    5.4732    1.0000 </r>
       <r>    5.5102    1.0000 </r>
       <r>    5.5451    1.0000 </r>
       <r>    5.6056    1.0000 </r>
       <r>    5.6799    1.0000 </r>
       <r>    5.7534    1.0000 </r>
       <r>    5.7863    1.0001 </r>
       <r>    5.8407    1.0002 </r>
       <r>    5.8737    1.0006 </r>
       <r>    5.9511    1.0030 </r>
       <r>    6.0014    1.0075 </r>
       <r>    6.0369    1.0129 </r>
       <r>    6.0743    1.0206 </r>
       <r>    6.1361    1.0336 </r>
       <r>    6.1883    1.0318 </r>
       <r>    6.2149    1.0192 </r>
       <r>    6.2878    0.9136 </r>
       <r>    6.3362    0.7727 </r>
       <r>    6.3631    0.6731 </r>
       <r>    6.4110    0.4745 </r>
       <r>    6.4804    0.2048 </r>
       <r>    6.5158    0.1016 </r>
       <r>    6.5765   -0.0033 </r>
       <r>    6.6313   -0.0340 </r>
       <r>    6.6987   -0.0290 </r>
       <r>    6.7660   -0.0142 </r>
       <r>    6.8922   -0.0015 </r>
       <r>    6.9652   -0.0003 </r>
       <r>    7.0631   -0.0000 </r>
       <r>    7.2054   -0.0000 </r>
       <r>    7.2267   -0.0000 </r>
       <r>    7.2971   -0.0000 </r>
       <r>    7.3372   -0.0000 </r>
       <r>    7.7274   -0.0000 </r>
       <r>    7.8446   -0.0000 </r>
       <r>    7.9262   -0.0000 </r>
       <r>    8.0914   -0.0000 </r>
       <r>    8.2075   -0.0000 </r>
       <r>    8.2803   -0.0000 </r>
       <r>    8.3451   -0.0000 </r>
       <r>    8.4018   -0.0000 </r>
       <r>    8.4253   -0.0000 </r>
       <r>    8.4772   -0.0000 </r>
       <r>    8.5166   -0.0000 </r>
       <r>    8.5593   -0.0000 </r>
       <r>    8.5924   -0.0000 </r>
       <r>    8.6614   -0.0000 </r>
       <r>    8.7161   -0.0000 </r>
      </set>
     </set>
    </set>
   </array>
  </eigenvalues>
  <separator name="orbital magnetization" >
   <v name="MAGDIPOLOUT">      0.00000000      0.00000000      0.00000000</v>
  </separator>
  <dos>
   <i name="efermi">      6.40499535 </i>
   <total>
    <array>
     <dimension dim="1">gridpoints</dimension>
     <dimension dim="2">spin</dimension>
     <field>energy</field>
     <field>total</field>
     <field>integrated</field>
     <set>
      <set comment="spin 1">
       <r>   -50.5863     0.0000     0.0000 </r>
       <r>   -50.3791     0.0000     0.0000 </r>
       <r>   -50.1720     0.0000     0.0000 </r>
       <r>   -49.9649     0.0000     0.0000 </r>
       <r>   -49.7577     0.0000     0.0000 </r>
       <r>   -49.5506    -0.0000    -0.0000 </r>
       <r>   -49.3434    -0.0000    -0.0000 </r>
       <r>   -49.1363    -0.0000    -0.0000 </r>
       <r>   -48.9291    -0.0000    -0.0000 </r>
       <r>   -48.7220    -0.0000    -0.0000 </r>
       <r>   -48.5148    -0.0000    -0.0000 </r>
       <r>   -48.3077    -0.0052    -0.0011 </r>
       <r>   -48.1006    -0.3019    -0.0636 </r>
       <r>   -47.8934     0.3302     0.0048 </r>
       <r>   -47.6863    15.8195     3.2817 </r>
       <r>   -47.4791    24.5544     8.3680 </r>
       <r>   -47.2720     8.5804    10.1454 </r>
       <r>   -47.0648    -0.5942    10.0223 </r>
       <r>   -46.8577    -0.1066    10.0002 </r>
       <r>   -46.6506    -0.0010    10.0000 </r>
       <r>   -46.4434    -0.0000    10.0000 </r>
       <r>   -46.2363    -0.0000    10.0000 </r>
       <r>   -46.0291    -0.0000    10.0000 </r>
       <r>   -45.8220     0.0000    10.0000 </r>
       <r>   -45.6148     0.0000    10.0000 </r>
       <r>   -45.4077     0.0000    10.0000 </r>
       <r>   -45.2005     0.0000    10.0000 </r>
       <r>   -44.9934     0.0000    10.0000 </r>
       <r>   -44.7863     0.0000    10.0000 </r>
       <r>   -44.5791     0.0000    10.0000 </r>
       <r>   -44.3720     0.0000    10.0000 </r>
       <r>   -44.1648     0.0000    10.0000 </r>
       <r>   -43.9577     0.0000    10.0000 </r>
       <r>   -43.7505     0.0000    10.0000 </r>
       <r>   -43.5434     0.0000    10.0000 </r>
       <r>   -43.3363     0.0000    10.0000 </r>
       <r>   -43.1291     0.0000    10.0000 </r>
       <r>   -42.9220     0.0000    10.0000 </r>
       <r>   -42.7148     0.0000    10.0000 </r>
       <r>   -42.5077     0.0000    10.0000 </r>
       <r>   -42.3005     0.0000    10.0000 </r>
       <r>   -42.0934     0.0000    10.0000 </r>
       <r>   -41.8862     0.0000    10.0000 </r>
       <r>   -41.6791     0.0000    10.0000 </r>
       <r>   -41.4720     0.0000    10.0000 </r>
       <r>   -41.2648     0.0000    10.0000 </r>
       <r>   -41.0577     0.0000    10.0000 </r>
       <r>   -40.8505     0.0000    10.0000 </r>
       <r>   -40.6434     0.0000    10.0000 </r>
       <r>   -40.4362     0.0000    10.0000 </r>
       <r>   -40.2291     0.0000    10.0000 </r>
       <r>   -40.0220     0.0000    10.0000 </r>
       <r>   -39.8148     0.0000    10.0000 </r>
       <r>   -39.6077     0.0000    10.0000 </r>
       <r>   -39.4005     0.0000    10.0000 </r>
       <r>   -39.1934     0.0000    10.0000 </r>
       <r>   -38.9862     0.0000    10.0000 </r>
       <r>   -38.7791     0.0000    10.0000 </r>
       <r>   -38.5719     0.0000    10.0000 </r>
       <r>   -38.3648     0.0000    10.0000 </r>
       <r>   -38.1577     0.0000    10.0000 </r>
       <r>   -37.9505     0.0000    10.0000 </r>
       <r>   -37.7434     0.0000    10.0000 </r>
       <r>   -37.5362     0.0000    10.0000 </r>
       <r>   -37.3291     0.0000    10.0000 </r>
       <r>   -37.1219     0.0000    10.0000 </r>
       <r>   -36.9148     0.0000    10.0000 </r>
       <r>   -36.7077     0.0000    10.0000 </r>
       <r>   -36.5005     0.0000    10.0000 </r>
       <r>   -36.2934     0.0000    10.0000 </r>
       <r>   -36.0862     0.0000    10.0000 </r>
       <r>   -35.8791     0.0000    10.0000 </r>
       <r>   -35.6719     0.0000    10.0000 </r>
       <r>   -35.4648     0.0000    10.0000 </r>
       <r>   -35.2576     0.0000    10.0000 </r>
       <r>   -35.0505     0.0000    10.0000 </r>
       <r>   -34.8434     0.0000    10.0000 </r>
       <r>   -34.6362     0.0000    10.0000 </r>
       <r>   -34.4291     0.0000    10.0000 </r>
       <r>   -34.2219     0.0000    10.0000 </r>
       <r>   -34.0148     0.0000    10.0000 </r>
       <r>   -33.8076     0.0000    10.0000 </r>
       <r>   -33.6005     0.0000    10.0000 </r>
       <r>   -33.3934     0.0000    10.0000 </r>
       <r>   -33.1862     0.0000    10.0000 </r>
       <r>   -32.9791     0.0000    10.0000 </r>
       <r>   -32.7719     0.0000    10.0000 </r>
       <r>   -32.5648     0.0000    10.0000 </r>
       <r>   -32.3576     0.0000    10.0000 </r>
       <r>   -32.1505     0.0000    10.0000 </r>
       <r>   -31.9433     0.0000    10.0000 </r>
       <r>   -31.7362     0.0000    10.0000 </r>
       <r>   -31.5291     0.0000    10.0000 </r>
       <r>   -31.3219     0.0000    10.0000 </r>
       <r>   -31.1148     0.0000    10.0000 </r>
       <r>   -30.9076     0.0000    10.0000 </r>
       <r>   -30.7005     0.0000    10.0000 </r>
       <r>   -30.4933     0.0000    10.0000 </r>
       <r>   -30.2862     0.0000    10.0000 </r>
       <r>   -30.0791     0.0000    10.0000 </r>
       <r>   -29.8719     0.0000    10.0000 </r>
       <r>   -29.6648     0.0000    10.0000 </r>
       <r>   -29.4576     0.0000    10.0000 </r>
       <r>   -29.2505     0.0000    10.0000 </r>
       <r>   -29.0433     0.0000    10.0000 </r>
       <r>   -28.8362     0.0000    10.0000 </r>
       <r>   -28.6290     0.0000    10.0000 </r>
       <r>   -28.4219     0.0000    10.0000 </r>
       <r>   -28.2148     0.0000    10.0000 </r>
       <r>   -28.0076     0.0000    10.0000 </r>
       <r>   -27.8005     0.0000    10.0000 </r>
       <r>   -27.5933     0.0000    10.0000 </r>
       <r>   -27.3862     0.0000    10.0000 </r>
       <r>   -27.1790     0.0000    10.0000 </r>
       <r>   -26.9719     0.0000    10.0000 </r>
       <r>   -26.7648     0.0000    10.0000 </r>
       <r>   -26.5576     0.0000    10.0000 </r>
       <r>   -26.3505     0.0000    10.0000 </r>
       <r>   -26.1433     0.0000    10.0000 </r>
       <r>   -25.9362    -0.0000    10.0000 </r>
       <r>   -25.7290    -0.0000    10.0000 </r>
       <r>   -25.5219    -0.0000    10.0000 </r>
       <r>   -25.3147    -0.0000    10.0000 </r>
       <r>   -25.1076    -0.0000    10.0000 </r>
       <r>   -24.9005    -0.0003     9.9999 </r>
       <r>   -24.6933    -0.0462     9.9904 </r>
       <r>   -24.4862    -0.3327     9.9215 </r>
       <r>   -24.2790     3.4784    10.6420 </r>
       <r>   -24.0719    11.6492    13.0550 </r>
       <r>   -23.8647    40.1971    21.3816 </r>
       <r>   -23.6576    53.4710    32.4578 </r>
       <r>   -23.4505    21.4660    36.9043 </r>
       <r>   -23.2433    12.7606    39.5476 </r>
       <r>   -23.0362     2.6515    40.0969 </r>
       <r>   -22.8290    -0.4498    40.0037 </r>
       <r>   -22.6219    -0.0178    40.0000 </r>
       <r>   -22.4147    -0.0001    40.0000 </r>
       <r>   -22.2076    -0.0000    40.0000 </r>
       <r>   -22.0004    -0.0000    40.0000 </r>
       <r>   -21.7933     0.0000    40.0000 </r>
       <r>   -21.5862     0.0000    40.0000 </r>
       <r>   -21.3790     0.0000    40.0000 </r>
       <r>   -21.1719     0.0000    40.0000 </r>
       <r>   -20.9647     0.0000    40.0000 </r>
       <r>   -20.7576     0.0000    40.0000 </r>
       <r>   -20.5504     0.0000    40.0000 </r>
       <r>   -20.3433     0.0000    40.0000 </r>
       <r>   -20.1362     0.0000    40.0000 </r>
       <r>   -19.9290     0.0000    40.0000 </r>
       <r>   -19.7219     0.0000    40.0000 </r>
       <r>   -19.5147     0.0000    40.0000 </r>
       <r>   -19.3076     0.0000    40.0000 </r>
       <r>   -19.1004     0.0000    40.0000 </r>
       <r>   -18.8933     0.0000    40.0000 </r>
       <r>   -18.6861     0.0000    40.0000 </r>
       <r>   -18.4790     0.0000    40.0000 </r>
       <r>   -18.2719     0.0000    40.0000 </r>
       <r>   -18.0647     0.0000    40.0000 </r>
       <r>   -17.8576     0.0000    40.0000 </r>
       <r>   -17.6504     0.0000    40.0000 </r>
       <r>   -17.4433     0.0000    40.0000 </r>
       <r>   -17.2361     0.0000    40.0000 </r>
       <r>   -17.0290     0.0000    40.0000 </r>
       <r>   -16.8219     0.0000    40.0000 </r>
       <r>   -16.6147     0.0000    40.0000 </r>
       <r>   -16.4076     0.0000    40.0000 </r>
       <r>   -16.2004     0.0000    40.0000 </r>
       <r>   -15.9933     0.0000    40.0000 </r>
       <r>   -15.7861     0.0000    40.0000 </r>
       <r>   -15.5790     0.0000    40.0000 </r>
       <r>   -15.3718     0.0000    40.0000 </r>
       <r>   -15.1647     0.0000    40.0000 </r>
       <r>   -14.9576     0.0000    40.0000 </r>
       <r>   -14.7504     0.0000    40.0000 </r>
       <r>   -14.5433     0.0000    40.0000 </r>
       <r>   -14.3361     0.0000    40.0000 </r>
       <r>   -14.1290     0.0000    40.0000 </r>
       <r>   -13.9218     0.0000    40.0000 </r>
       <r>   -13.7147     0.0000    40.0000 </r>
       <r>   -13.5076     0.0000    40.0000 </r>
       <r>   -13.3004     0.0000    40.0000 </r>
       <r>   -13.0933     0.0000    40.0000 </r>
       <r>   -12.8861     0.0000    40.0000 </r>
       <r>   -12.6790     0.0000    40.0000 </r>
       <r>   -12.4718     0.0000    40.0000 </r>
       <r>   -12.2647     0.0000    40.0000 </r>
       <r>   -12.0575     0.0000    40.0000 </r>
       <r>   -11.8504     0.0000    40.0000 </r>
       <r>   -11.6433     0.0000    40.0000 </r>
       <r>   -11.4361     0.0000    40.0000 </r>
       <r>   -11.2290     0.0000    40.0000 </r>
       <r>   -11.0218     0.0000    40.0000 </r>
       <r>   -10.8147     0.0000    40.0000 </r>
       <r>   -10.6075     0.0000    40.0000 </r>
       <r>   -10.4004     0.0000    40.0000 </r>
       <r>   -10.1933     0.0000    40.0000 </r>
       <r>    -9.9861     0.0000    40.0000 </r>
       <r>    -9.7790     0.0000    40.0000 </r>
       <r>    -9.5718     0.0000    40.0000 </r>
       <r>    -9.3647     0.0000    40.0000 </r>
       <r>    -9.1575     0.0000    40.0000 </r>
       <r>    -8.9504     0.0000    40.0000 </r>
       <r>    -8.7432     0.0000    40.0000 </r>
       <r>    -8.5361     0.0000    40.0000 </r>
       <r>    -8.3290     0.0000    40.0000 </r>
       <r>    -8.1218     0.0000    40.0000 </r>
       <r>    -7.9147     0.0000    40.0000 </r>
       <r>    -7.7075     0.0000    40.0000 </r>
       <r>    -7.5004     0.0000    40.0000 </r>
       <r>    -7.2932     0.0000    40.0000 </r>
       <r>    -7.0861     0.0000    40.0000 </r>
       <r>    -6.8790     0.0000    40.0000 </r>
       <r>    -6.6718     0.0000    40.0000 </r>
       <r>    -6.4647     0.0000    40.0000 </r>
       <r>    -6.2575     0.0000    40.0000 </r>
       <r>    -6.0504     0.0000    40.0000 </r>
       <r>    -5.8432     0.0000    40.0000 </r>
       <r>    -5.6361     0.0000    40.0000 </r>
       <r>    -5.4289     0.0000    40.0000 </r>
       <r>    -5.2218     0.0000    40.0000 </r>
       <r>    -5.0147     0.0000    40.0000 </r>
       <r>    -4.8075     0.0000    40.0000 </r>
       <r>    -4.6004     0.0000    40.0000 </r>
       <r>    -4.3932     0.0000    40.0000 </r>
       <r>    -4.1861     0.0000    40.0000 </r>
       <r>    -3.9789     0.0000    40.0000 </r>
       <r>    -3.7718     0.0000    40.0000 </r>
       <r>    -3.5647     0.0000    40.0000 </r>
       <r>    -3.3575     0.0000    40.0000 </r>
       <r>    -3.1504     0.0000    40.0000 </r>
       <r>    -2.9432     0.0000    40.0000 </r>
       <r>    -2.7361     0.0000    40.0000 </r>
       <r>    -2.5289     0.0000    40.0000 </r>
       <r>    -2.3218     0.0000    40.0000 </r>
       <r>    -2.1146    -0.0000    40.0000 </r>
       <r>    -1.9075    -0.0000    40.0000 </r>
       <r>    -1.7004    -0.0000    40.0000 </r>
       <r>    -1.4932    -0.0000    40.0000 </r>
       <r>    -1.2861    -0.0000    40.0000 </r>
       <r>    -1.0789    -0.0000    40.0000 </r>
       <r>    -0.8718    -0.0003    39.9999 </r>
       <r>    -0.6646    -0.0093    39.9980 </r>
       <r>    -0.4575     0.0124    40.0006 </r>
       <r>    -0.2504     0.4745    40.0988 </r>
       <r>    -0.0432     1.1538    40.3378 </r>
       <r>     0.1639     1.4742    40.6432 </r>
       <r>     0.3711     2.1085    41.0800 </r>
       <r>     0.5782     1.9451    41.4829 </r>
       <r>     0.7854     2.3051    41.9604 </r>
       <r>     0.9925     3.0742    42.5972 </r>
       <r>     1.1997     3.1939    43.2588 </r>
       <r>     1.4068     3.5483    43.9938 </r>
       <r>     1.6139     4.0445    44.8316 </r>
       <r>     1.8211     4.8078    45.8275 </r>
       <r>     2.0282     5.4824    46.9631 </r>
       <r>     2.2354     7.8503    48.5892 </r>
       <r>     2.4425    12.3207    51.1414 </r>
       <r>     2.6497    18.8512    55.0463 </r>
       <r>     2.8568    24.3880    60.0981 </r>
       <r>     3.0639    26.0095    65.4858 </r>
       <r>     3.2711    27.4905    71.1803 </r>
       <r>     3.4782    30.4678    77.4915 </r>
       <r>     3.6854    32.6510    84.2550 </r>
       <r>     3.8925    32.8877    91.0674 </r>
       <r>     4.0997    29.4676    97.1715 </r>
       <r>     4.3068    27.2116   102.8082 </r>
       <r>     4.5140    28.8757   108.7896 </r>
       <r>     4.7211    33.2907   115.6856 </r>
       <r>     4.9282    38.7388   123.7101 </r>
       <r>     5.1354    39.7312   131.9401 </r>
       <r>     5.3425    40.7093   140.3728 </r>
       <r>     5.5497    41.6574   149.0019 </r>
       <r>     5.7568    41.8522   157.6713 </r>
       <r>     5.9640    42.4450   166.4635 </r>
       <r>     6.1711    43.3559   175.4444 </r>
       <r>     6.3782    41.1534   183.9691 </r>
       <r>     6.5854    36.3971   191.5085 </r>
       <r>     6.7925    30.7775   197.8839 </r>
       <r>     6.9997    23.6456   202.7819 </r>
       <r>     7.2068    19.7744   206.8780 </r>
       <r>     7.4140    18.8473   210.7822 </r>
       <r>     7.6211    18.0538   214.5219 </r>
       <r>     7.8283    20.8791   218.8469 </r>
       <r>     8.0354    26.5293   224.3422 </r>
       <r>     8.2425    30.4130   230.6421 </r>
       <r>     8.4497    27.3660   236.3108 </r>
       <r>     8.6568    15.7058   239.5642 </r>
       <r>     8.8640     2.4730   240.0764 </r>
       <r>     9.0711    -0.3349   240.0071 </r>
       <r>     9.2783    -0.0339   240.0001 </r>
       <r>     9.4854    -0.0003   240.0000 </r>
       <r>     9.6925    -0.0000   240.0000 </r>
       <r>     9.8997    -0.0000   240.0000 </r>
       <r>    10.1068    -0.0000   240.0000 </r>
       <r>    10.3140     0.0000   240.0000 </r>
       <r>    10.5211     0.0000   240.0000 </r>
       <r>    10.7283     0.0000   240.0000 </r>
       <r>    10.9354     0.0000   240.0000 </r>
       <r>    11.1426     0.0000   240.0000 </r>
       <r>    11.3497     0.0000   240.0000 </r>
       <r>    11.5568     0.0000   240.0000 </r>
      </set>
     </set>
    </array>
   </total>
  </dos>
 </calculation>
 <structure name="finalpos" >
  <crystal>
   <varray name="basis" >
    <v>      -3.16510143      -3.10739222      -3.11056285 </v>
    <v>       1.56561806       1.69697668      -7.90239367 </v>
    <v>       7.80341827      -7.77127420      -1.44186788 </v>
   </varray>
   <i name="volume">    465.75986881 </i>
   <varray name="rec_basis" >
    <v>      -0.13710602      -0.12755128      -0.05455400 </v>
    <v>       0.04228056       0.06191319      -0.10487196 </v>
    <v>       0.06405530      -0.06415716      -0.00108664 </v>
   </varray>
  </crystal>
  <varray name="positions" >
   <v>       0.95581363       0.93214881       0.39338271 </v>
   <v>       0.63009293       0.26446815       0.40273154 </v>
   <v>       0.50153509       0.00690020      -0.00668808 </v>
   <v>       0.08798120       0.19821889       0.80939157 </v>
   <v>       0.03457337       0.06778842       0.60147295 </v>
   <v>       0.90746757       0.79804460       0.19573987 </v>
   <v>       0.80657015       0.58936071       0.39971766 </v>
   <v>       0.73252330       0.46570701       0.19634441 </v>
   <v>       0.66933483       0.33538975      -0.00854053 </v>
   <v>       0.36718948       0.72576721       0.60310905 </v>
   <v>       0.12914809       0.27026291       0.40030839 </v>
   <v>       0.83394220       0.66191033       0.00255130 </v>
   <v>       0.93918778       0.88630325       0.81843034 </v>
   <v>       0.56037424       0.13565131       0.19409098 </v>
   <v>       0.40996809       0.79064212       0.19630274 </v>
   <v>       0.45581115       0.85413698       0.79580368 </v>
   <v>       0.29862219       0.59967467       0.40222105 </v>
   <v>       0.86166591       0.72650135       0.60159165 </v>
   <v>       0.46348412       0.92741591       0.40869659 </v>
   <v>       0.18515374       0.35025917       0.00011959 </v>
   <v>       0.26782374       0.54162986       0.79472154 </v>
   <v>       0.19573785       0.38892447       0.59904404 </v>
   <v>       0.06116150       0.14394086       0.19336989 </v>
   <v>       0.76650373       0.51777745       0.80204537 </v>
   <v>       0.68981915       0.40589604       0.60832069 </v>
   <v>       0.58117161       0.21521536       0.78965981 </v>
   <v>       0.54243155       0.07045604       0.60891310 </v>
   <v>       0.33429977       0.65851165      -0.00113176 </v>
   <v>       0.23061204       0.47109652       0.19827986 </v>
  </varray>
 </structure>
</modeling>
