Nb - Mo - Ta - Ti - V SQS               
           1
    -3.160000   -3.160000   -3.160000
     1.580000    1.580000   -7.900000
     7.900000   -7.900000   -1.580000
   Nb   Mo   Ta   Ti   V 
   5   6   6   6   6
Direct configuration=     1
   0.96666667  0.93333333  0.40000000
   0.63333333  0.26666667  0.40000000
   0.50000000  0.00000000  0.00000000
   0.10000000  0.20000000  0.80000000
   0.03333333  0.06666667  0.60000000
   0.90000000  0.80000000  0.20000000
   0.80000000  0.60000000  0.40000000
   0.73333333  0.46666667  0.20000000
   0.66666667  0.33333333  0.00000000
   0.36666667  0.73333333  0.60000000
   0.13333333  0.26666667  0.40000000
   0.83333333  0.66666667  0.00000000
   0.93333333  0.86666667  0.80000000
   0.56666667  0.13333333  0.20000000
   0.40000000  0.80000000  0.20000000
   0.43333333  0.86666667  0.80000000
   0.30000000  0.60000000  0.40000000
   0.86666667  0.73333333  0.60000000
   0.46666667  0.93333333  0.40000000
   0.16666667  0.33333333  0.00000000
   0.26666667  0.53333333  0.80000000
   0.20000000  0.40000000  0.60000000
   0.06666667  0.13333333  0.20000000
   0.76666667  0.53333333  0.80000000
   0.70000000  0.40000000  0.60000000
   0.60000000  0.20000000  0.80000000
   0.53333333  0.06666667  0.60000000
   0.33333333  0.66666667  0.00000000
   0.23333333  0.46666667  0.20000000
Nb - Mo - Ta - Ti - V SQS               
           1
    -3.114711   -3.100036   -3.103306
     1.553699    1.593008   -7.797599
     7.788542   -7.784171   -1.519337
   Nb   Mo   Ta   Ti   V 
   5   6   6   6   6
Direct configuration=     2
   0.96270532  0.93377694  0.39808732
   0.63305782  0.26598373  0.40127696
   0.50163268  0.00232728 -0.00194838
   0.09601869  0.20144006  0.80192091
   0.03363965  0.06886488  0.59907737
   0.90252366  0.79842618  0.20029795
   0.80383595  0.59503418  0.39952291
   0.73279464  0.46695169  0.19791753
   0.66385663  0.33583443 -0.00174870
   0.36841510  0.73046991  0.60136908
   0.13230401  0.27031942  0.39988790
   0.83337646  0.66307866  0.00214662
   0.92943603  0.87083088  0.80306459
   0.56479473  0.13473030  0.19735380
   0.40411841  0.79356087  0.19843429
   0.44072250  0.86095278  0.79744762
   0.29952212  0.60109466  0.40147213
   0.86419996  0.73102854  0.59916782
   0.46605514  0.93249231  0.40278500
   0.17041626  0.33710275  0.00046990
   0.26981640  0.53351763  0.79934939
   0.20049218  0.39741373  0.59882532
   0.06522261  0.13702040  0.20005886
   0.76685923  0.52983377  0.80116589
   0.69765074  0.40349101  0.60155106
   0.59595946  0.20336879  0.79875975
   0.53540243  0.06789851  0.60251511
   0.33386285  0.66451058  0.00044207
   0.23130833  0.46864514  0.19932991
Nb - Mo - Ta - Ti - V SQS               
           1
    -3.124125   -3.112500   -3.115091
     1.559166    1.590304   -7.818885
     7.811711   -7.808248   -1.531947
   Nb   Mo   Ta   Ti   V 
   5   6   6   6   6
Direct configuration=     3
   0.96354357  0.93368546  0.39849127
   0.63311586  0.26612627  0.40100806
   0.50128687  0.00183955 -0.00153902
   0.09685829  0.20113604  0.80151581
   0.03357378  0.06840354  0.59927073
   0.90199110  0.79875661  0.20023545
   0.80302888  0.59607817  0.39962540
   0.73290948  0.46689349  0.19835669
   0.66444986  0.33531026 -0.00138065
   0.36804680  0.73107060  0.60108151
   0.13251900  0.26955175  0.39990981
   0.83336880  0.66383114  0.00169578
   0.93025523  0.86995332  0.80241682
   0.56519094  0.13443889  0.19791153
   0.40325331  0.79491540  0.19876710
   0.43916591  0.86215547  0.79798749
   0.29962153  0.60086340  0.40116117
   0.86472363  0.73151383  0.59934504
   0.46618350  0.93266689  0.40219820
   0.16962048  0.33630980  0.00036804
   0.26915071  0.53347922  0.79948588
   0.20039068  0.39795828  0.59907434
   0.06552516  0.13624541  0.20004478
   0.76682045  0.53056844  0.80092182
   0.69814399  0.40275608  0.60122255
   0.59681192  0.20266190  0.79902034
   0.53496268  0.06763743  0.60198359
   0.33375224  0.66496341  0.00034987
   0.23173537  0.46822992  0.19947059
Nb - Mo - Ta - Ti - V SQS               
           1
    -3.133996   -3.107668   -3.114090
     1.559964    1.627274   -7.851640
     7.836662   -7.826831   -1.501046
   Nb   Mo   Ta   Ti   V 
   5   6   6   6   6
Direct configuration=     4
   0.95971985  0.93421362  0.39669257
   0.63263280  0.26546182  0.40212116
   0.50284673  0.00385520 -0.00369390
   0.09288976  0.20200858  0.80369625
   0.03364566  0.07048650  0.59872038
   0.90462309  0.79749600  0.19998036
   0.80623402  0.59179182  0.39942677
   0.73258948  0.46655243  0.19666629
   0.66220754  0.33721930 -0.00352972
   0.36977846  0.72810433  0.60232532
   0.13163909  0.27250760  0.39985000
   0.83381932  0.66096587  0.00336133
   0.92757825  0.87433696  0.80580948
   0.56332276  0.13562985  0.19548430
   0.40650441  0.78997676  0.19736389
   0.44499372  0.85715447  0.79579865
   0.29958365  0.60148376  0.40260091
   0.86235936  0.72916349  0.59873306
   0.46555669  0.93184073  0.40481137
   0.17354263  0.34003083  0.00082210
   0.27220127  0.53363129  0.79873755
   0.20072282  0.39537414  0.59813329
   0.06436520  0.13970108  0.19969352
   0.76721726  0.52676717  0.80182991
   0.69577125  0.40606567  0.60318871
   0.59258898  0.20642260  0.79753482
   0.53727070  0.06886451  0.60460856
   0.33382825  0.66285469  0.00055943
   0.22996697  0.47003893  0.19867363
Nb - Mo - Ta - Ti - V SQS               
           1
    -3.142481   -3.103514   -3.113230
     1.560651    1.659057   -7.879798
     7.858112   -7.842806   -1.474481
   Nb   Mo   Ta   Ti   V 
   5   6   6   6   6
Direct configuration=     5
   0.95643210  0.93465907  0.39514848
   0.63221867  0.26489707  0.40307374
   0.50418705  0.00557195 -0.00553607
   0.08948789  0.20275988  0.80556408
   0.03371162  0.07226516  0.59825271
   0.90688027  0.79641835  0.19976131
   0.80897571  0.58812844  0.39925064
   0.73230969  0.46625597  0.19521616
   0.66028118  0.33884422 -0.00537018
   0.37126120  0.72557308  0.60338721
   0.13089086  0.27503354  0.39980384
   0.83420270  0.65852193  0.00478394
   0.92529809  0.87809287  0.80872451
   0.56171527  0.13664033  0.19340425
   0.40928102  0.78575239  0.19615381
   0.44998193  0.85287502  0.79391700
   0.29955614  0.60201813  0.40383640
   0.86032059  0.72715250  0.59820187
   0.46502218  0.93114211  0.40704953
   0.17692301  0.34321315  0.00122186
   0.27482061  0.53375968  0.79809876
   0.20099910  0.39316288  0.59732169
   0.06337701  0.14265329  0.19939826
   0.76755023  0.52352106  0.80260126
   0.69374626  0.40889952  0.60487892
   0.58896756  0.20963164  0.79626526
   0.53926293  0.06992132  0.60686325
   0.33388847  0.66105306  0.00073500
   0.22845067  0.47158238  0.19799252
Nb - Mo - Ta - Ti - V SQS               
           1
    -3.150580   -3.108528   -3.119259
     1.564809    1.663190   -7.896642
     7.873137   -7.851087   -1.476434
   Nb   Mo   Ta   Ti   V 
   5   6   6   6   6
Direct configuration=     6
   0.95655108  0.93434172  0.39484838
   0.63172840  0.26520138  0.40249400
   0.50506113  0.00457116 -0.00636005
   0.08929007  0.20142976  0.80594661
   0.03390897  0.07186095  0.59918922
   0.90680132  0.79628827  0.19913866
   0.80828904  0.58932061  0.39921188
   0.73225448  0.46503032  0.19610420
   0.66090306  0.33863806 -0.00630962
   0.37049835  0.72521888  0.60302386
   0.13070590  0.27387739  0.39984782
   0.83395298  0.66026764  0.00396927
   0.92770747  0.87932192  0.80977681
   0.56129635  0.13632084  0.19361767
   0.40942201  0.78742989  0.19657958
   0.44853565  0.85347590  0.79452029
   0.30008771  0.60174157  0.40371212
   0.86045725  0.72712066  0.59870000
   0.46451020  0.93071473  0.40718491
   0.17814862  0.34398660  0.00117370
   0.27433802  0.53456158  0.79772356
   0.20069600  0.39224457  0.59757533
   0.06333240  0.14302288  0.19882381
   0.76827609  0.52214484  0.80249431
   0.69312170  0.40911757  0.60591167
   0.58736982  0.21097593  0.79541782
   0.54051750  0.06990953  0.60750029
   0.33340422  0.66016740  0.00014031
   0.22883420  0.47169746  0.19804359
Nb - Mo - Ta - Ti - V SQS               
           1
    -3.158036   -3.113143   -3.124808
     1.568637    1.666994   -7.912148
     7.886967   -7.858710   -1.478233
   Nb   Mo   Ta   Ti   V 
   5   6   6   6   6
Direct configuration=     7
   0.95666007  0.93405032  0.39457256
   0.63127759  0.26548106  0.40196104
   0.50586323  0.00365220 -0.00711725
   0.08910844  0.20020791  0.80629821
   0.03409098  0.07148941  0.60005008
   0.90672825  0.79616897  0.19856633
   0.80765844  0.59041562  0.39917612
   0.73220429  0.46390429  0.19692048
   0.66147352  0.33844899 -0.00717302
   0.36979722  0.72489363  0.60268976
   0.13053584  0.27281545  0.39988823
   0.83372320  0.66187133  0.00322038
   0.92992185  0.88045055  0.81074445
   0.56091165  0.13602731  0.19381377
   0.40955217  0.78897056  0.19697094
   0.44720768  0.85402761  0.79507455
   0.30057587  0.60148759  0.40359798
   0.86058319  0.72709126  0.59915788
   0.46403992  0.93032213  0.40730927
   0.17927459  0.34469706  0.00112964
   0.27389453  0.53529823  0.79737859
   0.20041761  0.39140101  0.59780842
   0.06329101  0.14336251  0.19829578
   0.76894255  0.52088082  0.80239616
   0.69254886  0.40931753  0.60686083
   0.58590164  0.21221088  0.79463857
   0.54167050  0.06989854  0.60808606
   0.33295874  0.65935408 -0.00040639
   0.22918659  0.47180315  0.19809059
Nb - Mo - Ta - Ti - V SQS               
           1
    -3.153192   -3.106394   -3.117856
     1.566560    1.665295   -7.896785
     7.868909   -7.836659   -1.473914
   Nb   Mo   Ta   Ti   V 
   5   6   6   6   6
Direct configuration=     8
   0.95671484  0.93378169  0.39429057
   0.63097156  0.26558303  0.40164688
   0.50643079  0.00312304 -0.00766514
   0.08889443  0.19911024  0.80670308
   0.03431053  0.07101705  0.60069791
   0.90667887  0.79606430  0.19810143
   0.80721255  0.59118170  0.39913532
   0.73204741  0.46353811  0.19735631
   0.66206105  0.33833921 -0.00789681
   0.36905460  0.72477167  0.60253627
   0.13028149  0.27196074  0.39999802
   0.83346703  0.66289784  0.00278182
   0.93167211  0.88159981  0.81163595
   0.56074789  0.13556752  0.19389783
   0.40980747  0.79010485  0.19728502
   0.44695515  0.85434268  0.79548018
   0.30078525  0.60125637  0.40334632
   0.86071015  0.72711126  0.59962221
   0.46365813  0.92995844  0.40743416
   0.18037612  0.34543820  0.00100155
   0.27337562  0.53611922  0.79696799
   0.20007686  0.39058850  0.59801988
   0.06305871  0.14372212  0.19788410
   0.76926630  0.51972655  0.80235452
   0.69193820  0.40941034  0.60766624
   0.58459438  0.21329802  0.79385393
   0.54265603  0.06994201  0.60856661
   0.33276737  0.65856275 -0.00088601
   0.22942910  0.47188273  0.19818385
Nb - Mo - Ta - Ti - V SQS               
           1
    -3.149177   -3.100800   -3.112093
     1.564839    1.663886   -7.884049
     7.853939   -7.818379   -1.470335
   Nb   Mo   Ta   Ti   V 
   5   6   6   6   6
Direct configuration=     9
   0.95676012  0.93355865  0.39405621
   0.63071726  0.26566774  0.40138576
   0.50690178  0.00268370 -0.00812044
   0.08871657  0.19819858  0.80703950
   0.03449306  0.07062471  0.60123632
   0.90663762  0.79597742  0.19771505
   0.80684241  0.59181788  0.39910138
   0.73191723  0.46323394  0.19771851
   0.66254865  0.33824818 -0.00849828
   0.36843771  0.72467034  0.60240863
   0.13007006  0.27125090  0.40008921
   0.83325434  0.66375036  0.00241734
   0.93312652  0.88255427  0.81237709
   0.56061179  0.13518565  0.19396766
   0.41001997  0.79104683  0.19754612
   0.44674570  0.85460427  0.79581728
   0.30095896  0.60106440  0.40313719
   0.86081582  0.72712782  0.60000811
   0.46334099  0.92965635  0.40753791
   0.18129114  0.34605382  0.00089524
   0.27294467  0.53680103  0.79662671
   0.19979373  0.38991367  0.59819557
   0.06286568  0.14402080  0.19754195
   0.76953486  0.51876799  0.80231991
   0.69143143  0.40948725  0.60833554
   0.58350857  0.21420085  0.79320172
   0.54347481  0.06997814  0.60896609
   0.33260799  0.65790562 -0.00128466
   0.22963058  0.47194882  0.19826138
Nb - Mo - Ta - Ti - V SQS               
           1
    -3.149723   -3.101197   -3.111190
     1.565690    1.666408   -7.884650
     7.849875   -7.814913   -1.468869
   Nb   Mo   Ta   Ti   V 
   5   6   6   6   6
Direct configuration=    10
   0.95661535  0.93348420  0.39393770
   0.63068663  0.26546124  0.40157479
   0.50670964  0.00309063 -0.00813654
   0.08846417  0.19782176  0.80751840
   0.03464069  0.07022388  0.60129474
   0.90680863  0.79607572  0.19746284
   0.80678612  0.59175419  0.39915916
   0.73177473  0.46387389  0.19748150
   0.66316154  0.33812771 -0.00877165
   0.36796685  0.72485214  0.60260472
   0.12992330  0.27102953  0.40021532
   0.83331023  0.66337127  0.00244974
   0.93356091  0.88323322  0.81289615
   0.56074467  0.13478103  0.19376594
   0.41008874  0.79127393  0.19752700
   0.44816732  0.85433682  0.79582202
   0.30079509  0.60082325  0.40290193
   0.86089592  0.72710852  0.60032865
   0.46324832  0.92949277  0.40769839
   0.18183193  0.34658487  0.00070335
   0.27244306  0.53737874  0.79626215
   0.19950900  0.38951643  0.59834512
   0.06250224  0.14427844  0.19730981
   0.76928134  0.51832344  0.80233130
   0.69104596  0.40934536  0.60866042
   0.58287559  0.21469763  0.79264788
   0.54375159  0.07009866  0.60914439
   0.33276523  0.65762568 -0.00145793
   0.22964522  0.47193504  0.19832271
Nb - Mo - Ta - Ti - V SQS               
           1
    -3.151359   -3.102387   -3.108481
     1.568245    1.673973   -7.886452
     7.837684   -7.804516   -1.464473
   Nb   Mo   Ta   Ti   V 
   5   6   6   6   6
Direct configuration=    11
   0.95618101  0.93326081  0.39358194
   0.63059447  0.26484195  0.40214206
   0.50613376  0.00431101 -0.00818474
   0.08770649  0.19669162  0.80895566
   0.03508304  0.06902178  0.60146996
   0.90732176  0.79637051  0.19670588
   0.80661715  0.59156314  0.39933257
   0.73134805  0.46579312  0.19677033
   0.66499997  0.33776657 -0.00959216
   0.36655457  0.72539726  0.60319332
   0.12948276  0.27036558  0.40059374
   0.83347740  0.66223431  0.00254687
   0.93486476  0.88526990  0.81445431
   0.56114280  0.13356749  0.19316037
   0.41029529  0.79195507  0.19746970
   0.45243154  0.85353530  0.79583620
   0.30030326  0.60009982  0.40219574
   0.86113615  0.72705079  0.60129073
   0.46297011  0.92900219  0.40818001
   0.18345486  0.34817779  0.00012758
   0.27093911  0.53911110  0.79516814
   0.19865436  0.38832496  0.59879385
   0.06141237  0.14505091  0.19661313
   0.76852030  0.51699003  0.80236535
   0.68988943  0.40891972  0.60963545
   0.58097746  0.21618713  0.79098570
   0.54458202  0.07046029  0.60967958
   0.33323662  0.65678609 -0.00197809
   0.22968913  0.47189374  0.19850681
Nb - Mo - Ta - Ti - V SQS               
           1
    -3.156491   -3.107407   -3.113397
     1.571199    1.678297   -7.900939
     7.846660   -7.814032   -1.466055
   Nb   Mo   Ta   Ti   V 
   5   6   6   6   6
Direct configuration=    12
   0.95608441  0.93309641  0.39363438
   0.63062515  0.26477666  0.40221915
   0.50563346  0.00486382 -0.00798194
   0.08772763  0.19693806  0.80917533
   0.03503916  0.06896238  0.60130046
   0.90749978  0.79671697  0.19663074
   0.80666561  0.59094176  0.39947595
   0.73148697  0.46587115  0.19667089
   0.66554157  0.33747053 -0.00941463
   0.36681591  0.72548023  0.60322167
   0.12938188  0.27065357  0.40055975
   0.83369538  0.66179351  0.00259009
   0.93535860  0.88511560  0.81482856
   0.56126395  0.13385372  0.19313658
   0.41013797  0.79152953  0.19710672
   0.45316316  0.85341897  0.79576307
   0.29995251  0.60015004  0.40233855
   0.86114322  0.72699256  0.60130777
   0.46310180  0.92893101  0.40833388
   0.18341048  0.34837450  0.00010401
   0.27039807  0.53939797  0.79500497
   0.19834601  0.38844959  0.59883591
   0.06122633  0.14516466  0.19638832
   0.76801999  0.51728999  0.80235050
   0.68982711  0.40850581  0.60943390
   0.58099491  0.21600962  0.79079066
   0.54424398  0.07047503  0.60961288
   0.33351643  0.65700686 -0.00180498
   0.22969856  0.47176948  0.19838687
Nb - Mo - Ta - Ti - V SQS               
           1
    -3.156280   -3.107201   -3.113195
     1.571077    1.678119   -7.900344
     7.846291   -7.813641   -1.465990
   Nb   Mo   Ta   Ti   V 
   5   6   6   6   6
Direct configuration=    13
   0.95608838  0.93310315  0.39363223
   0.63062389  0.26477934  0.40221599
   0.50565398  0.00484115 -0.00799026
   0.08772676  0.19692796  0.80916631
   0.03504096  0.06896482  0.60130742
   0.90749247  0.79670277  0.19663383
   0.80666362  0.59096724  0.39947006
   0.73148127  0.46586795  0.19667497
   0.66551936  0.33748267 -0.00942192
   0.36680519  0.72547683  0.60322050
   0.12938602  0.27064176  0.40056114
   0.83368644  0.66181158  0.00258831
   0.93533835  0.88512193  0.81481320
   0.56125898  0.13384198  0.19313755
   0.41014442  0.79154698  0.19712162
   0.45313315  0.85342374  0.79576607
   0.29996690  0.60014798  0.40233269
   0.86114293  0.72699495  0.60130707
   0.46309640  0.92893393  0.40832756
   0.18341230  0.34836643  0.00010498
   0.27042026  0.53938621  0.79501167
   0.19835866  0.38844448  0.59883418
   0.06123396  0.14516000  0.19639755
   0.76804051  0.51727769  0.80235111
   0.68982966  0.40852278  0.60944218
   0.58099420  0.21601690  0.79079867
   0.54425785  0.07047442  0.60961561
   0.33350495  0.65699781 -0.00181208
   0.22969817  0.47177457  0.19839179
Nb - Mo - Ta - Ti - V SQS               
           1
    -3.155669   -3.106266   -3.112017
     1.570972    1.679893   -7.899832
     7.838761   -7.806589   -1.464035
   Nb   Mo   Ta   Ti   V 
   5   6   6   6   6
Direct configuration=    14
   0.95599560  0.93284454  0.39367952
   0.63063907  0.26471957  0.40229307
   0.50504586  0.00549220 -0.00773125
   0.08776188  0.19724501  0.80936101
   0.03496363  0.06890285  0.60112724
   0.90762279  0.79708756  0.19657284
   0.80674405  0.59018285  0.39962642
   0.73165877  0.46591057  0.19658326
   0.66616750  0.33713400 -0.00914999
   0.36720847  0.72554934  0.60320991
   0.12926463  0.27103728  0.40051965
   0.83383501  0.66147323  0.00264975
   0.93610846  0.88489584  0.81532436
   0.56129839  0.13433331  0.19319241
   0.41007142  0.79090071  0.19670994
   0.45392962  0.85329852  0.79571537
   0.29951433  0.60027762  0.40254378
   0.86115067  0.72689716  0.60127847
   0.46326304  0.92878849  0.40852302
   0.18340725  0.34862848  0.00008643
   0.26969324  0.53977632  0.79481815
   0.19794505  0.38860325  0.59886363
   0.06106335  0.14527169  0.19608995
   0.76737345  0.51767302  0.80231811
   0.68978764  0.40797091  0.60910767
   0.58108334  0.21573879  0.79055514
   0.54377391  0.07047977  0.60946458
   0.33388981  0.65726076 -0.00157923
   0.22973977  0.47162635  0.19824678
Nb - Mo - Ta - Ti - V SQS               
           1
    -3.155122   -3.105430   -3.110965
     1.570877    1.681478   -7.899374
     7.832033   -7.800288   -1.462288
   Nb   Mo   Ta   Ti   V 
   5   6   6   6   6
Direct configuration=    15
   0.95591262  0.93261347  0.39372179
   0.63065262  0.26466617  0.40236200
   0.50450247  0.00607390 -0.00749954
   0.08779333  0.19752831  0.80953517
   0.03489451  0.06884746  0.60096609
   0.90773935  0.79743137  0.19651834
   0.80681576  0.58948201  0.39976619
   0.73181743  0.46594866  0.19650126
   0.66674672  0.33682250 -0.00890681
   0.36756893  0.72561414  0.60320045
   0.12915623  0.27139067  0.40048258
   0.83396771  0.66117093  0.00270466
   0.93679671  0.88469389  0.81578151
   0.56133372  0.13477232  0.19324153
   0.41000603  0.79032324  0.19634168
   0.45464147  0.85318666  0.79567002
   0.29910985  0.60039345  0.40273258
   0.86115758  0.72680978  0.60125289
   0.46341193  0.92865857  0.40869782
   0.18340279  0.34886262  0.00006987
   0.26904352  0.54012485  0.79464511
   0.19757541  0.38874510  0.59888999
   0.06091090  0.14537147  0.19581485
   0.76677733  0.51802622  0.80228862
   0.68974997  0.40747779  0.60880843
   0.58116296  0.21549028  0.79033730
   0.54334138  0.07048452  0.60932950
   0.33423384  0.65749574 -0.00137094
   0.22977692  0.47149390  0.19811707
Nb - Mo - Ta - Ti - V SQS               
           1
    -3.155580   -3.105335   -3.110381
     1.570372    1.682679   -7.898397
     7.826594   -7.795006   -1.460377
   Nb   Mo   Ta   Ti   V 
   5   6   6   6   6
Direct configuration=    16
   0.95597587  0.93252870  0.39370161
   0.63052461  0.26467693  0.40234977
   0.50424161  0.00614739 -0.00744438
   0.08783809  0.19751270  0.80947961
   0.03480368  0.06872883  0.60113290
   0.90757046  0.79750280  0.19636866
   0.80676202  0.58955793  0.39978078
   0.73193933  0.46580763  0.19652878
   0.66709152  0.33656911 -0.00882343
   0.36754894  0.72567142  0.60314894
   0.12916737  0.27121775  0.40044216
   0.83392161  0.66148483  0.00265854
   0.93736297  0.88483638  0.81613180
   0.56111539  0.13500187  0.19341872
   0.41002494  0.79045059  0.19637882
   0.45459800  0.85338685  0.79577053
   0.29902634  0.60031586  0.40267097
   0.86129675  0.72674916  0.60127227
   0.46344069  0.92844138  0.40864514
   0.18363170  0.34901900  0.00006359
   0.26869988  0.54033701  0.79464250
   0.19730038  0.38878855  0.59896135
   0.06101120  0.14521799  0.19550380
   0.76670009  0.51804245  0.80225454
   0.68978708  0.40713824  0.60868613
   0.58121857  0.21535848  0.79024032
   0.54319965  0.07046998  0.60923914
   0.33427821  0.65760285 -0.00135120
   0.22992306  0.47143735  0.19814760
Nb - Mo - Ta - Ti - V SQS               
           1
    -3.156793   -3.105085   -3.108837
     1.569037    1.685854   -7.895815
     7.812221   -7.781047   -1.455328
   Nb   Mo   Ta   Ti   V 
   5   6   6   6   6
Direct configuration=    17
   0.95614298  0.93230467  0.39364822
   0.63018632  0.26470535  0.40231742
   0.50355223  0.00634157 -0.00729851
   0.08795636  0.19747143  0.80933267
   0.03456362  0.06841533  0.60157403
   0.90712415  0.79769150  0.19597284
   0.80662001  0.58975856  0.39981939
   0.73226141  0.46543495  0.19660155
   0.66800266  0.33589952 -0.00860297
   0.36749613  0.72582279  0.60301273
   0.12919677  0.27076072  0.40033519
   0.83379988  0.66231443  0.00253666
   0.93885952  0.88521318  0.81705826
   0.56053851  0.13560856  0.19388737
   0.41007496  0.79078718  0.19647709
   0.45448322  0.85391594  0.79603638
   0.29880560  0.60011077  0.40250801
   0.86166451  0.72658897  0.60132354
   0.46351659  0.92786737  0.40850577
   0.18423669  0.34943232  0.00004707
   0.26779181  0.54089766  0.79463564
   0.19657357  0.38890335  0.59915005
   0.06127617  0.14481230  0.19468117
   0.76649596  0.51808531  0.80216442
   0.68988503  0.40624080  0.60836260
   0.58136548  0.21501013  0.78998384
   0.54282507  0.07043150  0.60900017
   0.33439553  0.65788594 -0.00129895
   0.23030925  0.47128793  0.19822835
Nb - Mo - Ta - Ti - V SQS               
           1
    -3.158124   -3.105940   -3.109420
     1.569048    1.687205   -7.897520
     7.811450   -7.780336   -1.454324
   Nb   Mo   Ta   Ti   V 
   5   6   6   6   6
Direct configuration=    18
   0.95615246  0.93227938  0.39362704
   0.63014001  0.26469362  0.40233934
   0.50335356  0.00640956 -0.00724526
   0.08796424  0.19750082  0.80931835
   0.03452459  0.06833890  0.60163146
   0.90707997  0.79774303  0.19589826
   0.80658243  0.58978156  0.39981769
   0.73232767  0.46540109  0.19659300
   0.66821225  0.33576842 -0.00856725
   0.36745674  0.72584999  0.60300184
   0.12919790  0.27065187  0.40031953
   0.83380225  0.66240204  0.00252040
   0.93907672  0.88532799  0.81726568
   0.56044108  0.13569455  0.19396853
   0.41005106  0.79085022  0.19649398
   0.45457135  0.85400589  0.79606629
   0.29877170  0.60005398  0.40246709
   0.86174062  0.72655641  0.60134860
   0.46353106  0.92775249  0.40848388
   0.18436636  0.34953585  0.00004345
   0.26764698  0.54101207  0.79464100
   0.19641220  0.38892746  0.59917878
   0.06130960  0.14470689  0.19449394
   0.76646182  0.51807360  0.80214495
   0.68990450  0.40607442  0.60830694
   0.58138356  0.21496446  0.78992912
   0.54274583  0.07042451  0.60895491
   0.33441093  0.65796240 -0.00128681
   0.23038057  0.47125654  0.19824526
Nb - Mo - Ta - Ti - V SQS               
           1
    -3.162119   -3.108504   -3.111167
     1.569083    1.691259   -7.902636
     7.809140   -7.778200   -1.451310
   Nb   Mo   Ta   Ti   V 
   5   6   6   6   6
Direct configuration=    19
   0.95618086  0.93220353  0.39356350
   0.63000112  0.26465846  0.40240510
   0.50275776  0.00661344 -0.00708551
   0.08798786  0.19758897  0.80927542
   0.03440752  0.06810968  0.60180375
   0.90694747  0.79789756  0.19567451
   0.80646974  0.58985054  0.39981259
   0.73252637  0.46529956  0.19656735
   0.66884080  0.33537527 -0.00846008
   0.36733860  0.72593156  0.60296918
   0.12920126  0.27032539  0.40027253
   0.83380937  0.66266483  0.00247163
   0.93972815  0.88567242  0.81788804
   0.56014891  0.13595245  0.19421205
   0.40997942  0.79103931  0.19654466
   0.45483568  0.85427568  0.79615603
   0.29867001  0.59988363  0.40234431
   0.86196885  0.72645874  0.60142376
   0.46357443  0.92740793  0.40841819
   0.18475528  0.34984637  0.00003264
   0.26721266  0.54135521  0.79465707
   0.19592825  0.38899977  0.59926498
   0.06140982  0.14439070  0.19393220
   0.76635941  0.51803849  0.80208653
   0.68996284  0.40557539  0.60813989
   0.58143777  0.21482747  0.78976495
   0.54250817  0.07040354  0.60881912
   0.33445713  0.65819171 -0.00125037
   0.23059446  0.47116240  0.19829597
Nb - Mo - Ta - Ti - V SQS               
           1
    -3.162579   -3.108579   -3.111182
     1.568789    1.692072   -7.902916
     7.808328   -7.777450   -1.450271
   Nb   Mo   Ta   Ti   V 
   5   6   6   6   6
Direct configuration=    20
   0.95613171  0.93221264  0.39352898
   0.63002510  0.26462788  0.40245904
   0.50258152  0.00668877 -0.00701726
   0.08797499  0.19767486  0.80929753
   0.03442668  0.06805499  0.60175625
   0.90702415  0.79793663  0.19567699
   0.80646729  0.58978075  0.39979004
   0.73254124  0.46538332  0.19651808
   0.66894672  0.33535334 -0.00845934
   0.36729300  0.72592929  0.60299958
   0.12918379  0.27029779  0.40028175
   0.83384288  0.66253850  0.00249313
   0.93963391  0.88576395  0.81799556
   0.56016092  0.13591876  0.19420124
   0.40995588  0.79100301  0.19651941
   0.45505311  0.85426067  0.79610708
   0.29866095  0.59984345  0.40231899
   0.86196230  0.72645564  0.60145333
   0.46357057  0.92738527  0.40844290
   0.18481660  0.34992658  0.00003763
   0.26726038  0.54140810  0.79466363
   0.19586258  0.38900011  0.59923717
   0.06137353  0.14432251  0.19383388
   0.76635234  0.51799987  0.80208717
   0.68995180  0.40557191  0.60814328
   0.58141809  0.21485526  0.78974606
   0.54247452  0.07041018  0.60882154
   0.33445614  0.65824682 -0.00123295
   0.23059733  0.47114918  0.19829930
Nb - Mo - Ta - Ti - V SQS               
           1
    -3.163959   -3.108801   -3.111228
     1.567907    1.694511   -7.903757
     7.805892   -7.775201   -1.447155
   Nb   Mo   Ta   Ti   V 
   5   6   6   6   6
Direct configuration=    21
   0.95598430  0.93223993  0.39342542
   0.63009704  0.26453617  0.40262090
   0.50205286  0.00691477 -0.00681250
   0.08793638  0.19793249  0.80936390
   0.03448414  0.06789090  0.60161373
   0.90725415  0.79805384  0.19568445
   0.80645994  0.58957137  0.39972237
   0.73258585  0.46563458  0.19637028
   0.66926445  0.33528759 -0.00845714
   0.36715619  0.72592249  0.60309076
   0.12913135  0.27021499  0.40030941
   0.83394338  0.66215954  0.00255759
   0.93935121  0.88603854  0.81831816
   0.56019696  0.13581768  0.19416881
   0.40988525  0.79089410  0.19644363
   0.45570533  0.85421564  0.79596024
   0.29863378  0.59972290  0.40224302
   0.86194265  0.72644635  0.60154205
   0.46355897  0.92731732  0.40851704
   0.18500054  0.35016720  0.00005260
   0.26740355  0.54156675  0.79468335
   0.19566558  0.38900113  0.59915371
   0.06126463  0.14411793  0.19353888
   0.76633112  0.51788401  0.80208907
   0.68991869  0.40556145  0.60815345
   0.58135905  0.21493861  0.78968941
   0.54237360  0.07043010  0.60882879
   0.33445315  0.65841214 -0.00118067
   0.23060592  0.47110951  0.19830929
Nb - Mo - Ta - Ti - V SQS               
           1
    -3.164245   -3.108449   -3.111062
     1.567335    1.695127   -7.903416
     7.805273   -7.774220   -1.445833
   Nb   Mo   Ta   Ti   V 
   5   6   6   6   6
Direct configuration=    22
   0.95594163  0.93221715  0.39341475
   0.63009601  0.26451917  0.40264856
   0.50192342  0.00691112 -0.00678139
   0.08794759  0.19800409  0.80937082
   0.03450645  0.06786528  0.60157854
   0.90730750  0.79805153  0.19569830
   0.80648749  0.58951871  0.39972119
   0.73257021  0.46565268  0.19636381
   0.66928205  0.33531313 -0.00847798
   0.36716452  0.72588368  0.60309534
   0.12913554  0.27022697  0.40030915
   0.83394309  0.66209724  0.00255602
   0.93931035  0.88610471  0.81834620
   0.56024128  0.13577609  0.19414936
   0.40990596  0.79083111  0.19640841
   0.45573179  0.85419598  0.79592110
   0.29863088  0.59971084  0.40223753
   0.86187346  0.72646010  0.60155445
   0.46354025  0.92734196  0.40856192
   0.18503884  0.35019019  0.00006934
   0.26750860  0.54158252  0.79469289
   0.19568365  0.38898196  0.59912630
   0.06123885  0.14407366  0.19349664
   0.76637427  0.51785737  0.80207814
   0.68989380  0.40564509  0.60819525
   0.58131219  0.21500779  0.78968200
   0.54238808  0.07043658  0.60884987
   0.33441480  0.65843701 -0.00116844
   0.23060745  0.47110626  0.19830194
Nb - Mo - Ta - Ti - V SQS               
           1
    -3.165101   -3.107392   -3.110563
     1.565618    1.696977   -7.902394
     7.803418   -7.771274   -1.441868
   Nb   Mo   Ta   Ti   V 
   5   6   6   6   6
Direct configuration=    23
   0.95581363  0.93214881  0.39338271
   0.63009293  0.26446815  0.40273154
   0.50153509  0.00690020 -0.00668808
   0.08798120  0.19821889  0.80939157