  29  29   0   0
  0.1632129E+02  0.5473281E-09  0.8209921E-09  0.1128346E-08  0.5000000E-15
  1.000000000000000E-004
  CAR 
 Nb - Mo - Ta - Ti - V SQS               
     11.56873072    -50.62928250  301      6.40856223      1.00000000
    -50.629  0.0000E+00  0.0000E+00
    -50.422  0.0000E+00  0.0000E+00
    -50.215  0.0000E+00  0.0000E+00
    -50.007  0.0000E+00  0.0000E+00
    -49.800  0.0000E+00  0.0000E+00
    -49.593 -0.6978E-35 -0.1447E-35
    -49.385 -0.2461E-27 -0.5101E-28
    -49.178 -0.9941E-21 -0.2061E-21
    -48.971 -0.4494E-15 -0.9316E-16
    -48.763 -0.2329E-10 -0.4828E-11
    -48.556 -0.1363E-06 -0.2827E-07
    -48.349 -0.8735E-04 -0.1814E-04
    -48.141 -0.5423E-02 -0.1142E-02
    -47.934  0.3413E-02 -0.4349E-03
    -47.727  0.3101E+00  0.6386E-01
    -47.519  0.3681E+00  0.1402E+00
    -47.312  0.2405E+00  0.1900E+00
    -47.105  0.5638E-01  0.2017E+00
    -46.897 -0.7797E-02  0.2001E+00
    -46.690 -0.4764E-03  0.2000E+00
    -46.483 -0.2064E-05  0.2000E+00
    -46.275 -0.9104E-09  0.2000E+00
    -46.068 -0.4388E-13  0.2000E+00
    -45.861  0.0000E+00  0.2000E+00
    -45.653  0.0000E+00  0.2000E+00
    -45.446  0.0000E+00  0.2000E+00
    -45.239  0.0000E+00  0.2000E+00
    -45.031  0.0000E+00  0.2000E+00
    -44.824  0.0000E+00  0.2000E+00
    -44.617  0.0000E+00  0.2000E+00
    -44.409  0.0000E+00  0.2000E+00
    -44.202  0.0000E+00  0.2000E+00
    -43.995  0.0000E+00  0.2000E+00
    -43.788  0.0000E+00  0.2000E+00
    -43.580  0.0000E+00  0.2000E+00
    -43.373  0.0000E+00  0.2000E+00
    -43.166  0.0000E+00  0.2000E+00
    -42.958  0.0000E+00  0.2000E+00
    -42.751  0.0000E+00  0.2000E+00
    -42.544  0.0000E+00  0.2000E+00
    -42.336  0.0000E+00  0.2000E+00
    -42.129  0.0000E+00  0.2000E+00
    -41.922  0.0000E+00  0.2000E+00
    -41.714  0.0000E+00  0.2000E+00
    -41.507  0.0000E+00  0.2000E+00
    -41.300  0.0000E+00  0.2000E+00
    -41.092  0.0000E+00  0.2000E+00
    -40.885  0.0000E+00  0.2000E+00
    -40.678  0.0000E+00  0.2000E+00
    -40.470  0.0000E+00  0.2000E+00
    -40.263  0.0000E+00  0.2000E+00
    -40.056  0.0000E+00  0.2000E+00
    -39.848  0.0000E+00  0.2000E+00
    -39.641  0.0000E+00  0.2000E+00
    -39.434  0.0000E+00  0.2000E+00
    -39.226  0.0000E+00  0.2000E+00
    -39.019  0.0000E+00  0.2000E+00
    -38.812  0.0000E+00  0.2000E+00
    -38.604  0.0000E+00  0.2000E+00
    -38.397  0.0000E+00  0.2000E+00
    -38.190  0.0000E+00  0.2000E+00
    -37.982  0.0000E+00  0.2000E+00
    -37.775  0.0000E+00  0.2000E+00
    -37.568  0.0000E+00  0.2000E+00
    -37.360  0.0000E+00  0.2000E+00
    -37.153  0.0000E+00  0.2000E+00
    -36.946  0.0000E+00  0.2000E+00
    -36.738  0.0000E+00  0.2000E+00
    -36.531  0.0000E+00  0.2000E+00
    -36.324  0.0000E+00  0.2000E+00
    -36.116  0.0000E+00  0.2000E+00
    -35.909  0.0000E+00  0.2000E+00
    -35.702  0.0000E+00  0.2000E+00
    -35.494  0.0000E+00  0.2000E+00
    -35.287  0.0000E+00  0.2000E+00
    -35.080  0.0000E+00  0.2000E+00
    -34.872  0.0000E+00  0.2000E+00
    -34.665  0.0000E+00  0.2000E+00
    -34.458  0.0000E+00  0.2000E+00
    -34.250  0.0000E+00  0.2000E+00
    -34.043  0.0000E+00  0.2000E+00
    -33.836  0.0000E+00  0.2000E+00
    -33.628  0.0000E+00  0.2000E+00
    -33.421  0.0000E+00  0.2000E+00
    -33.214  0.0000E+00  0.2000E+00
    -33.007  0.0000E+00  0.2000E+00
    -32.799  0.0000E+00  0.2000E+00
    -32.592  0.0000E+00  0.2000E+00
    -32.385  0.0000E+00  0.2000E+00
    -32.177  0.0000E+00  0.2000E+00
    -31.970  0.0000E+00  0.2000E+00
    -31.763  0.0000E+00  0.2000E+00
    -31.555  0.0000E+00  0.2000E+00
    -31.348  0.0000E+00  0.2000E+00
    -31.141  0.0000E+00  0.2000E+00
    -30.933  0.0000E+00  0.2000E+00
    -30.726  0.0000E+00  0.2000E+00
    -30.519  0.0000E+00  0.2000E+00
    -30.311  0.0000E+00  0.2000E+00
    -30.104  0.0000E+00  0.2000E+00
    -29.897  0.0000E+00  0.2000E+00
    -29.689  0.0000E+00  0.2000E+00
    -29.482  0.0000E+00  0.2000E+00
    -29.275  0.0000E+00  0.2000E+00
    -29.067  0.0000E+00  0.2000E+00
    -28.860  0.0000E+00  0.2000E+00
    -28.653  0.0000E+00  0.2000E+00
    -28.445  0.0000E+00  0.2000E+00
    -28.238  0.0000E+00  0.2000E+00
    -28.031  0.0000E+00  0.2000E+00
    -27.823  0.0000E+00  0.2000E+00
    -27.616  0.0000E+00  0.2000E+00
    -27.409  0.0000E+00  0.2000E+00
    -27.201  0.0000E+00  0.2000E+00
    -26.994  0.0000E+00  0.2000E+00
    -26.787  0.0000E+00  0.2000E+00
    -26.579  0.0000E+00  0.2000E+00
    -26.372  0.0000E+00  0.2000E+00
    -26.165 -0.1152E-33  0.2000E+00
    -25.957 -0.2318E-26  0.2000E+00
    -25.750 -0.5379E-20  0.2000E+00
    -25.543 -0.1393E-14  0.2000E+00
    -25.335 -0.4235E-10  0.2000E+00
    -25.128 -0.1460E-06  0.2000E+00
    -24.921 -0.5489E-04  0.2000E+00
    -24.713 -0.1821E-02  0.1996E+00
    -24.506  0.5370E-02  0.2007E+00
    -24.299  0.5191E-01  0.2115E+00
    -24.091  0.2699E+00  0.2674E+00
    -23.884  0.8336E+00  0.4403E+00
    -23.677  0.7312E+00  0.5919E+00
    -23.469  0.6521E+00  0.7271E+00
    -23.262  0.2621E+00  0.7814E+00
    -23.055  0.5279E-01  0.7923E+00
    -22.848  0.3888E-01  0.8004E+00
    -22.640 -0.1384E-02  0.8001E+00
    -22.433 -0.5834E-03  0.8000E+00
    -22.226 -0.6502E-05  0.8000E+00
    -22.018 -0.7336E-08  0.8000E+00
    -21.811 -0.9232E-12  0.8000E+00
    -21.604 -0.1224E-16  0.8000E+00
    -21.396  0.0000E+00  0.8000E+00
    -21.189  0.0000E+00  0.8000E+00
    -20.982  0.0000E+00  0.8000E+00
    -20.774  0.0000E+00  0.8000E+00
    -20.567  0.0000E+00  0.8000E+00
    -20.360  0.0000E+00  0.8000E+00
    -20.152  0.0000E+00  0.8000E+00
    -19.945  0.0000E+00  0.8000E+00
    -19.738  0.0000E+00  0.8000E+00
    -19.530  0.0000E+00  0.8000E+00
    -19.323  0.0000E+00  0.8000E+00
    -19.116  0.0000E+00  0.8000E+00
    -18.908  0.0000E+00  0.8000E+00
    -18.701  0.0000E+00  0.8000E+00
    -18.494  0.0000E+00  0.8000E+00
    -18.286  0.0000E+00  0.8000E+00
    -18.079  0.0000E+00  0.8000E+00
    -17.872  0.0000E+00  0.8000E+00
    -17.664  0.0000E+00  0.8000E+00
    -17.457  0.0000E+00  0.8000E+00
    -17.250  0.0000E+00  0.8000E+00
    -17.042  0.0000E+00  0.8000E+00
    -16.835  0.0000E+00  0.8000E+00
    -16.628  0.0000E+00  0.8000E+00
    -16.420  0.0000E+00  0.8000E+00
    -16.213  0.0000E+00  0.8000E+00
    -16.006  0.0000E+00  0.8000E+00
    -15.798  0.0000E+00  0.8000E+00
    -15.591  0.0000E+00  0.8000E+00
    -15.384  0.0000E+00  0.8000E+00
    -15.176  0.0000E+00  0.8000E+00
    -14.969  0.0000E+00  0.8000E+00
    -14.762  0.0000E+00  0.8000E+00
    -14.554  0.0000E+00  0.8000E+00
    -14.347  0.0000E+00  0.8000E+00
    -14.140  0.0000E+00  0.8000E+00
    -13.932  0.0000E+00  0.8000E+00
    -13.725  0.0000E+00  0.8000E+00
    -13.518  0.0000E+00  0.8000E+00
    -13.310  0.0000E+00  0.8000E+00
    -13.103  0.0000E+00  0.8000E+00
    -12.896  0.0000E+00  0.8000E+00
    -12.688  0.0000E+00  0.8000E+00
    -12.481  0.0000E+00  0.8000E+00
    -12.274  0.0000E+00  0.8000E+00
    -12.067  0.0000E+00  0.8000E+00
    -11.859  0.0000E+00  0.8000E+00
    -11.652  0.0000E+00  0.8000E+00
    -11.445  0.0000E+00  0.8000E+00
    -11.237  0.0000E+00  0.8000E+00
    -11.030  0.0000E+00  0.8000E+00
    -10.823  0.0000E+00  0.8000E+00
    -10.615  0.0000E+00  0.8000E+00
    -10.408  0.0000E+00  0.8000E+00
    -10.201  0.0000E+00  0.8000E+00
     -9.993  0.0000E+00  0.8000E+00
     -9.786  0.0000E+00  0.8000E+00
     -9.579  0.0000E+00  0.8000E+00
     -9.371  0.0000E+00  0.8000E+00
     -9.164  0.0000E+00  0.8000E+00
     -8.957  0.0000E+00  0.8000E+00
     -8.749  0.0000E+00  0.8000E+00
     -8.542  0.0000E+00  0.8000E+00
     -8.335  0.0000E+00  0.8000E+00
     -8.127  0.0000E+00  0.8000E+00
     -7.920  0.0000E+00  0.8000E+00
     -7.713  0.0000E+00  0.8000E+00
     -7.505  0.0000E+00  0.8000E+00
     -7.298  0.0000E+00  0.8000E+00
     -7.091  0.0000E+00  0.8000E+00
     -6.883  0.0000E+00  0.8000E+00
     -6.676  0.0000E+00  0.8000E+00
     -6.469  0.0000E+00  0.8000E+00
     -6.261  0.0000E+00  0.8000E+00
     -6.054  0.0000E+00  0.8000E+00
     -5.847  0.0000E+00  0.8000E+00
     -5.639  0.0000E+00  0.8000E+00
     -5.432  0.0000E+00  0.8000E+00
     -5.225  0.0000E+00  0.8000E+00
     -5.017  0.0000E+00  0.8000E+00
     -4.810  0.0000E+00  0.8000E+00
     -4.603  0.0000E+00  0.8000E+00
     -4.395  0.0000E+00  0.8000E+00
     -4.188  0.0000E+00  0.8000E+00
     -3.981  0.0000E+00  0.8000E+00
     -3.773  0.0000E+00  0.8000E+00
     -3.566  0.0000E+00  0.8000E+00
     -3.359  0.0000E+00  0.8000E+00
     -3.151  0.0000E+00  0.8000E+00
     -2.944  0.0000E+00  0.8000E+00
     -2.737  0.0000E+00  0.8000E+00
     -2.529  0.0000E+00  0.8000E+00
     -2.322  0.0000E+00  0.8000E+00
     -2.115 -0.2414E-33  0.8000E+00
     -1.908 -0.2910E-26  0.8000E+00
     -1.700 -0.4096E-20  0.8000E+00
     -1.493 -0.6523E-15  0.8000E+00
     -1.286 -0.1246E-10  0.8000E+00
     -1.078 -0.2793E-07  0.8000E+00
     -0.871 -0.7327E-05  0.8000E+00
     -0.664 -0.2065E-03  0.8000E+00
     -0.456  0.3634E-03  0.8000E+00
     -0.249  0.1039E-01  0.8022E+00
     -0.042  0.2397E-01  0.8072E+00
      0.166  0.2870E-01  0.8131E+00
      0.373  0.4172E-01  0.8218E+00
      0.580  0.3751E-01  0.8295E+00
      0.788  0.4581E-01  0.8390E+00
      0.995  0.6310E-01  0.8521E+00
      1.202  0.6269E-01  0.8651E+00
      1.410  0.6880E-01  0.8794E+00
      1.617  0.8028E-01  0.8960E+00
      1.824  0.1017E+00  0.9171E+00
      2.032  0.1150E+00  0.9409E+00
      2.239  0.1701E+00  0.9762E+00
      2.446  0.2637E+00  0.1031E+01
      2.654  0.3663E+00  0.1107E+01
      2.861  0.4843E+00  0.1207E+01
      3.068  0.5499E+00  0.1321E+01
      3.276  0.5793E+00  0.1441E+01
      3.483  0.6116E+00  0.1568E+01
      3.690  0.6098E+00  0.1695E+01
      3.898  0.6204E+00  0.1823E+01
      4.105  0.6010E+00  0.1948E+01
      4.312  0.5423E+00  0.2060E+01
      4.520  0.5896E+00  0.2182E+01
      4.727  0.6740E+00  0.2322E+01
      4.934  0.7279E+00  0.2473E+01
      5.142  0.8222E+00  0.2644E+01
      5.349  0.8455E+00  0.2819E+01
      5.556  0.8036E+00  0.2985E+01
      5.764  0.8198E+00  0.3155E+01
      5.971  0.8590E+00  0.3334E+01
      6.178  0.8825E+00  0.3517E+01
      6.386  0.8030E+00  0.3683E+01
      6.593  0.6952E+00  0.3827E+01
      6.800  0.5825E+00  0.3948E+01
      7.008  0.4757E+00  0.4047E+01
      7.215  0.3910E+00  0.4128E+01
      7.422  0.3715E+00  0.4205E+01
      7.630  0.3853E+00  0.4285E+01
      7.837  0.4435E+00  0.4376E+01
      8.044  0.5540E+00  0.4491E+01
      8.252  0.6378E+00  0.4624E+01
      8.459  0.5602E+00  0.4740E+01
      8.666  0.2724E+00  0.4796E+01
      8.873  0.2465E-01  0.4801E+01
      9.081 -0.5756E-02  0.4800E+01
      9.288 -0.3502E-03  0.4800E+01
      9.495 -0.2549E-05  0.4800E+01
      9.703 -0.2534E-08  0.4800E+01
      9.910 -0.3316E-12  0.4800E+01
     10.117 -0.4996E-17  0.4800E+01
     10.325  0.0000E+00  0.4800E+01
     10.532  0.0000E+00  0.4800E+01
     10.739  0.0000E+00  0.4800E+01
     10.947  0.0000E+00  0.4800E+01
     11.154  0.0000E+00  0.4800E+01
     11.361  0.0000E+00  0.4800E+01
     11.569  0.0000E+00  0.4800E+01
