   29   29   50    1
  0.1632129E+02  0.5473281E-09  0.8209921E-09  0.1128346E-08  0.5000000E-15
  1.000000000000000E-004
  CAR 
 Nb - Mo - Ta - Ti - V SQS               
    185    172    120
 
  0.0000000E+00  0.0000000E+00  0.0000000E+00  0.2915452E-02
    1      -47.802100   1.000000
    2      -47.736143   1.000000
    3      -47.693004   1.000000
    4      -47.503846   1.000000
    5      -47.351084   1.000000
    6      -24.427347   1.000000
    7      -24.109624   1.000000
    8      -24.054976   1.000000
    9      -23.965417   1.000000
   10      -23.945262   1.000000
   11      -23.933384   1.000000
   12      -23.882228   1.000000
   13      -23.841118   1.000000
   14      -23.762332   1.000000
   15      -23.686918   1.000000
   16      -23.582522   1.000000
   17      -23.558386   1.000000
   18      -23.500314   1.000000
   19      -23.457992   1.000000
   20      -23.007481   1.000000
   21       -0.430585   1.000000
   22        0.895937   1.000000
   23        1.233032   1.000000
   24        2.022022   1.000000
   25        2.159892   1.000000
   26        2.203008   1.000000
   27        2.259510   1.000000
   28        2.491226   1.000000
   29        2.542655   1.000000
   30        2.596121   1.000000
   31        2.701914   1.000000
   32        2.728924   1.000000
   33        2.773481   1.000000
   34        2.816015   1.000000
   35        2.926153   1.000000
   36        3.019609   1.000000
   37        3.050554   1.000000
   38        3.181829   1.000000
   39        3.282794   1.000000
   40        3.326312   1.000000
   41        3.449198   1.000000
   42        3.468662   1.000000
   43        3.562042   1.000000
   44        3.580322   1.000000
   45        3.666562   1.000000
   46        3.722213   1.000000
   47        3.737520   1.000000
   48        3.787803   1.000000
   49        3.916361   1.000000
   50        4.031034   1.000000
   51        4.144520   1.000000
   52        4.253106   1.000000
   53        4.288832   1.000000
   54        4.367336   1.000000
   55        4.430682   1.000000
   56        4.441371   1.000000
   57        4.492021   1.000000
   58        4.575575   1.000000
   59        4.642457   1.000000
   60        4.715235   1.000000
   61        4.801420   1.000000
   62        4.826388   1.000000
   63        4.925972   1.000000
   64        4.941547   1.000000
   65        4.991857   1.000000
   66        5.046181   1.000000
   67        5.062170   1.000000
   68        5.149975   1.000000
   69        5.183374   1.000000
   70        5.226730   1.000000
   71        5.279918   1.000000
   72        5.378780   1.000000
   73        5.422757   1.000000
   74        5.587310   1.000000
   75        5.648405   1.000001
   76        5.690355   1.000002
   77        5.764484   1.000026
   78        5.805481   1.000086
   79        5.902760   1.001016
   80        5.936069   1.002094
   81        5.952646   1.002927
   82        5.993963   1.006270
   83        6.008433   1.007978
   84        6.053778   1.015454
   85        6.088500   1.023051
   86        6.180657   1.034205
   87        6.225827   1.013695
   88        6.240355   0.999814
   89        6.326622   0.816557
   90        6.401140   0.531382
   91        6.436801   0.381823
   92        6.460738   0.287336
   93        6.643973  -0.035084
   94        6.725350  -0.023809
   95        6.781321  -0.012103
   96        6.830882  -0.005483
   97        6.884349  -0.001955
   98        7.027865  -0.000054
   99        7.071619  -0.000014
  100        7.132940  -0.000002
  101        7.264159  -0.000000
  102        7.306760  -0.000000
  103        7.426782  -0.000000
  104        7.582110  -0.000000
  105        7.833909  -0.000000
  106        8.007131  -0.000000
  107        8.081228  -0.000000
  108        8.159398  -0.000000
  109        8.219758  -0.000000
  110        8.305359  -0.000000
  111        8.365121  -0.000000
  112        8.397938  -0.000000
  113        8.447579  -0.000000
  114        8.457972  -0.000000
  115        8.505459  -0.000000
  116        8.546452  -0.000000
  117        8.557640  -0.000000
  118        8.612984  -0.000000
  119        8.667694  -0.000000
  120        8.674618  -0.000000
 
  0.1428571E+00  0.0000000E+00 -0.1561251E-16  0.5830904E-02
    1      -47.801757   1.000000
    2      -47.736010   1.000000
    3      -47.688737   1.000000
    4      -47.503686   1.000000
    5      -47.355739   1.000000
    6      -24.367572   1.000000
    7      -24.110981   1.000000
    8      -24.051911   1.000000
    9      -23.965881   1.000000
   10      -23.948486   1.000000
   11      -23.933582   1.000000
   12      -23.883085   1.000000
   13      -23.836335   1.000000
   14      -23.762959   1.000000
   15      -23.690121   1.000000
   16      -23.581903   1.000000
   17      -23.563129   1.000000
   18      -23.508370   1.000000
   19      -23.454463   1.000000
   20      -23.078198   1.000000
   21       -0.265953   1.000000
   22        1.041054   1.000000
   23        1.373000   1.000000
   24        2.044579   1.000000
   25        2.258227   1.000000
   26        2.343859   1.000000
   27        2.372817   1.000000
   28        2.584126   1.000000
   29        2.621102   1.000000
   30        2.650310   1.000000
   31        2.803473   1.000000
   32        2.845654   1.000000
   33        2.868284   1.000000
   34        2.913189   1.000000
   35        3.021165   1.000000
   36        3.067498   1.000000
   37        3.127431   1.000000
   38        3.226073   1.000000
   39        3.309438   1.000000
   40        3.388226   1.000000
   41        3.462268   1.000000
   42        3.527887   1.000000
   43        3.598628   1.000000
   44        3.659285   1.000000
   45        3.750193   1.000000
   46        3.776067   1.000000
   47        3.821260   1.000000
   48        3.891274   1.000000
   49        3.983835   1.000000
   50        4.052085   1.000000
   51        4.124066   1.000000
   52        4.226624   1.000000
   53        4.315917   1.000000
   54        4.382108   1.000000
   55        4.428554   1.000000
   56        4.486267   1.000000
   57        4.548416   1.000000
   58        4.622860   1.000000
   59        4.677554   1.000000
   60        4.737169   1.000000
   61        4.841711   1.000000
   62        4.881220   1.000000
   63        4.939874   1.000000
   64        5.000876   1.000000
   65        5.011898   1.000000
   66        5.078871   1.000000
   67        5.124224   1.000000
   68        5.169819   1.000000
   69        5.229733   1.000000
   70        5.287362   1.000000
   71        5.338562   1.000000
   72        5.398957   1.000000
   73        5.465419   1.000000
   74        5.511846   1.000000
   75        5.602900   1.000000
   76        5.639396   1.000000
   77        5.708588   1.000004
   78        5.750059   1.000017
   79        5.822035   1.000135
   80        5.855374   1.000325
   81        5.883968   1.000657
   82        5.954803   1.003054
   83        5.995501   1.006437
   84        6.060677   1.016864
   85        6.101422   1.026035
   86        6.158176   1.035348
   87        6.195169   1.030754
   88        6.233047   1.007319
   89        6.299974   0.892765
   90        6.303169   0.884548
   91        6.381409   0.613730
   92        6.413759   0.478018
   93        6.499645   0.155363
   94        6.545217   0.046102
   95        6.663697  -0.035085
   96        6.800097  -0.009144
   97        6.841110  -0.004564
   98        6.920160  -0.000890
   99        6.987812  -0.000165
  100        7.020886  -0.000066
  101        7.100446  -0.000006
  102        7.117657  -0.000003
  103        7.222448  -0.000000
  104        7.449512  -0.000000
  105        7.690691  -0.000000
  106        7.845216  -0.000000
  107        7.892903  -0.000000
  108        7.934803  -0.000000
  109        8.052039  -0.000000
  110        8.066308  -0.000000
  111        8.105168  -0.000000
  112        8.165362  -0.000000
  113        8.199324  -0.000000
  114        8.249639  -0.000000
  115        8.285354  -0.000000
  116        8.380157  -0.000000
  117        8.471766  -0.000000
  118        8.506506  -0.000000
  119        8.538137  -0.000000
  120        8.611418  -0.000000
 
  0.2857143E+00  0.1387779E-16  0.3469447E-17  0.5830904E-02
    1      -47.800986   1.000000
    2      -47.735725   1.000000
    3      -47.678667   1.000000
    4      -47.503328   1.000000
    5      -47.366663   1.000000
    6      -24.208123   1.000000
    7      -24.112781   1.000000
    8      -24.037899   1.000000
    9      -23.967251   1.000000
   10      -23.955236   1.000000
   11      -23.933931   1.000000
   12      -23.885123   1.000000
   13      -23.824895   1.000000
   14      -23.764175   1.000000
   15      -23.697333   1.000000
   16      -23.583721   1.000000
   17      -23.570836   1.000000
   18      -23.525181   1.000000
   19      -23.452042   1.000000
   20      -23.267064   1.000000
   21        0.200821   1.000000
   22        1.427692   1.000000
   23        1.746373   1.000000
   24        2.170629   1.000000
   25        2.417901   1.000000
   26        2.514619   1.000000
   27        2.622602   1.000000
   28        2.704460   1.000000
   29        2.784793   1.000000
   30        2.889263   1.000000
   31        2.984558   1.000000
   32        3.032032   1.000000
   33        3.087282   1.000000
   34        3.175974   1.000000
   35        3.205005   1.000000
   36        3.240046   1.000000
   37        3.289966   1.000000
   38        3.355907   1.000000
   39        3.437068   1.000000
   40        3.514751   1.000000
   41        3.598747   1.000000
   42        3.655189   1.000000
   43        3.736348   1.000000
   44        3.785314   1.000000
   45        3.887316   1.000000
   46        3.975099   1.000000
   47        4.029878   1.000000
   48        4.043513   1.000000
   49        4.109680   1.000000
   50        4.174290   1.000000
   51        4.200647   1.000000
   52        4.268085   1.000000
   53        4.318397   1.000000
   54        4.462978   1.000000
   55        4.510723   1.000000
   56        4.526607   1.000000
   57        4.642186   1.000000
   58        4.654782   1.000000
   59        4.717856   1.000000
   60        4.816125   1.000000
   61        4.869124   1.000000
   62        4.922038   1.000000
   63        5.004012   1.000000
   64        5.021075   1.000000
   65        5.096890   1.000000
   66        5.136049   1.000000
   67        5.184621   1.000000
   68        5.234163   1.000000
   69        5.277357   1.000000
   70        5.330432   1.000000
   71        5.366835   1.000000
   72        5.378597   1.000000
   73        5.478953   1.000000
   74        5.497746   1.000000
   75        5.529348   1.000000
   76        5.602086   1.000000
   77        5.618661   1.000000
   78        5.673355   1.000001
   79        5.718062   1.000006
   80        5.767824   1.000029
   81        5.824501   1.000145
   82        5.887969   1.000722
   83        5.965091   1.003724
   84        6.002519   1.007242
   85        6.060186   1.016761
   86        6.108017   1.027530
   87        6.130870   1.032186
   88        6.182902   1.033829
   89        6.191829   1.031773
   90        6.264840   0.966202
   91        6.291275   0.913835
   92        6.316569   0.847323
   93        6.343446   0.760007
   94        6.418656   0.457349
   95        6.483999   0.204579
   96        6.546116   0.044468
   97        6.635345  -0.034024
   98        6.652691  -0.035455
   99        6.760586  -0.016010
  100        6.795391  -0.009832
  101        6.882763  -0.002021
  102        6.947108  -0.000469
  103        7.125027  -0.000002
  104        7.192453  -0.000000
  105        7.257382  -0.000000
  106        7.369648  -0.000000
  107        7.457263  -0.000000
  108        7.542904  -0.000000
  109        7.610609  -0.000000
  110        7.665522  -0.000000
  111        7.752442  -0.000000
  112        7.826786  -0.000000
  113        7.849121  -0.000000
  114        7.949640  -0.000000
  115        8.021856  -0.000000
  116        8.110820  -0.000000
  117        8.214887  -0.000000
  118        8.298917  -0.000000
  119        8.332024  -0.000000
  120        8.414124  -0.000000
 
  0.4285714E+00  0.5551115E-16 -0.4163336E-16  0.5830904E-02
    1      -47.800366   1.000000
    2      -47.735508   1.000000
    3      -47.670040   1.000000
    4      -47.503046   1.000000
    5      -47.375960   1.000000
    6      -24.124693   1.000000
    7      -24.076313   1.000000
    8      -23.970369   1.000000
    9      -23.959736   1.000000
   10      -23.934444   1.000000
   11      -23.924201   1.000000
   12      -23.886620   1.000000
   13      -23.815783   1.000000
   14      -23.764931   1.000000
   15      -23.706366   1.000000
   16      -23.594663   1.000000
   17      -23.570577   1.000000
   18      -23.549531   1.000000
   19      -23.524335   1.000000
   20      -23.421883   1.000000
   21        0.875684   1.000000
   22        1.638662   1.000000
   23        2.070025   1.000000
   24        2.300112   1.000000
   25        2.363752   1.000000
   26        2.593495   1.000000
   27        2.704058   1.000000
   28        2.823084   1.000000
   29        2.953187   1.000000
   30        3.071400   1.000000
   31        3.102992   1.000000
   32        3.176173   1.000000
   33        3.250001   1.000000
   34        3.308766   1.000000
   35        3.404090   1.000000
   36        3.448474   1.000000
   37        3.479278   1.000000
   38        3.562097   1.000000
   39        3.588567   1.000000
   40        3.663412   1.000000
   41        3.768738   1.000000
   42        3.815803   1.000000
   43        3.876840   1.000000
   44        3.913300   1.000000
   45        3.997674   1.000000
   46        4.032145   1.000000
   47        4.090872   1.000000
   48        4.176991   1.000000
   49        4.232829   1.000000
   50        4.280588   1.000000
   51        4.383929   1.000000
   52        4.401479   1.000000
   53        4.473799   1.000000
   54        4.517167   1.000000
   55        4.545601   1.000000
   56        4.603896   1.000000
   57        4.630711   1.000000
   58        4.692790   1.000000
   59        4.760758   1.000000
   60        4.785707   1.000000
   61        4.855025   1.000000
   62        4.898809   1.000000
   63        4.969759   1.000000
   64        5.008049   1.000000
   65        5.061333   1.000000
   66        5.105722   1.000000
   67        5.148876   1.000000
   68        5.210309   1.000000
   69        5.273595   1.000000
   70        5.301249   1.000000
   71        5.337180   1.000000
   72        5.367056   1.000000
   73        5.422652   1.000000
   74        5.504056   1.000000
   75        5.528962   1.000000
   76        5.571076   1.000000
   77        5.627379   1.000000
   78        5.696445   1.000003
   79        5.723762   1.000007
   80        5.762035   1.000024
   81        5.839654   1.000217
   82        5.890624   1.000768
   83        5.912368   1.001260
   84        5.964776   1.003702
   85        5.986641   1.005522
   86        6.025954   1.010480
   87        6.087345   1.022785
   88        6.127388   1.031555
   89        6.145072   1.034294
   90        6.180549   1.034221
   91        6.226130   1.013447
   92        6.296182   0.902185
   93        6.320776   0.834736
   94        6.368495   0.665825
   95        6.447665   0.337996
   96        6.494012   0.172434
   97        6.538436   0.059060
   98        6.592457  -0.014626
   99        6.656007  -0.035434
  100        6.742753  -0.019830
  101        6.831985  -0.005377
  102        6.859609  -0.003220
  103        6.889544  -0.001752
  104        6.937223  -0.000596
  105        7.048603  -0.000029
  106        7.147594  -0.000001
  107        7.241179  -0.000000
  108        7.370047  -0.000000
  109        7.424057  -0.000000
  110        7.466137  -0.000000
  111        7.524882  -0.000000
  112        7.583645  -0.000000
  113        7.643644  -0.000000
  114        7.835464  -0.000000
  115        7.904032  -0.000000
  116        7.960594  -0.000000
  117        8.029888  -0.000000
  118        8.113338  -0.000000
  119        8.147297  -0.000000
  120        8.194401  -0.000000
 
 -0.6938894E-17  0.1428571E+00  0.1040834E-16  0.5830904E-02
    1      -47.802100   1.000000
    2      -47.736142   1.000000
    3      -47.693002   1.000000
    4      -47.503844   1.000000
    5      -47.351081   1.000000
    6      -24.427353   1.000000
    7      -24.109633   1.000000
    8      -24.055003   1.000000
    9      -23.965456   1.000000
   10      -23.945264   1.000000
   11      -23.933386   1.000000
   12      -23.882229   1.000000
   13      -23.841189   1.000000
   14      -23.762357   1.000000
   15      -23.686960   1.000000
   16      -23.582550   1.000000
   17      -23.558459   1.000000
   18      -23.500334   1.000000
   19      -23.457994   1.000000
   20      -23.007489   1.000000
   21       -0.360767   1.000000
   22        0.924573   1.000000
   23        1.298388   1.000000
   24        1.755217   1.000000
   25        2.140610   1.000000
   26        2.237527   1.000000
   27        2.306619   1.000000
   28        2.475229   1.000000
   29        2.541543   1.000000
   30        2.606278   1.000000
   31        2.724729   1.000000
   32        2.738044   1.000000
   33        2.778563   1.000000
   34        2.816111   1.000000
   35        2.897882   1.000000
   36        2.981918   1.000000
   37        3.119965   1.000000
   38        3.187694   1.000000
   39        3.244689   1.000000
   40        3.304814   1.000000
   41        3.400634   1.000000
   42        3.468831   1.000000
   43        3.550396   1.000000
   44        3.614808   1.000000
   45        3.684750   1.000000
   46        3.734594   1.000000
   47        3.770949   1.000000
   48        3.840587   1.000000
   49        3.946618   1.000000
   50        4.058672   1.000000
   51        4.113441   1.000000
   52        4.186614   1.000000
   53        4.281561   1.000000
   54        4.359638   1.000000
   55        4.430744   1.000000
   56        4.498497   1.000000
   57        4.514962   1.000000
   58        4.625787   1.000000
   59        4.674635   1.000000
   60        4.724834   1.000000
   61        4.843141   1.000000
   62        4.870751   1.000000
   63        4.940219   1.000000
   64        4.970900   1.000000
   65        5.020087   1.000000
   66        5.062913   1.000000
   67        5.098737   1.000000
   68        5.168905   1.000000
   69        5.184348   1.000000
   70        5.228833   1.000000
   71        5.281552   1.000000
   72        5.389883   1.000000
   73        5.433735   1.000000
   74        5.585462   1.000000
   75        5.619835   1.000000
   76        5.668768   1.000001
   77        5.752209   1.000018
   78        5.806714   1.000089
   79        5.854879   1.000321
   80        5.876846   1.000554
   81        5.947565   1.002646
   82        5.984515   1.005318
   83        6.002143   1.007197
   84        6.055313   1.015762
   85        6.084281   1.022079
   86        6.124829   1.031070
   87        6.185155   1.033397
   88        6.238318   1.002016
   89        6.313214   0.857057
   90        6.326045   0.818387
   91        6.423822   0.435636
   92        6.454310   0.311927
   93        6.590941  -0.013403
   94        6.674348  -0.034012
   95        6.736793  -0.021175
   96        6.775640  -0.013108
   97        6.936631  -0.000605
   98        6.968594  -0.000273
   99        7.154014  -0.000001
  100        7.227738  -0.000000
  101        7.271752  -0.000000
  102        7.379359  -0.000000
  103        7.432469  -0.000000
  104        7.587382  -0.000000
  105        7.800821  -0.000000
  106        7.889109  -0.000000
  107        7.989315  -0.000000
  108        8.063458  -0.000000
  109        8.130240  -0.000000
  110        8.203117  -0.000000
  111        8.237436  -0.000000
  112        8.324383  -0.000000
  113        8.334368  -0.000000
  114        8.390981  -0.000000
  115        8.425879  -0.000000
  116        8.471300  -0.000000
  117        8.517452  -0.000000
  118        8.552022  -0.000000
  119        8.589212  -0.000000
  120        8.601478  -0.000000
 
  0.1428571E+00  0.1428571E+00 -0.1387779E-16  0.5830904E-02
    1      -47.801758   1.000000
    2      -47.736011   1.000000
    3      -47.688739   1.000000
    4      -47.503689   1.000000
    5      -47.355742   1.000000
    6      -24.367562   1.000000
    7      -24.110973   1.000000
    8      -24.051894   1.000000
    9      -23.965854   1.000000
   10      -23.948488   1.000000
   11      -23.933583   1.000000
   12      -23.883084   1.000000
   13      -23.836294   1.000000
   14      -23.762935   1.000000
   15      -23.690078   1.000000
   16      -23.581865   1.000000
   17      -23.563070   1.000000
   18      -23.508355   1.000000
   19      -23.454458   1.000000
   20      -23.078192   1.000000
   21       -0.261961   1.000000
   22        1.015505   1.000000
   23        1.398562   1.000000
   24        2.040929   1.000000
   25        2.239286   1.000000
   26        2.330082   1.000000
   27        2.378318   1.000000
   28        2.525578   1.000000
   29        2.586071   1.000000
   30        2.660797   1.000000
   31        2.723833   1.000000
   32        2.801966   1.000000
   33        2.871898   1.000000
   34        2.914368   1.000000
   35        3.015614   1.000000
   36        3.083538   1.000000
   37        3.111414   1.000000
   38        3.254634   1.000000
   39        3.341762   1.000000
   40        3.369193   1.000000
   41        3.415179   1.000000
   42        3.506267   1.000000
   43        3.626304   1.000000
   44        3.667931   1.000000
   45        3.753558   1.000000
   46        3.793354   1.000000
   47        3.823421   1.000000
   48        3.867428   1.000000
   49        4.019577   1.000000
   50        4.068113   1.000000
   51        4.121708   1.000000
   52        4.253931   1.000000
   53        4.356873   1.000000
   54        4.406653   1.000000
   55        4.458807   1.000000
   56        4.513491   1.000000
   57        4.534013   1.000000
   58        4.599484   1.000000
   59        4.664787   1.000000
   60        4.772180   1.000000
   61        4.803487   1.000000
   62        4.879768   1.000000
   63        4.917078   1.000000
   64        4.982739   1.000000
   65        5.006663   1.000000
   66        5.048205   1.000000
   67        5.102354   1.000000
   68        5.127702   1.000000
   69        5.226112   1.000000
   70        5.271797   1.000000
   71        5.285017   1.000000
   72        5.358171   1.000000
   73        5.445457   1.000000
   74        5.523229   1.000000
   75        5.620180   1.000000
   76        5.640435   1.000000
   77        5.702114   1.000004
   78        5.763308   1.000025
   79        5.822356   1.000137
   80        5.865952   1.000424
   81        5.914246   1.001313
   82        5.943271   1.002427
   83        5.966941   1.003856
   84        6.003210   1.007325
   85        6.074912   1.019951
   86        6.157536   1.035321
   87        6.232679   1.007669
   88        6.294233   0.906885
   89        6.321602   0.832217
   90        6.367215   0.670875
   91        6.416855   0.464945
   92        6.468286   0.259345
   93        6.586484  -0.009556
   94        6.627820  -0.032450
   95        6.674185  -0.034033
   96        6.774475  -0.013321
   97        6.874586  -0.002391
   98        6.911150  -0.001093
   99        6.951215  -0.000424
  100        7.058822  -0.000021
  101        7.082962  -0.000010
  102        7.112982  -0.000004
  103        7.190765  -0.000000
  104        7.416897  -0.000000
  105        7.679115  -0.000000
  106        7.740514  -0.000000
  107        7.934263  -0.000000
  108        7.979394  -0.000000
  109        8.088905  -0.000000
  110        8.211049  -0.000000
  111        8.242062  -0.000000
  112        8.295985  -0.000000
  113        8.346604  -0.000000
  114        8.390426  -0.000000
  115        8.426913  -0.000000
  116        8.477049  -0.000000
  117        8.522367  -0.000000
  118        8.589370  -0.000000
  119        8.600614  -0.000000
  120        8.649921  -0.000000
 
  0.2857143E+00  0.1428571E+00  0.2775558E-16  0.5830904E-02
    1      -47.800987   1.000000
    2      -47.735728   1.000000
    3      -47.678672   1.000000
    4      -47.503334   1.000000
    5      -47.366668   1.000000
    6      -24.208103   1.000000
    7      -24.112758   1.000000
    8      -24.037858   1.000000
    9      -23.967185   1.000000
   10      -23.955233   1.000000
   11      -23.933933   1.000000
   12      -23.885118   1.000000
   13      -23.824786   1.000000
   14      -23.764116   1.000000
   15      -23.697231   1.000000
   16      -23.583608   1.000000
   17      -23.570733   1.000000
   18      -23.525146   1.000000
   19      -23.452030   1.000000
   20      -23.267049   1.000000
   21        0.144960   1.000000
   22        1.345665   1.000000
   23        1.728388   1.000000
   24        2.271839   1.000000
   25        2.339549   1.000000
   26        2.515241   1.000000
   27        2.632021   1.000000
   28        2.712906   1.000000
   29        2.757199   1.000000
   30        2.850116   1.000000
   31        2.942841   1.000000
   32        2.987432   1.000000
   33        3.075653   1.000000
   34        3.152409   1.000000
   35        3.202768   1.000000
   36        3.262020   1.000000
   37        3.326208   1.000000
   38        3.348328   1.000000
   39        3.455904   1.000000
   40        3.499603   1.000000
   41        3.571400   1.000000
   42        3.659342   1.000000
   43        3.785159   1.000000
   44        3.842686   1.000000
   45        3.888036   1.000000
   46        3.940879   1.000000
   47        3.954493   1.000000
   48        4.030027   1.000000
   49        4.084900   1.000000
   50        4.131479   1.000000
   51        4.180405   1.000000
   52        4.246380   1.000000
   53        4.411358   1.000000
   54        4.474435   1.000000
   55        4.523272   1.000000
   56        4.557055   1.000000
   57        4.645252   1.000000
   58        4.687732   1.000000
   59        4.732115   1.000000
   60        4.801525   1.000000
   61        4.866720   1.000000
   62        4.880432   1.000000
   63        4.952489   1.000000
   64        5.003444   1.000000
   65        5.082199   1.000000
   66        5.110621   1.000000
   67        5.175457   1.000000
   68        5.180881   1.000000
   69        5.259481   1.000000
   70        5.276561   1.000000
   71        5.306784   1.000000
   72        5.388468   1.000000
   73        5.433909   1.000000
   74        5.506487   1.000000
   75        5.566162   1.000000
   76        5.633946   1.000000
   77        5.674711   1.000001
   78        5.731864   1.000009
   79        5.769378   1.000030
   80        5.828147   1.000160
   81        5.855014   1.000322
   82        5.894817   1.000847
   83        5.940661   1.002301
   84        5.986300   1.005489
   85        6.049845   1.014679
   86        6.069692   1.018794
   87        6.114306   1.028911
   88        6.157363   1.035314
   89        6.182443   1.033911
   90        6.237660   1.002709
   91        6.292082   0.911962
   92        6.332591   0.797191
   93        6.374546   0.641653
   94        6.415176   0.472031
   95        6.489986   0.185086
   96        6.534653   0.066787
   97        6.602240  -0.021528
   98        6.668115  -0.034715
   99        6.699726  -0.029569
  100        6.764555  -0.015213
  101        6.805237  -0.008433
  102        6.953616  -0.000399
  103        7.131687  -0.000002
  104        7.255508  -0.000000
  105        7.392786  -0.000000
  106        7.458726  -0.000000
  107        7.507548  -0.000000
  108        7.667537  -0.000000
  109        7.848946  -0.000000
  110        7.899247  -0.000000
  111        7.948429  -0.000000
  112        8.017894  -0.000000
  113        8.074409  -0.000000
  114        8.143101  -0.000000
  115        8.192228  -0.000000
  116        8.281251  -0.000000
  117        8.299716  -0.000000
  118        8.357658  -0.000000
  119        8.418342  -0.000000
  120        8.463826  -0.000000
 
  0.4285714E+00  0.1428571E+00 -0.2081668E-16  0.5830904E-02
    1      -47.800367   1.000000
    2      -47.735511   1.000000
    3      -47.670043   1.000000
    4      -47.503051   1.000000
    5      -47.375965   1.000000
    6      -24.124680   1.000000
    7      -24.076283   1.000000
    8      -23.970324   1.000000
    9      -23.959725   1.000000
   10      -23.934444   1.000000
   11      -23.924177   1.000000
   12      -23.886617   1.000000
   13      -23.815694   1.000000
   14      -23.764885   1.000000
   15      -23.706281   1.000000
   16      -23.594541   1.000000
   17      -23.570532   1.000000
   18      -23.549504   1.000000
   19      -23.524317   1.000000
   20      -23.421872   1.000000
   21        0.789949   1.000000
   22        1.663001   1.000000
   23        2.003924   1.000000
   24        2.243631   1.000000
   25        2.340538   1.000000
   26        2.444391   1.000000
   27        2.757516   1.000000
   28        2.949160   1.000000
   29        2.992003   1.000000
   30        3.054663   1.000000
   31        3.145620   1.000000
   32        3.172862   1.000000
   33        3.266923   1.000000
   34        3.349350   1.000000
   35        3.388785   1.000000
   36        3.452109   1.000000
   37        3.492442   1.000000
   38        3.536077   1.000000
   39        3.620082   1.000000
   40        3.676003   1.000000
   41        3.746676   1.000000
   42        3.766686   1.000000
   43        3.834833   1.000000
   44        3.923537   1.000000
   45        3.964833   1.000000
   46        4.002238   1.000000
   47        4.082102   1.000000