       N       E                     dE             d eps       ncg     rms          rms(c)
DAV:   1    -0.415063052834E+04   -0.41506E+04   -0.15147E+05 59388   0.191E+03
DAV:   2    -0.952732582862E+04   -0.53767E+04   -0.51744E+04 66096   0.106E+03
DAV:   3    -0.106069718598E+05   -0.10796E+04   -0.10207E+04 80592   0.498E+02
DAV:   4    -0.109851580217E+05   -0.37819E+03   -0.34451E+03 82548   0.247E+02
DAV:   5    -0.111892427617E+05   -0.20408E+03   -0.18596E+03 82560   0.187E+02    0.837E+03
DAV:   6    -0.974719271437E+03    0.10215E+05   -0.45173E+04 70620   0.717E+02    0.371E+03
DAV:   7    -0.938911808223E+03    0.35807E+02   -0.23946E+04 74892   0.798E+02    0.267E+03
DAV:   8    -0.604596846462E+03    0.33431E+03   -0.56716E+03 68952   0.299E+02    0.238E+03
DAV:   9    -0.532947974362E+03    0.71649E+02   -0.10110E+03 72456   0.124E+02    0.227E+03
DAV:  10    -0.565498549078E+03   -0.32551E+02   -0.17732E+02 80988   0.414E+01    0.228E+03
DAV:  11    -0.696849936062E+03   -0.13135E+03   -0.25068E+02 76824   0.652E+01    0.223E+03
DAV:  12    -0.838330829241E+03   -0.14148E+03   -0.35739E+02 79764   0.659E+01    0.206E+03
DAV:  13    -0.842469383099E+03   -0.41386E+01   -0.13459E+02 67992   0.495E+01    0.197E+03
DAV:  14    -0.799226068062E+03    0.43243E+02   -0.23471E+01 78192   0.197E+01    0.199E+03
DAV:  15    -0.305041194496E+04   -0.22512E+04   -0.86963E+03 76248   0.342E+02    0.497E+03
DAV:  16    -0.371493382763E+04   -0.66452E+03   -0.43217E+03 82548   0.260E+02    0.570E+03
DAV:  17    -0.382878353266E+04   -0.11385E+03   -0.97788E+02 82524   0.132E+02    0.547E+03
DAV:  18    -0.574907137307E+04   -0.19203E+04   -0.24297E+03 64764   0.409E+02    0.987E+03
DAV:  19    -0.531455709372E+07   -0.53088E+07   -0.49706E+07 78456   0.347E+05    0.165E+04
DAV:  20    -0.178106210407E+04    0.53128E+07   -0.40745E+04 72576   0.820E+02    0.481E+03
DAV:  21    -0.170978666432E+04    0.71275E+02   -0.15935E+04 69240   0.530E+02    0.243E+03
DAV:  22    -0.239573351902E+04   -0.68595E+03   -0.54192E+03 81108   0.258E+02    0.316E+03
DAV:  23    -0.251066749237E+04   -0.11493E+03   -0.13924E+03 81888   0.131E+02    0.331E+03
DAV:  24    -0.298690480071E+04   -0.47624E+03   -0.12796E+03 69960   0.129E+02    0.414E+03
DAV:  25    -0.650342089911E+04   -0.35165E+04   -0.78499E+03 68856   0.604E+02    0.789E+03
DAV:  26    -0.330879722434E+04    0.31946E+04   -0.32358E+03 59112   0.178E+02    0.418E+03
DAV:  27    -0.253176135950E+04    0.77704E+03   -0.12783E+05 41280   0.663E+03    0.415E+03
DAV:  28    -0.191928273088E+04    0.61248E+03   -0.12718E+03 58860   0.160E+02    0.266E+03
DAV:  29    -0.155061634865E+04    0.36867E+03   -0.75062E+06 41280   0.567E+05    0.284E+03
DAV:  30    -0.142044370855E+04    0.13017E+03   -0.17450E+03 50640   0.152E+02    0.105E+03
DAV:  31    -0.221806968843E+04   -0.79763E+03   -0.33620E+02 57432   0.206E+02    0.303E+03
DAV:  32    -0.182005684373E+04    0.39801E+03   -0.13219E+04 43344   0.179E+03    0.102E+03
DAV:  33    -0.222879886712E+04   -0.40874E+03   -0.25716E+03 68436   0.183E+02    0.308E+03
DAV:  34    -0.201627558959E+04    0.21252E+03   -0.24389E+03 62340   0.203E+02    0.236E+03
DAV:  35    -0.155834677594E+04    0.45793E+03   -0.86946E+02 68940   0.139E+02    0.174E+03
DAV:  36    -0.787352638843E+06   -0.78579E+06   -0.62274E+06 74352   0.887E+04    0.163E+04
DAV:  37    -0.212324755561E+03    0.78714E+06   -0.27932E+04 61764   0.536E+02    0.981E+02
DAV:  38    -0.612945874119E+03   -0.40062E+03   -0.77189E+03 61524   0.402E+02    0.795E+02
DAV:  39    -0.788988959610E+03   -0.17604E+03   -0.21766E+03 63924   0.225E+02    0.700E+02
DAV:  40    -0.706023354086E+03    0.82966E+02   -0.67793E+02 74592   0.148E+02    0.706E+02
DAV:  41    -0.678502152012E+03    0.27521E+02   -0.23034E+02 73044   0.628E+01    0.748E+02
DAV:  42    -0.722350477733E+03   -0.43848E+02   -0.10115E+02 75444   0.399E+01    0.828E+02
DAV:  43    -0.921994585825E+03   -0.19964E+03   -0.24070E+02 65532   0.591E+01    0.105E+03
DAV:  44    -0.107074388893E+04   -0.14875E+03   -0.19412E+02 75012   0.478E+01    0.107E+03
DAV:  45    -0.664725317258E+03    0.40602E+03   -0.15458E+03 49440   0.139E+02    0.105E+03
DAV:  46    -0.762455787200E+03   -0.97730E+02   -0.16853E+02 62136   0.468E+01    0.965E+02
DAV:  47    -0.746703129744E+03    0.15753E+02   -0.24430E+01 79152   0.215E+01    0.903E+02
DAV:  48    -0.795975018437E+03   -0.49272E+02   -0.90184E+01 65880   0.383E+01    0.886E+02
DAV:  49    -0.661361239965E+03    0.13461E+03   -0.11916E+02 64692   0.432E+01    0.763E+02
DAV:  50    -0.582107417676E+03    0.79254E+02   -0.91260E+01 75024   0.344E+01    0.674E+02
DAV:  51    -0.520491790864E+03    0.61616E+02   -0.22029E+03 66072   0.157E+02    0.471E+02
DAV:  52    -0.462407991786E+03    0.58084E+02   -0.42383E+02 73500   0.953E+01    0.494E+02
DAV:  53    -0.425573702325E+03    0.36834E+02   -0.12680E+02 71616   0.447E+01    0.577E+02
DAV:  54    -0.396836208989E+03    0.28737E+02   -0.60940E+01 73656   0.334E+01    0.583E+02
DAV:  55    -0.371227811627E+03    0.25608E+02   -0.49917E+01 74820   0.250E+01    0.609E+02
DAV:  56    -0.335541885453E+03    0.35686E+02   -0.34858E+02 79716   0.726E+01    0.426E+02
DAV:  57    -0.318308121924E+03    0.17234E+02   -0.21678E+02 72864   0.694E+01    0.367E+02
DAV:  58    -0.313818243282E+03    0.44899E+01   -0.71812E+01 74892   0.301E+01    0.319E+02
DAV:  59    -0.309500388227E+03    0.43179E+01   -0.25845E+01 72168   0.200E+01    0.255E+02
DAV:  60    -0.307890940612E+03    0.16094E+01   -0.16936E+01 68640   0.169E+01
   1 F= -.30789094E+03 E0= -.30788445E+03  d E =-.307891E+03
       N       E                     dE             d eps       ncg     rms          rms(c)
DAV:   1    -0.333033378679E+03   -0.23533E+02   -0.12706E+03 56940   0.147E+02    0.149E+02
DAV:   2    -0.375292246468E+03   -0.42259E+02   -0.74187E+02 82476   0.981E+01    0.130E+02
DAV:   3    -0.362695794219E+03    0.12596E+02   -0.21110E+03 81828   0.209E+02    0.897E+01
DAV:   4    -0.425673932193E+03   -0.62978E+02   -0.13317E+03 72576   0.220E+02    0.583E+01
DAV:   5    -0.344956513154E+03    0.80717E+02   -0.28150E+02 69576   0.759E+01    0.398E+01
DAV:   6    -0.323701554617E+03    0.21255E+02   -0.11822E+02 73656   0.470E+01    0.334E+01
DAV:   7    -0.313250273715E+03    0.10451E+02   -0.44951E+01 80052   0.232E+01    0.296E+01
DAV:   8    -0.309125999958E+03    0.41243E+01   -0.33929E+01 68712   0.280E+01    0.263E+01
DAV:   9    -0.306823064959E+03    0.23029E+01   -0.91949E+00 76680   0.125E+01    0.235E+01
DAV:  10    -0.304988987697E+03    0.18341E+01   -0.32552E+00 73104   0.693E+00    0.212E+01
DAV:  11    -0.303826855816E+03    0.11621E+01   -0.69616E+00 68484   0.105E+01    0.202E+01
DAV:  12    -0.302458732559E+03    0.13681E+01   -0.89999E+00 73464   0.113E+01    0.172E+01
DAV:  13    -0.300706620777E+03    0.17521E+01   -0.78352E+00 72564   0.949E+00    0.129E+01
DAV:  14    -0.300233442909E+03    0.47318E+00   -0.41834E+00 77568   0.733E+00    0.112E+01
DAV:  15    -0.299669041660E+03    0.56440E+00   -0.13255E+00 72780   0.436E+00    0.837E+00
DAV:  16    -0.299304913851E+03    0.36413E+00   -0.20470E+00 66120   0.616E+00    0.493E+00
DAV:  17    -0.299179208606E+03    0.12571E+00   -0.96859E-01 73272   0.345E+00    0.301E+00
DAV:  18    -0.299103853129E+03    0.75355E-01   -0.54163E-01 71976   0.312E+00    0.181E+00
DAV:  19    -0.299105996975E+03   -0.21438E-02   -0.31718E-01 72240   0.227E+00    0.165E+00
DAV:  20    -0.299095990069E+03    0.10007E-01   -0.25209E-01 74232   0.201E+00    0.133E+00
DAV:  21    -0.299088587040E+03    0.74030E-02   -0.10525E-01 69324   0.118E+00    0.911E-01
DAV:  22    -0.299081745710E+03    0.68413E-02   -0.57534E-02 75456   0.874E-01    0.506E-01
DAV:  23    -0.299080486934E+03    0.12588E-02   -0.24295E-02 74460   0.481E-01    0.298E-01
DAV:  24    -0.299080082875E+03    0.40406E-03   -0.61063E-03 68772   0.230E-01    0.239E-01
DAV:  25    -0.299079608439E+03    0.47444E-03   -0.39289E-03 67992   0.225E-01    0.138E-01
DAV:  26    -0.299079544278E+03    0.64161E-04   -0.10103E-03 57732   0.102E-01    0.987E-02
DAV:  27    -0.299079500790E+03    0.43487E-04   -0.84092E-04 52344   0.113E-01
   2 F= -.29907950E+03 E0= -.29907653E+03  d E =0.881144E+01
       N       E                     dE             d eps       ncg     rms          rms(c)
DAV:   1    -0.308477520024E+03   -0.93980E+01   -0.30872E+02 53556   0.743E+01    0.189E+01
DAV:   2    -0.309362644378E+03   -0.88512E+00   -0.69893E+01 74268   0.361E+01    0.153E+01
DAV:   3    -0.306975115148E+03    0.23875E+01   -0.53890E+01 72072   0.286E+01    0.157E+01
DAV:   4    -0.305136715468E+03    0.18384E+01   -0.25620E+01 72744   0.199E+01    0.130E+01
DAV:   5    -0.304639525742E+03    0.49719E+00   -0.22635E+01 77160   0.200E+01    0.114E+01
DAV:   6    -0.304028545719E+03    0.61098E+00   -0.13185E+01 69792   0.171E+01    0.677E+00
DAV:   7    -0.303570278149E+03    0.45827E+00   -0.28569E+00 79044   0.644E+00    0.316E+00
DAV:   8    -0.303601523658E+03   -0.31246E-01   -0.17183E+00 76560   0.529E+00    0.373E+00
DAV:   9    -0.303517619119E+03    0.83905E-01   -0.97184E-01 74280   0.448E+00    0.196E+00
DAV:  10    -0.303512305381E+03    0.53137E-02   -0.29115E-01 77472   0.213E+00    0.157E+00
DAV:  11    -0.303513235883E+03   -0.93050E-03   -0.19641E-01 75972   0.177E+00    0.126E+00
DAV:  12    -0.303527179181E+03   -0.13943E-01   -0.18286E-01 74304   0.185E+00    0.133E+00
DAV:  13    -0.303518511883E+03    0.86673E-02   -0.12348E-01 78888   0.136E+00    0.533E-01
DAV:  14    -0.303519746691E+03   -0.12348E-02   -0.45197E-02 78888   0.628E-01    0.434E-01
DAV:  15    -0.303520936529E+03   -0.11898E-02   -0.33621E-02 75456   0.694E-01    0.472E-01
DAV:  16    -0.303519685855E+03    0.12507E-02   -0.15805E-02 71580   0.575E-01    0.246E-01
DAV:  17    -0.303519203971E+03    0.48188E-03   -0.60111E-03 71196   0.281E-01    0.122E-01
DAV:  18    -0.303519215379E+03   -0.11408E-04   -0.18063E-03 66300   0.150E-01    0.108E-01
DAV:  19    -0.303519219494E+03   -0.41147E-05   -0.12676E-03 56388   0.160E-01    0.102E-01
DAV:  20    -0.303519158399E+03    0.61095E-04   -0.61883E-04 44040   0.138E-01
   3 F= -.30351916E+03 E0= -.30351245E+03  d E =0.437178E+01
       N       E                     dE             d eps       ncg     rms          rms(c)
DAV:   1    -0.305154573119E+03   -0.16354E+01   -0.41154E+01 54240   0.275E+01    0.691E+00
DAV:   2    -0.305297957005E+03   -0.14338E+00   -0.92943E+00 75180   0.131E+01    0.605E+00
DAV:   3    -0.304979394696E+03    0.31856E+00   -0.81524E+00 73296   0.994E+00    0.603E+00
DAV:   4    -0.304808034420E+03    0.17136E+00   -0.43878E+00 71496   0.864E+00    0.508E+00
DAV:   5    -0.304653388774E+03    0.15465E+00   -0.29133E+00 77016   0.770E+00    0.372E+00
DAV:   6    -0.304589048123E+03    0.64341E-01   -0.16262E+00 70176   0.536E+00    0.275E+00
DAV:   7    -0.304520915252E+03    0.68133E-01   -0.53435E-01 75360   0.279E+00    0.120E+00
DAV:   8    -0.304525964956E+03   -0.50497E-02   -0.25654E-01 75120   0.207E+00    0.135E+00
DAV:   9    -0.304514407599E+03    0.11557E-01   -0.12252E-01 72720   0.161E+00    0.704E-01
DAV:  10    -0.304512097778E+03    0.23098E-02   -0.31560E-02 76140   0.709E-01    0.505E-01
DAV:  11    -0.304512427661E+03   -0.32988E-03   -0.12639E-02 70296   0.439E-01    0.407E-01
DAV:  12    -0.304514848723E+03   -0.24211E-02   -0.16117E-02 73020   0.562E-01    0.467E-01
DAV:  13    -0.304514799450E+03    0.49274E-04   -0.15840E-02 79908   0.503E-01    0.209E-01
DAV:  14    -0.304514749332E+03    0.50118E-04   -0.85529E-03 76788   0.291E-01    0.155E-01
DAV:  15    -0.304514637225E+03    0.11211E-03   -0.41420E-03 73884   0.240E-01    0.125E-01
DAV:  16    -0.304514545701E+03    0.91524E-04   -0.13957E-03 56832   0.179E-01    0.782E-02
DAV:  17    -0.304514460651E+03    0.85049E-04   -0.32091E-04 37644   0.894E-02
   4 F= -.30451446E+03 E0= -.30450799E+03  d E =0.337648E+01
       N       E                     dE             d eps       ncg     rms          rms(c)
DAV:   1    -0.305461946959E+03   -0.94740E+00   -0.27653E+01 54480   0.227E+01    0.575E+00
DAV:   2    -0.305549866434E+03   -0.87919E-01   -0.61039E+00 75036   0.107E+01    0.492E+00
DAV:   3    -0.305341370502E+03    0.20850E+00   -0.53352E+00 73308   0.805E+00    0.479E+00
DAV:   4    -0.305263599734E+03    0.77771E-01   -0.29878E+00 70020   0.739E+00    0.441E+00
DAV:   5    -0.305128272910E+03    0.13533E+00   -0.20052E+00 75336   0.641E+00    0.291E+00
DAV:   6    -0.305093495640E+03    0.34777E-01   -0.10710E+00 69852   0.435E+00    0.227E+00
DAV:   7    -0.305047576301E+03    0.45919E-01   -0.35571E-01 73416   0.239E+00    0.965E-01
DAV:   8    -0.305050319902E+03   -0.27436E-02   -0.16656E-01 73908   0.170E+00    0.105E+00
DAV:   9    -0.305043141654E+03    0.71782E-02   -0.72733E-02 72180   0.126E+00    0.566E-01
DAV:  10    -0.305041831099E+03    0.13106E-02   -0.17441E-02 74664   0.548E-01    0.422E-01
DAV:  11    -0.305042087461E+03   -0.25636E-03   -0.63890E-03 69144   0.324E-01    0.345E-01
DAV:  12    -0.305043851091E+03   -0.17636E-02   -0.94688E-03 74568   0.433E-01    0.370E-01
DAV:  13    -0.305044039445E+03   -0.18835E-03   -0.11192E-02 79944   0.420E-01    0.174E-01
DAV:  14    -0.305043848609E+03    0.19084E-03   -0.61437E-03 76692   0.248E-01    0.111E-01
DAV:  15    -0.305043739452E+03    0.10916E-03   -0.23447E-03 68184   0.155E-01    0.692E-02
DAV:  16    -0.305043714985E+03    0.24466E-04   -0.62627E-04 45552   0.127E-01
   5 F= -.30504371E+03 E0= -.30503785E+03  d E =0.284723E+01
       N       E                     dE             d eps       ncg     rms          rms(c)
DAV:   1    -0.305307705389E+03   -0.26397E+00   -0.69929E+00 54780   0.115E+01    0.290E+00
DAV:   2    -0.305328601359E+03   -0.20896E-01   -0.15154E+00 75228   0.535E+00    0.250E+00
DAV:   3    -0.305278654697E+03    0.49947E-01   -0.13586E+00 72888   0.404E+00    0.237E+00
DAV:   4    -0.305264029436E+03    0.14625E-01   -0.76840E-01 69888   0.387E+00    0.224E+00
DAV:   5    -0.305224395685E+03    0.39634E-01   -0.48875E-01 74868   0.317E+00    0.139E+00
DAV:   6    -0.305216905351E+03    0.74903E-02   -0.25946E-01 70284   0.211E+00    0.115E+00
DAV:   7    -0.305205737413E+03    0.11168E-01   -0.94885E-02 72492   0.127E+00    0.493E-01
DAV:   8    -0.305206158305E+03   -0.42089E-03   -0.40793E-02 73236   0.845E-01    0.508E-01
DAV:   9    -0.305204510485E+03    0.16478E-02   -0.16606E-02 68172   0.607E-01    0.282E-01
DAV:  10    -0.305204181557E+03    0.32893E-03   -0.38756E-03 67596   0.265E-01    0.212E-01
DAV:  11    -0.305204252929E+03   -0.71372E-04   -0.11897E-03 58044   0.150E-01    0.178E-01
DAV:  12    -0.305204702479E+03   -0.44955E-03   -0.21132E-03 65676   0.212E-01    0.180E-01
DAV:  13    -0.305204832578E+03   -0.13010E-03   -0.29487E-03 77160   0.219E-01    0.895E-02
DAV:  14    -0.305204772448E+03    0.60129E-04   -0.16147E-03 66144   0.136E-01    0.603E-02
DAV:  15    -0.305204726554E+03    0.45895E-04   -0.45834E-04 43788   0.855E-02
   6 F= -.30520473E+03 E0= -.30519911E+03  d E =0.268621E+01
       N       E                     dE             d eps       ncg     rms          rms(c)
DAV:   1    -0.305283411973E+03   -0.78640E-01   -0.17569E+00 54804   0.578E+00    0.146E+00
DAV:   2    -0.305288361811E+03   -0.49498E-02   -0.37655E-01 75240   0.268E+00    0.126E+00
DAV:   3    -0.305276551472E+03    0.11810E-01   -0.34705E-01 71928   0.205E+00    0.121E+00
DAV:   4    -0.305273115299E+03    0.34362E-02   -0.20148E-01 69432   0.202E+00    0.112E+00
DAV:   5    -0.305262159653E+03    0.10956E-01   -0.11682E-01 76296   0.154E+00    0.635E-01
DAV:   6    -0.305260542344E+03    0.16173E-02   -0.58671E-02 71388   0.101E+00    0.559E-01
DAV:   7    -0.305258006156E+03    0.25362E-02   -0.24590E-02 72144   0.663E-01    0.254E-01
DAV:   8    -0.305258054381E+03   -0.48225E-04   -0.98695E-03 70632   0.415E-01    0.249E-01
DAV:   9    -0.305257686325E+03    0.36806E-03   -0.40973E-03 65124   0.303E-01    0.146E-01
DAV:  10    -0.305257589188E+03    0.97137E-04   -0.95755E-04 53244   0.146E-01
   7 F= -.30525759E+03 E0= -.30525203E+03  d E =0.263335E+01
       N       E                     dE             d eps       ncg     rms          rms(c)
DAV:   1    -0.305282974415E+03   -0.25288E-01   -0.44264E-01 55056   0.289E+00    0.711E-01
DAV:   2    -0.305284395765E+03   -0.14214E-02   -0.89606E-02 75204   0.136E+00    0.658E-01
DAV:   3    -0.305282152103E+03    0.22437E-02   -0.87514E-02 72984   0.116E+00    0.651E-01
DAV:   4    -0.305280301842E+03    0.18503E-02   -0.46729E-02 65424   0.104E+00    0.511E-01
DAV:   5    -0.305277890032E+03    0.24118E-02   -0.25938E-02 74448   0.714E-01    0.290E-01
DAV:   6    -0.305277667839E+03    0.22219E-03   -0.13568E-02 68388   0.487E-01    0.273E-01
DAV:   7    -0.305277145068E+03    0.52277E-03   -0.56324E-03 69456   0.318E-01    0.139E-01
DAV:   8    -0.305277135671E+03    0.93964E-05   -0.21721E-03 64716   0.198E-01    0.124E-01
DAV:   9    -0.305277061875E+03    0.73796E-04   -0.65186E-04 45564   0.130E-01
   8 F= -.30527706E+03 E0= -.30527154E+03  d E =0.261388E+01
       N       E                     dE             d eps       ncg     rms          rms(c)
DAV:   1    -0.305286341271E+03   -0.92056E-02   -0.11080E-01 55776   0.145E+00    0.348E-01
DAV:   2    -0.305286814261E+03   -0.47299E-03   -0.21940E-02 74628   0.681E-01    0.330E-01
DAV:   3    -0.305286328592E+03    0.48567E-03   -0.22368E-02 71220   0.578E-01    0.342E-01
DAV:   4    -0.305285773006E+03    0.55559E-03   -0.11684E-02 64008   0.504E-01    0.240E-01
DAV:   5    -0.305285243250E+03    0.52976E-03   -0.54900E-03 69600   0.319E-01    0.145E-01
DAV:   6    -0.305285100533E+03    0.14272E-03   -0.28087E-03 65676   0.247E-01    0.115E-01
DAV:   7    -0.305285067384E+03    0.33148E-04   -0.15585E-03 64188   0.174E-01    0.945E-02
DAV:   8    -0.305285029880E+03    0.37504E-04   -0.68235E-04 46488   0.117E-01
   9 F= -.30528503E+03 E0= -.30527953E+03  d E =0.260591E+01
       N       E                     dE             d eps       ncg     rms          rms(c)
DAV:   1    -0.305288842487E+03   -0.37751E-02   -0.28224E-02 58080   0.743E-01    0.171E-01
DAV:   2    -0.305289047974E+03   -0.20549E-03   -0.59023E-03 74124   0.351E-01    0.179E-01
DAV:   3    -0.305288822479E+03    0.22549E-03   -0.55828E-03 66156   0.293E-01    0.158E-01
DAV:   4    -0.305288702092E+03    0.12039E-03   -0.26233E-03 62712   0.241E-01    0.109E-01
DAV:   5    -0.305288622504E+03    0.79588E-04   -0.14409E-03 55692   0.165E-01    0.952E-02
DAV:   6    -0.305288553757E+03    0.68747E-04   -0.71033E-04 44148   0.136E-01
  10 F= -.30528855E+03 E0= -.30528306E+03  d E =0.260239E+01
       N       E                     dE             d eps       ncg     rms          rms(c)
DAV:   1    -0.305290260356E+03   -0.16379E-02   -0.64632E-03 55548   0.350E-01    0.863E-02
DAV:   2    -0.305290462102E+03   -0.20175E-03   -0.22111E-03 70680   0.231E-01    0.143E-01
DAV:   3    -0.305290251850E+03    0.21025E-03   -0.21000E-03 58548   0.206E-01    0.813E-02
DAV:   4    -0.305290224706E+03    0.27145E-04   -0.61252E-04 43884   0.121E-01
  11 F= -.30529022E+03 E0= -.30528473E+03  d E =0.260072E+01
       N       E                     dE             d eps       ncg     rms          rms(c)
DAV:   1    -0.305291062243E+03   -0.81039E-03   -0.21619E-03 61500   0.206E-01    0.757E-02
DAV:   2    -0.305292109427E+03   -0.10472E-02   -0.67780E-03 64872   0.387E-01    0.328E-01
DAV:   3    -0.305291053830E+03    0.10556E-02   -0.54043E-03 63144   0.326E-01    0.716E-02
DAV:   4    -0.305290988658E+03    0.65171E-04   -0.51775E-04 43488   0.985E-02
  12 F= -.30529099E+03 E0= -.30528552E+03  d E =0.259995E+01
       N       E                     dE             d eps       ncg     rms          rms(c)
DAV:   1    -0.305732691961E+03   -0.44164E+00   -0.77090E+01 41280   0.273E+01    0.382E+00
DAV:   2    -0.306670790510E+03   -0.93810E+00   -0.95575E+00 73188   0.161E+01    0.729E+00
DAV:   3    -0.306028878282E+03    0.64191E+00   -0.43299E+00 72804   0.882E+00    0.304E+00
DAV:   4    -0.306024143138E+03    0.47351E-02   -0.14205E+00 73332   0.519E+00    0.319E+00
DAV:   5    -0.305956413044E+03    0.67730E-01   -0.90369E-01 74352   0.445E+00    0.201E+00
DAV:   6    -0.305925752175E+03    0.30661E-01   -0.45186E-01 74328   0.274E+00    0.140E+00
DAV:   7    -0.305923418828E+03    0.23333E-02   -0.35530E-01 70824   0.262E+00    0.144E+00
DAV:   8    -0.305909987068E+03    0.13432E-01   -0.19244E-01 73476   0.194E+00    0.841E-01
DAV:   9    -0.305902927546E+03    0.70595E-02   -0.57109E-02 74604   0.992E-01    0.426E-01
DAV:  10    -0.305901659459E+03    0.12681E-02   -0.13660E-02 72480   0.444E-01    0.297E-01
DAV:  11    -0.305901899072E+03   -0.23961E-03   -0.59221E-03 67200   0.324E-01    0.275E-01
DAV:  12    -0.305902179397E+03   -0.28032E-03   -0.66958E-03 66636   0.372E-01    0.233E-01
DAV:  13    -0.305902023148E+03    0.15625E-03   -0.52467E-03 66612   0.301E-01    0.133E-01
DAV:  14    -0.305901956002E+03    0.67145E-04   -0.30060E-03 66180   0.236E-01    0.122E-01
DAV:  15    -0.305901838512E+03    0.11749E-03   -0.14315E-03 55488   0.189E-01    0.702E-02
DAV:  16    -0.305901770616E+03    0.67896E-04   -0.36256E-04 39780   0.998E-02
  13 F= -.30590177E+03 E0= -.30589709E+03  d E =-.610782E+00
       N       E                     dE             d eps       ncg     rms          rms(c)
DAV:   1    -0.305922177781E+03   -0.20339E-01   -0.71842E+01 41280   0.265E+01    0.375E+00
DAV:   2    -0.306763253618E+03   -0.84108E+00   -0.87484E+00 73176   0.157E+01    0.675E+00
DAV:   3    -0.306202961559E+03    0.56029E+00   -0.38381E+00 73068   0.847E+00    0.276E+00
DAV:   4    -0.306199819368E+03    0.31422E-02   -0.12079E+00 73176   0.481E+00    0.293E+00
DAV:   5    -0.306146705521E+03    0.53114E-01   -0.80195E-01 73320   0.433E+00    0.197E+00
DAV:   6    -0.306115015620E+03    0.31690E-01   -0.40322E-01 75108   0.264E+00    0.120E+00
DAV:   7    -0.306115144775E+03   -0.12916E-03   -0.29838E-01 70860   0.238E+00    0.133E+00
DAV:   8    -0.306102782778E+03    0.12362E-01   -0.16440E-01 70872   0.185E+00    0.750E-01
DAV:   9    -0.306097116159E+03    0.56666E-02   -0.44091E-02 73692   0.905E-01    0.384E-01
DAV:  10    -0.306096240686E+03    0.87547E-03   -0.11187E-02 69216   0.407E-01    0.279E-01
DAV:  11    -0.306096516637E+03   -0.27595E-03   -0.51011E-03 65688   0.308E-01    0.258E-01
DAV:  12    -0.306096766995E+03   -0.25036E-03   -0.64845E-03 65700   0.376E-01    0.218E-01
DAV:  13    -0.306096539780E+03    0.22721E-03   -0.44041E-03 66300   0.288E-01    0.111E-01
DAV:  14    -0.306096510004E+03    0.29776E-04   -0.23185E-03 65256   0.206E-01    0.106E-01
DAV:  15    -0.306096402105E+03    0.10790E-03   -0.97740E-04 52056   0.162E-01    0.550E-02
DAV:  16    -0.306096356724E+03    0.45380E-04   -0.18903E-04 31380   0.854E-02
  14 F= -.30609636E+03 E0= -.30609263E+03  d E =-.805368E+00
       N       E                     dE             d eps       ncg     rms          rms(c)
DAV:   1    -0.306200727859E+03   -0.10433E+00   -0.48207E+01 42768   0.264E+01    0.510E+00
DAV:   2    -0.306809773715E+03   -0.60905E+00   -0.78120E+00 70908   0.128E+01    0.606E+00
DAV:   3    -0.306499057684E+03    0.31072E+00   -0.54052E+00 73104   0.995E+00    0.421E+00
DAV:   4    -0.306448844883E+03    0.50213E-01   -0.20097E+00 72180   0.692E+00    0.334E+00
DAV:   5    -0.306334073839E+03    0.11477E+00   -0.10532E+00 73044   0.499E+00    0.197E+00
DAV:   6    -0.306295664802E+03    0.38409E-01   -0.45391E-01 73476   0.315E+00    0.125E+00
DAV:   7    -0.306298500475E+03   -0.28357E-02   -0.25972E-01 74628   0.218E+00    0.138E+00
DAV:   8    -0.306283410795E+03    0.15090E-01   -0.14426E-01 68952   0.183E+00    0.593E-01
DAV:   9    -0.306280965000E+03    0.24458E-02   -0.27410E-02 71808   0.708E-01    0.408E-01
DAV:  10    -0.306281306121E+03   -0.34112E-03   -0.12820E-02 63912   0.483E-01    0.376E-01
DAV:  11    -0.306281574817E+03   -0.26870E-03   -0.86279E-03 64704   0.433E-01    0.285E-01
DAV:  12    -0.306281858834E+03   -0.28402E-03   -0.78203E-03 75576   0.354E-01    0.191E-01
DAV:  13    -0.306281757469E+03    0.10137E-03   -0.54620E-03 80004   0.274E-01    0.133E-01
DAV:  14    -0.306281692962E+03    0.64507E-04   -0.30207E-03 69504   0.217E-01    0.116E-01
DAV:  15    -0.306281603007E+03    0.89955E-04   -0.13119E-03 54852   0.175E-01    0.736E-02
DAV:  16    -0.306281537868E+03    0.65139E-04   -0.26981E-04 35400   0.987E-02
  15 F= -.30628154E+03 E0= -.30627935E+03  d E =-.185181E+00
       N       E                     dE             d eps       ncg     rms          rms(c)
DAV:   1    -0.306282604924E+03   -0.10019E-02   -0.81377E-01 42144   0.340E+00    0.662E-01
DAV:   2    -0.306292660585E+03   -0.10056E-01   -0.12954E-01 70212   0.165E+00    0.756E-01
DAV:   3    -0.306288247681E+03    0.44129E-02   -0.90886E-02 72324   0.135E+00    0.563E-01
DAV:   4    -0.306286781963E+03    0.14657E-02   -0.30500E-02 69480   0.855E-01    0.421E-01
DAV:   5    -0.306284975038E+03    0.18069E-02   -0.17076E-02 71736   0.620E-01    0.247E-01
DAV:   6    -0.306284435664E+03    0.53937E-03   -0.72670E-03 67404   0.401E-01    0.162E-01
DAV:   7    -0.306284434792E+03    0.87175E-06   -0.40847E-03 72744   0.273E-01    0.165E-01
DAV:   8    -0.306284224545E+03    0.21025E-03   -0.20184E-03 61104   0.215E-01    0.776E-02
DAV:   9    -0.306284173505E+03    0.51041E-04   -0.31199E-04 37320   0.967E-02
  16 F= -.30628417E+03 E0= -.30628220E+03  d E =-.187817E+00
       N       E                     dE             d eps       ncg     rms          rms(c)
DAV:   1    -0.306359934120E+03   -0.75710E-01   -0.33535E+01 41280   0.211E+01    0.363E+00
DAV:   2    -0.306721511619E+03   -0.36158E+00   -0.52169E+00 73032   0.117E+01    0.438E+00
DAV:   3    -0.306537672778E+03    0.18384E+00   -0.24961E+00 72636   0.702E+00    0.268E+00
DAV:   4    -0.306490358485E+03    0.47314E-01   -0.96488E-01 74904   0.457E+00    0.219E+00
DAV:   5    -0.306465775921E+03    0.24583E-01   -0.70785E-01 71940   0.405E+00    0.197E+00
DAV:   6    -0.306432764935E+03    0.33011E-01   -0.36264E-01 72192   0.276E+00    0.104E+00
DAV:   7    -0.306427415618E+03    0.53493E-02   -0.15745E-01 76620   0.168E+00    0.866E-01
DAV:   8    -0.306423819807E+03    0.35958E-02   -0.87265E-02 74484   0.133E+00    0.613E-01
DAV:   9    -0.306420592370E+03    0.32274E-02   -0.27033E-02 75684   0.719E-01    0.344E-01
DAV:  10    -0.306420167303E+03    0.42507E-03   -0.79928E-03 69408   0.379E-01    0.279E-01
DAV:  11    -0.306420333438E+03   -0.16614E-03   -0.45665E-03 65976   0.279E-01    0.225E-01
DAV:  12    -0.306420842686E+03   -0.50925E-03   -0.57486E-03 64956   0.350E-01    0.217E-01
DAV:  13    -0.306420461337E+03    0.38135E-03   -0.40825E-03 72852   0.295E-01    0.775E-02
DAV:  14    -0.306420461476E+03   -0.13875E-06   -0.15264E-03 64908   0.144E-01    0.754E-02
DAV:  15    -0.306420402068E+03    0.59408E-04   -0.65289E-04 47964   0.121E-01
  17 F= -.30642040E+03 E0= -.30642035E+03  d E =-.136229E+00
       N       E                     dE             d eps       ncg     rms          rms(c)
DAV:   1    -0.306421505813E+03   -0.10443E-02   -0.33007E+00 41280   0.666E+00    0.113E+00
DAV:   2    -0.306456162467E+03   -0.34657E-01   -0.50160E-01 72060   0.360E+00    0.137E+00
DAV:   3    -0.306439493384E+03    0.16669E-01   -0.24236E-01 72072   0.224E+00    0.821E-01
DAV:   4    -0.306435260969E+03    0.42324E-02   -0.91518E-02 74004   0.140E+00    0.674E-01
DAV:   5    -0.306432629811E+03    0.26312E-02   -0.65735E-02 69072   0.123E+00    0.606E-01
DAV:   6    -0.306429606391E+03    0.30234E-02   -0.34777E-02 71544   0.865E-01    0.319E-01
DAV:   7    -0.306429162046E+03    0.44434E-03   -0.14832E-02 71796   0.520E-01    0.270E-01
DAV:   8    -0.306428779268E+03    0.38278E-03   -0.78466E-03 68532   0.399E-01    0.185E-01
DAV:   9    -0.306428506356E+03    0.27291E-03   -0.23767E-03 65556   0.220E-01    0.110E-01
DAV:  10    -0.306428465201E+03    0.41154E-04   -0.68192E-04 47172   0.129E-01
  18 F= -.30642847E+03 E0= -.30642893E+03  d E =-.144292E+00
       N       E                     dE             d eps       ncg     rms          rms(c)
DAV:   1    -0.306474533177E+03   -0.46027E-01   -0.65296E+00 41280   0.841E+00    0.129E+00
DAV:   2    -0.306515012422E+03   -0.40479E-01   -0.67367E-01 70488   0.381E+00    0.158E+00
DAV:   3    -0.306496179268E+03    0.18833E-01   -0.37150E-01 72888   0.261E+00    0.113E+00
DAV:   4    -0.306492427923E+03    0.37513E-02   -0.14186E-01 68052   0.186E+00    0.953E-01
DAV:   5    -0.306481205149E+03    0.11223E-01   -0.88038E-02 72408   0.127E+00    0.512E-01
DAV:   6    -0.306482029412E+03   -0.82426E-03   -0.53012E-02 68148   0.106E+00    0.605E-01
DAV:   7    -0.306478734840E+03    0.32946E-02   -0.27330E-02 73236   0.735E-01    0.228E-01
DAV:   8    -0.306478235856E+03    0.49898E-03   -0.76286E-03 68640   0.345E-01    0.174E-01
DAV:   9    -0.306477993291E+03    0.24257E-03   -0.27951E-03 62136   0.249E-01    0.106E-01
DAV:  10    -0.306477913129E+03    0.80161E-04   -0.89152E-04 52980   0.138E-01
  19 F= -.30647791E+03 E0= -.30647894E+03  d E =-.494479E-01
       N       E                     dE             d eps       ncg     rms          rms(c)
DAV:   1    -0.306492884466E+03   -0.14891E-01   -0.94424E+00 41280   0.101E+01    0.152E+00
DAV:   2    -0.306553911282E+03   -0.61027E-01   -0.98501E-01 70452   0.459E+00    0.193E+00
DAV:   3    -0.306523785315E+03    0.30126E-01   -0.54264E-01 71976   0.316E+00    0.133E+00
DAV:   4    -0.306519240341E+03    0.45450E-02   -0.19946E-01 70920   0.217E+00    0.113E+00
DAV:   5    -0.306502943052E+03    0.16297E-01   -0.12799E-01 74376   0.151E+00    0.602E-01
DAV:   6    -0.306504071988E+03   -0.11289E-02   -0.72157E-02 68244   0.124E+00    0.708E-01
DAV:   7    -0.306499507505E+03    0.45645E-02   -0.37131E-02 74520   0.849E-01    0.275E-01
DAV:   8    -0.306498974703E+03    0.53280E-03   -0.11082E-02 68592   0.439E-01    0.230E-01
DAV:   9    -0.306498529780E+03    0.44492E-03   -0.42110E-03 62964   0.309E-01    0.125E-01
DAV:  10    -0.306498453878E+03    0.75902E-04   -0.13224E-03 58428   0.160E-01    0.904E-02
DAV:  11    -0.306498455654E+03   -0.17755E-05   -0.46224E-04 43392   0.104E-01
  20 F= -.30649846E+03 E0= -.30649991E+03  d E =-.699905E-01
       N       E                     dE             d eps       ncg     rms          rms(c)
DAV:   1    -0.306553364946E+03   -0.54911E-01   -0.59104E+00 41304   0.930E+00    0.233E+00
DAV:   2    -0.306582030620E+03   -0.28666E-01   -0.82286E-01 72240   0.417E+00    0.191E+00
DAV:   3    -0.306571259852E+03    0.10771E-01   -0.73256E-01 71952   0.350E+00    0.197E+00
DAV:   4    -0.306548915688E+03    0.22344E-01   -0.44033E-01 69540   0.317E+00    0.152E+00
DAV:   5    -0.306525253712E+03    0.23662E-01   -0.24213E-01 72396   0.220E+00    0.867E-01
DAV:   6    -0.306519968863E+03    0.52848E-02   -0.10094E-01 72024   0.149E+00    0.607E-01
DAV:   7    -0.306517871510E+03    0.20974E-02   -0.42495E-02 70356   0.967E-01    0.402E-01
DAV:   8    -0.306516874913E+03    0.99660E-03   -0.18002E-02 72564   0.574E-01    0.267E-01
DAV:   9    -0.306516474259E+03    0.40065E-03   -0.49897E-03 66408   0.306E-01    0.185E-01
DAV:  10    -0.306516473576E+03    0.68347E-06   -0.14729E-03 59904   0.165E-01    0.150E-01
DAV:  11    -0.306516616790E+03   -0.14321E-03   -0.12555E-03 57624   0.152E-01    0.127E-01
DAV:  12    -0.306516845182E+03   -0.22839E-03   -0.18148E-03 64488   0.215E-01    0.125E-01
DAV:  13    -0.306516732799E+03    0.11238E-03   -0.16721E-03 68628   0.196E-01    0.553E-02
DAV:  14    -0.306516700277E+03    0.32522E-04   -0.33348E-04 38712   0.104E-01
  21 F= -.30651670E+03 E0= -.30651799E+03  d E =-.182446E-01
       N       E                     dE             d eps       ncg     rms          rms(c)
DAV:   1    -0.306517894619E+03   -0.11618E-02   -0.10108E-01 42348   0.122E+00    0.311E-01
DAV:   2    -0.306518434575E+03   -0.53996E-03   -0.14824E-02 72780   0.553E-01    0.265E-01
DAV:   3    -0.306518150979E+03    0.28360E-03   -0.13392E-02 72060   0.472E-01    0.253E-01
DAV:   4    -0.306517814334E+03    0.33665E-03   -0.75900E-03 65832   0.411E-01    0.209E-01
DAV:   5    -0.306517374232E+03    0.44010E-03   -0.45356E-03 63828   0.308E-01    0.123E-01
DAV:   6    -0.306517253630E+03    0.12060E-03   -0.18750E-03 60432   0.208E-01    0.822E-02
DAV:   7    -0.306517215027E+03    0.38603E-04   -0.80941E-04 50892   0.150E-01
  22 F= -.30651722E+03 E0= -.30651852E+03  d E =-.187594E-01
       N       E                     dE             d eps       ncg     rms          rms(c)
DAV:   1    -0.306524517921E+03   -0.72643E-02   -0.37416E+00 41364   0.624E+00    0.812E-01
DAV:   2    -0.306567289371E+03   -0.42771E-01   -0.44528E-01 71532   0.326E+00    0.154E+00
DAV:   3    -0.306542758223E+03    0.24531E-01   -0.22061E-01 72084   0.215E+00    0.766E-01
DAV:   4    -0.306539719689E+03    0.30385E-02   -0.65026E-02 70284   0.111E+00    0.513E-01
DAV:   5    -0.306537143824E+03    0.25759E-02   -0.27203E-02 74352   0.722E-01    0.337E-01
DAV:   6    -0.306536573928E+03    0.56990E-03   -0.18456E-02 72708   0.631E-01    0.299E-01
DAV:   7    -0.306536017439E+03    0.55649E-03   -0.12088E-02 72144   0.496E-01    0.212E-01
DAV:   8    -0.306535592299E+03    0.42514E-03   -0.50121E-03 68736   0.290E-01    0.111E-01
DAV:   9    -0.306535468801E+03    0.12350E-03   -0.10340E-03 56244   0.141E-01    0.755E-02
DAV:  10    -0.306535432938E+03    0.35863E-04   -0.21533E-04 31320   0.102E-01
  23 F= -.30653543E+03 E0= -.30653643E+03  d E =-.182179E-01
       N       E                     dE             d eps       ncg     rms          rms(c)
DAV:   1    -0.306534415692E+03    0.10531E-02   -0.14549E+00 41520   0.389E+00    0.505E-01
DAV:   2    -0.306550489748E+03   -0.16074E-01   -0.16960E-01 71172   0.198E+00    0.958E-01
DAV:   3    -0.306541257875E+03    0.92319E-02   -0.84155E-02 71604   0.134E+00    0.475E-01
DAV:   4    -0.306540118254E+03    0.11396E-02   -0.24385E-02 68376   0.673E-01    0.321E-01
DAV:   5    -0.306539095434E+03    0.10228E-02   -0.11289E-02 70884   0.452E-01    0.217E-01
DAV:   6    -0.306538931842E+03    0.16359E-03   -0.79095E-03 70128   0.422E-01    0.208E-01
DAV:   7    -0.306538616026E+03    0.31582E-03   -0.49451E-03 66456   0.320E-01    0.124E-01
DAV:   8    -0.306538472920E+03    0.14311E-03   -0.18434E-03 65352   0.175E-01    0.723E-02
DAV:   9    -0.306538411986E+03    0.60934E-04   -0.32453E-04 37560   0.990E-02
  24 F= -.30653841E+03 E0= -.30653920E+03  d E =-.211970E-01
       N       E                     dE             d eps       ncg     rms          rms(c)
DAV:   1    -0.306542192004E+03   -0.37191E-02   -0.19694E+00 41280   0.471E+00    0.753E-01
DAV:   2    -0.306566990585E+03   -0.24799E-01   -0.26308E-01 70908   0.255E+00    0.127E+00
DAV:   3    -0.306551737550E+03    0.15253E-01   -0.14988E-01 70392   0.181E+00    0.595E-01
DAV:   4    -0.306550934912E+03    0.80264E-03   -0.45690E-02 69336   0.995E-01    0.526E-01
DAV:   5    -0.306548370629E+03    0.25643E-02   -0.30591E-02 68892   0.837E-01    0.335E-01
DAV:   6    -0.306547818751E+03    0.55188E-03   -0.14244E-02 70308   0.562E-01    0.247E-01
DAV:   7    -0.306547347013E+03    0.47174E-03   -0.75114E-03 67824   0.366E-01    0.145E-01
DAV:   8    -0.306547180915E+03    0.16610E-03   -0.29274E-03 65820   0.212E-01    0.112E-01
DAV:   9    -0.306547074663E+03    0.10625E-03   -0.10230E-03 54456   0.149E-01    0.674E-02
DAV:  10    -0.306547042086E+03    0.32578E-04   -0.18667E-04 27576   0.900E-02
  25 F= -.30654704E+03 E0= -.30654772E+03  d E =-.863010E-02
       N       E                     dE             d eps       ncg     rms          rms(c)
DAV:   1    -0.306546744376E+03    0.33029E-03   -0.65128E-01 41280   0.271E+00    0.422E-01
DAV:   2    -0.306554986160E+03   -0.82418E-02   -0.86124E-02 70800   0.145E+00    0.727E-01
DAV:   3    -0.306549795724E+03    0.51904E-02   -0.48895E-02 70512   0.103E+00    0.328E-01
DAV:   4    -0.306549618688E+03    0.17704E-03   -0.14509E-02 67500   0.556E-01    0.298E-01
DAV:   5    -0.306548762200E+03    0.85649E-03   -0.94074E-03 65688   0.458E-01    0.181E-01
DAV:   6    -0.306548633155E+03    0.12904E-03   -0.43716E-03 62256   0.317E-01    0.144E-01
DAV:   7    -0.306548486261E+03    0.14689E-03   -0.24075E-03 69432   0.208E-01    0.814E-02
DAV:   8    -0.306548440211E+03    0.46050E-04   -0.78307E-04 51504   0.122E-01
  26 F= -.30654844E+03 E0= -.30654907E+03  d E =-.100282E-01
       N       E                     dE             d eps       ncg     rms          rms(c)
DAV:   1    -0.306553409509E+03   -0.49232E-02   -0.16515E+00 41280   0.452E+00    0.871E-01
DAV:   2    -0.306570116202E+03   -0.16707E-01   -0.23564E-01 71748   0.220E+00    0.106E+00
DAV:   3    -0.306563112797E+03    0.70034E-02   -0.17630E-01 71196   0.187E+00    0.892E-01
DAV:   4    -0.306558344307E+03    0.47685E-02   -0.74075E-02 68148   0.123E+00    0.526E-01
DAV:   5    -0.306555825434E+03    0.25189E-02   -0.34433E-02 73500   0.811E-01    0.374E-01
DAV:   6    -0.306554518098E+03    0.13073E-02   -0.16487E-02 70584   0.664E-01    0.249E-01
DAV:   7    -0.306554192450E+03    0.32565E-03   -0.85258E-03 67908   0.408E-01    0.189E-01
DAV:   8    -0.306554001178E+03    0.19127E-03   -0.41066E-03 63876   0.285E-01    0.117E-01
DAV:   9    -0.306553857250E+03    0.14393E-03   -0.90406E-04 51504   0.147E-01    0.671E-02
DAV:  10    -0.306553834877E+03    0.22373E-04   -0.21438E-04 33216   0.738E-02
  27 F= -.30655383E+03 E0= -.30655440E+03  d E =-.539467E-02
       N       E                     dE             d eps       ncg     rms          rms(c)
DAV:   1    -0.306553943557E+03   -0.86307E-04   -0.72995E-02 41676   0.955E-01    0.176E-01
DAV:   2    -0.306554801140E+03   -0.85758E-03   -0.10834E-02 71208   0.477E-01    0.243E-01
DAV:   3    -0.306554273060E+03    0.52808E-03   -0.77321E-03 67848   0.393E-01    0.166E-01
DAV:   4    -0.306554154121E+03    0.11894E-03   -0.28571E-03 62844   0.246E-01    0.115E-01
DAV:   5    -0.306554032890E+03    0.12123E-03   -0.15685E-03 57192   0.184E-01    0.813E-02
DAV:   6    -0.306553969812E+03    0.63077E-04   -0.63472E-04 46068   0.145E-01
  28 F= -.30655397E+03 E0= -.30655453E+03  d E =-.552960E-02
       N       E                     dE             d eps       ncg     rms          rms(c)
DAV:   1    -0.306554449475E+03   -0.41659E-03   -0.55672E-01 41688   0.244E+00    0.251E-01
DAV:   2    -0.306559174770E+03   -0.47253E-02   -0.53436E-02 68592   0.116E+00    0.368E-01
DAV:   3    -0.306558143274E+03    0.10315E-02   -0.15138E-02 70344   0.598E-01    0.207E-01
DAV:   4    -0.306557892097E+03    0.25118E-03   -0.43687E-03 63672   0.300E-01    0.166E-01
DAV:   5    -0.306557715178E+03    0.17692E-03   -0.24583E-03 59532   0.241E-01    0.132E-01
DAV:   6    -0.306557629444E+03    0.85733E-04   -0.13513E-03 56712   0.176E-01    0.853E-02
DAV:   7    -0.306557622865E+03    0.65789E-05   -0.10036E-03 56412   0.151E-01    0.830E-02
DAV:   8    -0.306557542401E+03    0.80465E-04   -0.63704E-04 46272   0.135E-01
  29 F= -.30655754E+03 E0= -.30655809E+03  d E =-.357259E-02
       N       E                     dE             d eps       ncg     rms          rms(c)
DAV:   1    -0.306538723141E+03    0.18900E-01   -0.39295E+00 41796   0.648E+00    0.642E-01
DAV:   2    -0.306568834733E+03   -0.30112E-01   -0.34752E-01 68052   0.292E+00    0.820E-01
DAV:   3    -0.306564964879E+03    0.38699E-02   -0.84051E-02 70692   0.143E+00    0.524E-01
DAV:   4    -0.306562967077E+03    0.19978E-02   -0.27680E-02 70116   0.783E-01    0.390E-01
DAV:   5    -0.306562106307E+03    0.86077E-03   -0.15235E-02 68172   0.582E-01    0.326E-01
DAV:   6    -0.306561665084E+03    0.44122E-03   -0.97641E-03 74484   0.448E-01    0.215E-01
DAV:   7    -0.306561364127E+03    0.30096E-03   -0.55603E-03 72372   0.316E-01    0.168E-01
DAV:   8    -0.306561028802E+03    0.33533E-03   -0.28923E-03 71688   0.243E-01    0.965E-02
DAV:   9    -0.306560950222E+03    0.78580E-04   -0.88149E-04 52236   0.134E-01
  30 F= -.30656095E+03 E0= -.30656145E+03  d E =-.698041E-02
       N       E                     dE             d eps       ncg     rms          rms(c)
DAV:   1    -0.306561232499E+03   -0.20370E-03   -0.53047E-01 41280   0.253E+00    0.426E-01
DAV:   2    -0.306564885737E+03   -0.36532E-02   -0.60381E-02 68784   0.107E+00    0.392E-01
DAV:   3    -0.306564739493E+03    0.14624E-03   -0.32642E-02 70140   0.773E-01    0.410E-01
DAV:   4    -0.306563567696E+03    0.11718E-02   -0.16218E-02 62220   0.596E-01    0.243E-01
DAV:   5    -0.306562894795E+03    0.67290E-03   -0.65905E-03 70656   0.339E-01    0.141E-01
DAV:   6    -0.306562922944E+03   -0.28148E-04   -0.38242E-03 65352   0.282E-01    0.158E-01
DAV:   7    -0.306562687360E+03    0.23558E-03   -0.20409E-03 62136   0.223E-01    0.707E-02
DAV:   8    -0.306562676167E+03    0.11192E-04   -0.84632E-04 51444   0.146E-01
  31 F= -.30656268E+03 E0= -.30656314E+03  d E =-.172595E-02
       N       E                     dE             d eps       ncg     rms          rms(c)
DAV:   1    -0.306562497016E+03    0.19034E-03   -0.10311E-01 41472   0.113E+00    0.177E-01
DAV:   2    -0.306563335195E+03   -0.83818E-03   -0.11599E-02 69408   0.499E-01    0.192E-01
DAV:   3    -0.306563168890E+03    0.16630E-03   -0.62316E-03 69924   0.369E-01    0.167E-01
DAV:   4    -0.306562976218E+03    0.19267E-03   -0.26557E-03 59688   0.245E-01    0.980E-02
DAV:   5    -0.306562896156E+03    0.80062E-04   -0.12186E-03 55344   0.161E-01    0.807E-02
DAV:   6    -0.306562849202E+03    0.46954E-04   -0.61957E-04 44244   0.139E-01
  32 F= -.30656285E+03 E0= -.30656329E+03  d E =-.189898E-02
       N       E                     dE             d eps       ncg     rms          rms(c)
DAV:   1    -0.306563860029E+03   -0.96387E-03   -0.17169E-01 41316   0.134E+00    0.144E-01
DAV:   2    -0.306565391695E+03   -0.15317E-02   -0.16972E-02 69024   0.644E-01    0.242E-01
DAV:   3    -0.306564943134E+03    0.44856E-03   -0.62928E-03 66132   0.393E-01    0.131E-01
DAV:   4    -0.306564815129E+03    0.12800E-03   -0.14830E-03 57840   0.183E-01    0.804E-02
DAV:   5    -0.306564756816E+03    0.58313E-04   -0.52457E-04 45648   0.107E-01
  33 F= -.30656476E+03 E0= -.30656518E+03  d E =-.190761E-02
       N       E                     dE             d eps       ncg     rms          rms(c)
DAV:   1    -0.306560024645E+03    0.47905E-02   -0.15397E+00 41280   0.400E+00    0.430E-01
DAV:   2    -0.306575969883E+03   -0.15945E-01   -0.16123E-01 69444   0.204E+00    0.861E-01
DAV:   3    -0.306569143073E+03    0.68268E-02   -0.64937E-02 68064   0.129E+00    0.334E-01
DAV:   4    -0.306568541531E+03    0.60154E-03   -0.11087E-02 67752   0.499E-01    0.253E-01
DAV:   5    -0.306568001864E+03    0.53967E-03   -0.63133E-03 65184   0.339E-01    0.173E-01
DAV:   6    -0.306567962538E+03    0.39327E-04   -0.38574E-03 65328   0.291E-01    0.167E-01
DAV:   7    -0.306567836582E+03    0.12596E-03   -0.28123E-03 67248   0.225E-01    0.115E-01
DAV:   8    -0.306567718082E+03    0.11850E-03   -0.17068E-03 61800   0.195E-01    0.918E-02
DAV:   9    -0.306567635536E+03    0.82546E-04   -0.68282E-04 45996   0.142E-01
  34 F= -.30656764E+03 E0= -.30656795E+03  d E =-.478633E-02
       N       E                     dE             d eps       ncg     rms          rms(c)
DAV:   1    -0.306567606748E+03    0.11133E-03   -0.21732E-01 41280   0.175E+00    0.310E-01
DAV:   2    -0.306569472159E+03   -0.18654E-02   -0.31157E-02 69348   0.822E-01    0.254E-01
DAV:   3    -0.306569573405E+03   -0.10125E-03   -0.14054E-02 71316   0.552E-01    0.288E-01
DAV:   4    -0.306568965050E+03    0.60836E-03   -0.77665E-03 63972   0.447E-01    0.172E-01
DAV:   5    -0.306568626058E+03    0.33899E-03   -0.32254E-03 67248   0.252E-01    0.964E-02
DAV:   6    -0.306568645296E+03   -0.19238E-04   -0.16212E-03 57300   0.189E-01    0.112E-01
DAV:   7    -0.306568518186E+03    0.12711E-03   -0.91513E-04 48252   0.161E-01    0.439E-02
DAV:   8    -0.306568512676E+03    0.55104E-05   -0.21739E-04 28488   0.976E-02
  35 F= -.30656851E+03 E0= -.30656876E+03  d E =-.877140E-03
       N       E                     dE             d eps       ncg     rms          rms(c)
DAV:   1    -0.306568279906E+03    0.23828E-03   -0.61595E-02 41316   0.935E-01    0.155E-01
DAV:   2    -0.306568829198E+03   -0.54929E-03   -0.84036E-03 69048   0.438E-01    0.141E-01
DAV:   3    -0.306568872275E+03   -0.43077E-04   -0.40440E-03 66660   0.306E-01    0.160E-01
DAV:   4    -0.306568671105E+03    0.20117E-03   -0.21443E-03 58404   0.232E-01    0.835E-02
DAV:   5    -0.306568599058E+03    0.72046E-04   -0.76470E-04 48300   0.134E-01
  36 F= -.30656860E+03 E0= -.30656881E+03  d E =-.963522E-03
