<?xml version="1.0" encoding="ISO-8859-1"?>
<modeling>
 <generator>
  <i name="program" type="string">vasp </i>
  <i name="version" type="string">5.4.4.18Apr17-6-g9f103f2a35  </i>
  <i name="subversion" type="string">(build Aug 09 2018 16:20:53) complex            parallel </i>
  <i name="platform" type="string">LinuxIFC </i>
  <i name="date" type="string">2020 04 29 </i>
  <i name="time" type="string">09:18:33 </i>
 </generator>
 <incar>
  <i type="string" name="SYSTEM"> Nb - Mo - Ta - Ti - V SQS</i>
  <i type="string" name="PREC">normal</i>
  <i type="int" name="ICHARG">     0</i>
  <i type="int" name="IBRION">     2</i>
  <i type="int" name="NSW">    50</i>
  <i type="int" name="ISIF">     3</i>
  <i name="ENCUT">    600.00000000</i>
  <i type="string" name="LREAL"> Auto</i>
  <i type="int" name="ISMEAR">     1</i>
  <i name="SIGMA">      0.20000000</i>
  <v type="int" name="KPOINT_BSE">    -1     0     0     0</v>
  <i type="string" name="GGA"> PS</i>
 </incar>
 <structure name="primitive_cell" >
  <crystal>
   <varray name="basis" >
    <v>      -3.16000000      -3.16000000      -3.16000000 </v>
    <v>       1.58000000       1.58000000      -7.90000000 </v>
    <v>       7.90000000      -7.90000000      -1.58000000 </v>
   </varray>
   <i name="volume">    473.31744000 </i>
   <varray name="rec_basis" >
    <v>      -0.13713080      -0.12658228      -0.05274262 </v>
    <v>       0.04219409       0.06329114      -0.10548523 </v>
    <v>       0.06329114      -0.06329114       0.00000000 </v>
   </varray>
  </crystal>
  <varray name="positions" >
   <v>      -0.36666667       0.26666667       0.40000000 </v>
   <v>       0.30000000      -0.40000000       0.40000000 </v>
   <v>      -0.30000000       0.40000000      -0.40000000 </v>
   <v>      -0.26666667       0.46666667       0.20000000 </v>
   <v>       0.13333333       0.26666667       0.40000000 </v>
   <v>      -0.46666667       0.06666667      -0.40000000 </v>
   <v>      -0.43333333       0.13333333       0.20000000 </v>
   <v>      -0.20000000      -0.40000000       0.40000000 </v>
   <v>       0.20000000       0.40000000      -0.40000000 </v>
   <v>       0.23333333       0.46666667       0.20000000 </v>
   <v>       0.03333333       0.06666667      -0.40000000 </v>
   <v>       0.46666667      -0.06666667       0.40000000 </v>
   <v>       0.06666667       0.13333333       0.20000000 </v>
   <v>       0.36666667      -0.26666667      -0.40000000 </v>
   <v>       0.40000000      -0.20000000       0.20000000 </v>
   <v>      -0.40000000       0.20000000      -0.20000000 </v>
   <v>      -0.33333333       0.33333333       0.00000000 </v>
   <v>      -0.10000000      -0.20000000       0.20000000 </v>
   <v>      -0.13333333      -0.26666667      -0.40000000 </v>
   <v>       0.26666667      -0.46666667      -0.20000000 </v>
   <v>       0.16666667       0.33333333       0.00000000 </v>
   <v>       0.10000000       0.20000000      -0.20000000 </v>
   <v>       0.33333333      -0.33333333       0.00000000 </v>
   <v>      -0.06666667      -0.13333333      -0.20000000 </v>
   <v>       0.00000000       0.00000000       0.00000000 </v>
   <v>      -0.23333333      -0.46666667      -0.20000000 </v>
   <v>       0.43333333      -0.13333333      -0.20000000 </v>
   <v>      -0.16666667      -0.33333333       0.00000000 </v>
   <v>      -0.50000000       0.00000000       0.00000000 </v>
  </varray>
 </structure>
 <varray name="primitive_index" >
  <v type="int" >        1 </v>
  <v type="int" >       17 </v>
  <v type="int" >       25 </v>
  <v type="int" >        8 </v>
  <v type="int" >       11 </v>
  <v type="int" >       27 </v>
  <v type="int" >       14 </v>
  <v type="int" >        7 </v>
  <v type="int" >       22 </v>
  <v type="int" >       29 </v>
  <v type="int" >        5 </v>
  <v type="int" >       19 </v>
  <v type="int" >       23 </v>
  <v type="int" >       10 </v>
  <v type="int" >       15 </v>
  <v type="int" >       26 </v>
  <v type="int" >        9 </v>
  <v type="int" >        6 </v>
  <v type="int" >       18 </v>
  <v type="int" >       21 </v>
  <v type="int" >       20 </v>
  <v type="int" >        4 </v>
  <v type="int" >       28 </v>
  <v type="int" >       13 </v>
  <v type="int" >        3 </v>
  <v type="int" >       24 </v>
  <v type="int" >       16 </v>
  <v type="int" >       12 </v>
  <v type="int" >        2 </v>
 </varray>
 <kpoints>
  <generation param="Gamma">
   <v type="int" name="divisions">       7        7        7 </v>
   <v name="usershift">      0.00000000       0.00000000       0.00000000 </v>
   <v name="genvec1">      0.14285714       0.00000000       0.00000000 </v>
   <v name="genvec2">     -0.00000000       0.14285714       0.00000000 </v>
   <v name="genvec3">      0.00000000       0.00000000       0.14285714 </v>
   <v name="shift">      0.00000000       0.00000000       0.00000000 </v>
  </generation>
  <varray name="kpointlist" >
   <v>       0.00000000       0.00000000       0.00000000 </v>
   <v>       0.14285714       0.00000000      -0.00000000 </v>
   <v>       0.28571429       0.00000000       0.00000000 </v>
   <v>       0.42857143       0.00000000      -0.00000000 </v>
   <v>      -0.00000000       0.14285714       0.00000000 </v>
   <v>       0.14285714       0.14285714      -0.00000000 </v>
   <v>       0.28571429       0.14285714       0.00000000 </v>
   <v>       0.42857143       0.14285714      -0.00000000 </v>
   <v>      -0.42857143       0.14285714       0.00000000 </v>
   <v>      -0.28571429       0.14285714       0.00000000 </v>
   <v>      -0.14285714       0.14285714       0.00000000 </v>
   <v>       0.00000000       0.28571429      -0.00000000 </v>
   <v>       0.14285714       0.28571429      -0.00000000 </v>
   <v>       0.28571429       0.28571429      -0.00000000 </v>
   <v>       0.42857143       0.28571429      -0.00000000 </v>
   <v>      -0.42857143       0.28571429      -0.00000000 </v>
   <v>      -0.28571429       0.28571429      -0.00000000 </v>
   <v>      -0.14285714       0.28571429      -0.00000000 </v>
   <v>      -0.00000000       0.42857143      -0.00000000 </v>
   <v>       0.14285714       0.42857143       0.00000000 </v>
   <v>       0.28571429       0.42857143       0.00000000 </v>
   <v>       0.42857143       0.42857143      -0.00000000 </v>
   <v>      -0.42857143       0.42857143       0.00000000 </v>
   <v>      -0.28571429       0.42857143      -0.00000000 </v>
   <v>      -0.14285714       0.42857143      -0.00000000 </v>
   <v>       0.00000000       0.00000000       0.14285714 </v>
   <v>       0.14285714       0.00000000       0.14285714 </v>
   <v>       0.28571429       0.00000000       0.14285714 </v>
   <v>       0.42857143       0.00000000       0.14285714 </v>
   <v>      -0.42857143       0.00000000       0.14285714 </v>
   <v>      -0.28571429       0.00000000       0.14285714 </v>
   <v>      -0.14285714      -0.00000000       0.14285714 </v>
   <v>      -0.00000000       0.14285714       0.14285714 </v>
   <v>       0.14285714       0.14285714       0.14285714 </v>
   <v>       0.28571429       0.14285714       0.14285714 </v>
   <v>       0.42857143       0.14285714       0.14285714 </v>
   <v>      -0.42857143       0.14285714       0.14285714 </v>
   <v>      -0.28571429       0.14285714       0.14285714 </v>
   <v>      -0.14285714       0.14285714       0.14285714 </v>
   <v>      -0.00000000       0.28571429       0.14285714 </v>
   <v>       0.14285714       0.28571429       0.14285714 </v>
   <v>       0.28571429       0.28571429       0.14285714 </v>
   <v>       0.42857143       0.28571429       0.14285714 </v>
   <v>      -0.42857143       0.28571429       0.14285714 </v>
   <v>      -0.28571429       0.28571429       0.14285714 </v>
   <v>      -0.14285714       0.28571429       0.14285714 </v>
   <v>       0.00000000       0.42857143       0.14285714 </v>
   <v>       0.14285714       0.42857143       0.14285714 </v>
   <v>       0.28571429       0.42857143       0.14285714 </v>
   <v>       0.42857143       0.42857143       0.14285714 </v>
   <v>      -0.42857143       0.42857143       0.14285714 </v>
   <v>      -0.28571429       0.42857143       0.14285714 </v>
   <v>      -0.14285714       0.42857143       0.14285714 </v>
   <v>       0.00000000      -0.42857143       0.14285714 </v>
   <v>       0.14285714      -0.42857143       0.14285714 </v>
   <v>       0.28571429      -0.42857143       0.14285714 </v>
   <v>       0.42857143      -0.42857143       0.14285714 </v>
   <v>      -0.42857143      -0.42857143       0.14285714 </v>
   <v>      -0.28571429      -0.42857143       0.14285714 </v>
   <v>      -0.14285714      -0.42857143       0.14285714 </v>
   <v>       0.00000000      -0.28571429       0.14285714 </v>
   <v>       0.14285714      -0.28571429       0.14285714 </v>
   <v>       0.28571429      -0.28571429       0.14285714 </v>
   <v>       0.42857143      -0.28571429       0.14285714 </v>
   <v>      -0.42857143      -0.28571429       0.14285714 </v>
   <v>      -0.28571429      -0.28571429       0.14285714 </v>
   <v>      -0.14285714      -0.28571429       0.14285714 </v>
   <v>       0.00000000      -0.14285714       0.14285714 </v>
   <v>       0.14285714      -0.14285714       0.14285714 </v>
   <v>       0.28571429      -0.14285714       0.14285714 </v>
   <v>       0.42857143      -0.14285714       0.14285714 </v>
   <v>      -0.42857143      -0.14285714       0.14285714 </v>
   <v>      -0.28571429      -0.14285714       0.14285714 </v>
   <v>      -0.14285714      -0.14285714       0.14285714 </v>
   <v>       0.00000000       0.00000000       0.28571429 </v>
   <v>       0.14285714       0.00000000       0.28571429 </v>
   <v>       0.28571429       0.00000000       0.28571429 </v>
   <v>       0.42857143       0.00000000       0.28571429 </v>
   <v>      -0.42857143      -0.00000000       0.28571429 </v>
   <v>      -0.28571429      -0.00000000       0.28571429 </v>
   <v>      -0.14285714      -0.00000000       0.28571429 </v>
   <v>      -0.00000000       0.14285714       0.28571429 </v>
   <v>       0.14285714       0.14285714       0.28571429 </v>
   <v>       0.28571429       0.14285714       0.28571429 </v>
   <v>       0.42857143       0.14285714       0.28571429 </v>
   <v>      -0.42857143       0.14285714       0.28571429 </v>
   <v>      -0.28571429       0.14285714       0.28571429 </v>
   <v>      -0.14285714       0.14285714       0.28571429 </v>
   <v>      -0.00000000       0.28571429       0.28571429 </v>
   <v>       0.14285714       0.28571429       0.28571429 </v>
   <v>       0.28571429       0.28571429       0.28571429 </v>
   <v>       0.42857143       0.28571429       0.28571429 </v>
   <v>      -0.42857143       0.28571429       0.28571429 </v>
   <v>      -0.28571429       0.28571429       0.28571429 </v>
   <v>      -0.14285714       0.28571429       0.28571429 </v>
   <v>       0.00000000       0.42857143       0.28571429 </v>
   <v>       0.14285714       0.42857143       0.28571429 </v>
   <v>       0.28571429       0.42857143       0.28571429 </v>
   <v>       0.42857143       0.42857143       0.28571429 </v>
   <v>      -0.42857143       0.42857143       0.28571429 </v>
   <v>      -0.28571429       0.42857143       0.28571429 </v>
   <v>      -0.14285714       0.42857143       0.28571429 </v>
   <v>      -0.00000000      -0.42857143       0.28571429 </v>
   <v>       0.14285714      -0.42857143       0.28571429 </v>
   <v>       0.28571429      -0.42857143       0.28571429 </v>
   <v>       0.42857143      -0.42857143       0.28571429 </v>
   <v>      -0.42857143      -0.42857143       0.28571429 </v>
   <v>      -0.28571429      -0.42857143       0.28571429 </v>
   <v>      -0.14285714      -0.42857143       0.28571429 </v>
   <v>       0.00000000      -0.28571429       0.28571429 </v>
   <v>       0.14285714      -0.28571429       0.28571429 </v>
   <v>       0.28571429      -0.28571429       0.28571429 </v>
   <v>       0.42857143      -0.28571429       0.28571429 </v>
   <v>      -0.42857143      -0.28571429       0.28571429 </v>
   <v>      -0.28571429      -0.28571429       0.28571429 </v>
   <v>      -0.14285714      -0.28571429       0.28571429 </v>
   <v>       0.00000000      -0.14285714       0.28571429 </v>
   <v>       0.14285714      -0.14285714       0.28571429 </v>
   <v>       0.28571429      -0.14285714       0.28571429 </v>
   <v>       0.42857143      -0.14285714       0.28571429 </v>
   <v>      -0.42857143      -0.14285714       0.28571429 </v>
   <v>      -0.28571429      -0.14285714       0.28571429 </v>
   <v>      -0.14285714      -0.14285714       0.28571429 </v>
   <v>       0.00000000       0.00000000       0.42857143 </v>
   <v>       0.14285714       0.00000000       0.42857143 </v>
   <v>       0.28571429       0.00000000       0.42857143 </v>
   <v>       0.42857143      -0.00000000       0.42857143 </v>
   <v>      -0.42857143      -0.00000000       0.42857143 </v>
   <v>      -0.28571429       0.00000000       0.42857143 </v>
   <v>      -0.14285714      -0.00000000       0.42857143 </v>
   <v>      -0.00000000       0.14285714       0.42857143 </v>
   <v>       0.14285714       0.14285714       0.42857143 </v>
   <v>       0.28571429       0.14285714       0.42857143 </v>
   <v>       0.42857143       0.14285714       0.42857143 </v>
   <v>      -0.42857143       0.14285714       0.42857143 </v>
   <v>      -0.28571429       0.14285714       0.42857143 </v>
   <v>      -0.14285714       0.14285714       0.42857143 </v>
   <v>       0.00000000       0.28571429       0.42857143 </v>
   <v>       0.14285714       0.28571429       0.42857143 </v>
   <v>       0.28571429       0.28571429       0.42857143 </v>
   <v>       0.42857143       0.28571429       0.42857143 </v>
   <v>      -0.42857143       0.28571429       0.42857143 </v>
   <v>      -0.28571429       0.28571429       0.42857143 </v>
   <v>      -0.14285714       0.28571429       0.42857143 </v>
   <v>       0.00000000       0.42857143       0.42857143 </v>
   <v>       0.14285714       0.42857143       0.42857143 </v>
   <v>       0.28571429       0.42857143       0.42857143 </v>
   <v>       0.42857143       0.42857143       0.42857143 </v>
   <v>      -0.42857143       0.42857143       0.42857143 </v>
   <v>      -0.28571429       0.42857143       0.42857143 </v>
   <v>      -0.14285714       0.42857143       0.42857143 </v>
   <v>       0.00000000      -0.42857143       0.42857143 </v>
   <v>       0.14285714      -0.42857143       0.42857143 </v>
   <v>       0.28571429      -0.42857143       0.42857143 </v>
   <v>       0.42857143      -0.42857143       0.42857143 </v>
   <v>      -0.42857143      -0.42857143       0.42857143 </v>
   <v>      -0.28571429      -0.42857143       0.42857143 </v>
   <v>      -0.14285714      -0.42857143       0.42857143 </v>
   <v>      -0.00000000      -0.28571429       0.42857143 </v>
   <v>       0.14285714      -0.28571429       0.42857143 </v>
   <v>       0.28571429      -0.28571429       0.42857143 </v>
   <v>       0.42857143      -0.28571429       0.42857143 </v>
   <v>      -0.42857143      -0.28571429       0.42857143 </v>
   <v>      -0.28571429      -0.28571429       0.42857143 </v>
   <v>      -0.14285714      -0.28571429       0.42857143 </v>
   <v>       0.00000000      -0.14285714       0.42857143 </v>
   <v>       0.14285714      -0.14285714       0.42857143 </v>
   <v>       0.28571429      -0.14285714       0.42857143 </v>
   <v>       0.42857143      -0.14285714       0.42857143 </v>
   <v>      -0.42857143      -0.14285714       0.42857143 </v>
   <v>      -0.28571429      -0.14285714       0.42857143 </v>
   <v>      -0.14285714      -0.14285714       0.42857143 </v>
  </varray>
  <varray name="weights" >
   <v>       0.00291545 </v>
   <v>       0.00583090 </v>
   <v>       0.00583090 </v>
   <v>       0.00583090 </v>
   <v>       0.00583090 </v>
   <v>       0.00583090 </v>
   <v>       0.00583090 </v>
   <v>       0.00583090 </v>
   <v>       0.00583090 </v>
   <v>       0.00583090 </v>
   <v>       0.00583090 </v>
   <v>       0.00583090 </v>
   <v>       0.00583090 </v>
   <v>       0.00583090 </v>
   <v>       0.00583090 </v>
   <v>       0.00583090 </v>
   <v>       0.00583090 </v>
   <v>       0.00583090 </v>
   <v>       0.00583090 </v>
   <v>       0.00583090 </v>
   <v>       0.00583090 </v>
   <v>       0.00583090 </v>
   <v>       0.00583090 </v>
   <v>       0.00583090 </v>
   <v>       0.00583090 </v>
   <v>       0.00583090 </v>
   <v>       0.00583090 </v>
   <v>       0.00583090 </v>
   <v>       0.00583090 </v>
   <v>       0.00583090 </v>
   <v>       0.00583090 </v>
   <v>       0.00583090 </v>
   <v>       0.00583090 </v>
   <v>       0.00583090 </v>
   <v>       0.00583090 </v>
   <v>       0.00583090 </v>
   <v>       0.00583090 </v>
   <v>       0.00583090 </v>
   <v>       0.00583090 </v>
   <v>       0.00583090 </v>
   <v>       0.00583090 </v>
   <v>       0.00583090 </v>
   <v>       0.00583090 </v>
   <v>       0.00583090 </v>
   <v>       0.00583090 </v>
   <v>       0.00583090 </v>
   <v>       0.00583090 </v>
   <v>       0.00583090 </v>
   <v>       0.00583090 </v>
   <v>       0.00583090 </v>
   <v>       0.00583090 </v>
   <v>       0.00583090 </v>
   <v>       0.00583090 </v>
   <v>       0.00583090 </v>
   <v>       0.00583090 </v>
   <v>       0.00583090 </v>
   <v>       0.00583090 </v>
   <v>       0.00583090 </v>
   <v>       0.00583090 </v>
   <v>       0.00583090 </v>
   <v>       0.00583090 </v>
   <v>       0.00583090 </v>
   <v>       0.00583090 </v>
   <v>       0.00583090 </v>
   <v>       0.00583090 </v>
   <v>       0.00583090 </v>
   <v>       0.00583090 </v>
   <v>       0.00583090 </v>
   <v>       0.00583090 </v>
   <v>       0.00583090 </v>
   <v>       0.00583090 </v>
   <v>       0.00583090 </v>
   <v>       0.00583090 </v>
   <v>       0.00583090 </v>
   <v>       0.00583090 </v>
   <v>       0.00583090 </v>
   <v>       0.00583090 </v>
   <v>       0.00583090 </v>
   <v>       0.00583090 </v>
   <v>       0.00583090 </v>
   <v>       0.00583090 </v>
   <v>       0.00583090 </v>
   <v>       0.00583090 </v>
   <v>       0.00583090 </v>
   <v>       0.00583090 </v>
   <v>       0.00583090 </v>
   <v>       0.00583090 </v>
   <v>       0.00583090 </v>
   <v>       0.00583090 </v>
   <v>       0.00583090 </v>
   <v>       0.00583090 </v>
   <v>       0.00583090 </v>
   <v>       0.00583090 </v>
   <v>       0.00583090 </v>
   <v>       0.00583090 </v>
   <v>       0.00583090 </v>
   <v>       0.00583090 </v>
   <v>       0.00583090 </v>
   <v>       0.00583090 </v>
   <v>       0.00583090 </v>
   <v>       0.00583090 </v>
   <v>       0.00583090 </v>
   <v>       0.00583090 </v>
   <v>       0.00583090 </v>
   <v>       0.00583090 </v>
   <v>       0.00583090 </v>
   <v>       0.00583090 </v>
   <v>       0.00583090 </v>
   <v>       0.00583090 </v>
   <v>       0.00583090 </v>
   <v>       0.00583090 </v>
   <v>       0.00583090 </v>
   <v>       0.00583090 </v>
   <v>       0.00583090 </v>
   <v>       0.00583090 </v>
   <v>       0.00583090 </v>
   <v>       0.00583090 </v>
   <v>       0.00583090 </v>
   <v>       0.00583090 </v>
   <v>       0.00583090 </v>
   <v>       0.00583090 </v>
   <v>       0.00583090 </v>
   <v>       0.00583090 </v>
   <v>       0.00583090 </v>
   <v>       0.00583090 </v>
   <v>       0.00583090 </v>
   <v>       0.00583090 </v>
   <v>       0.00583090 </v>
   <v>       0.00583090 </v>
   <v>       0.00583090 </v>
   <v>       0.00583090 </v>
   <v>       0.00583090 </v>
   <v>       0.00583090 </v>
   <v>       0.00583090 </v>
   <v>       0.00583090 </v>
   <v>       0.00583090 </v>
   <v>       0.00583090 </v>
   <v>       0.00583090 </v>
   <v>       0.00583090 </v>
   <v>       0.00583090 </v>
   <v>       0.00583090 </v>
   <v>       0.00583090 </v>
   <v>       0.00583090 </v>
   <v>       0.00583090 </v>
   <v>       0.00583090 </v>
   <v>       0.00583090 </v>
   <v>       0.00583090 </v>
   <v>       0.00583090 </v>
   <v>       0.00583090 </v>
   <v>       0.00583090 </v>
   <v>       0.00583090 </v>
   <v>       0.00583090 </v>
   <v>       0.00583090 </v>
   <v>       0.00583090 </v>
   <v>       0.00583090 </v>
   <v>       0.00583090 </v>
   <v>       0.00583090 </v>
   <v>       0.00583090 </v>
   <v>       0.00583090 </v>
   <v>       0.00583090 </v>
   <v>       0.00583090 </v>
   <v>       0.00583090 </v>
   <v>       0.00583090 </v>
   <v>       0.00583090 </v>
   <v>       0.00583090 </v>
   <v>       0.00583090 </v>
   <v>       0.00583090 </v>
   <v>       0.00583090 </v>
   <v>       0.00583090 </v>
   <v>       0.00583090 </v>
   <v>       0.00583090 </v>
   <v>       0.00583090 </v>
  </varray>
 </kpoints>
 <parameters>
  <separator name="general" >
   <i type="string" name="SYSTEM">Nb - Mo - Ta - Ti - V SQS</i>
   <i type="logical" name="LCOMPAT"> F  </i>
  </separator>
  <separator name="electronic" >
   <i type="string" name="PREC">normal</i>
   <i name="ENMAX">    600.00000000</i>
   <i name="ENAUG">    455.65900000</i>
   <i name="EDIFF">      0.00010000</i>
   <i type="int" name="IALGO">    38</i>
   <i type="int" name="IWAVPR">    11</i>
   <i type="int" name="NBANDS">   120</i>
   <i name="NELECT">    185.00000000</i>
   <i type="int" name="TURBO">     0</i>
   <i type="int" name="IRESTART">     0</i>
   <i type="int" name="NREBOOT">     0</i>
   <i type="int" name="NMIN">     0</i>
   <i name="EREF">      0.00000000</i>
   <separator name="electronic smearing" >
    <i type="int" name="ISMEAR">     1</i>
    <i name="SIGMA">      0.20000000</i>
    <i name="KSPACING">      0.50000000</i>
    <i type="logical" name="KGAMMA"> T  </i>
   </separator>
   <separator name="electronic projectors" >
    <i type="logical" name="LREAL"> T  </i>
    <v name="ROPT">     -0.00050000     -0.00050000     -0.00050000     -0.00050000     -0.00050000</v>
    <i type="int" name="LMAXPAW">  -100</i>
    <i type="int" name="LMAXMIX">     2</i>
    <i type="logical" name="NLSPLINE"> F  </i>
   </separator>
   <separator name="electronic startup" >
    <i type="int" name="ISTART">     0</i>
    <i type="int" name="ICHARG">     0</i>
    <i type="int" name="INIWAV">     1</i>
   </separator>
   <separator name="electronic spin" >
    <i type="int" name="ISPIN">     1</i>
    <i type="logical" name="LNONCOLLINEAR"> F  </i>
    <v name="MAGMOM">      1.00000000      1.00000000      1.00000000      1.00000000      1.00000000      1.00000000      1.00000000      1.00000000      1.00000000      1.00000000      1.00000000      1.00000000      1.00000000      1.00000000      1.00000000      1.00000000      1.00000000      1.00000000      1.00000000      1.00000000
      1.00000000      1.00000000      1.00000000      1.00000000      1.00000000      1.00000000      1.00000000      1.00000000      1.00000000</v>
    <i name="NUPDOWN">     -1.00000000</i>
    <i type="logical" name="LSORBIT"> F  </i>
    <v name="SAXIS">      0.00000000      0.00000000      1.00000000</v>
    <i type="logical" name="LSPIRAL"> F  </i>
    <v name="QSPIRAL">      0.00000000      0.00000000      0.00000000</v>
    <i type="logical" name="LZEROZ"> F  </i>
   </separator>
   <separator name="electronic exchange-correlation" >
    <i type="logical" name="LASPH"> F  </i>
    <i type="logical" name="LMETAGGA"> F  </i>
   </separator>
   <separator name="electronic convergence" >
    <i type="int" name="NELM">    60</i>
    <i type="int" name="NELMDL">    -5</i>
    <i type="int" name="NELMIN">     2</i>
    <i name="ENINI">    600.00000000</i>
    <separator name="electronic convergence detail" >
     <i type="logical" name="LDIAG"> T  </i>
     <i type="logical" name="LSUBROT"> F  </i>
     <i name="WEIMIN">      0.00100000</i>
     <i name="EBREAK">      0.00000021</i>
     <i name="DEPER">      0.30000000</i>
     <i type="int" name="NRMM">     4</i>
     <i name="TIME">      0.40000000</i>
    </separator>
   </separator>
   <separator name="electronic mixer" >
    <i name="AMIX">      0.40000000</i>
    <i name="BMIX">      1.00000000</i>
    <i name="AMIN">      0.10000000</i>
    <i name="AMIX_MAG">      1.60000000</i>
    <i name="BMIX_MAG">      1.00000000</i>
    <separator name="electronic mixer details" >
     <i type="int" name="IMIX">     4</i>
     <i type="logical" name="MIXFIRST"> F  </i>
     <i type="int" name="MAXMIX">   -45</i>
     <i name="WC">    100.00000000</i>
     <i type="int" name="INIMIX">     1</i>
     <i type="int" name="MIXPRE">     1</i>
     <i type="int" name="MREMOVE">     5</i>
    </separator>
   </separator>
   <separator name="electronic dipolcorrection" >
    <i type="logical" name="LDIPOL"> F  </i>
    <i type="logical" name="LMONO"> F  </i>
    <i type="int" name="IDIPOL">     0</i>
    <i name="EPSILON">      1.00000000</i>
    <v name="DIPOL">   -100.00000000   -100.00000000   -100.00000000</v>
    <i name="EFIELD">      0.00000000</i>
   </separator>
  </separator>
  <separator name="grids" >
   <i type="int" name="NGX">    36</i>
   <i type="int" name="NGY">    50</i>
   <i type="int" name="NGZ">    70</i>
   <i type="int" name="NGXF">    72</i>
   <i type="int" name="NGYF">   100</i>
   <i type="int" name="NGZF">   140</i>
   <i type="logical" name="ADDGRID"> F  </i>
  </separator>
  <separator name="ionic" >
   <i type="int" name="NSW">    50</i>
   <i type="int" name="IBRION">     2</i>
   <i type="int" name="MDALGO">     0</i>
   <i type="int" name="ISIF">     3</i>
   <i name="PSTRESS">      0.00000000</i>
   <i name="EDIFFG">      0.00100000</i>
   <i type="int" name="NFREE">     1</i>
   <i name="POTIM">      0.50000000</i>
   <i name="SMASS">     -3.00000000</i>
   <i name="SCALEE">      1.00000000</i>
  </separator>
  <separator name="ionic md" >
   <i name="TEBEG">      0.00010000</i>
   <i name="TEEND">      0.00010000</i>
   <i type="int" name="NBLOCK">     1</i>
   <i type="int" name="KBLOCK">    50</i>
   <i type="int" name="NPACO">   256</i>
   <i name="APACO">     16.00000000</i>
  </separator>
  <separator name="symmetry" >
   <i type="int" name="ISYM">     2</i>
   <i name="SYMPREC">      0.00001000</i>
  </separator>
  <separator name="dos" >
   <i type="int" name="LORBIT">     0</i>
   <v name="RWIGS">     -1.00000000     -1.00000000     -1.00000000     -1.00000000     -1.00000000</v>
   <i type="int" name="NEDOS">   301</i>
   <i name="EMIN">     10.00000000</i>
   <i name="EMAX">    -10.00000000</i>
   <i name="EFERMI">      0.00000000</i>
  </separator>
  <separator name="writing" >
   <i type="int" name="NWRITE">     2</i>
   <i type="logical" name="LWAVE"> T  </i>
   <i type="logical" name="LDOWNSAMPLE"> F  </i>
   <i type="logical" name="LCHARG"> T  </i>
   <i type="logical" name="LPARD"> F  </i>
   <i type="logical" name="LVTOT"> F  </i>
   <i type="logical" name="LVHAR"> F  </i>
   <i type="logical" name="LELF"> F  </i>
   <i type="logical" name="LOPTICS"> F  </i>
   <v name="STM">      0.00000000      0.00000000      0.00000000      0.00000000      0.00000000      0.00000000      0.00000000</v>
  </separator>
  <separator name="performance" >
   <i type="int" name="NPAR">    12</i>
   <i type="int" name="NSIM">     4</i>
   <i type="int" name="NBLK">    -1</i>
   <i type="logical" name="LPLANE"> T  </i>
   <i type="logical" name="LSCALAPACK"> T  </i>
   <i type="logical" name="LSCAAWARE"> F  </i>
   <i type="logical" name="LSCALU"> F  </i>
   <i type="logical" name="LASYNC"> F  </i>
   <i type="logical" name="LORBITALREAL"> F  </i>
  </separator>
  <separator name="miscellaneous" >
   <i type="int" name="IDIOT">     3</i>
   <i type="int" name="ISPECIAL">     0</i>
   <i type="logical" name="LMUSIC"> F  </i>
   <v name="POMASS">     92.91000000     95.94000000    180.94800000     47.88000000     50.94100000</v>
   <v name="DARWINR">      0.00000000      0.00000000      0.00000000      0.00000000      0.00000000</v>
   <v name="DARWINV">      1.00000000      1.00000000      1.00000000      1.00000000      1.00000000</v>
   <i type="logical" name="LCORR"> T  </i>
  </separator>
  <i type="logical" name="GGA_COMPAT"> T  </i>
  <i type="logical" name="LBERRY"> F  </i>
  <i type="int" name="ICORELEVEL">     0</i>
  <i type="logical" name="LDAU"> F  </i>
  <i type="int" name="I_CONSTRAINED_M">     0</i>
  <separator name="electronic exchange-correlation" >
   <i type="string" name="GGA">PS</i>
   <i type="int" name="VOSKOWN">     0</i>
   <i type="logical" name="LHFCALC"> F  </i>
   <i type="string" name="PRECFOCK"></i>
   <i type="logical" name="LSYMGRAD"> F  </i>
   <i type="logical" name="LHFONE"> F  </i>
   <i type="logical" name="LRHFCALC"> F  </i>
   <i type="logical" name="LTHOMAS"> F  </i>
   <i type="logical" name="LMODELHF"> F  </i>
   <i name="ENCUT4O">     -1.00000000</i>
   <i type="int" name="EXXOEP">     0</i>
   <i type="int" name="FOURORBIT">     0</i>
   <i name="AEXX">      0.00000000</i>
   <i name="HFALPHA">      0.00000000</i>
   <i name="MCALPHA">      0.00000000</i>
   <i name="ALDAX">      1.00000000</i>
   <i name="AGGAX">      1.00000000</i>
   <i name="ALDAC">      1.00000000</i>
   <i name="AGGAC">      1.00000000</i>
   <i type="int" name="NKREDX">     1</i>
   <i type="int" name="NKREDY">     1</i>
   <i type="int" name="NKREDZ">     1</i>
   <i type="logical" name="SHIFTRED"> F  </i>
   <i type="logical" name="ODDONLY"> F  </i>
   <i type="logical" name="EVENONLY"> F  </i>
   <i type="int" name="LMAXFOCK">     0</i>
   <i type="int" name="NMAXFOCKAE">     0</i>
   <i type="logical" name="LFOCKAEDFT"> F  </i>
   <i name="HFSCREEN">      0.00000000</i>
   <i name="HFSCREENC">      0.00000000</i>
   <i type="int" name="NBANDSGWLOW">     0</i>
  </separator>
  <separator name="vdW DFT" >
   <i type="logical" name="LUSE_VDW"> F  </i>
   <i name="Zab_VDW">     -0.84910000</i>
   <i name="PARAM1">      0.12340000</i>
   <i name="PARAM2">      1.00000000</i>
   <i name="PARAM3">      0.00000000</i>
  </separator>
  <separator name="model GW" >
   <i type="int" name="MODEL_GW">     0</i>
   <i name="MODEL_EPS0">      9.79277462</i>
   <i name="MODEL_ALPHA">      1.00000000</i>
  </separator>
  <separator name="linear response parameters" >
   <i type="logical" name="LEPSILON"> F  </i>
   <i type="logical" name="LRPA"> F  </i>
   <i type="logical" name="LNABLA"> F  </i>
   <i type="logical" name="LVEL"> F  </i>
   <i type="int" name="KINTER">     0</i>
   <i name="CSHIFT">      0.10000000</i>
   <i name="OMEGAMAX">     -1.00000000</i>
   <i name="DEG_THRESHOLD">      0.00200000</i>
   <i name="RTIME">     -0.10000000</i>
   <i name="WPLASMAI">      0.00000000</i>
   <v name="DFIELD">      0.00000000      0.00000000      0.00000000</v>
   <v name="WPLASMA">      0.00000000      0.00000000      0.00000000      0.00000000      0.00000000      0.00000000      0.00000000      0.00000000      0.00000000</v>
  </separator>
  <separator name="orbital magnetization" >
   <i type="logical" name="NUCIND"> F  </i>
   <v name="MAGPOS">      0.00000000      0.00000000      0.00000000</v>
   <i type="logical" name="LNICSALL"> T  </i>
   <i type="logical" name="ORBITALMAG"> F  </i>
   <i type="logical" name="LMAGBLOCH"> F  </i>
   <i type="logical" name="LCHIMAG"> F  </i>
   <i type="logical" name="LGAUGE"> T  </i>
   <i type="int" name="MAGATOM">     0</i>
   <v name="MAGDIPOL">      0.00000000      0.00000000      0.00000000</v>
   <v name="AVECCONST">      0.00000000      0.00000000      0.00000000</v>
  </separator>
  <separator name="response functions" >
   <i type="logical" name="LADDER"> F  </i>
   <i type="logical" name="LRPAFORCE"> F  </i>
   <i type="logical" name="LFXC"> F  </i>
   <i type="logical" name="LHARTREE"> T  </i>
   <i type="int" name="IBSE">     0</i>
   <v type="int" name="KPOINT">    -1     0     0     0</v>
   <i type="logical" name="LTCTE"> F  </i>
   <i type="logical" name="LTETE"> F  </i>
   <i type="logical" name="LTRIPLET"> F  </i>
   <i type="logical" name="LFXCEPS"> F  </i>
   <i type="logical" name="LFXHEG"> F  </i>
   <i type="int" name="NATURALO">     2</i>
   <i type="logical" name="L2ORDER"> F  </i>
   <i type="logical" name="LMP2LT"> F  </i>
   <i type="logical" name="LUSEW"> F  </i>
   <i name="ENCUTGW">     -2.00000000</i>
   <i name="ENCUTGWSOFT">     -2.00000000</i>
   <i name="ENCUTLF">     -1.00000000</i>
   <i type="int" name="LMAXMP2">    -1</i>
   <i name="SCISSOR">      0.00000000</i>
   <i type="int" name="NOMEGA">     0</i>
   <i type="int" name="NOMEGAR">     0</i>
   <i type="int" name="NBANDSGW">    -1</i>
   <i type="int" name="NBANDSO">    -1</i>
   <i type="int" name="NBANDSV">    -1</i>
   <i type="int" name="NELM">     1</i>
   <i type="int" name="NELMHF">     1</i>
   <i type="int" name="DIM">     3</i>
   <i type="int" name="ANTIRES">     0</i>
   <i name="OMEGAMAX">    -30.00000000</i>
   <i name="OMEGAMIN">    -30.00000000</i>
   <i name="OMEGATL">   -200.00000000</i>
   <i type="int" name="OMEGAGRID">   140</i>
   <i name="CSHIFT">     -0.10000000</i>
   <i type="logical" name="SELFENERGY"> F  </i>
   <i type="logical" name="LSPECTRAL"> F  </i>
   <i type="logical" name="LSPECTRALGW"> F  </i>
   <i type="logical" name="LSINGLES"> F  </i>
   <i type="logical" name="LFERMIGW"> F  </i>
   <i type="logical" name="ODDONLYGW"> F  </i>
   <i type="logical" name="EVENONLYGW"> F  </i>
   <i type="int" name="NKREDLFX">     1</i>
   <i type="int" name="NKREDLFY">     1</i>
   <i type="int" name="NKREDLFZ">     1</i>
   <i type="int" name="MAXMEM">  2800</i>
   <i type="int" name="TELESCOPE">     0</i>
   <i type="int" name="TAUPAR">     1</i>
   <i type="int" name="OMEGAPAR">    -1</i>
   <i name="LAMBDA">      1.00000000</i>
  </separator>
  <separator name="External order field" >
   <i name="OFIELD_KAPPA">      0.00000000</i>
   <v name="OFIELD_K">      0.00000000      0.00000000      0.00000000</v>
   <i name="OFIELD_Q6_NEAR">      0.00000000</i>
   <i name="OFIELD_Q6_FAR">      0.00000000</i>
   <i name="OFIELD_A">      0.00000000</i>
  </separator>
  <separator name="solvation model" >
   <i type="logical" name="LSOL"> F  </i>
  </separator>
 </parameters>
 <atominfo>
  <atoms>      29 </atoms>
  <types>       5 </types>
  <array name="atoms" >
   <dimension dim="1">ion</dimension>
   <field type="string">element</field>
   <field type="int">atomtype</field>
   <set>
    <rc><c>Nb</c><c>   1</c></rc>
    <rc><c>Nb</c><c>   1</c></rc>
    <rc><c>Nb</c><c>   1</c></rc>
    <rc><c>Nb</c><c>   1</c></rc>
    <rc><c>Nb</c><c>   1</c></rc>
    <rc><c>Mo</c><c>   2</c></rc>
    <rc><c>Mo</c><c>   2</c></rc>
    <rc><c>Mo</c><c>   2</c></rc>
    <rc><c>Mo</c><c>   2</c></rc>
    <rc><c>Mo</c><c>   2</c></rc>
    <rc><c>Mo</c><c>   2</c></rc>
    <rc><c>Ta</c><c>   3</c></rc>
    <rc><c>Ta</c><c>   3</c></rc>
    <rc><c>Ta</c><c>   3</c></rc>
    <rc><c>Ta</c><c>   3</c></rc>
    <rc><c>Ta</c><c>   3</c></rc>
    <rc><c>Ta</c><c>   3</c></rc>
    <rc><c>Ti</c><c>   4</c></rc>
    <rc><c>Ti</c><c>   4</c></rc>
    <rc><c>Ti</c><c>   4</c></rc>
    <rc><c>Ti</c><c>   4</c></rc>
    <rc><c>Ti</c><c>   4</c></rc>
    <rc><c>Ti</c><c>   4</c></rc>
    <rc><c>V </c><c>   5</c></rc>
    <rc><c>V </c><c>   5</c></rc>
    <rc><c>V </c><c>   5</c></rc>
    <rc><c>V </c><c>   5</c></rc>
    <rc><c>V </c><c>   5</c></rc>
    <rc><c>V </c><c>   5</c></rc>
   </set>
  </array>
  <array name="atomtypes" >
   <dimension dim="1">type</dimension>
   <field type="int">atomspertype</field>
   <field type="string">element</field>
   <field>mass</field>
   <field>valence</field>
   <field type="string">pseudopotential</field>
   <set>
    <rc><c>   5</c><c>Nb</c><c>     92.91000000</c><c>     13.00000000</c><c>  PAW_PBE Nb_sv 25May2007               </c></rc>
    <rc><c>   6</c><c>Mo</c><c>     95.94000000</c><c>      6.00000000</c><c>  PAW_PBE Mo 08Apr2002                  </c></rc>
    <rc><c>   6</c><c>Ta</c><c>    180.94800000</c><c>      5.00000000</c><c>  PAW_PBE Ta 17Jan2003                  </c></rc>
    <rc><c>   6</c><c>Ti</c><c>     47.88000000</c><c>      4.00000000</c><c>  PAW_PBE Ti 08Apr2002                  </c></rc>
    <rc><c>   6</c><c>V </c><c>     50.94100000</c><c>      5.00000000</c><c>  PAW_PBE V 08Apr2002                   </c></rc>
   </set>
  </array>
 </atominfo>
 <structure name="initialpos" >
  <crystal>
   <varray name="basis" >
    <v>      -3.16000000      -3.16000000      -3.16000000 </v>
    <v>       1.58000000       1.58000000      -7.90000000 </v>
    <v>       7.90000000      -7.90000000      -1.58000000 </v>
   </varray>
   <i name="volume">    473.31744000 </i>
   <varray name="rec_basis" >
    <v>      -0.13713080      -0.12658228      -0.05274262 </v>
    <v>       0.04219409       0.06329114      -0.10548523 </v>
    <v>       0.06329114      -0.06329114       0.00000000 </v>
   </varray>
  </crystal>
  <varray name="positions" >
   <v>       0.63333333       0.26666667       0.40000000 </v>
   <v>       0.50000000       0.00000000       0.00000000 </v>
   <v>       0.00000000       0.00000000       0.00000000 </v>
   <v>       0.10000000       0.20000000       0.80000000 </v>
   <v>       0.03333333       0.06666667       0.60000000 </v>
   <v>       0.90000000       0.80000000       0.20000000 </v>
   <v>       0.80000000       0.60000000       0.40000000 </v>
   <v>       0.73333333       0.46666667       0.20000000 </v>
   <v>       0.66666667       0.33333333       0.00000000 </v>
   <v>       0.36666667       0.73333333       0.60000000 </v>
   <v>       0.13333333       0.26666667       0.40000000 </v>
   <v>       0.83333333       0.66666667       0.00000000 </v>
   <v>       0.93333333       0.86666667       0.80000000 </v>
   <v>       0.56666667       0.13333333       0.20000000 </v>
   <v>       0.40000000       0.80000000       0.20000000 </v>
   <v>       0.43333333       0.86666667       0.80000000 </v>
   <v>       0.30000000       0.60000000       0.40000000 </v>
   <v>       0.86666667       0.73333333       0.60000000 </v>
   <v>       0.46666667       0.93333333       0.40000000 </v>
   <v>       0.16666667       0.33333333       0.00000000 </v>
   <v>       0.26666667       0.53333333       0.80000000 </v>
   <v>       0.20000000       0.40000000       0.60000000 </v>
   <v>       0.06666667       0.13333333       0.20000000 </v>
   <v>       0.76666667       0.53333333       0.80000000 </v>
   <v>       0.70000000       0.40000000       0.60000000 </v>
   <v>       0.60000000       0.20000000       0.80000000 </v>
   <v>       0.53333333       0.06666667       0.60000000 </v>
   <v>       0.33333333       0.66666667       0.00000000 </v>
   <v>       0.23333333       0.46666667       0.20000000 </v>
  </varray>
 </structure>
 <calculation>
  <scstep>
   <time name="dav">   43.29   43.36</time>
   <time name="total">   43.43   43.50</time>
   <energy>
    <i name="alphaZ">   1104.47950323 </i>
    <i name="ewald"> -10061.54361555 </i>
    <i name="hartreedc">   -105.13112677 </i>
    <i name="XCdc">  -1018.50907855 </i>
    <i name="pawpsdc"> 490150.58023119 </i>
    <i name="pawaedc">-488832.97103139 </i>
    <i name="eentropy">     -0.00145821 </i>
    <i name="bandstr">  -6839.11037381 </i>
    <i name="atom">  11451.57642151 </i>
    <i name="e_fr_energy">  -4150.63052834 </i>
    <i name="e_wo_entrp">  -4150.62907013 </i>
    <i name="e_0_energy">  -4150.63004227 </i>
   </energy>
  </scstep>
  <scstep>
   <time name="dav">   46.68   46.74</time>
   <time name="total">   46.69   46.75</time>
   <energy>
    <i name="e_fr_energy">  -9527.32582862 </i>
    <i name="e_wo_entrp">  -9527.32658609 </i>
    <i name="e_0_energy">  -9527.32608111 </i>
   </energy>
  </scstep>
  <scstep>
   <time name="dav">   55.38   55.51</time>
   <time name="total">   55.39   55.52</time>
   <energy>
    <i name="e_fr_energy"> -10606.97185984 </i>
    <i name="e_wo_entrp"> -10606.97198389 </i>
    <i name="e_0_energy"> -10606.97190119 </i>
   </energy>
  </scstep>
  <scstep>
   <time name="dav">   56.52   56.59</time>
   <time name="total">   56.53   56.60</time>
   <energy>
    <i name="e_fr_energy"> -10985.15802169 </i>
    <i name="e_wo_entrp"> -10985.15503714 </i>
    <i name="e_0_energy"> -10985.15702684 </i>
   </energy>
  </scstep>
  <scstep>
   <time name="dav">   56.57   56.64</time>
   <time name="total">   57.20   57.28</time>
   <energy>
    <i name="e_fr_energy"> -11189.24276167 </i>
    <i name="e_wo_entrp"> -11189.24600565 </i>
    <i name="e_0_energy"> -11189.24384300 </i>
   </energy>
  </scstep>
  <scstep>
   <time name="dav">   49.63   49.69</time>
   <time name="total">   50.27   50.33</time>
   <energy>
    <i name="e_fr_energy">   -974.71927144 </i>
    <i name="e_wo_entrp">   -974.72708572 </i>
    <i name="e_0_energy">   -974.72187620 </i>
   </energy>
  </scstep>
  <scstep>
   <time name="dav">   51.93   52.00</time>
   <time name="total">   52.62   52.69</time>
   <energy>
    <i name="e_fr_energy">   -938.91180822 </i>
    <i name="e_wo_entrp">   -938.91366190 </i>
    <i name="e_0_energy">   -938.91242612 </i>
   </energy>
  </scstep>
  <scstep>
   <time name="dav">   48.55   48.60</time>
   <time name="total">   49.22   49.28</time>
   <energy>
    <i name="e_fr_energy">   -604.59684646 </i>
    <i name="e_wo_entrp">   -604.59410078 </i>
    <i name="e_0_energy">   -604.59593124 </i>
   </energy>
  </scstep>
  <scstep>
   <time name="dav">   50.64   50.70</time>
   <time name="total">   51.30   51.37</time>
   <energy>
    <i name="e_fr_energy">   -532.94797436 </i>
    <i name="e_wo_entrp">   -532.94350913 </i>
    <i name="e_0_energy">   -532.94648595 </i>
   </energy>
  </scstep>
  <scstep>
   <time name="dav">   55.51   55.58</time>
   <time name="total">   56.17   56.24</time>
   <energy>
    <i name="e_fr_energy">   -565.49854908 </i>
    <i name="e_wo_entrp">   -565.47877556 </i>
    <i name="e_0_energy">   -565.49195790 </i>
   </energy>
  </scstep>
  <scstep>
   <time name="dav">   53.29   53.36</time>
   <time name="total">   53.96   54.03</time>
   <energy>
    <i name="e_fr_energy">   -696.84993606 </i>
    <i name="e_wo_entrp">   -696.84202075 </i>
    <i name="e_0_energy">   -696.84729762 </i>
   </energy>
  </scstep>
  <scstep>
   <time name="dav">   55.15   55.22</time>
   <time name="total">   55.79   55.86</time>
   <energy>
    <i name="e_fr_energy">   -838.33082924 </i>
    <i name="e_wo_entrp">   -838.33690640 </i>
    <i name="e_0_energy">   -838.33285496 </i>
   </energy>
  </scstep>
  <scstep>
   <time name="dav">   48.09   48.15</time>
   <time name="total">   48.75   48.81</time>
   <energy>
    <i name="e_fr_energy">   -842.46938310 </i>
    <i name="e_wo_entrp">   -842.47497715 </i>
    <i name="e_0_energy">   -842.47124778 </i>
   </energy>
  </scstep>
  <scstep>
   <time name="dav">   54.00   54.06</time>
   <time name="total">   54.65   54.72</time>
   <energy>
    <i name="e_fr_energy">   -799.22606806 </i>
    <i name="e_wo_entrp">   -799.20022362 </i>
    <i name="e_0_energy">   -799.21745325 </i>
   </energy>
  </scstep>
  <scstep>
   <time name="dav">   53.09   53.16</time>
   <time name="total">   53.85   53.92</time>
   <energy>
    <i name="e_fr_energy">  -3050.41194496 </i>
    <i name="e_wo_entrp">  -3050.41619837 </i>
    <i name="e_0_energy">  -3050.41336277 </i>
   </energy>
  </scstep>
  <scstep>
   <time name="dav">   56.62   56.68</time>
   <time name="total">   57.31   57.38</time>
   <energy>
    <i name="e_fr_energy">  -3714.93382763 </i>
    <i name="e_wo_entrp">  -3714.94663784 </i>
    <i name="e_0_energy">  -3714.93809770 </i>
   </energy>
  </scstep>
  <scstep>
   <time name="dav">   56.67   56.74</time>
   <time name="total">   57.33   57.40</time>
   <energy>
    <i name="e_fr_energy">  -3828.78353266 </i>
    <i name="e_wo_entrp">  -3828.76785359 </i>
    <i name="e_0_energy">  -3828.77830631 </i>
   </energy>
  </scstep>
  <scstep>
   <time name="dav">   46.41   46.47</time>
   <time name="total">   47.06   47.12</time>
   <energy>
    <i name="e_fr_energy">  -5749.07137307 </i>
    <i name="e_wo_entrp">  -5749.05743492 </i>
    <i name="e_0_energy">  -5749.06672702 </i>
   </energy>
  </scstep>
  <scstep>
   <time name="dav">   54.24   54.30</time>
   <time name="total">   54.84   54.91</time>
   <energy>
    <i name="e_fr_energy">**************** </i>
    <i name="e_wo_entrp">**************** </i>
    <i name="e_0_energy">**************** </i>
   </energy>
  </scstep>
  <scstep>
   <time name="dav">   50.86   50.92</time>
   <time name="total">   51.48   51.54</time>
   <energy>
    <i name="e_fr_energy">  -1781.06210407 </i>
    <i name="e_wo_entrp">  -1781.06243963 </i>
    <i name="e_0_energy">  -1781.06221593 </i>
   </energy>
  </scstep>
  <scstep>
   <time name="dav">   48.87   48.92</time>
   <time name="total">   49.56   49.62</time>
   <energy>
    <i name="e_fr_energy">  -1709.78666432 </i>
    <i name="e_wo_entrp">  -1709.78603196 </i>
    <i name="e_0_energy">  -1709.78645353 </i>
   </energy>
  </scstep>
  <scstep>
   <time name="dav">   55.76   55.83</time>
   <time name="total">   56.48   56.55</time>
   <energy>
    <i name="e_fr_energy">  -2395.73351902 </i>
    <i name="e_wo_entrp">  -2395.72887288 </i>
    <i name="e_0_energy">  -2395.73197031 </i>
   </energy>
  </scstep>
  <scstep>
   <time name="dav">   56.50   56.56</time>
   <time name="total">   57.29   57.37</time>
   <energy>
    <i name="e_fr_energy">  -2510.66749237 </i>
    <i name="e_wo_entrp">  -2510.67022475 </i>
    <i name="e_0_energy">  -2510.66840317 </i>
   </energy>
  </scstep>
  <scstep>
   <time name="dav">   49.52   49.58</time>
   <time name="total">   50.18   50.24</time>
   <energy>
    <i name="e_fr_energy">  -2986.90480071 </i>
    <i name="e_wo_entrp">  -2986.91012082 </i>
    <i name="e_0_energy">  -2986.90657408 </i>
   </energy>
  </scstep>
  <scstep>
   <time name="dav">   48.86   48.92</time>
   <time name="total">   49.53   49.59</time>
   <energy>
    <i name="e_fr_energy">  -6503.42089911 </i>
    <i name="e_wo_entrp">  -6503.43795713 </i>
    <i name="e_0_energy">  -6503.42658512 </i>
   </energy>
  </scstep>
  <scstep>
   <time name="dav">   43.20   43.25</time>
   <time name="total">   43.87   43.92</time>
   <energy>
    <i name="e_fr_energy">  -3308.79722434 </i>
    <i name="e_wo_entrp">  -3308.79005613 </i>
    <i name="e_0_energy">  -3308.79483494 </i>
   </energy>
  </scstep>
  <scstep>
   <time name="dav">   33.02   33.06</time>
   <time name="total">   33.68   33.72</time>
   <energy>
    <i name="e_fr_energy">  -2531.76135950 </i>
    <i name="e_wo_entrp">  -2531.76369995 </i>
    <i name="e_0_energy">  -2531.76213965 </i>
   </energy>
  </scstep>
  <scstep>
   <time name="dav">   42.99   43.04</time>
   <time name="total">   43.65   43.70</time>
   <energy>
    <i name="e_fr_energy">  -1919.28273088 </i>
    <i name="e_wo_entrp">  -1919.28496169 </i>
    <i name="e_0_energy">  -1919.28347449 </i>
   </energy>
  </scstep>
  <scstep>
   <time name="dav">   33.24   33.28</time>
   <time name="total">   34.00   34.05</time>
   <energy>
    <i name="e_fr_energy">  -1550.61634865 </i>
    <i name="e_wo_entrp">  -1550.62341435 </i>
    <i name="e_0_energy">  -1550.61870389 </i>
   </energy>
  </scstep>
  <scstep>
   <time name="dav">   38.32   38.36</time>
   <time name="total">   38.98   39.03</time>
   <energy>
    <i name="e_fr_energy">  -1420.44370855 </i>
    <i name="e_wo_entrp">  -1420.43444619 </i>
    <i name="e_0_energy">  -1420.44062110 </i>
   </energy>
  </scstep>
  <scstep>
   <time name="dav">   42.24   42.29</time>
   <time name="total">   42.91   42.97</time>
   <energy>
    <i name="e_fr_energy">  -2218.06968843 </i>
    <i name="e_wo_entrp">  -2218.05015979 </i>
    <i name="e_0_energy">  -2218.06317888 </i>
   </energy>
  </scstep>
  <scstep>
   <time name="dav">   34.10   34.14</time>
   <time name="total">   34.76   34.80</time>
   <energy>
    <i name="e_fr_energy">  -1820.05684373 </i>
    <i name="e_wo_entrp">  -1820.05620516 </i>
    <i name="e_0_energy">  -1820.05663087 </i>
   </energy>
  </scstep>
  <scstep>
   <time name="dav">   48.38   48.44</time>
   <time name="total">   49.03   49.10</time>
   <energy>
    <i name="e_fr_energy">  -2228.79886712 </i>
    <i name="e_wo_entrp">  -2228.79362332 </i>
    <i name="e_0_energy">  -2228.79711919 </i>
   </energy>
  </scstep>
  <scstep>
   <time name="dav">   45.12   45.17</time>
   <time name="total">   45.78   45.84</time>
   <energy>
    <i name="e_fr_energy">  -2016.27558959 </i>
    <i name="e_wo_entrp">  -2016.27803890 </i>
    <i name="e_0_energy">  -2016.27640603 </i>
   </energy>
  </scstep>
  <scstep>
   <time name="dav">   48.58   48.64</time>
   <time name="total">   49.25   49.31</time>
   <energy>
    <i name="e_fr_energy">  -1558.34677594 </i>
    <i name="e_wo_entrp">  -1558.35209255 </i>
    <i name="e_0_energy">  -1558.34854814 </i>
   </energy>
  </scstep>
  <scstep>
   <time name="dav">   51.89   51.96</time>
   <time name="total">   52.50   52.57</time>
   <energy>
    <i name="e_fr_energy">-787352.63884257 </i>
    <i name="e_wo_entrp">-787352.63683363 </i>
    <i name="e_0_energy">-787352.63817292 </i>
   </energy>
  </scstep>
  <scstep>
   <time name="dav">   44.88   44.93</time>
   <time name="total">   45.57   45.63</time>
   <energy>
    <i name="e_fr_energy">   -212.32475556 </i>
    <i name="e_wo_entrp">   -212.32245641 </i>
    <i name="e_0_energy">   -212.32398918 </i>
   </energy>
  </scstep>
  <scstep>
   <time name="dav">   44.48   44.53</time>
   <time name="total">   45.23   45.28</time>
   <energy>
    <i name="e_fr_energy">   -612.94587412 </i>
    <i name="e_wo_entrp">   -612.94911854 </i>
    <i name="e_0_energy">   -612.94695559 </i>
   </energy>
  </scstep>
  <scstep>
   <time name="dav">   46.20   46.25</time>
   <time name="total">   46.90   46.96</time>
   <energy>
    <i name="e_fr_energy">   -788.98895961 </i>
    <i name="e_wo_entrp">   -788.98794683 </i>
    <i name="e_0_energy">   -788.98862202 </i>
   </energy>
  </scstep>
  <scstep>
   <time name="dav">   52.17   52.23</time>
   <time name="total">   52.82   52.88</time>
   <energy>
    <i name="e_fr_energy">   -706.02335409 </i>
    <i name="e_wo_entrp">   -706.02038892 </i>
    <i name="e_0_energy">   -706.02236570 </i>
   </energy>
  </scstep>
  <scstep>
   <time name="dav">   51.27   51.33</time>
   <time name="total">   51.92   51.99</time>
   <energy>
    <i name="e_fr_energy">   -678.50215201 </i>
    <i name="e_wo_entrp">   -678.50825676 </i>
    <i name="e_0_energy">   -678.50418693 </i>
   </energy>
  </scstep>
  <scstep>
   <time name="dav">   52.54   52.61</time>
   <time name="total">   53.20   53.26</time>
   <energy>
    <i name="e_fr_energy">   -722.35047773 </i>
    <i name="e_wo_entrp">   -722.35555051 </i>
    <i name="e_0_energy">   -722.35216866 </i>
   </energy>
  </scstep>
  <scstep>
   <time name="dav">   46.97   47.03</time>
   <time name="total">   47.63   47.70</time>
   <energy>
    <i name="e_fr_energy">   -921.99458582 </i>
    <i name="e_wo_entrp">   -922.00137389 </i>
    <i name="e_0_energy">   -921.99684851 </i>
   </energy>
  </scstep>
  <scstep>
   <time name="dav">   52.39   52.46</time>
   <time name="total">   53.05   53.11</time>
   <energy>
    <i name="e_fr_energy">  -1070.74388893 </i>
    <i name="e_wo_entrp">  -1070.75156359 </i>
    <i name="e_0_energy">  -1070.74644715 </i>
   </energy>
  </scstep>
  <scstep>
   <time name="dav">   37.79   37.83</time>
   <time name="total">   38.46   38.51</time>
   <energy>
    <i name="e_fr_energy">   -664.72531726 </i>
    <i name="e_wo_entrp">   -664.71901830 </i>
    <i name="e_0_energy">   -664.72321761 </i>
   </energy>
  </scstep>
  <scstep>
   <time name="dav">   44.94   44.99</time>
   <time name="total">   45.60   45.66</time>
   <energy>
    <i name="e_fr_energy">   -762.45578720 </i>
    <i name="e_wo_entrp">   -762.45596203 </i>
    <i name="e_0_energy">   -762.45584548 </i>
   </energy>
  </scstep>
  <scstep>
   <time name="dav">   54.75   54.85</time>
   <time name="total">   55.40   55.52</time>
   <energy>
    <i name="e_fr_energy">   -746.70312974 </i>
    <i name="e_wo_entrp">   -746.70458495 </i>
    <i name="e_0_energy">   -746.70361481 </i>
   </energy>
  </scstep>
  <scstep>
   <time name="dav">   46.96   47.04</time>
   <time name="total">   47.61   47.70</time>
   <energy>
    <i name="e_fr_energy">   -795.97501844 </i>
    <i name="e_wo_entrp">   -795.98595033 </i>
    <i name="e_0_energy">   -795.97866240 </i>
   </energy>
  </scstep>
  <scstep>
   <time name="dav">   46.38   46.43</time>
   <time name="total">   47.04   47.10</time>
   <energy>
    <i name="e_fr_energy">   -661.36123997 </i>
    <i name="e_wo_entrp">   -661.36118326 </i>
    <i name="e_0_energy">   -661.36122106 </i>
   </energy>
  </scstep>
  <scstep>
   <time name="dav">   52.24   52.30</time>
   <time name="total">   52.91   52.97</time>
   <energy>
    <i name="e_fr_energy">   -582.10741768 </i>
    <i name="e_wo_entrp">   -582.10312866 </i>
    <i name="e_0_energy">   -582.10598800 </i>
   </energy>
  </scstep>
  <scstep>
   <time name="dav">   47.02   47.08</time>
   <time name="total">   47.70   47.76</time>
   <energy>
    <i name="e_fr_energy">   -520.49179086 </i>
    <i name="e_wo_entrp">   -520.48128457 </i>
    <i name="e_0_energy">   -520.48828877 </i>
   </energy>
  </scstep>
  <scstep>
   <time name="dav">   51.17   51.23</time>
   <time name="total">   51.83   51.89</time>
   <energy>
    <i name="e_fr_energy">   -462.40799179 </i>
    <i name="e_wo_entrp">   -462.39309317 </i>
    <i name="e_0_energy">   -462.40302558 </i>
   </energy>
  </scstep>
  <scstep>
   <time name="dav">   50.29   50.35</time>
   <time name="total">   50.95   51.02</time>
   <energy>
    <i name="e_fr_energy">   -425.57370233 </i>
    <i name="e_wo_entrp">   -425.57091668 </i>
    <i name="e_0_energy">   -425.57277378 </i>
   </energy>
  </scstep>
  <scstep>
   <time name="dav">   51.28   51.35</time>
   <time name="total">   51.94   52.01</time>
   <energy>
    <i name="e_fr_energy">   -396.83620899 </i>
    <i name="e_wo_entrp">   -396.82084658 </i>
    <i name="e_0_energy">   -396.83108819 </i>
   </energy>
  </scstep>
  <scstep>
   <time name="dav">   52.00   52.06</time>
   <time name="total">   52.66   52.72</time>
   <energy>
    <i name="e_fr_energy">   -371.22781163 </i>
    <i name="e_wo_entrp">   -371.22280330 </i>
    <i name="e_0_energy">   -371.22614218 </i>
   </energy>
  </scstep>
  <scstep>
   <time name="dav">   54.80   54.86</time>
   <time name="total">   55.46   55.52</time>
   <energy>
    <i name="e_fr_energy">   -335.54188545 </i>
    <i name="e_wo_entrp">   -335.53136260 </i>
    <i name="e_0_energy">   -335.53837784 </i>
   </energy>
  </scstep>
  <scstep>
   <time name="dav">   50.69   50.75</time>
   <time name="total">   51.36   51.42</time>
   <energy>
    <i name="e_fr_energy">   -318.30812192 </i>
    <i name="e_wo_entrp">   -318.30218593 </i>
    <i name="e_0_energy">   -318.30614326 </i>
   </energy>
  </scstep>
  <scstep>
   <time name="dav">   51.84   51.90</time>
   <time name="total">   52.49   52.56</time>
   <energy>
    <i name="e_fr_energy">   -313.81824328 </i>
    <i name="e_wo_entrp">   -313.80970994 </i>
    <i name="e_0_energy">   -313.81539884 </i>
   </energy>
  </scstep>
  <scstep>
   <time name="dav">   50.26   50.32</time>
   <time name="total">   50.92   50.99</time>
   <energy>
    <i name="e_fr_energy">   -309.50038823 </i>
    <i name="e_wo_entrp">   -309.48692611 </i>
    <i name="e_0_energy">   -309.49590086 </i>
   </energy>
  </scstep>
  <scstep>
   <time name="dav">   48.20   48.26</time>
   <time name="total">   48.27   48.33</time>
   <energy>
    <i name="alphaZ">   1104.47950323 </i>
    <i name="ewald"> -10061.54361555 </i>
    <i name="hartreedc">  -2745.30589607 </i>
    <i name="XCdc">   -945.36176002 </i>
    <i name="pawpsdc">  53645.70059802 </i>
    <i name="pawaedc"> -52173.28671299 </i>
    <i name="eentropy">     -0.01947776 </i>
    <i name="bandstr">   -584.13000098 </i>
    <i name="atom">  11451.57642151 </i>
    <i name="e_fr_energy">   -307.89094061 </i>
    <i name="e_wo_entrp">   -307.87146286 </i>
    <i name="e_0_energy">   -307.88444803 </i>
   </energy>
  </scstep>
  <structure>
   <crystal>
    <varray name="basis" >
     <v>      -3.16000000      -3.16000000      -3.16000000 </v>
     <v>       1.58000000       1.58000000      -7.90000000 </v>
     <v>       7.90000000      -7.90000000      -1.58000000 </v>
    </varray>
    <i name="volume">    473.31744000 </i>
    <varray name="rec_basis" >
     <v>      -0.13713080      -0.12658228      -0.05274262 </v>
     <v>       0.04219409       0.06329114      -0.10548523 </v>
     <v>       0.06329114      -0.06329114       0.00000000 </v>
    </varray>
   </crystal>
   <varray name="positions" >
    <v>       0.63333333       0.26666667       0.40000000 </v>
    <v>       0.50000000       0.00000000       0.00000000 </v>
    <v>       0.00000000       0.00000000       0.00000000 </v>
    <v>       0.10000000       0.20000000       0.80000000 </v>
    <v>       0.03333333       0.06666667       0.60000000 </v>
    <v>       0.90000000       0.80000000       0.20000000 </v>
    <v>       0.80000000       0.60000000       0.40000000 </v>
    <v>       0.73333333       0.46666667       0.20000000 </v>
    <v>       0.66666667       0.33333333       0.00000000 </v>
    <v>       0.36666667       0.73333333       0.60000000 </v>
    <v>       0.13333333       0.26666667       0.40000000 </v>
    <v>       0.83333333       0.66666667       0.00000000 </v>
    <v>       0.93333333       0.86666667       0.80000000 </v>
    <v>       0.56666667       0.13333333       0.20000000 </v>
    <v>       0.40000000       0.80000000       0.20000000 </v>
    <v>       0.43333333       0.86666667       0.80000000 </v>
    <v>       0.30000000       0.60000000       0.40000000 </v>
    <v>       0.86666667       0.73333333       0.60000000 </v>
    <v>       0.46666667       0.93333333       0.40000000 </v>
    <v>       0.16666667       0.33333333       0.00000000 </v>
    <v>       0.26666667       0.53333333       0.80000000 </v>
    <v>       0.20000000       0.40000000       0.60000000 </v>
    <v>       0.06666667       0.13333333       0.20000000 </v>
    <v>       0.76666667       0.53333333       0.80000000 </v>
    <v>       0.70000000       0.40000000       0.60000000 </v>
    <v>       0.60000000       0.20000000       0.80000000 </v>
    <v>       0.53333333       0.06666667       0.60000000 </v>
    <v>       0.33333333       0.66666667       0.00000000 </v>
    <v>       0.23333333       0.46666667       0.20000000 </v>
   </varray>
  </structure>
  <varray name="forces" >
   <v>      -0.92860892       0.92056744       0.59554022 </v>
   <v>       0.95385774      -0.33269160       0.31433436 </v>
   <v>      -0.68621048       0.63821283      -0.92185184 </v>
   <v>       0.68055729      -0.21603739      -0.35173332 </v>
   <v>       0.08042451      -1.71420177       0.44895452 </v>
   <v>       0.01601693      -0.44433146       0.06399399 </v>
   <v>      -1.39868821       0.13946624       0.67308132 </v>
   <v>      -0.35095733       0.43380973      -0.15937719 </v>
   <v>       0.20232870      -0.11909577      -1.06361662 </v>
   <v>       0.34383041      -2.03993099       0.87303296 </v>
   <v>      -0.58601210       1.80984813      -2.47292692 </v>
   <v>      -0.43225842      -0.29038784       0.49425017 </v>
   <v>       0.33919765      -1.55988667       1.57793272 </v>
   <v>      -1.11228752       1.28462864      -0.22972319 </v>
   <v>      -1.60529029       0.58055392       0.93312199 </v>
   <v>      -0.02964180       0.36184867      -0.06268784 </v>
   <v>       0.61360743       0.72189947      -0.87972476 </v>
   <v>       0.08095381      -0.06146968       0.59663522 </v>
   <v>      -0.76954697      -0.49964283       0.27293028 </v>
   <v>      -0.75758907       1.22856111       0.39409557 </v>
   <v>       1.08122589       0.57757644      -0.67545466 </v>
   <v>       1.18573939      -0.76369168       0.79095225 </v>
   <v>       0.38307804       0.42241994      -0.41716959 </v>
   <v>      -0.07185079      -1.82523053       0.33429550 </v>
   <v>       0.86703147       1.09622415      -2.12143667 </v>
   <v>       1.07090684      -0.36023167      -0.15006450 </v>
   <v>       1.23612562      -0.52231131       0.32324621 </v>
   <v>      -0.42486787       0.17543604       0.55571563 </v>
   <v>       0.01892806       0.35808844       0.26365420 </v>
  </varray>
  <varray name="stress" >
   <v>      85.97914383      92.53570751      14.34882483 </v>
   <v>      92.53570757      72.80033405     -37.46092338 </v>
   <v>      14.34882483     -37.46092335     140.76403456 </v>
  </varray>
  <energy>
   <i name="e_fr_energy">   -307.89094061 </i>
   <i name="e_wo_entrp">   -307.88444803 </i>
   <i name="e_0_energy">     -0.01947776 </i>
  </energy>
  <time name="totalsc"> 3002.65 3006.64</time>
 </calculation>
 <calculation>
  <scstep>
   <time name="dav">   40.48   40.52</time>
   <time name="total">   41.15   41.20</time>
   <energy>
    <i name="alphaZ">    959.08601972 </i>
    <i name="ewald">  -9586.56164689 </i>
    <i name="hartreedc">  -2615.89115956 </i>
    <i name="XCdc">   -961.57500286 </i>
    <i name="pawpsdc">  33873.01633219 </i>
    <i name="pawaedc"> -32399.29766459 </i>
    <i name="eentropy">     -0.00359654 </i>
    <i name="bandstr">  -1053.38308166 </i>
    <i name="atom">  11451.57642151 </i>
    <i name="e_fr_energy">   -333.03337868 </i>
    <i name="e_wo_entrp">   -333.02978214 </i>
    <i name="e_0_energy">   -333.03217983 </i>
   </energy>
  </scstep>
  <scstep>
   <time name="dav">   54.71   54.78</time>
   <time name="total">   55.38   55.45</time>
   <energy>
    <i name="e_fr_energy">   -375.29224647 </i>
    <i name="e_wo_entrp">   -375.30471214 </i>
    <i name="e_0_energy">   -375.29640169 </i>
   </energy>
  </scstep>
  <scstep>
   <time name="dav">   53.96   54.03</time>
   <time name="total">   54.61   54.69</time>
   <energy>
    <i name="e_fr_energy">   -362.69579422 </i>
    <i name="e_wo_entrp">   -362.69262287 </i>
    <i name="e_0_energy">   -362.69473710 </i>
   </energy>
  </scstep>
  <scstep>
   <time name="dav">   48.72   48.77</time>
   <time name="total">   49.37   49.44</time>
   <energy>
    <i name="e_fr_energy">   -425.67393219 </i>
    <i name="e_wo_entrp">   -425.66175242 </i>
    <i name="e_0_energy">   -425.66987227 </i>
   </energy>
  </scstep>
  <scstep>
   <time name="dav">   46.97   47.03</time>
   <time name="total">   47.62   47.68</time>
   <energy>
    <i name="e_fr_energy">   -344.95651315 </i>
    <i name="e_wo_entrp">   -344.95276423 </i>
    <i name="e_0_energy">   -344.95526351 </i>
   </energy>
  </scstep>
  <scstep>
   <time name="dav">   49.31   49.37</time>
   <time name="total">   49.96   50.03</time>
   <energy>
    <i name="e_fr_energy">   -323.70155462 </i>
    <i name="e_wo_entrp">   -323.69442791 </i>
    <i name="e_0_energy">   -323.69917905 </i>
   </energy>
  </scstep>
  <scstep>
   <time name="dav">   52.97   53.03</time>
   <time name="total">   53.62   53.68</time>
   <energy>
    <i name="e_fr_energy">   -313.25027371 </i>
    <i name="e_wo_entrp">   -313.25243301 </i>
    <i name="e_0_energy">   -313.25099348 </i>
   </energy>
  </scstep>
  <scstep>
   <time name="dav">   46.51   46.57</time>
   <time name="total">   47.16   47.22</time>
   <energy>
    <i name="e_fr_energy">   -309.12599996 </i>
    <i name="e_wo_entrp">   -309.11250710 </i>
    <i name="e_0_energy">   -309.12150234 </i>
   </energy>
  </scstep>
  <scstep>
   <time name="dav">   51.00   51.06</time>
   <time name="total">   51.65   51.72</time>
   <energy>
    <i name="e_fr_energy">   -306.82306496 </i>
    <i name="e_wo_entrp">   -306.81265805 </i>
    <i name="e_0_energy">   -306.81959599 </i>
   </energy>
  </scstep>
  <scstep>
   <time name="dav">   49.15   49.21</time>
   <time name="total">   49.81   49.88</time>
   <energy>
    <i name="e_fr_energy">   -304.98898770 </i>
    <i name="e_wo_entrp">   -304.97503346 </i>
    <i name="e_0_energy">   -304.98433628 </i>
   </energy>
  </scstep>
  <scstep>
   <time name="dav">   46.46   46.52</time>
   <time name="total">   47.11   47.16</time>
   <energy>
    <i name="e_fr_energy">   -303.82685582 </i>
    <i name="e_wo_entrp">   -303.81945809 </i>
    <i name="e_0_energy">   -303.82438991 </i>
   </energy>
  </scstep>
  <scstep>
   <time name="dav">   49.35   49.40</time>
   <time name="total">   50.00   50.07</time>
   <energy>
    <i name="e_fr_energy">   -302.45873256 </i>
    <i name="e_wo_entrp">   -302.44929546 </i>
    <i name="e_0_energy">   -302.45558686 </i>
   </energy>
  </scstep>
  <scstep>
   <time name="dav">   48.73   48.80</time>
   <time name="total">   49.39   49.45</time>
   <energy>
    <i name="e_fr_energy">   -300.70662078 </i>
    <i name="e_wo_entrp">   -300.69720432 </i>
    <i name="e_0_energy">   -300.70348196 </i>
   </energy>
  </scstep>
  <scstep>
   <time name="dav">   51.51   51.58</time>
   <time name="total">   52.17   52.24</time>
   <energy>
    <i name="e_fr_energy">   -300.23344291 </i>
    <i name="e_wo_entrp">   -300.21909578 </i>
    <i name="e_0_energy">   -300.22866053 </i>
   </energy>
  </scstep>
  <scstep>
   <time name="dav">   48.88   48.93</time>
   <time name="total">   49.53   49.59</time>
   <energy>
    <i name="e_fr_energy">   -299.66904166 </i>
    <i name="e_wo_entrp">   -299.66059799 </i>
    <i name="e_0_energy">   -299.66622711 </i>
   </energy>
  </scstep>
  <scstep>
   <time name="dav">   45.16   45.21</time>
   <time name="total">   45.82   45.88</time>
   <energy>
    <i name="e_fr_energy">   -299.30491385 </i>
    <i name="e_wo_entrp">   -299.29135372 </i>
    <i name="e_0_energy">   -299.30039381 </i>
   </energy>
  </scstep>
  <scstep>
   <time name="dav">   49.29   49.35</time>
   <time name="total">   49.95   50.01</time>
   <energy>
    <i name="e_fr_energy">   -299.17920861 </i>
    <i name="e_wo_entrp">   -299.16392121 </i>
    <i name="e_0_energy">   -299.17411281 </i>
   </energy>
  </scstep>
  <scstep>
   <time name="dav">   48.28   48.33</time>
   <time name="total">   48.93   48.99</time>
   <energy>
    <i name="e_fr_energy">   -299.10385313 </i>
    <i name="e_wo_entrp">   -299.09494250 </i>
    <i name="e_0_energy">   -299.10088292 </i>
   </energy>
  </scstep>
  <scstep>
   <time name="dav">   48.51   48.57</time>
   <time name="total">   49.17   49.23</time>
   <energy>
    <i name="e_fr_energy">   -299.10599697 </i>
    <i name="e_wo_entrp">   -299.09650177 </i>
    <i name="e_0_energy">   -299.10283191 </i>
   </energy>
  </scstep>
  <scstep>
   <time name="dav">   49.74   49.79</time>
   <time name="total">   50.40   50.47</time>
   <energy>
    <i name="e_fr_energy">   -299.09599007 </i>
    <i name="e_wo_entrp">   -299.08800667 </i>
    <i name="e_0_energy">   -299.09332894 </i>
   </energy>
  </scstep>
  <scstep>
   <time name="dav">   46.91   46.97</time>
   <time name="total">   47.56   47.62</time>
   <energy>
    <i name="e_fr_energy">   -299.08858704 </i>
    <i name="e_wo_entrp">   -299.08104833 </i>
    <i name="e_0_energy">   -299.08607414 </i>
   </energy>
  </scstep>
  <scstep>
   <time name="dav">   50.36   50.42</time>
   <time name="total">   51.02   51.09</time>
   <energy>
    <i name="e_fr_energy">   -299.08174571 </i>
    <i name="e_wo_entrp">   -299.07291996 </i>
    <i name="e_0_energy">   -299.07880379 </i>
   </energy>
  </scstep>
  <scstep>
   <time name="dav">   49.68   49.76</time>
   <time name="total">   50.34   50.42</time>
   <energy>
    <i name="e_fr_energy">   -299.08048693 </i>
    <i name="e_wo_entrp">   -299.07155757 </i>
    <i name="e_0_energy">   -299.07751048 </i>
   </energy>
  </scstep>
  <scstep>
   <time name="dav">   46.75   46.82</time>
   <time name="total">   47.41   47.49</time>
   <energy>
    <i name="e_fr_energy">   -299.08008287 </i>
    <i name="e_wo_entrp">   -299.07104082 </i>
    <i name="e_0_energy">   -299.07706886 </i>
   </energy>
  </scstep>
  <scstep>
   <time name="dav">   46.28   46.33</time>
   <time name="total">   46.94   47.00</time>
   <energy>
    <i name="e_fr_energy">   -299.07960844 </i>
    <i name="e_wo_entrp">   -299.07072827 </i>
    <i name="e_0_energy">   -299.07664838 </i>
   </energy>
  </scstep>
  <scstep>
   <time name="dav">   41.38   41.43</time>
   <time name="total">   42.04   42.10</time>
   <energy>
    <i name="e_fr_energy">   -299.07954428 </i>
    <i name="e_wo_entrp">   -299.07059447 </i>
    <i name="e_0_energy">   -299.07656101 </i>
   </energy>
  </scstep>
  <scstep>
   <time name="dav">   37.84   37.89</time>
   <time name="total">   37.91   37.96</time>
   <energy>
    <i name="alphaZ">    959.08601972 </i>
    <i name="ewald">  -9586.56164689 </i>
    <i name="hartreedc">  -2874.51006047 </i>
    <i name="XCdc">   -954.87291920 </i>
    <i name="pawpsdc">  14818.88919365 </i>
    <i name="pawaedc"> -13331.26091223 </i>
    <i name="eentropy">     -0.00890872 </i>
    <i name="bandstr">   -781.41668815 </i>
    <i name="atom">  11451.57642151 </i>
    <i name="e_fr_energy">   -299.07950079 </i>
    <i name="e_wo_entrp">   -299.07059207 </i>
    <i name="e_0_energy">   -299.07653122 </i>
   </energy>
  </scstep>
  <structure>
   <crystal>
    <varray name="basis" >
     <v>      -3.45951091      -3.35858583      -3.34270956 </v>
     <v>       1.66290570       1.85381964      -8.46445088 </v>
     <v>       7.86340306      -7.79429126      -1.48815388 </v>
    </varray>
    <i name="volume">    545.07041105 </i>
    <varray name="rec_basis" >
     <v>      -0.12609961      -0.11757147      -0.05052283 </v>
     <v>       0.03862980       0.05766843      -0.09792194 </v>
     <v>       0.06352457      -0.06392105      -0.00151962 </v>
    </varray>
   </crystal>
   <varray name="positions" >
    <v>       0.63233968       0.26455660       0.39435385 </v>
    <v>       0.49492153      -0.00067380       0.00392826 </v>
    <v>       0.00298791       0.00524306      -0.00404390 </v>
    <v>       0.09771197       0.20251561       0.80273760 </v>
    <v>       0.04212699       0.05931167       0.60547959 </v>
    <v>       0.90244459       0.79835025       0.20140560 </v>
    <v>       0.80668881       0.59415349       0.39530350 </v>
    <v>       0.73341150       0.46808789       0.19760385 </v>
    <v>       0.66876174       0.33879417       0.00098142 </v>
    <v>       0.37462783       0.72336186       0.60727842 </v>
    <v>       0.13245021       0.28358433       0.39268464 </v>
    <v>       0.83670867       0.66238495      -0.00043318 </v>
    <v>       0.93660009       0.85456435       0.80579854 </v>
    <v>       0.56676479       0.13616064       0.19268142 </v>
    <v>       0.40470036       0.79375641       0.19332589 </v>
    <v>       0.43147924       0.86803019       0.79880465 </v>
    <v>       0.29377066       0.60793005       0.39966935 </v>
    <v>       0.86498839       0.73027422       0.60043487 </v>
    <v>       0.47411435       0.92885239       0.39917589 </v>
    <v>       0.16317338       0.33353691      -0.00606438 </v>
    <v>       0.25770535       0.54073507       0.80153781 </v>
    <v>       0.19480675       0.39605677       0.60595226 </v>
    <v>       0.06261428       0.13752582       0.19987988 </v>
    <v>       0.77743748       0.52591285       0.80535365 </v>
    <v>       0.69296771       0.41590778       0.59930020 </v>
    <v>       0.59549700       0.20184364       0.80436974 </v>
    <v>       0.52752277       0.06594312       0.60536909 </v>
    <v>       0.33365875       0.66350952      -0.00183293 </v>
    <v>       0.23035053       0.46645686       0.19896443 </v>
   </varray>
  </structure>
  <varray name="forces" >
   <v>       0.46027681      -0.15147136      -0.45872555 </v>
   <v>      -0.57047565       0.12961535      -0.36885065 </v>
   <v>       0.76608833      -0.36861438       0.53225339 </v>
   <v>      -0.31105926       0.45407166       0.14980602 </v>
   <v>      -0.48741456       0.48223628      -0.26881377 </v>
   <v>      -0.05789874      -0.22911672       0.33331248 </v>
   <v>      -0.13881456       0.07209427       0.55083091 </v>
   <v>       0.06283625       0.20756487       0.13569614 </v>
   <v>      -0.04768564       0.36086441       0.05262428 </v>
   <v>      -0.34571605      -0.08028065      -0.08032630 </v>
   <v>       0.03830088      -0.21460056      -0.41693592 </v>
   <v>       0.51083735      -0.45024897       0.16725579 </v>
   <v>      -0.03610945       0.75154982      -0.79092133 </v>
   <v>       0.12390746       0.38774191      -0.18885228 </v>
   <v>      -0.36173231      -0.20046460       0.30322300 </v>
   <v>      -0.51297673      -0.05507370       0.60605848 </v>
   <v>      -0.03995274      -0.22615671      -0.01981227 </v>
   <v>      -0.16485688       0.14245545       0.33290635 </v>
   <v>       0.35069381      -0.34875997       0.17230209 </v>
   <v>       0.20510021      -0.30924327      -0.28179933 </v>
   <v>      -0.35146813      -0.21829511      -0.34262243 </v>
   <v>      -0.62614130       0.53281630       0.32439673 </v>
   <v>       0.42801989      -0.32811630      -0.32685752 </v>
   <v>       0.06955483       0.09408678       0.36397074 </v>
   <v>       0.19410719       0.21083566      -0.27746051 </v>
   <v>      -0.13893473       0.16522264      -0.01984143 </v>
   <v>       0.62001148      -0.29366034      -0.15457534 </v>
   <v>       0.11745147      -0.34830747       0.09713046 </v>
   <v>       0.24405076      -0.16874530      -0.12537225 </v>
  </varray>
  <varray name="stress" >
   <v>    -202.11887637     -18.75573682      -7.07127355 </v>
   <v>     -18.75573685    -200.94224138       7.57821133 </v>
   <v>      -7.07127357       7.57821132    -221.14208346 </v>
  </varray>
  <energy>
   <i name="e_fr_energy">   -299.07950079 </i>
   <i name="e_wo_entrp">   -299.07653122 </i>
   <i name="e_0_energy">     -0.00890872 </i>
  </energy>
  <time name="totalsc"> 1333.77 1335.55</time>
 </calculation>
 <calculation>
  <scstep>
   <time name="dav">   39.16   39.21</time>
   <time name="total">   39.82   39.87</time>
   <energy>
    <i name="alphaZ">   1030.03372551 </i>
    <i name="ewald">  -9830.42113104 </i>
    <i name="hartreedc">  -2935.67240923 </i>
    <i name="XCdc">   -946.36964232 </i>
    <i name="pawpsdc">  14818.80491877 </i>
    <i name="pawaedc"> -13331.18502105 </i>
    <i name="eentropy">     -0.00556055 </i>
    <i name="bandstr">   -565.23882160 </i>
    <i name="atom">  11451.57642151 </i>
    <i name="e_fr_energy">   -308.47752002 </i>
    <i name="e_wo_entrp">   -308.47195947 </i>
    <i name="e_0_energy">   -308.47566651 </i>
   </energy>
  </scstep>
  <scstep>
   <time name="dav">   50.45   50.52</time>
   <time name="total">   51.10   51.17</time>
   <energy>
    <i name="e_fr_energy">   -309.36264438 </i>
    <i name="e_wo_entrp">   -309.35688683 </i>
    <i name="e_0_energy">   -309.36072520 </i>
   </energy>
  </scstep>
  <scstep>
   <time name="dav">   49.24   49.30</time>
   <time name="total">   49.90   49.97</time>
   <energy>
    <i name="e_fr_energy">   -306.97511515 </i>
    <i name="e_wo_entrp">   -306.97433383 </i>
    <i name="e_0_energy">   -306.97485471 </i>
   </energy>
  </scstep>
  <scstep>
   <time name="dav">   49.58   49.64</time>
   <time name="total">   50.24   50.30</time>
   <energy>
    <i name="e_fr_energy">   -305.13671547 </i>
    <i name="e_wo_entrp">   -305.12347538 </i>
    <i name="e_0_energy">   -305.13230210 </i>
   </energy>
  </scstep>
  <scstep>
   <time name="dav">   52.15   52.22</time>
   <time name="total">   52.81   52.88</time>
   <energy>
    <i name="e_fr_energy">   -304.63952574 </i>
    <i name="e_wo_entrp">   -304.62841604 </i>
    <i name="e_0_energy">   -304.63582251 </i>
   </energy>
  </scstep>
  <scstep>
   <time name="dav">   47.82   47.88</time>
   <time name="total">   48.48   48.54</time>
   <energy>
    <i name="e_fr_energy">   -304.02854572 </i>
    <i name="e_wo_entrp">   -304.01274220 </i>
    <i name="e_0_energy">   -304.02327788 </i>
   </energy>
  </scstep>
  <scstep>
   <time name="dav">   53.35   53.41</time>
   <time name="total">   54.01   54.08</time>
   <energy>
    <i name="e_fr_energy">   -303.57027815 </i>
    <i name="e_wo_entrp">   -303.54877497 </i>
    <i name="e_0_energy">   -303.56311042 </i>
   </energy>
  </scstep>
  <scstep>
   <time name="dav">   51.75   51.81</time>
   <time name="total">   52.41   52.48</time>
   <energy>
    <i name="e_fr_energy">   -303.60152366 </i>
    <i name="e_wo_entrp">   -303.58405233 </i>
    <i name="e_0_energy">   -303.59569988 </i>
   </energy>
  </scstep>
  <scstep>
   <time name="dav">   50.57   50.63</time>
   <time name="total">   51.24   51.31</time>
   <energy>
    <i name="e_fr_energy">   -303.51761912 </i>
    <i name="e_wo_entrp">   -303.49555118 </i>
    <i name="e_0_energy">   -303.51026314 </i>
   </energy>
  </scstep>
  <scstep>
   <time name="dav">   52.24   52.31</time>
   <time name="total">   52.90   52.96</time>
   <energy>
    <i name="e_fr_energy">   -303.51230538 </i>
    <i name="e_wo_entrp">   -303.49225218 </i>
    <i name="e_0_energy">   -303.50562098 </i>
   </energy>
  </scstep>
  <scstep>
   <time name="dav">   51.63   51.69</time>
   <time name="total">   52.30   52.36</time>
   <energy>
    <i name="e_fr_energy">   -303.51323588 </i>
    <i name="e_wo_entrp">   -303.49396851 </i>
    <i name="e_0_energy">   -303.50681343 </i>
   </energy>
  </scstep>
  <scstep>
   <time name="dav">   50.72   50.78</time>
   <time name="total">   51.37   51.43</time>
   <energy>
    <i name="e_fr_energy">   -303.52717918 </i>
    <i name="e_wo_entrp">   -303.50521529 </i>
    <i name="e_0_energy">   -303.51985788 </i>
   </energy>
  </scstep>
  <scstep>
   <time name="dav">   53.30   53.37</time>
   <time name="total">   53.97   54.04</time>
   <energy>
    <i name="e_fr_energy">   -303.51851188 </i>
    <i name="e_wo_entrp">   -303.49805640 </i>
    <i name="e_0_energy">   -303.51169339 </i>
   </energy>
  </scstep>
  <scstep>
   <time name="dav">   53.28   53.34</time>
   <time name="total">   53.94   54.00</time>
   <energy>
    <i name="e_fr_energy">   -303.51974669 </i>
    <i name="e_wo_entrp">   -303.49997235 </i>
    <i name="e_0_energy">   -303.51315524 </i>
   </energy>
  </scstep>
  <scstep>
   <time name="dav">   51.27   51.33</time>
   <time name="total">   51.93   51.99</time>
   <energy>
    <i name="e_fr_energy">   -303.52093653 </i>
    <i name="e_wo_entrp">   -303.50054771 </i>
    <i name="e_0_energy">   -303.51414026 </i>
   </energy>
  </scstep>
  <scstep>
   <time name="dav">   49.03   49.09</time>
   <time name="total">   49.68   49.74</time>
   <energy>
    <i name="e_fr_energy">   -303.51968586 </i>
    <i name="e_wo_entrp">   -303.49947549 </i>
    <i name="e_0_energy">   -303.51294907 </i>
   </energy>
  </scstep>
  <scstep>
   <time name="dav">   49.09   49.15</time>
   <time name="total">   49.76   49.82</time>
   <energy>
    <i name="e_fr_energy">   -303.51920397 </i>
    <i name="e_wo_entrp">   -303.49900544 </i>
    <i name="e_0_energy">   -303.51247113 </i>
   </energy>
  </scstep>
  <scstep>
   <time name="dav">   46.28   46.33</time>
   <time name="total">   46.92   46.98</time>
   <energy>
    <i name="e_fr_energy">   -303.51921538 </i>
    <i name="e_wo_entrp">   -303.49900649 </i>
    <i name="e_0_energy">   -303.51247908 </i>
   </energy>
  </scstep>
  <scstep>
   <time name="dav">   40.80   40.85</time>
   <time name="total">   41.45   41.51</time>
   <energy>
    <i name="e_fr_energy">   -303.51921949 </i>
[...]
       <r>    4.7609    1.0000 </r>
       <r>    4.8555    1.0000 </r>
       <r>    4.9398    1.0000 </r>
       <r>    4.9562    1.0000 </r>
       <r>    4.9992    1.0000 </r>
       <r>    5.0292    1.0000 </r>
       <r>    5.0968    1.0000 </r>
       <r>    5.1282    1.0000 </r>
       <r>    5.1820    1.0000 </r>
       <r>    5.2418    1.0000 </r>
       <r>    5.3099    1.0000 </r>
       <r>    5.3459    1.0000 </r>
       <r>    5.3745    1.0000 </r>
       <r>    5.4225    1.0000 </r>
       <r>    5.4998    1.0000 </r>
       <r>    5.5368    1.0000 </r>
       <r>    5.5706    1.0000 </r>
       <r>    5.6683    1.0000 </r>
       <r>    5.7305    1.0000 </r>
       <r>    5.7609    1.0000 </r>
       <r>    5.8283    1.0002 </r>
       <r>    5.9273    1.0017 </r>
       <r>    5.9689    1.0040 </r>
       <r>    6.0231    1.0100 </r>
       <r>    6.0492    1.0146 </r>
       <r>    6.1039    1.0266 </r>
       <r>    6.1296    1.0320 </r>
       <r>    6.1807    1.0342 </r>
       <r>    6.2121    1.0232 </r>
       <r>    6.2571    0.9783 </r>
       <r>    6.3126    0.8589 </r>
       <r>    6.3410    0.7687 </r>
       <r>    6.4301    0.4093 </r>
       <r>    6.4809    0.2150 </r>
       <r>    6.5262    0.0855 </r>
       <r>    6.6291   -0.0328 </r>
       <r>    6.7157   -0.0260 </r>
       <r>    6.7803   -0.0123 </r>
       <r>    6.8342   -0.0052 </r>
       <r>    6.8475   -0.0041 </r>
       <r>    7.0546   -0.0000 </r>
       <r>    7.2057   -0.0000 </r>
       <r>    7.2853   -0.0000 </r>
       <r>    7.3050   -0.0000 </r>
       <r>    7.3942   -0.0000 </r>
       <r>    7.6180   -0.0000 </r>
       <r>    7.7148   -0.0000 </r>
       <r>    7.7835   -0.0000 </r>
       <r>    7.8504   -0.0000 </r>
       <r>    8.0446   -0.0000 </r>
       <r>    8.1419   -0.0000 </r>
       <r>    8.2760   -0.0000 </r>
       <r>    8.2960   -0.0000 </r>
       <r>    8.3741   -0.0000 </r>
       <r>    8.4253   -0.0000 </r>
       <r>    8.4660   -0.0000 </r>
       <r>    8.5212   -0.0000 </r>
       <r>    8.5414   -0.0000 </r>
       <r>    8.5711   -0.0000 </r>
       <r>    8.6648   -0.0000 </r>
       <r>    8.6963   -0.0000 </r>
      </set>
     </set>
    </set>
   </array>
  </eigenvalues>
  <separator name="orbital magnetization" >
   <v name="MAGDIPOLOUT">      0.00000000      0.00000000      0.00000000</v>
  </separator>
  <dos>
   <i name="efermi">      6.40856223 </i>
   <total>
    <array>
     <dimension dim="1">gridpoints</dimension>
     <dimension dim="2">spin</dimension>
     <field>energy</field>
     <field>total</field>
     <field>integrated</field>
     <set>
      <set comment="spin 1">
       <r>   -50.6293     0.0000     0.0000 </r>
       <r>   -50.4220     0.0000     0.0000 </r>
       <r>   -50.2146     0.0000     0.0000 </r>
       <r>   -50.0073     0.0000     0.0000 </r>
       <r>   -49.8000     0.0000     0.0000 </r>
       <r>   -49.5926    -0.0000    -0.0000 </r>
       <r>   -49.3853    -0.0000    -0.0000 </r>
       <r>   -49.1780    -0.0000    -0.0000 </r>
       <r>   -48.9707    -0.0000    -0.0000 </r>
       <r>   -48.7633    -0.0000    -0.0000 </r>
       <r>   -48.5560    -0.0000    -0.0000 </r>
       <r>   -48.3487    -0.0044    -0.0009 </r>
       <r>   -48.1414    -0.2712    -0.0571 </r>
       <r>   -47.9340     0.1706    -0.0217 </r>
       <r>   -47.7267    15.5051     3.1929 </r>
       <r>   -47.5194    18.4045     7.0086 </r>
       <r>   -47.3121    12.0229     9.5013 </r>
       <r>   -47.1047     2.8192    10.0858 </r>
       <r>   -46.8974    -0.3899    10.0050 </r>
       <r>   -46.6901    -0.0238    10.0000 </r>
       <r>   -46.4827    -0.0001    10.0000 </r>
       <r>   -46.2754    -0.0000    10.0000 </r>
       <r>   -46.0681    -0.0000    10.0000 </r>
       <r>   -45.8608     0.0000    10.0000 </r>
       <r>   -45.6534     0.0000    10.0000 </r>
       <r>   -45.4461     0.0000    10.0000 </r>
       <r>   -45.2388     0.0000    10.0000 </r>
       <r>   -45.0315     0.0000    10.0000 </r>
       <r>   -44.8241     0.0000    10.0000 </r>
       <r>   -44.6168     0.0000    10.0000 </r>
       <r>   -44.4095     0.0000    10.0000 </r>
       <r>   -44.2022     0.0000    10.0000 </r>
       <r>   -43.9948     0.0000    10.0000 </r>
       <r>   -43.7875     0.0000    10.0000 </r>
       <r>   -43.5802     0.0000    10.0000 </r>
       <r>   -43.3728     0.0000    10.0000 </r>
       <r>   -43.1655     0.0000    10.0000 </r>
       <r>   -42.9582     0.0000    10.0000 </r>
       <r>   -42.7509     0.0000    10.0000 </r>
       <r>   -42.5435     0.0000    10.0000 </r>
       <r>   -42.3362     0.0000    10.0000 </r>
       <r>   -42.1289     0.0000    10.0000 </r>
       <r>   -41.9216     0.0000    10.0000 </r>
       <r>   -41.7142     0.0000    10.0000 </r>
       <r>   -41.5069     0.0000    10.0000 </r>
       <r>   -41.2996     0.0000    10.0000 </r>
       <r>   -41.0923     0.0000    10.0000 </r>
       <r>   -40.8849     0.0000    10.0000 </r>
       <r>   -40.6776     0.0000    10.0000 </r>
       <r>   -40.4703     0.0000    10.0000 </r>
       <r>   -40.2629     0.0000    10.0000 </r>
       <r>   -40.0556     0.0000    10.0000 </r>
       <r>   -39.8483     0.0000    10.0000 </r>
       <r>   -39.6410     0.0000    10.0000 </r>
       <r>   -39.4336     0.0000    10.0000 </r>
       <r>   -39.2263     0.0000    10.0000 </r>
       <r>   -39.0190     0.0000    10.0000 </r>
       <r>   -38.8117     0.0000    10.0000 </r>
       <r>   -38.6043     0.0000    10.0000 </r>
       <r>   -38.3970     0.0000    10.0000 </r>
       <r>   -38.1897     0.0000    10.0000 </r>
       <r>   -37.9824     0.0000    10.0000 </r>
       <r>   -37.7750     0.0000    10.0000 </r>
       <r>   -37.5677     0.0000    10.0000 </r>
       <r>   -37.3604     0.0000    10.0000 </r>
       <r>   -37.1530     0.0000    10.0000 </r>
       <r>   -36.9457     0.0000    10.0000 </r>
       <r>   -36.7384     0.0000    10.0000 </r>
       <r>   -36.5311     0.0000    10.0000 </r>
       <r>   -36.3237     0.0000    10.0000 </r>
       <r>   -36.1164     0.0000    10.0000 </r>
       <r>   -35.9091     0.0000    10.0000 </r>
       <r>   -35.7018     0.0000    10.0000 </r>
       <r>   -35.4944     0.0000    10.0000 </r>
       <r>   -35.2871     0.0000    10.0000 </r>
       <r>   -35.0798     0.0000    10.0000 </r>
       <r>   -34.8725     0.0000    10.0000 </r>
       <r>   -34.6651     0.0000    10.0000 </r>
       <r>   -34.4578     0.0000    10.0000 </r>
       <r>   -34.2505     0.0000    10.0000 </r>
       <r>   -34.0431     0.0000    10.0000 </r>
       <r>   -33.8358     0.0000    10.0000 </r>
       <r>   -33.6285     0.0000    10.0000 </r>
       <r>   -33.4212     0.0000    10.0000 </r>
       <r>   -33.2138     0.0000    10.0000 </r>
       <r>   -33.0065     0.0000    10.0000 </r>
       <r>   -32.7992     0.0000    10.0000 </r>
       <r>   -32.5919     0.0000    10.0000 </r>
       <r>   -32.3845     0.0000    10.0000 </r>
       <r>   -32.1772     0.0000    10.0000 </r>
       <r>   -31.9699     0.0000    10.0000 </r>
       <r>   -31.7626     0.0000    10.0000 </r>
       <r>   -31.5552     0.0000    10.0000 </r>
       <r>   -31.3479     0.0000    10.0000 </r>
       <r>   -31.1406     0.0000    10.0000 </r>
       <r>   -30.9332     0.0000    10.0000 </r>
       <r>   -30.7259     0.0000    10.0000 </r>
       <r>   -30.5186     0.0000    10.0000 </r>
       <r>   -30.3113     0.0000    10.0000 </r>
       <r>   -30.1039     0.0000    10.0000 </r>
       <r>   -29.8966     0.0000    10.0000 </r>
       <r>   -29.6893     0.0000    10.0000 </r>
       <r>   -29.4820     0.0000    10.0000 </r>
       <r>   -29.2746     0.0000    10.0000 </r>
       <r>   -29.0673     0.0000    10.0000 </r>
       <r>   -28.8600     0.0000    10.0000 </r>
       <r>   -28.6527     0.0000    10.0000 </r>
       <r>   -28.4453     0.0000    10.0000 </r>
       <r>   -28.2380     0.0000    10.0000 </r>
       <r>   -28.0307     0.0000    10.0000 </r>
       <r>   -27.8233     0.0000    10.0000 </r>
       <r>   -27.6160     0.0000    10.0000 </r>
       <r>   -27.4087     0.0000    10.0000 </r>
       <r>   -27.2014     0.0000    10.0000 </r>
       <r>   -26.9940     0.0000    10.0000 </r>
       <r>   -26.7867     0.0000    10.0000 </r>
       <r>   -26.5794     0.0000    10.0000 </r>
       <r>   -26.3721     0.0000    10.0000 </r>
       <r>   -26.1647    -0.0000    10.0000 </r>
       <r>   -25.9574    -0.0000    10.0000 </r>
       <r>   -25.7501    -0.0000    10.0000 </r>
       <r>   -25.5428    -0.0000    10.0000 </r>
       <r>   -25.3354    -0.0000    10.0000 </r>
       <r>   -25.1281    -0.0000    10.0000 </r>
       <r>   -24.9208    -0.0027     9.9994 </r>
       <r>   -24.7134    -0.0911     9.9806 </r>
       <r>   -24.5061     0.2685    10.0362 </r>
       <r>   -24.2988     2.5957    10.5744 </r>
       <r>   -24.0915    13.4937    13.3720 </r>
       <r>   -23.8841    41.6790    22.0132 </r>
       <r>   -23.6768    36.5611    29.5932 </r>
       <r>   -23.4695    32.6029    36.3527 </r>
       <r>   -23.2622    13.1071    39.0702 </r>
       <r>   -23.0548     2.6397    39.6174 </r>
       <r>   -22.8475     1.9440    40.0205 </r>
       <r>   -22.6402    -0.0692    40.0061 </r>
       <r>   -22.4328    -0.0292    40.0001 </r>
       <r>   -22.2255    -0.0003    40.0000 </r>
       <r>   -22.0182    -0.0000    40.0000 </r>
       <r>   -21.8109    -0.0000    40.0000 </r>
       <r>   -21.6035    -0.0000    40.0000 </r>
       <r>   -21.3962     0.0000    40.0000 </r>
       <r>   -21.1889     0.0000    40.0000 </r>
       <r>   -20.9816     0.0000    40.0000 </r>
       <r>   -20.7742     0.0000    40.0000 </r>
       <r>   -20.5669     0.0000    40.0000 </r>
       <r>   -20.3596     0.0000    40.0000 </r>
       <r>   -20.1523     0.0000    40.0000 </r>
       <r>   -19.9449     0.0000    40.0000 </r>
       <r>   -19.7376     0.0000    40.0000 </r>
       <r>   -19.5303     0.0000    40.0000 </r>
       <r>   -19.3229     0.0000    40.0000 </r>
       <r>   -19.1156     0.0000    40.0000 </r>
       <r>   -18.9083     0.0000    40.0000 </r>
       <r>   -18.7010     0.0000    40.0000 </r>
       <r>   -18.4936     0.0000    40.0000 </r>
       <r>   -18.2863     0.0000    40.0000 </r>
       <r>   -18.0790     0.0000    40.0000 </r>
       <r>   -17.8717     0.0000    40.0000 </r>
       <r>   -17.6643     0.0000    40.0000 </r>
       <r>   -17.4570     0.0000    40.0000 </r>
       <r>   -17.2497     0.0000    40.0000 </r>
       <r>   -17.0424     0.0000    40.0000 </r>
       <r>   -16.8350     0.0000    40.0000 </r>
       <r>   -16.6277     0.0000    40.0000 </r>
       <r>   -16.4204     0.0000    40.0000 </r>
       <r>   -16.2130     0.0000    40.0000 </r>
       <r>   -16.0057     0.0000    40.0000 </r>
       <r>   -15.7984     0.0000    40.0000 </r>
       <r>   -15.5911     0.0000    40.0000 </r>
       <r>   -15.3837     0.0000    40.0000 </r>
       <r>   -15.1764     0.0000    40.0000 </r>
       <r>   -14.9691     0.0000    40.0000 </r>
       <r>   -14.7618     0.0000    40.0000 </r>
       <r>   -14.5544     0.0000    40.0000 </r>
       <r>   -14.3471     0.0000    40.0000 </r>
       <r>   -14.1398     0.0000    40.0000 </r>
       <r>   -13.9325     0.0000    40.0000 </r>
       <r>   -13.7251     0.0000    40.0000 </r>
       <r>   -13.5178     0.0000    40.0000 </r>
       <r>   -13.3105     0.0000    40.0000 </r>
       <r>   -13.1031     0.0000    40.0000 </r>
       <r>   -12.8958     0.0000    40.0000 </r>
       <r>   -12.6885     0.0000    40.0000 </r>
       <r>   -12.4812     0.0000    40.0000 </r>
       <r>   -12.2738     0.0000    40.0000 </r>
       <r>   -12.0665     0.0000    40.0000 </r>
       <r>   -11.8592     0.0000    40.0000 </r>
       <r>   -11.6519     0.0000    40.0000 </r>
       <r>   -11.4445     0.0000    40.0000 </r>
       <r>   -11.2372     0.0000    40.0000 </r>
       <r>   -11.0299     0.0000    40.0000 </r>
       <r>   -10.8226     0.0000    40.0000 </r>
       <r>   -10.6152     0.0000    40.0000 </r>
       <r>   -10.4079     0.0000    40.0000 </r>
       <r>   -10.2006     0.0000    40.0000 </r>
       <r>    -9.9932     0.0000    40.0000 </r>
       <r>    -9.7859     0.0000    40.0000 </r>
       <r>    -9.5786     0.0000    40.0000 </r>
       <r>    -9.3713     0.0000    40.0000 </r>
       <r>    -9.1639     0.0000    40.0000 </r>
       <r>    -8.9566     0.0000    40.0000 </r>
       <r>    -8.7493     0.0000    40.0000 </r>
       <r>    -8.5420     0.0000    40.0000 </r>
       <r>    -8.3346     0.0000    40.0000 </r>
       <r>    -8.1273     0.0000    40.0000 </r>
       <r>    -7.9200     0.0000    40.0000 </r>
       <r>    -7.7127     0.0000    40.0000 </r>
       <r>    -7.5053     0.0000    40.0000 </r>
       <r>    -7.2980     0.0000    40.0000 </r>
       <r>    -7.0907     0.0000    40.0000 </r>
       <r>    -6.8833     0.0000    40.0000 </r>
       <r>    -6.6760     0.0000    40.0000 </r>
       <r>    -6.4687     0.0000    40.0000 </r>
       <r>    -6.2614     0.0000    40.0000 </r>
       <r>    -6.0540     0.0000    40.0000 </r>
       <r>    -5.8467     0.0000    40.0000 </r>
       <r>    -5.6394     0.0000    40.0000 </r>
       <r>    -5.4321     0.0000    40.0000 </r>
       <r>    -5.2247     0.0000    40.0000 </r>
       <r>    -5.0174     0.0000    40.0000 </r>
       <r>    -4.8101     0.0000    40.0000 </r>
       <r>    -4.6028     0.0000    40.0000 </r>
       <r>    -4.3954     0.0000    40.0000 </r>
       <r>    -4.1881     0.0000    40.0000 </r>
       <r>    -3.9808     0.0000    40.0000 </r>
       <r>    -3.7734     0.0000    40.0000 </r>
       <r>    -3.5661     0.0000    40.0000 </r>
       <r>    -3.3588     0.0000    40.0000 </r>
       <r>    -3.1515     0.0000    40.0000 </r>
       <r>    -2.9441     0.0000    40.0000 </r>
       <r>    -2.7368     0.0000    40.0000 </r>
       <r>    -2.5295     0.0000    40.0000 </r>
       <r>    -2.3222     0.0000    40.0000 </r>
       <r>    -2.1148    -0.0000    40.0000 </r>
       <r>    -1.9075    -0.0000    40.0000 </r>
       <r>    -1.7002    -0.0000    40.0000 </r>
       <r>    -1.4929    -0.0000    40.0000 </r>
       <r>    -1.2855    -0.0000    40.0000 </r>
       <r>    -1.0782    -0.0000    40.0000 </r>
       <r>    -0.8709    -0.0004    39.9999 </r>
       <r>    -0.6635    -0.0103    39.9978 </r>
       <r>    -0.4562     0.0182    40.0016 </r>
       <r>    -0.2489     0.5196    40.1093 </r>
       <r>    -0.0416     1.1985    40.3578 </r>
       <r>     0.1658     1.4348    40.6552 </r>
       <r>     0.3731     2.0858    41.0877 </r>
       <r>     0.5804     1.8756    41.4765 </r>
       <r>     0.7877     2.2904    41.9514 </r>
       <r>     0.9951     3.1551    42.6055 </r>
       <r>     1.2024     3.1346    43.2554 </r>
       <r>     1.4097     3.4400    43.9686 </r>
       <r>     1.6170     4.0141    44.8009 </r>
       <r>     1.8244     5.0870    45.8555 </r>
       <r>     2.0317     5.7480    47.0473 </r>
       <r>     2.2390     8.5055    48.8107 </r>
       <r>     2.4464    13.1866    51.5446 </r>
       <r>     2.6537    18.3143    55.3416 </r>
       <r>     2.8610    24.2173    60.3625 </r>
       <r>     3.0683    27.4943    66.0629 </r>
       <r>     3.2757    28.9644    72.0680 </r>
       <r>     3.4830    30.5778    78.4075 </r>
       <r>     3.6903    30.4903    84.7290 </r>
       <r>     3.8976    31.0185    91.1600 </r>
       <r>     4.1050    30.0514    97.3904 </r>
       <r>     4.3123    27.1129   103.0117 </r>
       <r>     4.5196    29.4799   109.1236 </r>
       <r>     4.7269    33.6997   116.1105 </r>
       <r>     4.9343    36.3927   123.6556 </r>
       <r>     5.1416    41.1110   132.1791 </r>
       <r>     5.3489    42.2745   140.9437 </r>
       <r>     5.5563    40.1804   149.2742 </r>
       <r>     5.7636    40.9906   157.7726 </r>
       <r>     5.9709    42.9518   166.6777 </r>
       <r>     6.1782    44.1263   175.8262 </r>
       <r>     6.3856    40.1482   184.1500 </r>
       <r>     6.5929    34.7601   191.3567 </r>
       <r>     6.8002    29.1238   197.3949 </r>
       <r>     7.0075    23.7865   202.3264 </r>
       <r>     7.2149    19.5506   206.3798 </r>
       <r>     7.4222    18.5750   210.2309 </r>
       <r>     7.6295    19.2670   214.2255 </r>
       <r>     7.8368    22.1725   218.8224 </r>
       <r>     8.0442    27.7015   224.5657 </r>
       <r>     8.2515    31.8878   231.1769 </r>
       <r>     8.4588    28.0112   236.9843 </r>
       <r>     8.6662    13.6184   239.8078 </r>
       <r>     8.8735     1.2325   240.0633 </r>
       <r>     9.0808    -0.2878   240.0037 </r>
       <r>     9.2881    -0.0175   240.0000 </r>
       <r>     9.4955    -0.0001   240.0000 </r>
       <r>     9.7028    -0.0000   240.0000 </r>
       <r>     9.9101    -0.0000   240.0000 </r>
       <r>    10.1174    -0.0000   240.0000 </r>
       <r>    10.3248     0.0000   240.0000 </r>
       <r>    10.5321     0.0000   240.0000 </r>
       <r>    10.7394     0.0000   240.0000 </r>
       <r>    10.9468     0.0000   240.0000 </r>
       <r>    11.1541     0.0000   240.0000 </r>
       <r>    11.3614     0.0000   240.0000 </r>
       <r>    11.5687     0.0000   240.0000 </r>
      </set>
     </set>
    </array>
   </total>
  </dos>
 </calculation>
 <structure name="finalpos" >
  <crystal>
   <varray name="basis" >
    <v>      -3.12043027      -3.16918420      -3.14746840 </v>
    <v>       1.64919138       1.46571837      -7.83994464 </v>
    <v>       7.92266582      -7.88005953      -1.73931151 </v>
   </varray>
   <i name="volume">    465.94380717 </i>
   <varray name="rec_basis" >
    <v>      -0.13806079      -0.12715010      -0.05281350 </v>
    <v>       0.04139993       0.06516610      -0.10665999 </v>
    <v>       0.06322550      -0.06364454       0.00140128 </v>
   </varray>
  </crystal>
  <varray name="positions" >
   <v>       0.63561374       0.26173611       0.40585256 </v>
   <v>       0.50108794      -0.00085576      -0.00695616 </v>
   <v>      -0.00442609       0.00088884       0.00409111 </v>
   <v>       0.09542660       0.20717570       0.79528152 </v>
   <v>       0.03948633       0.06583743       0.58410553 </v>
   <v>       0.91049855       0.79324167       0.20391548 </v>
   <v>       0.79802958       0.59700147       0.39869977 </v>
   <v>       0.72896198       0.46254698       0.20307581 </v>
   <v>       0.65968176       0.34217666      -0.00463280 </v>
   <v>       0.38128885       0.72782689       0.60179826 </v>
   <v>       0.14034271       0.27894762       0.39963871 </v>
   <v>       0.83739306       0.65847868       0.00133999 </v>
   <v>       0.92351351       0.87367092       0.79204489 </v>
   <v>       0.55149287       0.13868437       0.19325483 </v>
   <v>       0.41402269       0.79099193       0.19471847 </v>
   <v>       0.43513401       0.85665441       0.79530702 </v>
   <v>       0.28217386       0.62665081       0.40346465 </v>
   <v>       0.86500925       0.74095293       0.59103632 </v>
   <v>       0.49890355       0.93025430       0.40687122 </v>
   <v>       0.16878658       0.33148719       0.00538127 </v>
   <v>       0.27172300       0.52911055       0.79456904 </v>
   <v>       0.19930088       0.39747506       0.59460069 </v>
   <v>       0.05460060       0.12162030       0.23008640 </v>
   <v>       0.76787551       0.51946742       0.80503475 </v>
   <v>       0.68470419       0.41424327       0.60349496 </v>
   <v>       0.59696163       0.20721203       0.79155099 </v>
   <v>       0.53268228       0.07457127       0.61151177 </v>
   <v>       0.33737755       0.64726763      -0.00152713 </v>
   <v>       0.22568636       0.47134998       0.20239009 </v>
  </varray>
 </structure>
</modeling>
