Nb - Mo - Ta - Ti - V SQS               
           1
    -3.160000   -3.160000   -3.160000
     1.580000    1.580000   -7.900000
     7.900000   -7.900000   -1.580000
   Nb   Mo   Ta   Ti   V 
   5   6   6   6   6
Direct configuration=     1
   0.63333333  0.26666667  0.40000000
   0.50000000  0.00000000  0.00000000
   0.00000000  0.00000000  0.00000000
   0.10000000  0.20000000  0.80000000
   0.03333333  0.06666667  0.60000000
   0.90000000  0.80000000  0.20000000
   0.80000000  0.60000000  0.40000000
   0.73333333  0.46666667  0.20000000
   0.66666667  0.33333333  0.00000000
   0.36666667  0.73333333  0.60000000
   0.13333333  0.26666667  0.40000000
   0.83333333  0.66666667  0.00000000
   0.93333333  0.86666667  0.80000000
   0.56666667  0.13333333  0.20000000
   0.40000000  0.80000000  0.20000000
   0.43333333  0.86666667  0.80000000
   0.30000000  0.60000000  0.40000000
   0.86666667  0.73333333  0.60000000
   0.46666667  0.93333333  0.40000000
   0.16666667  0.33333333  0.00000000
   0.26666667  0.53333333  0.80000000
   0.20000000  0.40000000  0.60000000
   0.06666667  0.13333333  0.20000000
   0.76666667  0.53333333  0.80000000
   0.70000000  0.40000000  0.60000000
   0.60000000  0.20000000  0.80000000
   0.53333333  0.06666667  0.60000000
   0.33333333  0.66666667  0.00000000
   0.23333333  0.46666667  0.20000000
Nb - Mo - Ta - Ti - V SQS               
           1
    -3.459511   -3.358586   -3.342710
     1.662906    1.853820   -8.464451
     7.863403   -7.794291   -1.488154
   Nb   Mo   Ta   Ti   V 
   5   6   6   6   6
Direct configuration=     2
   0.63233968  0.26455660  0.39435385
   0.49492153 -0.00067380  0.00392826
   0.00298791  0.00524306 -0.00404390
   0.09771197  0.20251561  0.80273760
   0.04212699  0.05931167  0.60547959
   0.90244459  0.79835025  0.20140560
   0.80668881  0.59415349  0.39530350
   0.73341150  0.46808789  0.19760385
   0.66876174  0.33879417  0.00098142
   0.37462783  0.72336186  0.60727842
   0.13245021  0.28358433  0.39268464
   0.83670867  0.66238495 -0.00043318
   0.93660009  0.85456435  0.80579854
   0.56676479  0.13616064  0.19268142
   0.40470036  0.79375641  0.19332589
   0.43147924  0.86803019  0.79880465
   0.29377066  0.60793005  0.39966935
   0.86498839  0.73027422  0.60043487
   0.47411435  0.92885239  0.39917589
   0.16317338  0.33353691 -0.00606438
   0.25770535  0.54073507  0.80153781
   0.19480675  0.39605677  0.60595226
   0.06261428  0.13752582  0.19987988
   0.77743748  0.52591285  0.80535365
   0.69296771  0.41590778  0.59930020
   0.59549700  0.20184364  0.80436974
   0.52752277  0.06594312  0.60536909
   0.33365875  0.66350952 -0.00183293
   0.23035053  0.46645686  0.19896443
Nb - Mo - Ta - Ti - V SQS               
           1
    -3.304944   -3.256103   -3.248420
     1.620121    1.712511   -8.173158
     7.882289   -7.848844   -1.535552
   Nb   Mo   Ta   Ti   V 
   5   6   6   6   6
Direct configuration=     3
   0.63286807  0.26557985  0.39730999
   0.49733765 -0.00034719  0.00190216
   0.00154219  0.00273933 -0.00197787
   0.09877374  0.20131377  0.80130417
   0.03792655  0.06278996  0.60264140
   0.90127477  0.79912880  0.20067558
   0.80355260  0.59693934  0.39776298
   0.73337903  0.46741404  0.19884323
   0.66771048  0.33617758  0.00043166
   0.37083431  0.72808835  0.60352132
   0.13279755  0.27552072  0.39639807
   0.83512332  0.66442252 -0.00019297
   0.93508381  0.86032455  0.80283938
   0.56674413  0.13482595  0.19647620
   0.40253373  0.79674162  0.19682390
   0.43236650  0.86738635  0.79942500
   0.29670355  0.60415879  0.39981446
   0.86581307  0.73173915  0.60023159
   0.47057921  0.93097522  0.39960815
   0.16488681  0.33346240 -0.00289619
   0.26194079  0.53721928  0.80072142
   0.19728877  0.39794111  0.60289157
   0.06452866  0.13553390  0.19993048
   0.77228977  0.52941747  0.80257526
   0.69623003  0.40832819  0.59959323
   0.59761584  0.20096506  0.80209712
   0.53028122  0.06629223  0.60259515
   0.33353743  0.66502103 -0.00086077
   0.23178975  0.46656729  0.19951433
Nb - Mo - Ta - Ti - V SQS               
           1
    -3.249765   -3.219517   -3.214759
     1.604847    1.662065   -8.069169
     7.889032   -7.868319   -1.552473
   Nb   Mo   Ta   Ti   V 
   5   6   6   6   6
Direct configuration=     4
   0.63305397  0.26595677  0.39835753
   0.49823659 -0.00022675  0.00117878
   0.00100872  0.00180966 -0.00123671
   0.09917382  0.20086770  0.80079624
   0.03636747  0.06408780  0.60163026
   0.90084095  0.79941961  0.20041585
   0.80237718  0.59797471  0.39863444
   0.73336596  0.46716291  0.19928509
   0.66732965  0.33520774  0.00024318
   0.36942466  0.72984988  0.60218052
   0.13293998  0.27252388  0.39773452
   0.83452976  0.66518035 -0.00011021
   0.93451300  0.86246686  0.80177725
   0.56673124  0.13432740  0.19782744
   0.40171449  0.79784917  0.19806282
   0.43269552  0.86714593  0.79964580
   0.29780025  0.60275568  0.39987081
   0.86611497  0.73228231  0.60015525
   0.46926265  0.93176653  0.39976120
   0.16551428  0.33343041 -0.00177229
   0.26352157  0.53591047  0.80043409
   0.19821021  0.39864061  0.60179715
   0.06524330  0.13479245  0.19995057
   0.77037955  0.53072599  0.80158639
   0.69745905  0.40551086  0.59970999
   0.59840859  0.20063861  0.80128910
   0.53130868  0.06642128  0.60160562
   0.33348596  0.66558148 -0.00051848
   0.23232130  0.46660638  0.19970783
Nb - Mo - Ta - Ti - V SQS               
           1
    -3.204882   -3.189759   -3.187379
     1.592424    1.621033   -7.984584
     7.894516   -7.884159   -1.566237
   Nb   Mo   Ta   Ti   V 
   5   6   6   6   6
Direct configuration=     5
   0.63320432  0.26626692  0.39920732
   0.49897889 -0.00012765  0.00059031
   0.00056961  0.00104249 -0.00063271
   0.09950572  0.20049963  0.80038419
   0.03508094  0.06516071  0.60080833
   0.90048310  0.79966011  0.20020484
   0.80140393  0.59882947  0.39934136
   0.73335491  0.46695541  0.19964436
   0.66701828  0.33440793  0.00009221
   0.36826089  0.73130552  0.60108993
   0.13306181  0.27005002  0.39882496
   0.83403844  0.66580612 -0.00004379
   0.93403942  0.86423580  0.80091148
   0.56671915  0.13391512  0.19892559
   0.40103402  0.79876294  0.19906767
   0.43296693  0.86694712  0.79982521
   0.29870765  0.60159693  0.39991802
   0.86636276  0.73273029  0.60009201
   0.46817500  0.93242049  0.39988531
   0.16602953  0.33340272 -0.00086018
   0.26482855  0.53482935  0.80020160
   0.19897044  0.39921775  0.60090633
   0.06583421  0.13418002  0.19996753
   0.76880344  0.53180801  0.80078287
   0.69847874  0.40318501  0.59980865
   0.59906456  0.20036910  0.80063279
   0.53215745  0.06652756  0.60080088
   0.33344156  0.66604375 -0.00024148
   0.23275910  0.46663805  0.19986439
Nb - Mo - Ta - Ti - V SQS               
           1
    -3.182441   -3.174879   -3.173690
     1.586212    1.600516   -7.942292
     7.897258   -7.892080   -1.573118
   Nb   Mo   Ta   Ti   V 
   5   6   6   6   6
Direct configuration=     6
   0.63327914  0.26642349  0.39963130
   0.49935467 -0.00007763  0.00029604
   0.00034791  0.00065433 -0.00033022
   0.09967438  0.20031340  0.80017862
   0.03442997  0.06570439  0.60039757
   0.90030208  0.79978202  0.20009942
   0.80091012  0.59926211  0.39969404
   0.73334922  0.46685030  0.19982394
   0.66686195  0.33400345  0.00001770
   0.36767180  0.73204287  0.60054462
   0.13312529  0.26879795  0.39937161
   0.83378920  0.66612291 -0.00001096
   0.93379871  0.86513129  0.80047783
   0.56671245  0.13370616  0.19947430
   0.40068790  0.79922521  0.19956892
   0.43310423  0.86684635  0.79991484
   0.29916778  0.60101025  0.39994221
   0.86648758  0.73295685  0.60005991
   0.46762417  0.93275179  0.39994722
   0.16628918  0.33338819 -0.00040497
   0.26549090  0.53428186  0.80008587
   0.19935501  0.39950972  0.60046064
   0.06613370  0.13386990  0.19997627
   0.76800602  0.53235641  0.80038143
   0.69899698  0.40200777  0.59985952
   0.59939719  0.20023268  0.80030502
   0.53258726  0.06658124  0.60039856
   0.33341828  0.66627756 -0.00010356
   0.23298027  0.46665383  0.19994233
Nb - Mo - Ta - Ti - V SQS               
           1
    -3.171221   -3.167440   -3.166845
     1.583106    1.590258   -7.921146
     7.898629   -7.896040   -1.576559
   Nb   Mo   Ta   Ti   V 
   5   6   6   6   6
Direct configuration=     7
   0.63331646  0.26650216  0.39984305
   0.49954373 -0.00005251  0.00014889
   0.00023652  0.00045909 -0.00017885
   0.09975939  0.20021972  0.80007595
   0.03410252  0.06597807  0.60019224
   0.90021103  0.79984339  0.20004674
   0.80066139  0.59947978  0.39987018
   0.73334633  0.46679741  0.19991372
   0.66678362  0.33380005 -0.00001932
   0.36737542  0.73241397  0.60027196
   0.13315769  0.26816806  0.39964529
   0.83366368  0.66628231  0.00000537
   0.93367735  0.86558184  0.80026080
   0.56670894  0.13360097  0.19974857
   0.40051333  0.79945772  0.19981924
   0.43317328  0.86679562  0.79995964
   0.29939948  0.60071505  0.39995445
   0.86655022  0.73307079  0.60004374
   0.46734696  0.93291854  0.39997813
   0.16641952  0.33338074 -0.00017757
   0.26582433  0.53400636  0.80002813
   0.19954842  0.39965657  0.60023773
   0.06628447  0.13371385  0.19998071
   0.76760493  0.53263250  0.80018078
   0.69925825  0.40141551  0.59988534
   0.59956469  0.20016404  0.80014122
   0.53280354  0.06660821  0.60019741
   0.33340637  0.66639515 -0.00003474
   0.23309143  0.46666171  0.19998121
Nb - Mo - Ta - Ti - V SQS               
           1
    -3.165610   -3.163720   -3.163422
     1.581553    1.585129   -7.910573
     7.899314   -7.898020   -1.578280
   Nb   Mo   Ta   Ti   V 
   5   6   6   6   6
Direct configuration=     8
   0.63333510  0.26654159  0.39994887
   0.49963856 -0.00003992  0.00007531
   0.00018069  0.00036117 -0.00010314
   0.09980208  0.20017274  0.80002464
   0.03393830  0.06611537  0.60008959
   0.90016538  0.79987419  0.20002041
   0.80053657  0.59958895  0.39995820
   0.73334487  0.46677087  0.19995860
   0.66674442  0.33369805 -0.00003776
   0.36722676  0.73260013  0.60013562
   0.13317406  0.26785214  0.39978223
   0.83360068  0.66636226  0.00001350
   0.93361642  0.86580782  0.80015224
   0.56670714  0.13354819  0.19988568
   0.40042567  0.79957433  0.19994433
   0.43320790  0.86677017  0.79998203
   0.29951575  0.60056698  0.39996060
   0.86658160  0.73312793  0.60003563
   0.46720791  0.93300220  0.39999358
   0.16648483  0.33337697 -0.00006392
   0.26599162  0.53386816  0.79999929
   0.19964541  0.39973022  0.60012625
   0.06636011  0.13363557  0.19998294
   0.76740379  0.53277102  0.80008048
   0.69938943  0.40111846  0.59989835
   0.59964874  0.20012961  0.80005934
   0.53291204  0.06662173  0.60009684
   0.33340034  0.66645411 -0.00000037
   0.23314716  0.46666564  0.20000063
Nb - Mo - Ta - Ti - V SQS               
           1
    -3.162805   -3.161860   -3.161711
     1.580776    1.582565   -7.905287
     7.899657   -7.899010   -1.579140
   Nb   Mo   Ta   Ti   V 
   5   6   6   6   6
Direct configuration=     9
   0.63334441  0.26656132  0.40000177
   0.49968605 -0.00003361  0.00003852
   0.00015274  0.00031214 -0.00006527
   0.09982346  0.20014922  0.79999899
   0.03385607  0.06618414  0.60003827
   0.90014252  0.79988961  0.20000724
   0.80047404  0.59964363  0.40000220
   0.73334414  0.46675758  0.19998105
   0.66672480  0.33364698 -0.00004697
   0.36715231  0.73269337  0.60006746
   0.13318229  0.26769394  0.39985072
   0.83356913  0.66640230  0.00001757
   0.93358589  0.86592099  0.80009794
   0.56670624  0.13352176  0.19995423
   0.40038174  0.79963272  0.20000686
   0.43322524  0.86675742  0.79999323
   0.29957399  0.60049283  0.39996369
   0.86659730  0.73315654  0.60003156
   0.46713827  0.93304410  0.40000130
   0.16651751  0.33337508 -0.00000711
   0.26607540  0.53379895  0.79998488
   0.19969398  0.39976709  0.60007051
   0.06639800  0.13359637  0.19998406
   0.76730306  0.53284040  0.80003034
   0.69945516  0.40096970  0.59990488
   0.59969083  0.20011237  0.80001841
   0.53296637  0.06662850  0.60004655
   0.33339731  0.66648364  0.00001681
   0.23317506  0.46666761  0.20001033
Nb - Mo - Ta - Ti - V SQS               
           1
    -3.161403   -3.160930   -3.160856
     1.580388    1.581282   -7.902643
     7.899829   -7.899505   -1.579570
   Nb   Mo   Ta   Ti   V 
   5   6   6   6   6
Direct configuration=    10
   0.63334907  0.26657120  0.40002821
   0.49970981 -0.00003046  0.00002012
   0.00013875  0.00028761 -0.00004634
   0.09983417  0.20013744  0.79998617
   0.03381492  0.06621855  0.60001261
   0.90013108  0.79989733  0.20000066
   0.80044274  0.59967098  0.40002420
   0.73334378  0.46675093  0.19999227
   0.66671499  0.33362143 -0.00005157
   0.36711506  0.73274003  0.60003337
   0.13318641  0.26761478  0.39988497
   0.83355334  0.66642233  0.00001960
   0.93357061  0.86597762  0.80007079
   0.56670578  0.13350853  0.19998850
   0.40035975  0.79966193  0.20003812
   0.43323392  0.86675104  0.79999883
   0.29960314  0.60045572  0.39996524
   0.86660516  0.73317085  0.60002953
   0.46710342  0.93306506  0.40000516
   0.16653386  0.33337413  0.00002129
   0.26611733  0.53376432  0.79997768
   0.19971828  0.39978555  0.60004263
   0.06641696  0.13357675  0.19998462
   0.76725266  0.53287512  0.80000527
   0.69948806  0.40089526  0.59990815
   0.59971190  0.20010375  0.79999795
   0.53299356  0.06663188  0.60002141
   0.33339579  0.66649841  0.00002539
   0.23318902  0.46666859  0.20001518
Nb - Mo - Ta - Ti - V SQS               
           1
    -3.160701   -3.160465   -3.160428
     1.580194    1.580641   -7.901322
     7.899914   -7.899752   -1.579785
   Nb   Mo   Ta   Ti   V 
   5   6   6   6   6
Direct configuration=    11
   0.63335139  0.26657614  0.40004143
   0.49972170 -0.00002888  0.00001092
   0.00013176  0.00027534 -0.00003687
   0.09983952  0.20013156  0.79997976
   0.03379434  0.06623577  0.59999978
   0.90012536  0.79990119  0.19999737
   0.80042709  0.59968467  0.40003519
   0.73334360  0.46674761  0.19999788
   0.66671009  0.33360865 -0.00005387
   0.36709643  0.73276337  0.60001633
   0.13318848  0.26757518  0.39990210
   0.83354544  0.66643236  0.00002061
   0.93356296  0.86600594  0.80005721
   0.56670555  0.13350191  0.20000564
   0.40034875  0.79967655  0.20005375
   0.43323826  0.86674785  0.80000163
   0.29961771  0.60043716  0.39996601
   0.86660909  0.73317801  0.60002851
   0.46708599  0.93307555  0.40000709
   0.16654204  0.33337365  0.00003549
   0.26613831  0.53374699  0.79997408
   0.19973044  0.39979478  0.60002870
   0.06642645  0.13356694  0.19998490
   0.76722745  0.53289248  0.79999273
   0.69950451  0.40085803  0.59990979
   0.59972244  0.20009943  0.79998771
   0.53300716  0.06663358  0.60000884
   0.33339503  0.66650580  0.00002968
   0.23319600  0.46666908  0.20001761
Nb - Mo - Ta - Ti - V SQS               
           1
    -3.160351   -3.160232   -3.160214
     1.580097    1.580321   -7.900661
     7.899957   -7.899876   -1.579892
   Nb   Mo   Ta   Ti   V 
   5   6   6   6   6
Direct configuration=    12
   0.63335256  0.26657861  0.40004804
   0.49972764 -0.00002809  0.00000632
   0.00012826  0.00026920 -0.00003213
   0.09984220  0.20012861  0.79997655
   0.03378405  0.06624438  0.59999336
   0.90012250  0.79990312  0.19999572
   0.80041926  0.59969151  0.40004069
   0.73334350  0.46674594  0.20000068
   0.66670764  0.33360225 -0.00005502
   0.36708711  0.73277504  0.60000781
   0.13318951  0.26755538  0.39991066
   0.83354149  0.66643737  0.00002112
   0.93355914  0.86602011  0.80005042
   0.56670544  0.13349860  0.20001421
   0.40034325  0.79968385  0.20006156
   0.43324043  0.86674626  0.80000303
   0.29962501  0.60042788  0.39996640
   0.86661105  0.73318159  0.60002800
   0.46707727  0.93308080  0.40000805
   0.16654613  0.33337341  0.00004259
   0.26614879  0.53373833  0.79997228
   0.19973652  0.39979939  0.60002173
   0.06643119  0.13356203  0.19998504
   0.76721484  0.53290117  0.79998646
   0.69951274  0.40083941  0.59991061
   0.59972771  0.20009727  0.79998260
   0.53301396  0.06663442  0.60000255
   0.33339465  0.66650950  0.00003183
   0.23319949  0.46666933  0.20001882
Nb - Mo - Ta - Ti - V SQS               
           1
    -3.158877   -3.147671   -3.144941
     1.596596    1.595764   -7.901440
     7.833819   -7.803268   -1.575007
   Nb   Mo   Ta   Ti   V 
   5   6   6   6   6
Direct configuration=    13
   0.63504282  0.26293862  0.40071411
   0.49915134  0.00113459  0.00029597
  -0.00040978  0.00118516  0.00051643
   0.09722227  0.20472769  0.79913727
   0.03550533  0.06587940  0.59720266
   0.90329577  0.79767583  0.20251907
   0.80207893  0.59487241  0.39858914
   0.73237947  0.46711158  0.19930050
   0.66505905  0.33776302 -0.00089269
   0.37239610  0.72912228  0.60166988
   0.13436341  0.27355931  0.39875201
   0.83522947  0.66259442  0.00102201
   0.93119373  0.86617560  0.79985013
   0.56351909  0.13567629  0.19699848
   0.40452353  0.79420692  0.19751149
   0.43631237  0.86325400  0.79728636
   0.29522134  0.60682285  0.40105577
   0.86443421  0.73283305  0.59826858
   0.46821150  0.93149368  0.40252160
   0.16748572  0.33463840 -0.00077524
   0.26757215  0.53500639  0.79910349
   0.19976945  0.39632657  0.59983830
   0.06406267  0.13626377  0.20343160
   0.76952741  0.52862738  0.80197967
   0.69588677  0.40590173  0.60047578
   0.59866439  0.20184539  0.79952892
   0.53044087  0.06854515  0.60348061
   0.33373966  0.66304704  0.00025587
   0.23145428  0.46743814  0.20036223
Nb - Mo - Ta - Ti - V SQS               
           1
    -3.157452   -3.135525   -3.130175
     1.612548    1.610696   -7.902194
     7.769873   -7.709861   -1.570283
   Nb   Mo   Ta   Ti   V 
   5   6   6   6   6
Direct configuration=    14
   0.63666886  0.25942480  0.40136621
   0.49859834  0.00225558  0.00057846
  -0.00092582  0.00206733  0.00105192
   0.09469831  0.20916702  0.79831525
   0.03716315  0.06553602  0.59447754
   0.90637134  0.79552151  0.20498654
   0.80366349  0.59022630  0.39717252
   0.73144408  0.46746570  0.19861578
   0.66347495  0.34177999 -0.00171244
   0.37753339  0.72559603  0.60329749
   0.13552177  0.27935820  0.39762052
   0.83685360  0.65888379  0.00200122
   0.92890069  0.86632451  0.79965281
   0.56042901  0.13778408  0.19404999
   0.40854523  0.78893071  0.19502345
   0.43926712  0.85989302  0.79463468
   0.29098193  0.61298895  0.40211660
   0.86231672  0.73249988  0.59654827
   0.46931297  0.92995578  0.40497804
   0.16839894  0.33586225 -0.00157364
   0.26895417  0.53623371  0.79825564
   0.19978673  0.39297521  0.59965935
   0.06178905  0.13886027  0.20679687
   0.77175859  0.52449863  0.80392877
   0.69239411  0.41078359  0.60102511
   0.59763915  0.20353311  0.79908486
   0.52796586  0.07037796  0.60687656
   0.33406087  0.65970480  0.00047520
   0.22976674  0.46817797  0.20069647
Nb - Mo - Ta - Ti - V SQS               
           1
    -3.165269   -3.151806   -3.144483
     1.635969    1.596208   -7.935025
     7.846147   -7.773476   -1.611373
   Nb   Mo   Ta   Ti   V 
   5   6   6   6   6
Direct configuration=    15
   0.63873760  0.25645477  0.40285621
   0.49994158  0.00203563 -0.00173287
  -0.00189311  0.00232011  0.00253470
   0.09407452  0.21039834  0.79686932
   0.03601830  0.06610384  0.59032133
   0.90846268  0.79444690  0.20717090
   0.80207081  0.58963973  0.39754270
   0.73107947  0.46533007  0.19886880
   0.66121479  0.34391113 -0.00352444
   0.38076850  0.72366769  0.60302211
   0.13774736  0.27977603  0.39793538
   0.83828380  0.65889973  0.00243714
   0.92764223  0.86836154  0.79795775
   0.55797078  0.13908004  0.19361935
   0.41012401  0.78862762  0.19427230
   0.43849093  0.85835637  0.79454168
   0.28815161  0.61630043  0.40399008
   0.86198886  0.73287101  0.59443634
   0.47055436  0.92902053  0.40668302
   0.17018289  0.33695456 -0.00114345
   0.27197367  0.53569214  0.79718008
   0.20011443  0.39198748  0.59822581
   0.06021365  0.13885084  0.21093861
   0.77225725  0.52163590  0.80458478
   0.68930664  0.41319942  0.60201950
   0.59685070  0.20586840  0.79774067
   0.52792190  0.07165720  0.60971931
   0.33409415  0.65591459  0.00024672
   0.22898895  0.46930464  0.20068618
Nb - Mo - Ta - Ti - V SQS               
           1
    -3.166292   -3.153936   -3.146356
     1.639034    1.594313   -7.939320
     7.856127   -7.781800   -1.616750
   Nb   Mo   Ta   Ti   V 
   5   6   6   6   6
Direct configuration=    16
   0.63900742  0.25606680  0.40305022
   0.50011662  0.00200796 -0.00203262
  -0.00201917  0.00235243  0.00272697
   0.09399312  0.21055955  0.79668147
   0.03586897  0.06617976  0.58978227
   0.90873536  0.79430577  0.20745435
   0.80186326  0.58956312  0.39759100
   0.73103207  0.46505150  0.19890231
   0.66092006  0.34418986 -0.00375993
   0.38119025  0.72341632  0.60298678
   0.13803743  0.27983032  0.39797592
   0.83847021  0.65890159  0.00249356
   0.92747807  0.86862793  0.79773739
   0.55765031  0.13924927  0.19356327
   0.41032979  0.78858840  0.19417488
   0.43838984  0.85815607  0.79453016
   0.28778258  0.61673143  0.40423218
   0.86194606  0.73292035  0.59416238
   0.47071624  0.92889780  0.40690432
   0.17041536  0.33709675 -0.00108814
   0.27236723  0.53562194  0.79704056
   0.20015717  0.39185932  0.59804020
   0.06000840  0.13884779  0.21147581
   0.77232241  0.52126233  0.80467072
   0.68890412  0.41351403  0.60214790
   0.59674779  0.20617351  0.79756568
   0.52791616  0.07182273  0.61008755
   0.33409868  0.65542048  0.00021829
   0.22888752  0.46945157  0.20068454
Nb - Mo - Ta - Ti - V SQS               
           1
    -3.140380   -3.142973   -3.133099
     1.642663    1.553906   -7.888073
     7.871949   -7.796096   -1.649114
   Nb   Mo   Ta   Ti   V 
   5   6   6   6   6
Direct configuration=    17
   0.64029445  0.25442425  0.40437186
   0.50170801  0.00144904 -0.00448587
  -0.00295532  0.00246164  0.00412284
   0.09425139  0.21019151  0.79542965
   0.03474085  0.06658586  0.58650607
   0.90970436  0.79366020  0.20879798
   0.79974687  0.59029357  0.39817923
   0.73081315  0.46329968  0.19962949
   0.65964783  0.34519254 -0.00534136
   0.38278877  0.72268015  0.60253282
   0.14013399  0.27888741  0.39852105
   0.83914988  0.66004635  0.00275844
   0.92615303  0.87101647  0.79588639
   0.55550859  0.13977001  0.19340090
   0.41187015  0.78923408  0.19415363
   0.43682667  0.85739947  0.79507451
   0.28618609  0.61835173  0.40544148
   0.86226958  0.73368742  0.59244700
   0.47232424  0.92817273  0.40797169
   0.17191133  0.33768853 -0.00030388
   0.27488839  0.53461461  0.79598086
   0.20043933  0.39189671  0.59648844
   0.05873266  0.13800370  0.21527216
   0.77226055  0.51947316  0.80498982
   0.68649660  0.41479405  0.60295593
   0.59626503  0.20810200  0.79622452
   0.52856644  0.07246172  0.61234233
   0.33439069  0.65215572 -0.00017456
   0.22821974  0.47067236  0.20082658
Nb - Mo - Ta - Ti - V SQS               
           1
    -3.132263   -3.139538   -3.128946
     1.643800    1.541248   -7.872018
     7.876906   -7.800574   -1.659253
   Nb   Mo   Ta   Ti   V 
   5   6   6   6   6
Direct configuration=    18
   0.64070034  0.25390417  0.40478621
   0.50221079  0.00127481 -0.00525294
  -0.00325093  0.00249485  0.00455950
   0.09433352  0.21007651  0.79503847
   0.03438660  0.06671745  0.58548162
   0.91000945  0.79345492  0.20921840
   0.79907940  0.59052387  0.39836314
   0.73074490  0.46274586  0.19985851
   0.65924710  0.34551084 -0.00583637
   0.38329303  0.72244797  0.60239105
   0.14079486  0.27858891  0.39869172
   0.83936322  0.66040746  0.00284004
   0.92573494  0.87177262  0.79530586
   0.55483358  0.13993483  0.19335030
   0.41235509  0.78943779  0.19414594
   0.43633440  0.85716022  0.79524586
   0.28568161  0.61886232  0.40581865
   0.86237179  0.73393127  0.59190984
   0.47283082  0.92794256  0.40830561
   0.17238195  0.33787443 -0.00005963
   0.27568377  0.53429731  0.79564965
   0.20052887  0.39191002  0.59600311
   0.05832959  0.13773359  0.21646037
   0.77224199  0.51890793  0.80509122
   0.68573698  0.41519769  0.60320816
   0.59611237  0.20871228  0.79580357
   0.52876996  0.07266117  0.61304661
   0.33448480  0.65112526 -0.00029457
   0.22800857  0.47105775  0.20087011
Nb - Mo - Ta - Ti - V SQS               
           1
    -3.128770   -3.146727   -3.134845
     1.642912    1.519897   -7.862840
     7.907674   -7.841214   -1.679120
   Nb   Mo   Ta   Ti   V 
   5   6   6   6   6
Direct configuration=    19
   0.64058619  0.25392169  0.40524734
   0.50242978  0.00106358 -0.00605673
  -0.00326231  0.00257059  0.00498581
   0.09504752  0.20894641  0.79475340
   0.03437081  0.06625778  0.58497147
   0.90948926  0.79377316  0.20908667
   0.79791985  0.59189390  0.39875145
   0.73079382  0.46279326  0.20078701
   0.66005007  0.34500004 -0.00622871
   0.38209563  0.72348683  0.60240474
   0.14152718  0.27743743  0.39892779
   0.83899526  0.66119080  0.00266214
   0.92462824  0.87302354  0.79417192
   0.55403233  0.13939199  0.19332367
   0.41316451  0.79014001  0.19468786
   0.43583394  0.85711776  0.79582773
   0.28544378  0.61879491  0.40548390
   0.86305122  0.73504696  0.59139767
   0.47468928  0.92782199  0.40828376
   0.17244071  0.33751836  0.00049940
   0.27572916  0.53340886  0.79499312
   0.20058047  0.39277984  0.59541445
   0.05771684  0.13619068  0.21834627
   0.77190318  0.51910930  0.80493951
   0.68543610  0.41461324  0.60343255
   0.59620949  0.20913815  0.79502643
   0.52958386  0.07239569  0.61336462
   0.33521768  0.65027179 -0.00068309
   0.22762947  0.47156812  0.20119784
Nb - Mo - Ta - Ti - V SQS               
           1
    -3.124568   -3.155377   -3.141942
     1.641844    1.494208   -7.851796
     7.944692   -7.890110   -1.703022
   Nb   Mo   Ta   Ti   V 
   5   6   6   6   6
Direct configuration=    20
   0.64044779  0.25394244  0.40579971
   0.50269560  0.00080948 -0.00701928
  -0.00327724  0.00266154  0.00549631
   0.09590981  0.20758348  0.79441318
   0.03435435  0.06570388  0.58436121
   0.90886328  0.79415728  0.20892881
   0.79652097  0.59354627  0.39921532
   0.73085026  0.46284957  0.20189898
   0.66101785  0.34438405 -0.00669845
   0.38065309  0.72474016  0.60242046
   0.14241031  0.27604822  0.39921175
   0.83855109  0.66213584  0.00244812
   0.92329690  0.87453363  0.79281271
   0.55307064  0.13873763  0.19329329
   0.41413434  0.79098611  0.19533515
   0.43523097  0.85706621  0.79652512
   0.28515885  0.61871400  0.40508327
   0.86386614  0.73639273  0.59078192
   0.47692402  0.92767591  0.40825627
   0.17251102  0.33708840  0.00116947
   0.27578784  0.53233794  0.79420814
   0.20064145  0.39382939  0.59470799
   0.05697999  0.13432839  0.22060798
   0.77149565  0.51935242  0.80475776
   0.68507549  0.41390829  0.60370247
   0.59632692  0.20965244  0.79409489
   0.53056236  0.07207492  0.61374526
   0.33610214  0.64924258 -0.00114768
   0.22717146  0.47218348  0.20158986
Nb - Mo - Ta - Ti - V SQS               
           1
    -3.113779   -3.152200   -3.138582
     1.634018    1.473350   -7.821818
     7.932437   -7.886923   -1.711516
   Nb   Mo   Ta   Ti   V 
   5   6   6   6   6
Direct configuration=    21
   0.63968842  0.25451454  0.40583412
   0.50244730  0.00072335 -0.00683598
  -0.00313669  0.00256639  0.00545637
   0.09645726  0.20685254  0.79447793
   0.03532655  0.06512285  0.58485769
   0.90838425  0.79470469  0.20808349
   0.79632021  0.59442662  0.39942516
   0.73076197  0.46353060  0.20272296
   0.66205558  0.34387480 -0.00644733
   0.37930642  0.72576777  0.60256009
   0.14226155  0.27570000  0.39939057
   0.83808543  0.66206796  0.00224758
   0.92229483  0.87528253  0.79213569
   0.55266966  0.13833181  0.19310651
   0.41486301  0.79105810  0.19582449
   0.43504663  0.85695530  0.79672396
   0.28492695  0.61896958  0.40437512
   0.86408049  0.73801106  0.59051146
   0.47959596  0.92774647  0.40804229
   0.17200100  0.33633681  0.00178578
   0.27480841  0.53160464  0.79360895
   0.20081803  0.39458060  0.59434200
   0.05607168  0.13245881  0.22223931
   0.77096121  0.51995230  0.80461368
   0.68520365  0.41309876  0.60370137
   0.59679349  0.20933979  0.79319671
   0.53106730  0.07177930  0.61346600
   0.33748176  0.64903356 -0.00143310
   0.22669102  0.47227516  0.20198712
Nb - Mo - Ta - Ti - V SQS               
           1
    -3.115181   -3.152613   -3.139019
     1.635035    1.476061   -7.825715
     7.934030   -7.887337   -1.710412
   Nb   Mo   Ta   Ti   V 
   5   6   6   6   6
Direct configuration=    22
   0.63978749  0.25443980  0.40582966
   0.50247966  0.00073461 -0.00685985
  -0.00315503  0.00257882  0.00546157
   0.09638577  0.20694803  0.79446946
   0.03519988  0.06519881  0.58479309
   0.90844661  0.79463311  0.20819350
   0.79634665  0.59431165  0.39939795
   0.73077385  0.46344171  0.20261583
   0.66192034  0.34394137 -0.00647999
   0.37948213  0.72563351  0.60254195
   0.14228087  0.27574549  0.39936725
   0.83814602  0.66207679  0.00227363
   0.92242540  0.87518462  0.79222380
   0.55272173  0.13838478  0.19313074
   0.41476823  0.79104876  0.19576088
   0.43507066  0.85696980  0.79669807
   0.28495707  0.61893614  0.40446726
   0.86405297  0.73779968  0.59054684
   0.47924793  0.92773734  0.40807031
   0.17206736  0.33643501  0.00170548
   0.27493563  0.53170033  0.79368676
   0.20079516  0.39448247  0.59438971
   0.05618983  0.13270309  0.22202680
   0.77103096  0.51987392  0.80463246
   0.68518673  0.41320450  0.60370143
   0.59673243  0.20938057  0.79331356
   0.53100139  0.07181790  0.61350233
   0.33730195  0.64906089 -0.00139590
   0.22675371  0.47226320  0.20193541
Nb - Mo - Ta - Ti - V SQS               
           1
    -3.118638   -3.159217   -3.146707
     1.634030    1.468039   -7.830922
     7.937533   -7.894085   -1.719157
   Nb   Mo   Ta   Ti   V 
   5   6   6   6   6
Direct configuration=    23
   0.63902206  0.25502918  0.40568754
   0.50201426  0.00070581 -0.00623243
  -0.00294788  0.00239755  0.00512968
   0.09660187  0.20688718  0.79472393