  30  30   0   0
  0.1623088E+02  0.6380000E-09  0.8287863E-09  0.1008767E-08  0.5000000E-15
  1.000000000000000E-004
  CAR 
 Nb - Mo - Ta - Ti - W SQS               
     12.25361140    -49.93646179  301      6.93669124      1.00000000
    -49.936  0.0000E+00  0.0000E+00
    -49.729  0.0000E+00  0.0000E+00
    -49.522  0.0000E+00  0.0000E+00
    -49.315  0.0000E+00  0.0000E+00
    -49.107  0.0000E+00  0.0000E+00
    -48.900 -0.1878E-34 -0.3892E-35
    -48.693 -0.8197E-27 -0.1699E-27
    -48.485 -0.3438E-20 -0.7126E-21
    -48.278 -0.1640E-14 -0.3400E-15
    -48.071 -0.8921E-10 -0.1849E-10
    -47.863 -0.5553E-06 -0.1151E-06
    -47.656 -0.3765E-03 -0.7816E-04
    -47.449 -0.2402E-01 -0.5058E-02
    -47.242  0.2219E-01 -0.4578E-03
    -47.034  0.1354E+01  0.2802E+00
    -46.827  0.1411E+01  0.5728E+00
    -46.620  0.1649E+00  0.6070E+00
    -46.412 -0.3219E-01  0.6003E+00
    -46.205 -0.1657E-02  0.6000E+00
    -45.998 -0.7207E-05  0.6000E+00
    -45.790 -0.3311E-08  0.6000E+00
    -45.583 -0.1680E-12  0.6000E+00
    -45.376  0.0000E+00  0.6000E+00
    -45.169  0.0000E+00  0.6000E+00
    -44.961  0.0000E+00  0.6000E+00
    -44.754  0.0000E+00  0.6000E+00
    -44.547  0.0000E+00  0.6000E+00
    -44.339  0.0000E+00  0.6000E+00
    -44.132  0.0000E+00  0.6000E+00
    -43.925  0.0000E+00  0.6000E+00
    -43.717  0.0000E+00  0.6000E+00
    -43.510  0.0000E+00  0.6000E+00
    -43.303  0.0000E+00  0.6000E+00
    -43.096  0.0000E+00  0.6000E+00
    -42.888  0.0000E+00  0.6000E+00
    -42.681  0.0000E+00  0.6000E+00
    -42.474  0.0000E+00  0.6000E+00
    -42.266  0.0000E+00  0.6000E+00
    -42.059  0.0000E+00  0.6000E+00
    -41.852  0.0000E+00  0.6000E+00
    -41.644  0.0000E+00  0.6000E+00
    -41.437  0.0000E+00  0.6000E+00
    -41.230  0.0000E+00  0.6000E+00
    -41.023  0.0000E+00  0.6000E+00
    -40.815  0.0000E+00  0.6000E+00
    -40.608  0.0000E+00  0.6000E+00
    -40.401  0.0000E+00  0.6000E+00
    -40.193  0.0000E+00  0.6000E+00
    -39.986  0.0000E+00  0.6000E+00
    -39.779  0.0000E+00  0.6000E+00
    -39.571  0.0000E+00  0.6000E+00
    -39.364  0.0000E+00  0.6000E+00
    -39.157  0.0000E+00  0.6000E+00
    -38.950  0.0000E+00  0.6000E+00
    -38.742  0.0000E+00  0.6000E+00
    -38.535  0.0000E+00  0.6000E+00
    -38.328  0.0000E+00  0.6000E+00
    -38.120  0.0000E+00  0.6000E+00
    -37.913  0.0000E+00  0.6000E+00
    -37.706  0.0000E+00  0.6000E+00
    -37.498  0.0000E+00  0.6000E+00
    -37.291  0.0000E+00  0.6000E+00
    -37.084  0.0000E+00  0.6000E+00
    -36.877  0.0000E+00  0.6000E+00
    -36.669  0.0000E+00  0.6000E+00
    -36.462  0.0000E+00  0.6000E+00
    -36.255  0.0000E+00  0.6000E+00
    -36.047  0.0000E+00  0.6000E+00
    -35.840  0.0000E+00  0.6000E+00
    -35.633  0.0000E+00  0.6000E+00
    -35.425  0.0000E+00  0.6000E+00
    -35.218  0.0000E+00  0.6000E+00
    -35.011  0.0000E+00  0.6000E+00
    -34.804  0.0000E+00  0.6000E+00
    -34.596  0.0000E+00  0.6000E+00
    -34.389  0.0000E+00  0.6000E+00
    -34.182  0.0000E+00  0.6000E+00
    -33.974  0.0000E+00  0.6000E+00
    -33.767  0.0000E+00  0.6000E+00
    -33.560  0.0000E+00  0.6000E+00
    -33.352  0.0000E+00  0.6000E+00
    -33.145  0.0000E+00  0.6000E+00
    -32.938  0.0000E+00  0.6000E+00
    -32.731  0.0000E+00  0.6000E+00
    -32.523  0.0000E+00  0.6000E+00
    -32.316  0.0000E+00  0.6000E+00
    -32.109  0.0000E+00  0.6000E+00
    -31.901  0.0000E+00  0.6000E+00
    -31.694  0.0000E+00  0.6000E+00
    -31.487  0.0000E+00  0.6000E+00
    -31.279  0.0000E+00  0.6000E+00
    -31.072  0.0000E+00  0.6000E+00
    -30.865  0.0000E+00  0.6000E+00
    -30.658  0.0000E+00  0.6000E+00
    -30.450  0.0000E+00  0.6000E+00
    -30.243  0.0000E+00  0.6000E+00
    -30.036  0.0000E+00  0.6000E+00
    -29.828  0.0000E+00  0.6000E+00
    -29.621  0.0000E+00  0.6000E+00
    -29.414  0.0000E+00  0.6000E+00
    -29.206  0.0000E+00  0.6000E+00
    -28.999  0.0000E+00  0.6000E+00
    -28.792  0.0000E+00  0.6000E+00
    -28.585  0.0000E+00  0.6000E+00
    -28.377  0.0000E+00  0.6000E+00
    -28.170  0.0000E+00  0.6000E+00
    -27.963  0.0000E+00  0.6000E+00
    -27.755  0.0000E+00  0.6000E+00
    -27.548  0.0000E+00  0.6000E+00
    -27.341  0.0000E+00  0.6000E+00
    -27.133  0.0000E+00  0.6000E+00
    -26.926  0.0000E+00  0.6000E+00
    -26.719  0.0000E+00  0.6000E+00
    -26.512  0.0000E+00  0.6000E+00
    -26.304  0.0000E+00  0.6000E+00
    -26.097  0.0000E+00  0.6000E+00
    -25.890  0.0000E+00  0.6000E+00
    -25.682  0.0000E+00  0.6000E+00
    -25.475  0.0000E+00  0.6000E+00
    -25.268 -0.1350E-28  0.6000E+00
    -25.060 -0.8950E-22  0.6000E+00
    -24.853 -0.6799E-16  0.6000E+00
    -24.646 -0.5664E-11  0.6000E+00
    -24.439 -0.5441E-07  0.6000E+00
    -24.231 -0.5726E-04  0.6000E+00
    -24.024 -0.6072E-02  0.5987E+00
    -23.817 -0.2958E-01  0.5926E+00
    -23.609  0.4410E+00  0.6840E+00
    -23.402  0.1248E+01  0.9428E+00
    -23.195  0.2794E+01  0.1522E+01
    -22.987  0.2636E+01  0.2069E+01
    -22.780  0.1146E+01  0.2306E+01
    -22.573  0.4077E+00  0.2391E+01
    -22.366  0.5922E-01  0.2403E+01
    -22.158 -0.1328E-01  0.2400E+01
    -21.951 -0.4508E-03  0.2400E+01
    -21.744 -0.1190E-05  0.2400E+01
    -21.536 -0.3206E-09  0.2400E+01
    -21.329 -0.9398E-14  0.2400E+01
    -21.122  0.0000E+00  0.2400E+01
    -20.914  0.0000E+00  0.2400E+01
    -20.707  0.0000E+00  0.2400E+01
    -20.500  0.0000E+00  0.2400E+01
    -20.293  0.0000E+00  0.2400E+01
    -20.085  0.0000E+00  0.2400E+01
    -19.878  0.0000E+00  0.2400E+01
    -19.671  0.0000E+00  0.2400E+01
    -19.463  0.0000E+00  0.2400E+01
    -19.256  0.0000E+00  0.2400E+01
    -19.049  0.0000E+00  0.2400E+01
    -18.841  0.0000E+00  0.2400E+01
    -18.634  0.0000E+00  0.2400E+01
    -18.427  0.0000E+00  0.2400E+01
    -18.220  0.0000E+00  0.2400E+01
    -18.012  0.0000E+00  0.2400E+01
    -17.805  0.0000E+00  0.2400E+01
    -17.598  0.0000E+00  0.2400E+01
    -17.390  0.0000E+00  0.2400E+01
    -17.183  0.0000E+00  0.2400E+01
    -16.976  0.0000E+00  0.2400E+01
    -16.768  0.0000E+00  0.2400E+01
    -16.561  0.0000E+00  0.2400E+01
    -16.354  0.0000E+00  0.2400E+01
    -16.147  0.0000E+00  0.2400E+01
    -15.939  0.0000E+00  0.2400E+01
    -15.732  0.0000E+00  0.2400E+01
    -15.525  0.0000E+00  0.2400E+01
    -15.317  0.0000E+00  0.2400E+01
    -15.110  0.0000E+00  0.2400E+01
    -14.903  0.0000E+00  0.2400E+01
    -14.695  0.0000E+00  0.2400E+01
    -14.488  0.0000E+00  0.2400E+01
    -14.281  0.0000E+00  0.2400E+01
    -14.074  0.0000E+00  0.2400E+01
    -13.866  0.0000E+00  0.2400E+01
    -13.659  0.0000E+00  0.2400E+01
    -13.452  0.0000E+00  0.2400E+01
    -13.244  0.0000E+00  0.2400E+01
    -13.037  0.0000E+00  0.2400E+01
    -12.830  0.0000E+00  0.2400E+01
    -12.622  0.0000E+00  0.2400E+01
    -12.415  0.0000E+00  0.2400E+01
    -12.208  0.0000E+00  0.2400E+01
    -12.001  0.0000E+00  0.2400E+01
    -11.793  0.0000E+00  0.2400E+01
    -11.586  0.0000E+00  0.2400E+01
    -11.379  0.0000E+00  0.2400E+01
    -11.171  0.0000E+00  0.2400E+01
    -10.964  0.0000E+00  0.2400E+01
    -10.757  0.0000E+00  0.2400E+01
    -10.549  0.0000E+00  0.2400E+01
    -10.342  0.0000E+00  0.2400E+01
    -10.135  0.0000E+00  0.2400E+01
     -9.928  0.0000E+00  0.2400E+01
     -9.720  0.0000E+00  0.2400E+01
     -9.513  0.0000E+00  0.2400E+01
     -9.306  0.0000E+00  0.2400E+01
     -9.098  0.0000E+00  0.2400E+01
     -8.891  0.0000E+00  0.2400E+01
     -8.684  0.0000E+00  0.2400E+01
     -8.476  0.0000E+00  0.2400E+01
     -8.269  0.0000E+00  0.2400E+01
     -8.062  0.0000E+00  0.2400E+01
     -7.855  0.0000E+00  0.2400E+01
     -7.647  0.0000E+00  0.2400E+01
     -7.440  0.0000E+00  0.2400E+01
     -7.233  0.0000E+00  0.2400E+01
     -7.025  0.0000E+00  0.2400E+01
     -6.818  0.0000E+00  0.2400E+01
     -6.611  0.0000E+00  0.2400E+01
     -6.403  0.0000E+00  0.2400E+01
     -6.196  0.0000E+00  0.2400E+01
     -5.989  0.0000E+00  0.2400E+01
     -5.782  0.0000E+00  0.2400E+01
     -5.574  0.0000E+00  0.2400E+01
     -5.367  0.0000E+00  0.2400E+01
     -5.160  0.0000E+00  0.2400E+01
     -4.952  0.0000E+00  0.2400E+01
     -4.745  0.0000E+00  0.2400E+01
     -4.538  0.0000E+00  0.2400E+01
     -4.330  0.0000E+00  0.2400E+01
     -4.123  0.0000E+00  0.2400E+01
     -3.916  0.0000E+00  0.2400E+01
     -3.709  0.0000E+00  0.2400E+01
     -3.501  0.0000E+00  0.2400E+01
     -3.294  0.0000E+00  0.2400E+01
     -3.087  0.0000E+00  0.2400E+01
     -2.879  0.0000E+00  0.2400E+01
     -2.672  0.0000E+00  0.2400E+01
     -2.465  0.0000E+00  0.2400E+01
     -2.257 -0.3849E-37  0.2400E+01
     -2.050 -0.1568E-29  0.2400E+01
     -1.843 -0.7328E-23  0.2400E+01
     -1.636 -0.3705E-17  0.2400E+01
     -1.428 -0.2292E-12  0.2400E+01
     -1.221 -0.1556E-08  0.2400E+01
     -1.014 -0.1190E-05  0.2400E+01
     -0.806 -0.1024E-03  0.2400E+01
     -0.599 -0.7310E-03  0.2400E+01
     -0.392  0.6646E-02  0.2401E+01
     -0.184  0.3871E-01  0.2409E+01
      0.023  0.7469E-01  0.2425E+01
      0.230  0.8140E-01  0.2442E+01
      0.437  0.8595E-01  0.2459E+01
      0.645  0.1124E+00  0.2483E+01
      0.852  0.1310E+00  0.2510E+01
      1.059  0.1472E+00  0.2540E+01
      1.267  0.1526E+00  0.2572E+01
      1.474  0.2121E+00  0.2616E+01
      1.681  0.2383E+00  0.2665E+01
      1.889  0.1784E+00  0.2702E+01
      2.096  0.2504E+00  0.2754E+01
      2.303  0.3749E+00  0.2832E+01
      2.510  0.6374E+00  0.2964E+01
      2.718  0.8359E+00  0.3137E+01
      2.925  0.1054E+01  0.3356E+01
      3.132  0.1185E+01  0.3602E+01
      3.340  0.1342E+01  0.3880E+01
      3.547  0.1540E+01  0.4199E+01
      3.754  0.1632E+01  0.4537E+01
      3.962  0.1569E+01  0.4863E+01
      4.169  0.1591E+01  0.5193E+01
      4.376  0.1285E+01  0.5459E+01
      4.584  0.9637E+00  0.5659E+01
      4.791  0.1392E+01  0.5947E+01
      4.998  0.2017E+01  0.6365E+01
      5.205  0.2305E+01  0.6843E+01
      5.413  0.2110E+01  0.7281E+01
      5.620  0.1830E+01  0.7660E+01
      5.827  0.1740E+01  0.8021E+01
      6.035  0.1945E+01  0.8424E+01
      6.242  0.2121E+01  0.8864E+01
      6.449  0.2159E+01  0.9311E+01
      6.657  0.1960E+01  0.9717E+01
      6.864  0.1768E+01  0.1008E+02
      7.071  0.1544E+01  0.1040E+02
      7.278  0.1315E+01  0.1068E+02
      7.486  0.8879E+00  0.1086E+02
      7.693  0.7409E+00  0.1101E+02
      7.900  0.6974E+00  0.1116E+02
      8.108  0.6780E+00  0.1130E+02
      8.315  0.7882E+00  0.1146E+02
      8.522  0.9970E+00  0.1167E+02
      8.730  0.1208E+01  0.1192E+02
      8.937  0.1432E+01  0.1222E+02
      9.144  0.1512E+01  0.1253E+02
      9.351  0.1114E+01  0.1276E+02
      9.559  0.2175E+00  0.1281E+02
      9.766 -0.2613E-01  0.1280E+02
      9.973 -0.2617E-02  0.1280E+02
     10.181 -0.2320E-04  0.1280E+02
     10.388 -0.2514E-07  0.1280E+02
     10.595 -0.3347E-11  0.1280E+02
     10.803 -0.4970E-16  0.1280E+02
     11.010  0.0000E+00  0.1280E+02
     11.217  0.0000E+00  0.1280E+02
     11.424  0.0000E+00  0.1280E+02
     11.632  0.0000E+00  0.1280E+02
     11.839  0.0000E+00  0.1280E+02
     12.046  0.0000E+00  0.1280E+02
     12.254  0.0000E+00  0.1280E+02
