   30   30   20    1
  0.1623088E+02  0.6380000E-09  0.8287863E-09  0.1008767E-08  0.5000000E-15
  1.000000000000000E-004
  CAR 
 Nb - Mo - Ta - Ti - W SQS               
    204     63    128
 
  0.0000000E+00  0.0000000E+00  0.0000000E+00  0.8000000E-02
    1      -47.109640   1.000000
    2      -47.090546   1.000000
    3      -47.064618   1.000000
    4      -47.027327   1.000000
    5      -46.950703   1.000000
    6      -46.869025   1.000000
    7      -23.634142   1.000000
    8      -23.563050   1.000000
    9      -23.474791   1.000000
   10      -23.400724   1.000000
   11      -23.299575   1.000000
   12      -23.277073   1.000000
   13      -23.261256   1.000000
   14      -23.244110   1.000000
   15      -23.235574   1.000000
   16      -23.200175   1.000000
   17      -23.169661   1.000000
   18      -23.160752   1.000000
   19      -23.073828   1.000000
   20      -23.049311   1.000000
   21      -22.984941   1.000000
   22      -22.952282   1.000000
   23      -22.867591   1.000000
   24      -22.667496   1.000000
   25       -0.451547   1.000000
   26        1.460440   1.000000
   27        1.976996   1.000000
   28        2.116184   1.000000
   29        2.289709   1.000000
   30        2.399496   1.000000
   31        2.513822   1.000000
   32        2.612585   1.000000
   33        2.683427   1.000000
   34        2.780678   1.000000
   35        2.889618   1.000000
   36        3.017370   1.000000
   37        3.083961   1.000000
   38        3.096870   1.000000
   39        3.178328   1.000000
   40        3.258470   1.000000
   41        3.310407   1.000000
   42        3.375338   1.000000
   43        3.421000   1.000000
   44        3.442045   1.000000
   45        3.463726   1.000000
   46        3.533476   1.000000
   47        3.617996   1.000000
   48        3.685245   1.000000
   49        3.744781   1.000000
   50        3.780344   1.000000
   51        3.850175   1.000000
   52        3.879257   1.000000
   53        3.981426   1.000000
   54        4.192586   1.000000
   55        4.328505   1.000000
   56        4.491770   1.000000
   57        4.586061   1.000000
   58        4.630955   1.000000
   59        4.750797   1.000000
   60        4.815511   1.000000
   61        4.882135   1.000000
   62        4.895148   1.000000
   63        4.938463   1.000000
   64        4.966694   1.000000
   65        4.999155   1.000000
   66        5.053971   1.000000
   67        5.087076   1.000000
   68        5.161029   1.000000
   69        5.210966   1.000000
   70        5.231588   1.000000
   71        5.278969   1.000000
   72        5.319851   1.000000
   73        5.388407   1.000000
   74        5.474212   1.000000
   75        5.598030   1.000000
   76        5.616490   1.000000
   77        5.757738   1.000000
   78        5.783049   1.000000
   79        5.890224   1.000000
   80        5.950189   1.000000
   81        5.965525   1.000000
   82        6.186726   1.000001
   83        6.274921   1.000015
   84        6.306879   1.000040
   85        6.416599   1.000731
   86        6.501309   1.004332
   87        6.568005   1.012818
   88        6.637967   1.027935
   89        6.653915   1.031254
   90        6.682658   1.035159
   91        6.723302   1.030752
   92        6.807144   0.940286
   93        6.842592   0.853466
   94        6.898500   0.658379
   95        6.905681   0.629481
   96        6.924663   0.550794
   97        6.962055   0.393628
   98        7.012745   0.202534
   99        7.060004   0.072692
  100        7.182022  -0.035457
  101        7.206026  -0.033528
  102        7.266705  -0.020770
  103        7.298632  -0.014061
  104        7.346520  -0.006799
  105        7.402654  -0.002394
  106        7.422414  -0.001584
  107        7.448135  -0.000893
  108        7.509680  -0.000195
  109        7.615568  -0.000009
  110        7.661939  -0.000002
  111        7.785489  -0.000000
  112        7.903999  -0.000000
  113        7.920223  -0.000000
  114        7.941061  -0.000000
  115        7.959770  -0.000000
  116        8.144929  -0.000000
  117        8.283031  -0.000000
  118        8.402196  -0.000000
  119        8.454947  -0.000000
  120        8.529967  -0.000000
  121        8.602861  -0.000000
  122        8.646313  -0.000000
  123        8.650452  -0.000000
  124        8.673276  -0.000000
  125        8.726461  -0.000000
  126        8.794906  -0.000000
  127        8.831437  -0.000000
  128        8.894489  -0.000000
 
  0.2000000E+00  0.0000000E+00  0.0000000E+00  0.1600000E-01
    1      -47.109511   1.000000
    2      -47.090546   1.000000
    3      -47.064568   1.000000
    4      -47.027334   1.000000
    5      -46.950793   1.000000
    6      -46.869010   1.000000
    7      -23.635493   1.000000
    8      -23.563362   1.000000
    9      -23.475998   1.000000
   10      -23.400681   1.000000
   11      -23.299876   1.000000
   12      -23.277467   1.000000
   13      -23.262152   1.000000
   14      -23.244799   1.000000
   15      -23.235705   1.000000
   16      -23.200378   1.000000
   17      -23.169422   1.000000
   18      -23.160277   1.000000
   19      -23.073725   1.000000
   20      -23.049306   1.000000
   21      -22.983958   1.000000
   22      -22.952778   1.000000
   23      -22.867535   1.000000
   24      -22.667417   1.000000
   25       -0.211797   1.000000
   26        1.451140   1.000000
   27        2.063252   1.000000
   28        2.201455   1.000000
   29        2.351713   1.000000
   30        2.456003   1.000000
   31        2.565328   1.000000
   32        2.743708   1.000000
   33        2.784341   1.000000
   34        2.827762   1.000000
   35        2.987707   1.000000
   36        3.008543   1.000000
   37        3.095471   1.000000
   38        3.168266   1.000000
   39        3.221989   1.000000
   40        3.322570   1.000000
   41        3.339842   1.000000
   42        3.417874   1.000000
   43        3.478751   1.000000
   44        3.508769   1.000000
   45        3.587974   1.000000
   46        3.608017   1.000000
   47        3.664976   1.000000
   48        3.786070   1.000000
   49        3.872336   1.000000
   50        3.962012   1.000000
   51        4.012912   1.000000
   52        4.106057   1.000000
   53        4.169957   1.000000
   54        4.203075   1.000000
   55        4.400686   1.000000
   56        4.598661   1.000000
   57        4.639226   1.000000
   58        4.677286   1.000000
   59        4.695452   1.000000
   60        4.762813   1.000000
   61        4.813395   1.000000
   62        4.873611   1.000000
   63        4.920229   1.000000
   64        4.982970   1.000000
   65        5.040001   1.000000
   66        5.069935   1.000000
   67        5.090404   1.000000
   68        5.154610   1.000000
   69        5.205830   1.000000
   70        5.220024   1.000000
   71        5.275503   1.000000
   72        5.332007   1.000000
   73        5.355914   1.000000
   74        5.434718   1.000000
   75        5.489627   1.000000
   76        5.586551   1.000000
   77        5.643400   1.000000
   78        5.741834   1.000000
   79        5.776510   1.000000
   80        5.894180   1.000000
   81        5.954565   1.000000
   82        6.026903   1.000000
   83        6.087195   1.000000
   84        6.154787   1.000000
   85        6.209976   1.000002
   86        6.259234   1.000009
   87        6.274378   1.000015
   88        6.351801   1.000142
   89        6.363040   1.000191
   90        6.412489   1.000663
   91        6.426829   1.000926
   92        6.539894   1.008416
   93        6.554874   1.010604
   94        6.581693   1.015411
   95        6.667864   1.033601
   96        6.679265   1.034908
   97        6.771019   0.996952
   98        6.797224   0.958940
   99        6.886851   0.703804
  100        6.901694   0.645601
  101        6.971490   0.355196
  102        7.055440   0.082812
  103        7.120106  -0.014244
  104        7.155108  -0.032233
  105        7.210896  -0.032777
  106        7.257702  -0.022832
  107        7.343962  -0.007096
  108        7.410604  -0.002033
  109        7.464011  -0.000616
  110        7.537515  -0.000091
  111        7.668884  -0.000001
  112        7.691080  -0.000001
  113        7.950841  -0.000000
  114        8.054533  -0.000000
  115        8.078564  -0.000000
  116        8.128520  -0.000000
  117        8.296211  -0.000000
  118        8.481476  -0.000000
  119        8.747999  -0.000000
  120        8.800580  -0.000000
  121        8.830825  -0.000000
  122        8.870489  -0.000000
  123        8.964841  -0.000000
  124        8.999353  -0.000000
  125        9.040430  -0.000000
  126        9.126346  -0.000000
  127        9.211622  -0.000000
  128        9.246084  -0.000000
 
  0.4000000E+00  0.0000000E+00  0.0000000E+00  0.1600000E-01
    1      -47.109312   1.000000
    2      -47.090523   1.000000
    3      -47.064502   1.000000
    4      -47.027345   1.000000
    5      -46.950938   1.000000
    6      -46.868985   1.000000
    7      -23.637673   1.000000
    8      -23.564040   1.000000
    9      -23.477731   1.000000
   10      -23.400566   1.000000
   11      -23.300298   1.000000
   12      -23.278421   1.000000
   13      -23.263578   1.000000
   14      -23.245728   1.000000
   15      -23.235700   1.000000
   16      -23.200693   1.000000
   17      -23.169142   1.000000
   18      -23.159803   1.000000
   19      -23.073545   1.000000
   20      -23.049329   1.000000
   21      -22.982482   1.000000
   22      -22.953410   1.000000
   23      -22.867427   1.000000
   24      -22.667291   1.000000
   25        0.448204   1.000000
   26        1.429760   1.000000
   27        1.568199   1.000000
   28        2.098044   1.000000
   29        2.375119   1.000000
   30        2.642992   1.000000
   31        2.712158   1.000000
   32        2.879350   1.000000
   33        2.893954   1.000000
   34        2.997951   1.000000
   35        3.140104   1.000000
   36        3.282055   1.000000
   37        3.389882   1.000000
   38        3.457187   1.000000
   39        3.489748   1.000000
   40        3.531286   1.000000
   41        3.644191   1.000000
   42        3.677341   1.000000
   43        3.719795   1.000000
   44        3.782517   1.000000
   45        3.819097   1.000000
   46        3.891390   1.000000
   47        3.951206   1.000000
   48        3.966303   1.000000
   49        4.036918   1.000000
   50        4.069255   1.000000
   51        4.177049   1.000000
   52        4.198632   1.000000
   53        4.313174   1.000000
   54        4.340533   1.000000
   55        4.393008   1.000000
   56        4.468917   1.000000
   57        4.595191   1.000000
   58        4.629383   1.000000
   59        4.712781   1.000000
   60        4.786318   1.000000
   61        4.831336   1.000000
   62        4.868285   1.000000
   63        4.888641   1.000000
   64        4.939436   1.000000
   65        4.966434   1.000000
   66        5.016032   1.000000
   67        5.071572   1.000000
   68        5.126354   1.000000
   69        5.134706   1.000000
   70        5.163826   1.000000
   71        5.193716   1.000000
   72        5.245520   1.000000
   73        5.298058   1.000000
   74        5.339312   1.000000
   75        5.395039   1.000000
   76        5.452407   1.000000
   77        5.477087   1.000000
   78        5.503368   1.000000
   79        5.583824   1.000000
   80        5.640012   1.000000
   81        5.652755   1.000000
   82        5.742047   1.000000
   83        5.849889   1.000000
   84        5.883986   1.000000
   85        5.976376   1.000000
   86        6.012709   1.000000
   87        6.063596   1.000000
   88        6.111948   1.000000
   89        6.160994   1.000000
   90        6.173207   1.000000
   91        6.237614   1.000004
   92        6.269228   1.000013
   93        6.279847   1.000017
   94        6.344399   1.000116
   95        6.378289   1.000285
   96        6.399588   1.000486
   97        6.440367   1.001257
   98        6.484324   1.003138
   99        6.539578   1.008374
  100        6.590227   1.017162
  101        6.689135   1.035432
  102        6.742513   1.021836
  103        6.803326   0.947755
  104        6.838699   0.864535
  105        6.894001   0.676156
  106        6.916583   0.584610
  107        6.946686   0.457767
  108        7.030450   0.147521
  109        7.112107  -0.007224
  110        7.212210  -0.032559
  111        7.329061  -0.009026
  112        7.443447  -0.000994
  113        7.745714  -0.000000
  114        7.970889  -0.000000
  115        8.287595  -0.000000
  116        8.456169  -0.000000
  117        8.711022  -0.000000
  118        8.780049  -0.000000
  119        8.824843  -0.000000
  120        8.867430  -0.000000
  121        8.948760  -0.000000
  122        8.976161  -0.000000
  123        9.100216  -0.000000
  124        9.115838  -0.000000
  125        9.223064  -0.000000
  126        9.284855  -0.000000
  127        9.338989  -0.000000
  128        9.373855  -0.000000
 
  0.0000000E+00  0.2000000E+00  0.0000000E+00  0.1600000E-01
    1      -47.109571   1.000000
    2      -47.090579   1.000000
    3      -47.064597   1.000000
    4      -47.027436   1.000000
    5      -46.950637   1.000000
    6      -46.869039   1.000000
    7      -23.634070   1.000000
    8      -23.562699   1.000000
    9      -23.474074   1.000000
   10      -23.402227   1.000000
   11      -23.299530   1.000000
   12      -23.276642   1.000000
   13      -23.261455   1.000000
   14      -23.244670   1.000000
   15      -23.235192   1.000000
   16      -23.200427   1.000000
   17      -23.169695   1.000000
   18      -23.160244   1.000000
   19      -23.073962   1.000000
   20      -23.049281   1.000000
   21      -22.984371   1.000000
   22      -22.952322   1.000000
   23      -22.867692   1.000000
   24      -22.667807   1.000000
   25       -0.317333   1.000000
   26        1.378640   1.000000
   27        1.684753   1.000000
   28        2.018573   1.000000
   29        2.221899   1.000000
   30        2.441665   1.000000
   31        2.500437   1.000000
   32        2.634224   1.000000
   33        2.726000   1.000000
   34        2.800004   1.000000
   35        2.860050   1.000000
   36        2.905538   1.000000
   37        3.003177   1.000000
   38        3.092148   1.000000
   39        3.201103   1.000000
   40        3.286733   1.000000
   41        3.320751   1.000000
   42        3.374738   1.000000
   43        3.444614   1.000000
   44        3.529636   1.000000
   45        3.599753   1.000000
   46        3.657498   1.000000
   47        3.699554   1.000000
   48        3.760620   1.000000
   49        3.774905   1.000000
   50        3.823091   1.000000
   51        3.925771   1.000000
   52        3.976640   1.000000
   53        4.042208   1.000000
   54        4.099052   1.000000
   55        4.286751   1.000000
   56        4.446851   1.000000
   57        4.602178   1.000000
   58        4.647939   1.000000
   59        4.753048   1.000000
   60        4.770184   1.000000
   61        4.792491   1.000000
   62        4.867127   1.000000
   63        4.912040   1.000000
   64        4.987398   1.000000
   65        5.022488   1.000000
   66        5.074329   1.000000
   67        5.106474   1.000000
   68        5.148759   1.000000
   69        5.200386   1.000000
   70        5.275642   1.000000
   71        5.332819   1.000000
   72        5.369470   1.000000
   73        5.396900   1.000000
   74        5.471492   1.000000
   75        5.484952   1.000000
   76        5.603742   1.000000
   77        5.742192   1.000000
   78        5.770751   1.000000
   79        5.848609   1.000000
   80        5.947970   1.000000
   81        6.033083   1.000000
   82        6.142722   1.000000
   83        6.211880   1.000002
   84        6.292690   1.000026
   85        6.314105   1.000049
   86        6.368892   1.000223
   87        6.449653   1.001539
   88        6.469488   1.002334
   89        6.534208   1.007679
   90        6.607949   1.021059
   91        6.687665   1.035396
   92        6.710638   1.033899
   93        6.863446   0.788086
   94        6.907019   0.624033
   95        6.976095   0.336805
   96        6.998456   0.251957
   97        7.053134   0.088126
   98        7.063463   0.065371
   99        7.113141  -0.008201
  100        7.182762  -0.035453
  101        7.215634  -0.031964
  102        7.286849  -0.016392
  103        7.308585  -0.012252
  104        7.377353  -0.003927
  105        7.395838  -0.002746
  106        7.448080  -0.000894
  107        7.538011  -0.000090
  108        7.566744  -0.000039
  109        7.632596  -0.000005
  110        7.704923  -0.000000
  111        7.731185  -0.000000
  112        7.779022  -0.000000
  113        7.808573  -0.000000
  114        8.186183  -0.000000
  115        8.299744  -0.000000
  116        8.321922  -0.000000
  117        8.379636  -0.000000
  118        8.409180  -0.000000
  119        8.517196  -0.000000
  120        8.534943  -0.000000
  121        8.584402  -0.000000
  122        8.608968  -0.000000
  123        8.728508  -0.000000
  124        8.759927  -0.000000
  125        8.813355  -0.000000
  126        8.933224  -0.000000
  127        8.996579  -0.000000
  128        9.152273  -0.000000
 
  0.2000000E+00  0.2000000E+00  0.0000000E+00  0.1600000E-01
    1      -47.109481   1.000000
    2      -47.090569   1.000000
    3      -47.064560   1.000000
    4      -47.027347   1.000000
    5      -46.950798   1.000000
    6      -46.869007   1.000000
    7      -23.634734   1.000000
    8      -23.563244   1.000000
    9      -23.475925   1.000000
   10      -23.402095   1.000000
   11      -23.299824   1.000000
   12      -23.277216   1.000000
   13      -23.262324   1.000000
   14      -23.245084   1.000000
   15      -23.235427   1.000000
   16      -23.200628   1.000000
   17      -23.169675   1.000000
   18      -23.159707   1.000000
   19      -23.073849   1.000000
   20      -23.049337   1.000000
   21      -22.983833   1.000000
   22      -22.952153   1.000000
   23      -22.867682   1.000000
   24      -22.667626   1.000000
   25       -0.130541   1.000000
   26        1.377672   1.000000
   27        1.816819   1.000000
   28        2.266485   1.000000
   29        2.474822   1.000000
   30        2.548560   1.000000
   31        2.608780   1.000000
   32        2.698281   1.000000
   33        2.825414   1.000000
   34        2.838964   1.000000
   35        2.941520   1.000000
   36        3.019214   1.000000
   37        3.056421   1.000000
   38        3.132815   1.000000
   39        3.223472   1.000000
   40        3.251490   1.000000
   41        3.343481   1.000000
   42        3.399229   1.000000
   43        3.456577   1.000000
   44        3.548703   1.000000
   45        3.596505   1.000000
   46        3.653640   1.000000
   47        3.723832   1.000000
   48        3.763092   1.000000
   49        3.880527   1.000000
   50        3.922571   1.000000
   51        3.989566   1.000000
   52        4.101619   1.000000
   53        4.135660   1.000000
   54        4.216544   1.000000
   55        4.417379   1.000000
   56        4.471182   1.000000
   57        4.626573   1.000000
   58        4.679335   1.000000
   59        4.723429   1.000000
   60        4.800493   1.000000
   61        4.856705   1.000000
   62        4.879738   1.000000
   63        4.906044   1.000000
   64        4.976158   1.000000
   65        4.993946   1.000000
   66        5.067839   1.000000
   67        5.098479   1.000000
   68        5.119484   1.000000
   69        5.177553   1.000000
   70        5.234559   1.000000
   71        5.314882   1.000000
   72        5.350859   1.000000
   73        5.389805   1.000000
   74        5.483635   1.000000
   75        5.526730   1.000000
   76        5.608485   1.000000
   77        5.647742   1.000000
   78        5.753543   1.000000
   79        5.820049   1.000000
   80        5.860585   1.000000
   81        5.890542   1.000000
   82        5.958115   1.000000
   83        6.031152   1.000000
   84        6.124519   1.000000
   85        6.161117   1.000000
   86        6.178998   1.000001
   87        6.241427   1.000005
   88        6.326393   1.000070
   89        6.401791   1.000513
   90        6.443052   1.001333
   91        6.497967   1.004072
   92        6.534940   1.007771
   93        6.560310   1.011488
   94        6.619765   1.023777
   95        6.690269   1.035450
   96        6.723711   1.030618
   97        6.780006   0.985686
   98        6.792547   0.966899
   99        6.862041   0.792799
  100        6.902558   0.642125
  101        6.929599   0.529989
  102        6.995196   0.263800
  103        7.130070  -0.021342
  104        7.143557  -0.028333
  105        7.228063  -0.029525
  106        7.251479  -0.024272
  107        7.379739  -0.003754
  108        7.430811  -0.001319
  109        7.514733  -0.000170
  110        7.639181  -0.000004
  111        7.687359  -0.000001
  112        7.840609  -0.000000
  113        7.976384  -0.000000
  114        7.996507  -0.000000
  115        8.232065  -0.000000
  116        8.333318  -0.000000
  117        8.413057  -0.000000
  118        8.516071  -0.000000
  119        8.555547  -0.000000
  120        8.615905  -0.000000
  121        8.645910  -0.000000
  122        8.713148  -0.000000
  123        8.889557  -0.000000
  124        8.931965  -0.000000
  125        9.053305  -0.000000
  126        9.125897  -0.000000
  127        9.258156  -0.000000
  128        9.281057  -0.000000
 
  0.4000000E+00  0.2000000E+00  0.0000000E+00  0.1600000E-01
    1      -47.109294   1.000000
    2      -47.090550   1.000000
    3      -47.064490   1.000000
    4      -47.027326   1.000000
    5      -46.950965   1.000000
    6      -46.868978   1.000000
    7      -23.636680   1.000000
    8      -23.563925   1.000000
    9      -23.477891   1.000000
   10      -23.402063   1.000000
   11      -23.300342   1.000000
   12      -23.278022   1.000000
   13      -23.263684   1.000000
   14      -23.246056   1.000000
   15      -23.235606   1.000000
   16      -23.200970   1.000000
   17      -23.169388   1.000000
   18      -23.159068   1.000000
   19      -23.073607   1.000000
   20      -23.049371   1.000000
   21      -22.982542   1.000000
   22      -22.952663   1.000000
   23      -22.867545   1.000000
   24      -22.667463   1.000000
   25        0.475801   1.000000
   26        1.431712   1.000000
   27        1.626518   1.000000
   28        2.218744   1.000000
   29        2.379611   1.000000
   30        2.503384   1.000000
   31        2.770282   1.000000
   32        2.880142   1.000000
   33        2.966041   1.000000
   34        3.050025   1.000000
   35        3.126767   1.000000
   36        3.269378   1.000000
   37        3.370809   1.000000
   38        3.411875   1.000000
   39        3.479111   1.000000
   40        3.532128   1.000000
   41        3.574181   1.000000
   42        3.616306   1.000000
   43        3.651866   1.000000
   44        3.672768   1.000000
   45        3.779878   1.000000
   46        3.809522   1.000000
   47        3.874105   1.000000
   48        3.911509   1.000000
   49        4.005639   1.000000
   50        4.072040   1.000000
   51        4.149355   1.000000
   52        4.177412   1.000000
   53        4.213586   1.000000
   54        4.299894   1.000000
   55        4.353821   1.000000
   56        4.435188   1.000000
   57        4.568676   1.000000
   58        4.683406   1.000000
   59        4.748234   1.000000
   60        4.804843   1.000000
   61        4.844088   1.000000
   62        4.885620   1.000000
   63        4.924333   1.000000
   64        4.968625   1.000000
   65        5.054730   1.000000
   66        5.077383   1.000000
   67        5.129132   1.000000
   68        5.156298   1.000000
   69        5.204445   1.000000
   70        5.219831   1.000000
   71        5.260336   1.000000
   72        5.324395   1.000000
   73        5.356370   1.000000
   74        5.389024   1.000000
   75        5.483806   1.000000
   76        5.501456   1.000000
   77        5.553226   1.000000
   78        5.592450   1.000000
   79        5.622735   1.000000
   80        5.712278   1.000000
   81        5.744822   1.000000
   82        5.786190   1.000000
   83        5.856445   1.000000
   84        5.884836   1.000000
   85        5.894446   1.000000
   86        5.924611   1.000000
   87        5.960587   1.000000
   88        6.036231   1.000000
   89        6.083635   1.000000
   90        6.124941   1.000000
   91        6.176439   1.000001
   92        6.222644   1.000003
   93        6.237820   1.000005
   94        6.284408   1.000020
   95        6.309644   1.000043
   96        6.355024   1.000154
   97        6.417159   1.000740
   98        6.442109   1.001306
   99        6.524765   1.006562
  100        6.552531   1.010239
  101        6.582219   1.015516
  102        6.636635   1.027639
  103        6.694855   1.035420
  104        6.737776   1.024555
  105        6.843447   0.850984
  106        6.912974   0.599580
  107        6.995118   0.264082
  108        7.103830   0.001376
  109        7.150472  -0.030879
  110        7.299448  -0.013907
  111        7.469320  -0.000542
  112        7.631379  -0.000005
  113        7.876232  -0.000000
  114        8.217838  -0.000000
  115        8.393037  -0.000000
  116        8.516562  -0.000000
  117        8.664331  -0.000000
  118        8.680736  -0.000000
  119        8.767890  -0.000000
  120        8.873247  -0.000000
  121        8.915359  -0.000000
  122        8.994073  -0.000000
  123        9.043122  -0.000000
  124        9.157587  -0.000000
  125        9.177989  -0.000000
  126        9.242984  -0.000000
  127        9.277274  -0.000000
  128        9.304495  -0.000000
 
 -0.4000000E+00  0.2000000E+00  0.0000000E+00  0.1600000E-01
    1      -47.109270   1.000000
    2      -47.090545   1.000000
    3      -47.064489   1.000000
    4      -47.027400   1.000000
    5      -46.950908   1.000000
    6      -46.868992   1.000000
    7      -23.637228   1.000000
    8      -23.563797   1.000000
    9      -23.477282   1.000000
   10      -23.402162   1.000000
   11      -23.300303   1.000000
   12      -23.278103   1.000000
   13      -23.263661   1.000000
   14      -23.246080   1.000000
   15      -23.235388   1.000000
   16      -23.200993   1.000000
   17      -23.169278   1.000000
   18      -23.159347   1.000000
   19      -23.073563   1.000000
   20      -23.049342   1.000000
   21      -22.982149   1.000000
   22      -22.953175   1.000000
   23      -22.867515   1.000000
   24      -22.667534   1.000000
   25        0.636936   1.000000
   26        1.387665   1.000000
   27        1.545181   1.000000
   28        2.019845   1.000000
   29        2.183131   1.000000
   30        2.596020   1.000000
   31        2.674603   1.000000
   32        2.823451   1.000000
   33        2.982462   1.000000
   34        3.040521   1.000000
   35        3.176993   1.000000
   36        3.205197   1.000000
   37        3.316410   1.000000
   38        3.369722   1.000000
   39        3.456658   1.000000
   40        3.530817   1.000000
   41        3.571530   1.000000
   42        3.617644   1.000000
   43        3.725488   1.000000
   44        3.810253   1.000000
   45        3.894023   1.000000
   46        3.924983   1.000000
   47        3.985091   1.000000
   48        4.015711   1.000000
   49        4.062029   1.000000
   50        4.112198   1.000000
   51        4.207550   1.000000
   52        4.243430   1.000000
   53        4.301342   1.000000
   54        4.396986   1.000000
   55        4.457982   1.000000
   56        4.503636   1.000000
   57        4.601242   1.000000
   58        4.688728   1.000000
   59        4.750392   1.000000
   60        4.794065   1.000000
   61        4.851034   1.000000
   62        4.873030   1.000000
   63        4.916371   1.000000
   64        4.968592   1.000000
   65        4.982208   1.000000
   66        5.013578   1.000000
   67        5.038644   1.000000
   68        5.088843   1.000000
   69        5.128353   1.000000
   70        5.167492   1.000000
   71        5.209487   1.000000
   72        5.244383   1.000000
   73        5.268318   1.000000
   74        5.368492   1.000000
   75        5.423265   1.000000
   76        5.433287   1.000000
   77        5.517683   1.000000
   78        5.587779   1.000000
   79        5.598343   1.000000
   80        5.664729   1.000000
   81        5.697687   1.000000
   82        5.728430   1.000000
   83        5.822275   1.000000
   84        5.865770   1.000000
   85        5.904596   1.000000
   86        5.968732   1.000000
   87        5.995126   1.000000
   88        6.074900   1.000000
   89        6.103629   1.000000
   90        6.149765   1.000000
   91        6.202094   1.000001
   92        6.228896   1.000003
   93        6.281531   1.000018
   94        6.320890   1.000060
   95        6.358118   1.000168
   96        6.402279   1.000519
   97        6.471512   1.002432
   98        6.501613   1.004357
   99        6.590637   1.017248
  100        6.628178   1.025721
  101        6.645755   1.029617
  102        6.708062   1.034314
  103        6.727632   1.029212
  104        6.791874   0.968002
  105        6.853937   0.819136
  106        6.873134   0.754470
  107        6.953513   0.429098
  108        7.016511   0.190229
  109        7.051358   0.092312
  110        7.140065  -0.026790
  111        7.283185  -0.017155
  112        7.369190  -0.004568
  113        7.898629  -0.000000
  114        8.315085  -0.000000
  115        8.424419  -0.000000
  116        8.651355  -0.000000
  117        8.675334  -0.000000
  118        8.773840  -0.000000
  119        8.820105  -0.000000
  120        8.892983  -0.000000
  121        9.025120  -0.000000