       N       E                     dE             d eps       ncg     rms          rms(c)
DAV:   1    -0.368667424770E+03   -0.36867E+03   -0.78638E+01 17424   0.303E+01    0.812E+01
DAV:   2    -0.357665887210E+03    0.11002E+02   -0.90389E+01 22176   0.291E+01    0.373E+01
DAV:   3    -0.373620230976E+03   -0.15954E+02   -0.34306E+02 22272   0.677E+01    0.262E+01
DAV:   4    -0.352257768542E+03    0.21362E+02   -0.37991E+01 22160   0.206E+01    0.147E+01
DAV:   5    -0.347498251363E+03    0.47595E+01   -0.96723E+00 22408   0.950E+00    0.824E+00
DAV:   6    -0.346613159400E+03    0.88509E+00   -0.39802E+00 25048   0.566E+00    0.480E+00
DAV:   7    -0.346367328121E+03    0.24583E+00   -0.17489E+00 23360   0.352E+00    0.243E+00
DAV:   8    -0.346351989017E+03    0.15339E-01   -0.63731E-01 24688   0.237E+00    0.168E+00
DAV:   9    -0.346331957780E+03    0.20031E-01   -0.49206E-01 23648   0.198E+00    0.121E+00
DAV:  10    -0.346312413468E+03    0.19544E-01   -0.16726E-01 25936   0.121E+00    0.626E-01
DAV:  11    -0.346314361004E+03   -0.19475E-02   -0.54488E-02 23936   0.668E-01    0.594E-01
DAV:  12    -0.346312542251E+03    0.18188E-02   -0.21173E-02 23104   0.417E-01    0.435E-01
DAV:  13    -0.346310310869E+03    0.22314E-02   -0.10871E-02 21648   0.297E-01    0.192E-01
DAV:  14    -0.346309949591E+03    0.36128E-03   -0.53866E-03 22168   0.220E-01    0.977E-02
DAV:  15    -0.346309913556E+03    0.36035E-04   -0.11322E-03 19736   0.104E-01    0.640E-02
DAV:  16    -0.346309953193E+03   -0.39637E-04   -0.47545E-04 15832   0.777E-02
   1 F= -.34630995E+03 E0= -.34630674E+03  d E =-.346310E+03
       N       E                     dE             d eps       ncg     rms          rms(c)
DAV:   1    -0.346432719745E+03   -0.12281E+00   -0.84261E+01 17184   0.302E+01    0.317E+00
DAV:   2    -0.346898266217E+03   -0.46555E+00   -0.57522E+00 24992   0.975E+00    0.380E+00
DAV:   3    -0.346739513164E+03    0.15875E+00   -0.18425E+00 24472   0.417E+00    0.228E+00
DAV:   4    -0.346700814641E+03    0.38699E-01   -0.34900E-01 25960   0.177E+00    0.137E+00
DAV:   5    -0.346701839568E+03   -0.10249E-02   -0.17435E-01 24968   0.136E+00    0.109E+00
DAV:   6    -0.346692999414E+03    0.88402E-02   -0.16727E-01 25384   0.124E+00    0.731E-01
DAV:   7    -0.346686703836E+03    0.62956E-02   -0.67684E-02 26432   0.769E-01    0.388E-01
DAV:   8    -0.346685185276E+03    0.15186E-02   -0.18421E-02 24168   0.389E-01    0.233E-01
DAV:   9    -0.346684933922E+03    0.25135E-03   -0.42321E-03 22856   0.193E-01    0.164E-01
DAV:  10    -0.346684979534E+03   -0.45612E-04   -0.21265E-03 21616   0.140E-01    0.126E-01
DAV:  11    -0.346684989559E+03   -0.10025E-04   -0.19610E-03 21000   0.136E-01    0.787E-02
DAV:  12    -0.346684905784E+03    0.83776E-04   -0.66263E-04 17344   0.925E-02
   2 F= -.34668491E+03 E0= -.34668293E+03  d E =-.374953E+00
       N       E                     dE             d eps       ncg     rms          rms(c)
DAV:   1    -0.346685009548E+03   -0.19989E-04   -0.68233E+00 17408   0.860E+00    0.933E-01
DAV:   2    -0.346721455206E+03   -0.36446E-01   -0.43702E-01 24352   0.261E+00    0.109E+00
DAV:   3    -0.346710173497E+03    0.11282E-01   -0.14644E-01 24072   0.120E+00    0.655E-01
DAV:   4    -0.346707144243E+03    0.30293E-02   -0.27578E-02 24016   0.538E-01    0.398E-01
DAV:   5    -0.346707302049E+03   -0.15781E-03   -0.14693E-02 24208   0.399E-01    0.320E-01
DAV:   6    -0.346706523569E+03    0.77848E-03   -0.13755E-02 25320   0.358E-01    0.209E-01
DAV:   7    -0.346705991370E+03    0.53220E-03   -0.56902E-03 24424   0.226E-01    0.110E-01
DAV:   8    -0.346705851341E+03    0.14003E-03   -0.14568E-03 20864   0.113E-01    0.599E-02
DAV:   9    -0.346705832028E+03    0.19312E-04   -0.18664E-04 12088   0.553E-02
   3 F= -.34670583E+03 E0= -.34670431E+03  d E =-.395879E+00
       N       E                     dE             d eps       ncg     rms          rms(c)
DAV:   1    -0.347269345842E+03   -0.56349E+00   -0.43449E+01 20688   0.277E+01    0.820E+00
DAV:   2    -0.347474732674E+03   -0.20539E+00   -0.96724E+00 27544   0.123E+01    0.704E+00
DAV:   3    -0.346978356668E+03    0.49638E+00   -0.87139E+00 24440   0.894E+00    0.416E+00
DAV:   4    -0.346765270253E+03    0.21309E+00   -0.18363E+00 26784   0.418E+00    0.240E+00
DAV:   5    -0.346710721596E+03    0.54549E-01   -0.12422E+00 24064   0.322E+00    0.189E+00
DAV:   6    -0.346654756760E+03    0.55965E-01   -0.38924E-01 24592   0.185E+00    0.891E-01
DAV:   7    -0.346663159651E+03   -0.84029E-02   -0.14083E-01 26184   0.107E+00    0.846E-01
DAV:   8    -0.346658280240E+03    0.48794E-02   -0.63172E-02 23992   0.684E-01    0.491E-01
DAV:   9    -0.346659395112E+03   -0.11149E-02   -0.16845E-02 24704   0.372E-01    0.395E-01
DAV:  10    -0.346660836536E+03   -0.14414E-02   -0.15472E-02 24648   0.332E-01    0.285E-01
DAV:  11    -0.346661335158E+03   -0.49862E-03   -0.82102E-03 25448   0.260E-01    0.148E-01
DAV:  12    -0.346661424054E+03   -0.88896E-04   -0.37364E-03 23840   0.163E-01    0.113E-01
DAV:  13    -0.346661371640E+03    0.52415E-04   -0.14625E-03 22304   0.107E-01    0.696E-02
DAV:  14    -0.346661346296E+03    0.25344E-04   -0.31105E-04 13280   0.659E-02
   4 F= -.34666135E+03 E0= -.34666157E+03  d E =0.444857E-01
       N       E                     dE             d eps       ncg     rms          rms(c)
DAV:   1    -0.346963129511E+03   -0.30176E+00   -0.14582E+01 20904   0.160E+01    0.485E+00
DAV:   2    -0.347038368228E+03   -0.75239E-01   -0.34236E+00 26368   0.743E+00    0.365E+00
DAV:   3    -0.346847899800E+03    0.19047E+00   -0.23894E+00 24384   0.441E+00    0.239E+00
DAV:   4    -0.346795612884E+03    0.52287E-01   -0.78729E-01 25328   0.268E+00    0.153E+00
DAV:   5    -0.346768990225E+03    0.26623E-01   -0.41124E-01 24040   0.187E+00    0.979E-01
DAV:   6    -0.346753945459E+03    0.15045E-01   -0.99457E-02 25080   0.981E-01    0.524E-01
DAV:   7    -0.346756605449E+03   -0.26600E-02   -0.52577E-02 26128   0.646E-01    0.497E-01
DAV:   8    -0.346755121762E+03    0.14837E-02   -0.20497E-02 24704   0.396E-01    0.293E-01
DAV:   9    -0.346755401340E+03   -0.27958E-03   -0.55833E-03 22048   0.210E-01    0.228E-01
DAV:  10    -0.346756109249E+03   -0.70791E-03   -0.48721E-03 23296   0.194E-01    0.159E-01
DAV:  11    -0.346756326806E+03   -0.21756E-03   -0.27576E-03 25424   0.160E-01    0.710E-02
DAV:  12    -0.346756350385E+03   -0.23580E-04   -0.11430E-03 21408   0.927E-02    0.507E-02
DAV:  13    -0.346756322992E+03    0.27393E-04   -0.28786E-04 13112   0.601E-02
   5 F= -.34675632E+03 E0= -.34675557E+03  d E =-.504910E-01
       N       E                     dE             d eps       ncg     rms          rms(c)
DAV:   1    -0.346778334472E+03   -0.21984E-01   -0.51249E+00 17640   0.687E+00    0.716E-01
DAV:   2    -0.346792510717E+03   -0.14176E-01   -0.22749E-01 26424   0.197E+00    0.624E-01
DAV:   3    -0.346791853288E+03    0.65743E-03   -0.48444E-02 26104   0.678E-01    0.484E-01
DAV:   4    -0.346789423933E+03    0.24294E-02   -0.19082E-02 23872   0.405E-01    0.303E-01
DAV:   5    -0.346789078526E+03    0.34541E-03   -0.82853E-03 24264   0.279E-01    0.236E-01
DAV:   6    -0.346788555220E+03    0.52331E-03   -0.81393E-03 23376   0.262E-01    0.152E-01
DAV:   7    -0.346788171318E+03    0.38390E-03   -0.22498E-03 21624   0.150E-01    0.632E-02
DAV:   8    -0.346788147559E+03    0.23759E-04   -0.56000E-04 16712   0.799E-02
   6 F= -.34678815E+03 E0= -.34678852E+03  d E =-.318246E-01
       N       E                     dE             d eps       ncg     rms          rms(c)
DAV:   1    -0.346789535934E+03   -0.13646E-02   -0.13417E+00 17576   0.352E+00    0.371E-01
DAV:   2    -0.346793292380E+03   -0.37564E-02   -0.60185E-02 26392   0.101E+00    0.330E-01
DAV:   3    -0.346793106223E+03    0.18616E-03   -0.13211E-02 26032   0.352E-01    0.253E-01
DAV:   4    -0.346792465638E+03    0.64059E-03   -0.49720E-03 22360   0.207E-01    0.161E-01
DAV:   5    -0.346792405647E+03    0.59991E-04   -0.23565E-03 21496   0.149E-01    0.132E-01
DAV:   6    -0.346792224885E+03    0.18076E-03   -0.23301E-03 22272   0.142E-01    0.762E-02
DAV:   7    -0.346792128454E+03    0.96431E-04   -0.49379E-04 15440   0.814E-02
   7 F= -.34679213E+03 E0= -.34679306E+03  d E =-.358055E-01
       N       E                     dE             d eps       ncg     rms          rms(c)
DAV:   1    -0.346796963071E+03   -0.47382E-02   -0.87627E-01 17136   0.273E+00    0.310E-01
DAV:   2    -0.346800241606E+03   -0.32785E-02   -0.44838E-02 26600   0.862E-01    0.364E-01
DAV:   3    -0.346798690867E+03    0.15507E-02   -0.17652E-02 25016   0.390E-01    0.204E-01
DAV:   4    -0.346798325631E+03    0.36524E-03   -0.26073E-03 22720   0.163E-01    0.130E-01
DAV:   5    -0.346798284406E+03    0.41225E-04   -0.20608E-03 21000   0.136E-01    0.109E-01
DAV:   6    -0.346798139001E+03    0.14541E-03   -0.11708E-03 19720   0.116E-01    0.572E-02
DAV:   7    -0.346798081583E+03    0.57417E-04   -0.44363E-04 14984   0.828E-02
   8 F= -.34679808E+03 E0= -.34679926E+03  d E =-.595313E-02
       N       E                     dE             d eps       ncg     rms          rms(c)
DAV:   1    -0.346798714903E+03   -0.57590E-03   -0.55573E-01 17136   0.218E+00    0.246E-01
DAV:   2    -0.346800865965E+03   -0.21511E-02   -0.28162E-02 26416   0.687E-01    0.289E-01
DAV:   3    -0.346799877971E+03    0.98799E-03   -0.11208E-02 24096   0.309E-01    0.158E-01
DAV:   4    -0.346799650832E+03    0.22714E-03   -0.15137E-03 21904   0.126E-01    0.990E-02
DAV:   5    -0.346799639499E+03    0.11333E-04   -0.11554E-03 19608   0.106E-01    0.859E-02
DAV:   6    -0.346799548950E+03    0.90549E-04   -0.68166E-04 17496   0.934E-02
   9 F= -.34679955E+03 E0= -.34680091E+03  d E =-.742050E-02
       N       E                     dE             d eps       ncg     rms          rms(c)
DAV:   1    -0.346802972810E+03   -0.33333E-02   -0.51080E-01 17632   0.281E+00    0.766E-01
DAV:   2    -0.346803959267E+03   -0.98646E-03   -0.72311E-02 25216   0.108E+00    0.511E-01
DAV:   3    -0.346802443076E+03    0.15162E-02   -0.52475E-02 24576   0.698E-01    0.410E-01
DAV:   4    -0.346800184567E+03    0.22585E-02   -0.19330E-02 24864   0.431E-01    0.202E-01
DAV:   5    -0.346799742933E+03    0.44163E-03   -0.89332E-03 24032   0.278E-01    0.145E-01
DAV:   6    -0.346799415933E+03    0.32700E-03   -0.25632E-03 21848   0.151E-01    0.618E-02
DAV:   7    -0.346799452118E+03   -0.36185E-04   -0.52144E-04 16856   0.790E-02
  10 F= -.34679945E+03 E0= -.34680087E+03  d E =0.968323E-04
       N       E                     dE             d eps       ncg     rms          rms(c)
DAV:   1    -0.346801052610E+03   -0.16367E-02   -0.11939E-01 17704   0.135E+00    0.380E-01
DAV:   2    -0.346801477046E+03   -0.42444E-03   -0.18950E-02 25304   0.542E-01    0.271E-01
DAV:   3    -0.346800972477E+03    0.50457E-03   -0.14152E-02 23544   0.359E-01    0.212E-01
DAV:   4    -0.346800484101E+03    0.48838E-03   -0.49599E-03 22408   0.218E-01    0.122E-01
DAV:   5    -0.346800284572E+03    0.19953E-03   -0.24798E-03 21496   0.152E-01    0.707E-02
DAV:   6    -0.346800188457E+03    0.96115E-04   -0.58998E-04 16280   0.891E-02
  11 F= -.34680019E+03 E0= -.34680159E+03  d E =-.639507E-03
