 vasp.5.4.4.18Apr17-6-g9f103f2a35 (build Aug 09 2018 16:20:53) complex          
  
 executed on             LinuxIFC date 2020.04.12  14:29:29
 running on   32 total cores
 distrk:  each k-point on   32 cores,    1 groups
 distr:  one band on NCORES_PER_BAND=   4 cores,    8 groups


--------------------------------------------------------------------------------------------------------


 INCAR:
 POTCAR:    PAW_PBE Nb_sv 25May2007               
 POTCAR:    PAW_PBE Mo 08Apr2002                  
 POTCAR:    PAW_PBE Ta 17Jan2003                  
 POTCAR:    PAW_PBE Ti 08Apr2002                  
 POTCAR:    PAW_PBE W 08Apr2002                   
 POTCAR:    PAW_PBE Nb_sv 25May2007               
   VRHFIN =Nb: 4p5s4d                                                           
   LEXCH  = PE                                                                  
   EATOM  =  1555.1913 eV,  114.3033 Ry                                         
                                                                                
   TITEL  = PAW_PBE Nb_sv 25May2007                                             
   LULTRA =        F    use ultrasoft PP ?                                      
   IUNSCR =        1    unscreen: 0-lin 1-nonlin 2-no                           
   RPACOR =    1.800    partial core radius                                     
   POMASS =   92.910; ZVAL   =   13.000    mass and valenz                      
   RCORE  =    2.400    outmost cutoff radius                                   
   RWIGS  =    2.400; RWIGS  =    1.270    wigner-seitz radius (au A)           
   ENMAX  =  293.235; ENMIN  =  219.927 eV                                      
   ICORE  =        3    local potential                                         
   LCOR   =        T    correct aug charges                                     
   LPAW   =        T    paw PP                                                  
   EAUG   =  455.659                                                            
   DEXC   =    0.000                                                            
   RMAX   =    2.456    core radius for proj-oper                               
   RAUG   =    1.300    factor for augmentation sphere                          
   RDEP   =    2.451    radius for radial grids                                 
   RDEPT  =    1.956    core radius for aug-charge                              
                                                                                
   Atomic configuration                                                         
   11 entries                                                                   
     n  l   j            E        occ.                                          
     1  0  0.50    -18805.2457   2.0000                                         
     2  0  0.50     -2630.2869   2.0000                                         
     2  1  1.50     -2348.4046   6.0000                                         
     3  0  0.50      -438.8757   2.0000                                         
     3  1  1.50      -346.7588   6.0000                                         
     3  2  2.50      -196.2560  10.0000                                         
     4  0  0.50       -58.3859   2.0000                                         
     5  0  0.50        -3.9816   1.0000                                         
     4  1  1.50       -34.5141   6.0000                                         
     4  2  2.50        -3.0408   4.0000                                         
     4  3  2.50        -1.3606   0.0000                                         
   Description                                                                  
     l       E           TYP  RCUT    TYP  RCUT                                 
     0    -58.3859094     23  2.200                                             
     0     -3.9816262     23  2.200                                             
     1    -34.5140738     23  2.200                                             
     1     13.6058260     23  2.200                                             
     2     -3.0408010     23  2.200                                             
     2     -0.1283038     23  2.200                                             
     3     -1.3605826     23  2.400                                             
  local pseudopotential read in
  partial core-charges read in
  partial kinetic energy density read in
  atomic valenz-charges read in
  non local Contribution for L=           0  read in
    real space projection operators read in
  non local Contribution for L=           0  read in
    real space projection operators read in
  non local Contribution for L=           1  read in
    real space projection operators read in
  non local Contribution for L=           1  read in
    real space projection operators read in
  non local Contribution for L=           2  read in
    real space projection operators read in
  non local Contribution for L=           2  read in
    real space projection operators read in
    PAW grid and wavefunctions read in
 
   number of l-projection  operators is LMAX  =           6
   number of lm-projection operators is LMMAX =          18
 
 POTCAR:    PAW_PBE Mo 08Apr2002                  
   VRHFIN =Mo: 4p5s4d                                                           
   LEXCH  = PE                                                                  
   EATOM  =   217.5176 eV,   15.9871 Ry                                         
                                                                                
   TITEL  = PAW_PBE Mo 08Apr2002                                                
   LULTRA =        F    use ultrasoft PP ?                                      
   IUNSCR =        1    unscreen: 0-lin 1-nonlin 2-no                           
   RPACOR =    2.200    partial core radius                                     
   POMASS =   95.940; ZVAL   =    6.000    mass and valenz                      
   RCORE  =    2.750    outmost cutoff radius                                   
   RWIGS  =    2.750; RWIGS  =    1.455    wigner-seitz radius (au A)           
   ENMAX  =  224.584; ENMIN  =  168.438 eV                                      
   RCLOC  =    2.111    cutoff for local pot                                    
   LCOR   =        T    correct aug charges                                     
   LPAW   =        T    paw PP                                                  
   EAUG   =  345.278                                                            
   DEXC   =    0.000                                                            
   RMAX   =    2.821    core radius for proj-oper                               
   RAUG   =    1.300    factor for augmentation sphere                          
   RDEP   =    2.815    radius for radial grids                                 
   RDEPT  =    2.211    core radius for aug-charge                              
                                                                                
   Atomic configuration                                                         
   12 entries                                                                   
     n  l   j            E        occ.                                          
     1  0  0.50    -19819.0341   2.0000                                         
     2  0  0.50     -2799.0127   2.0000                                         
     2  1  1.50     -2502.0276   6.0000                                         
     3  0  0.50      -476.4448   2.0000                                         
     3  1  1.50      -379.1496   6.0000                                         
     3  2  2.50      -220.9367  10.0000                                         
     4  0  0.50       -64.3378   2.0000                                         
     4  1  1.50       -38.4773   6.0000                                         
     4  2  2.50        -3.7535   5.0000                                         
     5  0  0.50        -4.0862   1.0000                                         
     5  1  0.50        -2.7701   0.0000                                         
     4  3  2.50        -1.3606   0.0000                                         
   Description                                                                  
     l       E           TYP  RCUT    TYP  RCUT                                 
     2     -3.7534765     23  2.500                                             
     2     -5.1140591     23  2.500                                             
     0     -4.0861560     23  2.600                                             
     0     13.6058260     23  2.600                                             
     1      5.4423304     23  2.750                                             
     1     27.2116520     23  2.750                                             
  local pseudopotential read in
  partial core-charges read in
  partial kinetic energy density read in
  atomic valenz-charges read in
  non local Contribution for L=           2  read in
    real space projection operators read in
  non local Contribution for L=           2  read in
    real space projection operators read in
  non local Contribution for L=           0  read in
    real space projection operators read in
  non local Contribution for L=           0  read in
    real space projection operators read in
  non local Contribution for L=           1  read in
    real space projection operators read in
  non local Contribution for L=           1  read in
    real space projection operators read in
    PAW grid and wavefunctions read in
 
   number of l-projection  operators is LMAX  =           6
   number of lm-projection operators is LMMAX =          18
 
 POTCAR:    PAW_PBE Ta 17Jan2003                  
   VRHFIN =Ta:  6s5d                                                            
   LEXCH  = PE                                                                  
   EATOM  =   130.6506 eV,    9.6025 Ry                                         
                                                                                
   TITEL  = PAW_PBE Ta 17Jan2003                                                
   LULTRA =        F    use ultrasoft PP ?                                      
   IUNSCR =        1    unscreen: 0-lin 1-nonlin 2-no                           
   RPACOR =    2.330    partial core radius                                     
   POMASS =  180.948; ZVAL   =    5.000    mass and valenz                      
   RCORE  =    2.900    outmost cutoff radius                                   
   RWIGS  =    2.840; RWIGS  =    1.503    wigner-seitz radius (au A)           
   ENMAX  =  223.667; ENMIN  =  167.750 eV                                      
   RCLOC  =    2.205    cutoff for local pot                                    
   LCOR   =        T    correct aug charges                                     
   LPAW   =        T    paw PP                                                  
   EAUG   =  332.075                                                            
   DEXC   =    0.000                                                            
   RMAX   =    2.970    core radius for proj-oper                               
   RAUG   =    1.300    factor for augmentation sphere                          
   RDEP   =    3.060    radius for radial grids                                 
   RDEPT  =    2.354    core radius for aug-charge                              
                                                                                
   Atomic configuration                                                         
   16 entries                                                                   
     n  l   j            E        occ.                                          
     1  0  0.50    -67341.2807   2.0000                                         
     2  0  0.50    -11566.9376   2.0000                                         
     2  1  1.50    -10134.1182   6.0000                                         
     3  0  0.50     -2648.5620   2.0000                                         
     3  1  1.50     -2222.6012   6.0000                                         
     3  2  2.50     -1726.3120  10.0000                                         
     4  0  0.50      -538.6961   2.0000                                         
     4  1  1.50      -399.0129   6.0000                                         
     4  2  2.50      -220.3959  10.0000                                         
     4  3  3.50       -23.0374  14.0000                                         
     5  0  0.50       -71.2901   2.0000                                         
     5  1  1.50       -37.8225   6.0000                                         
     5  2  2.50        -2.6455   4.0000                                         
     6  0  0.50        -4.9623   1.0000                                         
     6  1  1.50        -1.3606   0.0000                                         
     5  3  2.50        -1.3606   0.0000                                         
   Description                                                                  
     l       E           TYP  RCUT    TYP  RCUT                                 
     2     -2.6455043     23  2.500                                             
     2     -0.6258895     23  2.500                                             
     0     -4.9622780     23  2.500                                             
     0      4.7531321     23  2.500                                             
     1     -1.3605826     23  2.900                                             
     1     27.2116520     23  2.900                                             
  local pseudopotential read in
  partial core-charges read in
  partial kinetic energy density read in
  atomic valenz-charges read in
  non local Contribution for L=           2  read in
    real space projection operators read in
  non local Contribution for L=           2  read in
    real space projection operators read in
  non local Contribution for L=           0  read in
    real space projection operators read in
  non local Contribution for L=           0  read in
    real space projection operators read in
  non local Contribution for L=           1  read in
    real space projection operators read in
  non local Contribution for L=           1  read in
    real space projection operators read in
    PAW grid and wavefunctions read in
 
   number of l-projection  operators is LMAX  =           6
   number of lm-projection operators is LMMAX =          18
 
 POTCAR:    PAW_PBE Ti 08Apr2002                  
   VRHFIN =Ti: d3 s1                                                            
   LEXCH  = PE                                                                  
   EATOM  =    94.7928 eV,    6.9671 Ry                                         
                                                                                
   TITEL  = PAW_PBE Ti 08Apr2002                                                
   LULTRA =        F    use ultrasoft PP ?                                      
   IUNSCR =        1    unscreen: 0-lin 1-nonlin 2-no                           
   RPACOR =    2.200    partial core radius                                     
   POMASS =   47.880; ZVAL   =    4.000    mass and valenz                      
   RCORE  =    2.800    outmost cutoff radius                                   
   RWIGS  =    2.500; RWIGS  =    1.323    wigner-seitz radius (au A)           
   ENMAX  =  178.330; ENMIN  =  133.747 eV                                      
   RCLOC  =    2.215    cutoff for local pot                                    
   LCOR   =        T    correct aug charges                                     
   LPAW   =        T    paw PP                                                  
   EAUG   =  328.883                                                            
   DEXC   =    0.000                                                            
   RMAX   =    2.868    core radius for proj-oper                               
   RAUG   =    1.300    factor for augmentation sphere                          
   RDEP   =    2.885    radius for radial grids                                 
   RDEPT  =    2.320    core radius for aug-charge                              
                                                                                
   Atomic configuration                                                         
    9 entries                                                                   
     n  l   j            E        occ.                                          
     1  0  0.50     -4865.3608   2.0000                                         
     2  0  0.50      -533.1367   2.0000                                         
     2  1  1.50      -440.5031   6.0000                                         
     3  0  0.50       -59.3186   2.0000                                         
     3  1  1.50       -35.7012   6.0000                                         
     3  2  2.50        -1.9157   3.0000                                         
     4  0  0.50        -3.7291   1.0000                                         
     4  1  1.50        -4.0817   0.0000                                         
     4  3  2.50        -1.3606   0.0000                                         
   Description                                                                  
     l       E           TYP  RCUT    TYP  RCUT                                 
     2     -1.9156924     23  2.800                                             
     2     -0.4062961     23  2.800                                             
     0     -3.7290832     23  2.800                                             
     0     20.4087390     23  2.800                                             
     1     -5.4423304     23  2.800                                             
  local pseudopotential read in
  partial core-charges read in
  partial kinetic energy density read in
  atomic valenz-charges read in
  non local Contribution for L=           2  read in
    real space projection operators read in
  non local Contribution for L=           2  read in
    real space projection operators read in
  non local Contribution for L=           0  read in
    real space projection operators read in
  non local Contribution for L=           0  read in
    real space projection operators read in
  non local Contribution for L=           1  read in
    real space projection operators read in
    PAW grid and wavefunctions read in
 
   number of l-projection  operators is LMAX  =           5
   number of lm-projection operators is LMMAX =          15
 
 POTCAR:    PAW_PBE W 08Apr2002                   
   VRHFIN =W : 6s5d                                                             
   LEXCH  = PE                                                                  
   EATOM  =   204.6103 eV,   15.0384 Ry                                         
                                                                                
   TITEL  = PAW_PBE W 08Apr2002                                                 
   LULTRA =        F    use ultrasoft PP ?                                      
   IUNSCR =        1    unscreen: 0-lin 1-nonlin 2-no                           
   RPACOR =    2.330    partial core radius                                     
   POMASS =  183.850; ZVAL   =    6.000    mass and valenz                      
   RCORE  =    2.750    outmost cutoff radius                                   
   RWIGS  =    2.750; RWIGS  =    1.455    wigner-seitz radius (au A)           
   ENMAX  =  223.057; ENMIN  =  167.293 eV                                      
   RCLOC  =    2.147    cutoff for local pot                                    
   LCOR   =        T    correct aug charges                                     
   LPAW   =        T    paw PP                                                  
   EAUG   =  373.438                                                            
   DEXC   =    0.000                                                            
   RMAX   =    2.801    core radius for proj-oper                               
   RAUG   =    1.300    factor for augmentation sphere                          
   RDEP   =    2.886    radius for radial grids                                 
   RDEPT  =    2.230    core radius for aug-charge                              
                                                                                
   Atomic configuration                                                         
   16 entries                                                                   
     n  l   j            E        occ.                                          
     1  0  0.50    -69465.5836   2.0000                                         
     2  0  0.50    -11986.2642   2.0000                                         
     2  1  1.50    -10479.8616   6.0000                                         
     3  0  0.50     -2759.0758   2.0000                                         
     3  1  1.50     -2313.1857   6.0000                                         
     3  2  2.50     -1801.1185  10.0000                                         
     4  0  0.50      -567.6791   2.0000                                         
     4  1  1.50      -421.4694   6.0000                                         
     4  2  2.50      -236.3473  10.0000                                         
     4  3  3.50       -31.2666  14.0000                                         
     5  0  0.50       -77.1085   2.0000                                         
     5  1  1.50       -41.3856   6.0000                                         
     5  2  2.50        -3.3185   5.0000                                         
     6  0  0.50        -5.1438   1.0000                                         
     6  1  0.50        -3.8096   0.0000                                         
     5  3  2.50        -1.3606   0.0000                                         
   Description                                                                  
     l       E           TYP  RCUT    TYP  RCUT                                 
     2     -3.3185288     23  2.500                                             
     2     -1.5965414     23  2.500                                             
     0     -5.1438054     23  2.500                                             
     0      4.9117504     23  2.500                                             
     1      2.7211652     23  2.750                                             
     1     27.2116520     23  2.750                                             
  local pseudopotential read in
  partial core-charges read in
  partial kinetic energy density read in
  atomic valenz-charges read in
  non local Contribution for L=           2  read in
    real space projection operators read in
  non local Contribution for L=           2  read in
    real space projection operators read in
  non local Contribution for L=           0  read in
    real space projection operators read in
  non local Contribution for L=           0  read in
    real space projection operators read in
  non local Contribution for L=           1  read in
    real space projection operators read in
  non local Contribution for L=           1  read in
    real space projection operators read in
    PAW grid and wavefunctions read in
 
   number of l-projection  operators is LMAX  =           6
   number of lm-projection operators is LMMAX =          18
 
 Optimization of the real space projectors (new method)

 maximal supplied QI-value         = 15.68
 optimisation between [QCUT,QGAM] = [ 12.55, 25.10] = [ 44.09,176.36] Ry 
 Optimized for a Real-space Cutoff    1.56 Angstroem

   l    n(q)    QCUT    max X(q) W(low)/X(q) W(high)/X(q)  e(spline) 
   0     12    12.548    10.201    0.21E-04    0.36E-05    0.83E-07
   0     12    12.548     8.174    0.31E-04    0.62E-05    0.15E-06
   1     11    12.548     3.488    0.79E-05    0.23E-04    0.21E-06
   1     11    12.548     4.917    0.56E-04    0.13E-03    0.11E-05
   2     11    12.548   153.744    0.25E-03    0.10E-03    0.15E-05
   2     11    12.548   126.342    0.25E-03    0.10E-03    0.15E-05
 Optimization of the real space projectors (new method)

 maximal supplied QI-value         = 13.61
 optimisation between [QCUT,QGAM] = [ 12.52, 25.04] = [ 43.88,175.51] Ry 
 Optimized for a Real-space Cutoff    1.56 Angstroem

   l    n(q)    QCUT    max X(q) W(low)/X(q) W(high)/X(q)  e(spline) 
   2     11    12.518    80.908    0.42E-03    0.30E-03    0.14E-05
   2     11    12.518    79.000    0.42E-03    0.30E-03    0.14E-05
   0     12    12.518    52.066    0.58E-04    0.50E-04    0.55E-06
   0     12    12.518    24.514    0.48E-04    0.41E-04    0.46E-06
   1     11    12.518    16.033    0.62E-04    0.13E-03    0.37E-06
   1     11    12.518    11.179    0.47E-04    0.10E-03    0.31E-06
 Optimization of the real space projectors (new method)

 maximal supplied QI-value         = 12.85
 optimisation between [QCUT,QGAM] = [ 12.46, 25.06] = [ 43.51,175.83] Ry 
 Optimized for a Real-space Cutoff    1.56 Angstroem

   l    n(q)    QCUT    max X(q) W(low)/X(q) W(high)/X(q)  e(spline) 
   2     11    12.465    62.315    0.36E-03    0.20E-03    0.15E-05
   2     11    12.465    52.185    0.36E-03    0.20E-03    0.15E-05
   0     12    12.465   103.837    0.22E-04    0.37E-05    0.56E-06
   0     12    12.465    59.728    0.20E-04    0.34E-05    0.51E-06
   1     11    12.465    13.958    0.44E-03    0.81E-03    0.81E-05
   1     11    12.465     8.441    0.31E-03    0.56E-03    0.56E-05
 Optimization of the real space projectors (new method)

 maximal supplied QI-value         = 13.42
 optimisation between [QCUT,QGAM] = [ 12.48, 25.09] = [ 43.60,176.28] Ry 
 Optimized for a Real-space Cutoff    1.56 Angstroem

   l    n(q)    QCUT    max X(q) W(low)/X(q) W(high)/X(q)  e(spline) 
   2     11    12.478    49.363    0.45E-03    0.34E-03    0.89E-06
   2     11    12.478    47.669    0.44E-03    0.33E-03    0.87E-06
   0     12    12.478    26.374    0.17E-03    0.37E-04    0.21E-05
   0     12    12.478    11.549    0.13E-03    0.31E-04    0.17E-05
   1     11    12.478     9.492    0.91E-05    0.64E-04    0.34E-06
 Optimization of the real space projectors (new method)

 maximal supplied QI-value         = 13.61
 optimisation between [QCUT,QGAM] = [ 12.52, 25.04] = [ 43.88,175.51] Ry 
 Optimized for a Real-space Cutoff    1.56 Angstroem

   l    n(q)    QCUT    max X(q) W(low)/X(q) W(high)/X(q)  e(spline) 
   2     11    12.518   130.855    0.35E-03    0.25E-03    0.12E-05
   2     11    12.518   114.007    0.35E-03    0.25E-03    0.12E-05
   0     12    12.518    84.709    0.29E-04    0.97E-05    0.60E-06
   0     12    12.518    49.163    0.27E-04    0.89E-05    0.55E-06
   1     11    12.518    15.765    0.74E-04    0.89E-04    0.15E-06
   1     11    12.518    10.638    0.55E-04    0.69E-04    0.13E-06

 ----------------------------------------------------------------------------- 
|                                                                             |
|  ADVICE TO THIS USER RUNNING 'VASP/VAMP'   (HEAR YOUR MASTER'S VOICE ...):  |
|                                                                             |
|      You enforced a specific xc-type in the INCAR file,                     |
|      a different type was found on the POTCAR file                          |
|          I HOPE YOU KNOW, WHAT YOU ARE  DOING                               |
|                                                                             |
 ----------------------------------------------------------------------------- 

  PAW_PBE Nb_sv 25May2007               :
 energy of atom  1       EATOM=-1555.1913
 kinetic energy error for atom=    0.0037 (will be added to EATOM!!)
  PAW_PBE Mo 08Apr2002                  :
 energy of atom  2       EATOM= -217.5176
 kinetic energy error for atom=    0.0005 (will be added to EATOM!!)
  PAW_PBE Ta 17Jan2003                  :
 energy of atom  3       EATOM= -130.6506
 kinetic energy error for atom=    0.0004 (will be added to EATOM!!)
  PAW_PBE Ti 08Apr2002                  :
 energy of atom  4       EATOM=  -94.7928
 kinetic energy error for atom=    0.0001 (will be added to EATOM!!)
  PAW_PBE W 08Apr2002                   :
 energy of atom  5       EATOM= -204.6103
 kinetic energy error for atom=    0.0005 (will be added to EATOM!!)
 
 
 POSCAR: Nb - Mo - Ta - Ti - W SQS-30 BCC        
  positions in direct lattice
  No initial velocities read in
 exchange correlation table for  LEXCH =       14
   RHO(1)=    0.500       N(1)  =     2000
   RHO(2)=  100.500       N(2)  =     4000

 VTST: version 3.2, (02/03/18)

 CHAIN: initializing optimizer
 
 OPT: Using VASP Conjugate-Gradient optimizer
 CHAIN: Read ICHAIN            0
 
 POSCAR: Nb - Mo - Ta - Ti - W SQS-30 BCC        
  positions in direct lattice
  No initial velocities read in
 


--------------------------------------------------------------------------------------------------------


 ion  position               nearest neighbor table
   1  0.000  0.000  0.000-  12 2.76  13 2.76  21 2.76  28 2.76  24 2.76  14 2.76   4 2.76   5 2.76
                            25 3.19   7 3.19   7 3.19
   2  0.833  0.000  0.333-  28 2.76  29 2.76  13 2.76  23 2.76   4 2.76   9 2.76  14 2.76  27 2.76
                            16 3.19   8 3.19   8 3.19  15 3.19
   3  0.100  0.400  0.600-  27 2.76  10 2.76  21 2.76   5 2.76   9 2.76  17 2.76  11 2.76  22 2.76
                            29 3.19  18 3.19  18 3.19
   4  0.200  0.800  0.200-   8 2.76  25 2.76  17 2.76  22 2.76  26 2.76   7 2.76   2 2.76   1 2.76
                            29 3.19  28 3.19  28 3.19  13 3.19
   5  0.800  0.200  0.800-   6 2.76  15 2.76  18 2.76  30 2.76   3 2.76   7 2.76  19 2.76   1 2.76
                            27 3.19  14 3.19  11 3.19  12 3.19
   6  0.933  0.400  0.933-   5 2.76  11 2.76  14 2.76  21 2.76  26 2.76  10 2.76  13 2.76  25 2.76
                            30 3.19  12 3.19  30 3.19  16 3.19
   7  0.500  0.000  0.000-  14 2.76  24 2.76   4 2.76   5 2.76  12 2.76  13 2.76  21 2.76  28 2.76
                            15 3.19   8 3.19  26 3.19  30 3.19   1 3.19   1 3.19
   8  0.333  0.000  0.333-   4 2.76  23 2.76  14 2.76  29 2.76  28 2.76  27 2.76  13 2.76   9 2.76
                             7 3.19  17 3.19  20 3.19   2 3.19   2 3.19  19 3.19
   9  0.467  0.200  0.467-  18 2.76  15 2.76  16 2.76   3 2.76  19 2.76   2 2.76  20 2.76   8 2.76
                            21 3.19  17 3.19  27 3.19  27 3.19  23 3.19  14 3.19
  10  0.233  0.600  0.733-   3 2.76  23 2.76  12 2.76  30 2.76   6 2.76  18 2.76  29 2.76  24 2.76
                            17 3.19  21 3.19  19 3.19  11 3.19  11 3.19  25 3.19
  11  0.733  0.600  0.733-  18 2.76   6 2.76  29 2.76  24 2.76  30 2.76   3 2.76  23 2.76  12 2.76
                            22 3.19   5 3.19  15 3.19  10 3.19  10 3.19  26 3.19
  12  0.867  0.800  0.867-   1 2.76  25 2.76  26 2.76  10 2.76  19 2.76   7 2.76  15 2.76  11 2.76
                            28 3.19   6 3.19  24 3.19  24 3.19   5 3.19  29 3.19
  13  0.133  0.200  0.133-   1 2.76  16 2.76  30 2.76   2 2.76   7 2.76   6 2.76   8 2.76  20 2.76
                            21 3.19  25 3.19  14 3.19  14 3.19   4 3.19  27 3.19
  14  0.633  0.200  0.133-   7 2.76   6 2.76  20 2.76  30 2.76   8 2.76   1 2.76   2 2.76  16 2.76
                             5 3.19  26 3.19  13 3.19  13 3.19  28 3.19   9 3.19
  15  0.667  0.000  0.667-   5 2.76   9 2.76  24 2.76  27 2.76  21 2.76  29 2.76  12 2.76  23 2.76
                             7 3.19  18 3.19  11 3.19  19 3.19  19 3.19   2 3.19
  16  0.767  0.400  0.267-  22 2.76   9 2.76  13 2.76  26 2.76  25 2.76  17 2.76  27 2.76  14 2.76
                            18 3.19  28 3.19   2 3.19  20 3.19  20 3.19   6 3.19
  17  0.400  0.600  0.400-  23 2.76  20 2.76   4 2.76  28 2.76  29 2.76   3 2.76  16 2.76  18 2.76
                            10 3.19  26 3.19   8 3.19   9 3.19  22 3.19  22 3.19
  18  0.600  0.400  0.600-   9 2.76  11 2.76   5 2.76  21 2.76  27 2.76  22 2.76  10 2.76  17 2.76
                            30 3.19  16 3.19  15 3.19  23 3.19   3 3.19   3 3.19
  19  0.167  0.000  0.667-  21 2.76  27 2.76   9 2.76  12 2.76   5 2.76  23 2.76  24 2.76  29 2.76
                            10 3.19  15 3.19  15 3.19   8 3.19
  20  0.267  0.400  0.267-  17 2.76  27 2.76  14 2.76  22 2.76   9 2.76  25 2.76  26 2.76  13 2.76
                             8 3.19  16 3.19  16 3.19  30 3.19
  21  0.300  0.200  0.800-  30 2.76  19 2.76   3 2.76  18 2.76   6 2.76   1 2.76  15 2.76   7 2.76
                             9 3.19  13 3.19  10 3.19
  22  0.900  0.600  0.400-  29 2.76  16 2.76  28 2.76   4 2.76  23 2.76  18 2.76  20 2.76   3 2.76
                            11 3.19  25 3.19  27 3.19  17 3.19  17 3.19
  23  0.533  0.800  0.533-  17 2.76   8 2.76  10 2.76  22 2.76   2 2.76  19 2.76  11 2.76  15 2.76
                            28 3.19  18 3.19  29 3.19  29 3.19   9 3.19
  24  0.367  0.800  0.867-   7 2.76  26 2.76  25 2.76  11 2.76  15 2.76   1 2.76  19 2.76  10 2.76
                            30 3.19  12 3.19  12 3.19
  25  0.067  0.600  0.067-   4 2.76  12 2.76  24 2.76  28 2.76  16 2.76  20 2.76  30 2.76   6 2.76
                            22 3.19  26 3.19   1 3.19  13 3.19  26 3.19  10 3.19
  26  0.567  0.600  0.067-  28 2.76  12 2.76  24 2.76   6 2.76   4 2.76  16 2.76  20 2.76  30 2.76
                            17 3.19  25 3.19   7 3.19  14 3.19  25 3.19  11 3.19
  27  0.967  0.200  0.467-   3 2.76  19 2.76  20 2.76  18 2.76  15 2.76   8 2.76  16 2.76   2 2.76
                             5 3.19  22 3.19   9 3.19   9 3.19  29 3.19  13 3.19
  28  0.700  0.800  0.200-   2 2.76  26 2.76  22 2.76  17 2.76  25 2.76   1 2.76   8 2.76   7 2.76
                            23 3.19  12 3.19  16 3.19   4 3.19   4 3.19  14 3.19
  29  0.033  0.800  0.533-  22 2.76   2 2.76  11 2.76  17 2.76   8 2.76  15 2.76  10 2.76  19 2.76
                             4 3.19   3 3.19  23 3.19  23 3.19  27 3.19  12 3.19
  30  0.433  0.400  0.933-  21 2.76   5 2.76  11 2.76  10 2.76  14 2.76  13 2.76  25 2.76  26 2.76
                            18 3.19   6 3.19   7 3.19  24 3.19   6 3.19  20 3.19
 

IMPORTANT INFORMATION: All symmetrisations will be switched off!
NOSYMM: (Re-)initialisation of all symmetry stuff for point group C_1.

 
 
 KPOINTS: k-points                                

Automatic generation of k-mesh.
Space group operators:
 irot       det(A)        alpha          n_x          n_y          n_z        tau_x        tau_y        tau_z
    1     1.000000     0.000000     1.000000     0.000000     0.000000     0.000000     0.000000     0.000000
 
 Subroutine IBZKPT returns following result:
 ===========================================
 
 Found     63 irreducible k-points:
 
 Following reciprocal coordinates:
            Coordinates               Weight
  0.000000  0.000000  0.000000      1.000000
  0.200000  0.000000  0.000000      2.000000
  0.400000  0.000000  0.000000      2.000000
  0.000000  0.200000  0.000000      2.000000
  0.200000  0.200000  0.000000      2.000000
  0.400000  0.200000  0.000000      2.000000
 -0.400000  0.200000  0.000000      2.000000
 -0.200000  0.200000  0.000000      2.000000
  0.000000  0.400000  0.000000      2.000000
  0.200000  0.400000  0.000000      2.000000
  0.400000  0.400000  0.000000      2.000000
 -0.400000  0.400000  0.000000      2.000000
 -0.200000  0.400000  0.000000      2.000000
  0.000000  0.000000  0.200000      2.000000
  0.200000 -0.000000  0.200000      2.000000
  0.400000  0.000000  0.200000      2.000000
 -0.400000  0.000000  0.200000      2.000000
 -0.200000  0.000000  0.200000      2.000000
  0.000000  0.200000  0.200000      2.000000
  0.200000  0.200000  0.200000      2.000000
  0.400000  0.200000  0.200000      2.000000
 -0.400000  0.200000  0.200000      2.000000
 -0.200000  0.200000  0.200000      2.000000
  0.000000  0.400000  0.200000      2.000000
  0.200000  0.400000  0.200000      2.000000
  0.400000  0.400000  0.200000      2.000000
 -0.400000  0.400000  0.200000      2.000000
 -0.200000  0.400000  0.200000      2.000000
  0.000000 -0.400000  0.200000      2.000000
  0.200000 -0.400000  0.200000      2.000000
  0.400000 -0.400000  0.200000      2.000000
 -0.400000 -0.400000  0.200000      2.000000
 -0.200000 -0.400000  0.200000      2.000000
  0.000000 -0.200000  0.200000      2.000000
  0.200000 -0.200000  0.200000      2.000000
  0.400000 -0.200000  0.200000      2.000000
 -0.400000 -0.200000  0.200000      2.000000
 -0.200000 -0.200000  0.200000      2.000000
  0.000000  0.000000  0.400000      2.000000
  0.200000  0.000000  0.400000      2.000000
  0.400000 -0.000000  0.400000      2.000000
 -0.400000  0.000000  0.400000      2.000000
 -0.200000  0.000000  0.400000      2.000000
  0.000000  0.200000  0.400000      2.000000
  0.200000  0.200000  0.400000      2.000000
  0.400000  0.200000  0.400000      2.000000
 -0.400000  0.200000  0.400000      2.000000
 -0.200000  0.200000  0.400000      2.000000
  0.000000  0.400000  0.400000      2.000000
  0.200000  0.400000  0.400000      2.000000
  0.400000  0.400000  0.400000      2.000000
 -0.400000  0.400000  0.400000      2.000000
 -0.200000  0.400000  0.400000      2.000000
  0.000000 -0.400000  0.400000      2.000000
  0.200000 -0.400000  0.400000      2.000000
  0.400000 -0.400000  0.400000      2.000000
 -0.400000 -0.400000  0.400000      2.000000
 -0.200000 -0.400000  0.400000      2.000000
  0.000000 -0.200000  0.400000      2.000000
  0.200000 -0.200000  0.400000      2.000000
  0.400000 -0.200000  0.400000      2.000000
 -0.400000 -0.200000  0.400000      2.000000
 -0.200000 -0.200000  0.400000      2.000000
 
 Following cartesian coordinates:
            Coordinates               Weight
  0.000000  0.000000  0.000000      1.000000
 -0.013333 -0.033333  0.100000      2.000000
 -0.026667 -0.066667  0.200000      2.000000
  0.080000  0.000000  0.000000      2.000000
  0.066667 -0.033333  0.100000      2.000000
  0.053333 -0.066667  0.200000      2.000000
  0.106667  0.066667 -0.200000      2.000000
  0.093333  0.033333 -0.100000      2.000000
  0.160000  0.000000  0.000000      2.000000
  0.146667 -0.033333  0.100000      2.000000
  0.133333 -0.066667  0.200000      2.000000
  0.186667  0.066667 -0.200000      2.000000
  0.173333  0.033333 -0.100000      2.000000
 -0.013333  0.066667  0.000000      2.000000
 -0.026667  0.033333  0.100000      2.000000
 -0.040000  0.000000  0.200000      2.000000
  0.013333  0.133333 -0.200000      2.000000
  0.000000  0.100000 -0.100000      2.000000
  0.066667  0.066667  0.000000      2.000000
  0.053333  0.033333  0.100000      2.000000
  0.040000  0.000000  0.200000      2.000000
  0.093333  0.133333 -0.200000      2.000000
  0.080000  0.100000 -0.100000      2.000000
  0.146667  0.066667  0.000000      2.000000
  0.133333  0.033333  0.100000      2.000000
  0.120000  0.000000  0.200000      2.000000
  0.173333  0.133333 -0.200000      2.000000
  0.160000  0.100000 -0.100000      2.000000
 -0.173333  0.066667  0.000000      2.000000
 -0.186667  0.033333  0.100000      2.000000
 -0.200000  0.000000  0.200000      2.000000
 -0.146667  0.133333 -0.200000      2.000000
 -0.160000  0.100000 -0.100000      2.000000
 -0.093333  0.066667  0.000000      2.000000
 -0.106667  0.033333  0.100000      2.000000
 -0.120000  0.000000  0.200000      2.000000
 -0.066667  0.133333 -0.200000      2.000000
 -0.080000  0.100000 -0.100000      2.000000
 -0.026667  0.133333  0.000000      2.000000
 -0.040000  0.100000  0.100000      2.000000
 -0.053333  0.066667  0.200000      2.000000
  0.000000  0.200000 -0.200000      2.000000
 -0.013333  0.166667 -0.100000      2.000000
  0.053333  0.133333  0.000000      2.000000
  0.040000  0.100000  0.100000      2.000000
  0.026667  0.066667  0.200000      2.000000
  0.080000  0.200000 -0.200000      2.000000
  0.066667  0.166667 -0.100000      2.000000
  0.133333  0.133333  0.000000      2.000000
  0.120000  0.100000  0.100000      2.000000
  0.106667  0.066667  0.200000      2.000000
  0.160000  0.200000 -0.200000      2.000000
  0.146667  0.166667 -0.100000      2.000000
 -0.186667  0.133333  0.000000      2.000000
 -0.200000  0.100000  0.100000      2.000000
 -0.213333  0.066667  0.200000      2.000000
 -0.160000  0.200000 -0.200000      2.000000
 -0.173333  0.166667 -0.100000      2.000000
 -0.106667  0.133333  0.000000      2.000000
 -0.120000  0.100000  0.100000      2.000000
 -0.133333  0.066667  0.200000      2.000000
 -0.080000  0.200000 -0.200000      2.000000
 -0.093333  0.166667 -0.100000      2.000000
 


--------------------------------------------------------------------------------------------------------




 Dimension of arrays:
   k-points           NKPTS =     63   k-points in BZ     NKDIM =     63   number of bands    NBANDS=    128
   number of dos      NEDOS =    301   number of ions     NIONS =     30
   non local maximal  LDIM  =      6   non local SUM 2l+1 LMDIM =     18
   total plane-waves  NPLWV = 120000
   max r-space proj   IRMAX =   3971   max aug-charges    IRDMAX=  17218
   dimension x,y,z NGX =    40 NGY =   50 NGZ =   60
   dimension x,y,z NGXF=    80 NGYF=  100 NGZF=  120
   support grid    NGXF=    80 NGYF=  100 NGZF=  120
   ions per type =               6   6   6   6   6
   NGX,Y,Z   is equivalent  to a cutoff of  10.42, 10.03,  9.89 a.u.
   NGXF,Y,Z  is equivalent  to a cutoff of  20.85, 20.06, 19.78 a.u.

 SYSTEM =  Nb - Mo - Ta - Ti - W SQS               
 POSCAR =  Nb - Mo - Ta - Ti - W SQS-30 BCC        

 Startparameter for this run:
   NWRITE =      2    write-flag & timer
   PREC   = normal    normal or accurate (medium, high low for compatibility)
   ISTART =      1    job   : 0-new  1-cont  2-samecut
   ICHARG =      2    charge: 1-file 2-atom 10-const
   ISPIN  =      1    spin polarized calculation?
   LNONCOLLINEAR =      F non collinear calculations
   LSORBIT =      F    spin-orbit coupling
   INIWAV =      1    electr: 0-lowe 1-rand  2-diag
   LASPH  =      F    aspherical Exc in radial PAW
   METAGGA=      F    non-selfconsistent MetaGGA calc.

 Electronic Relaxation 1
   ENCUT  =  600.0 eV  44.10 Ry    6.64 a.u.  12.74 16.55 20.15*2*pi/ulx,y,z
   ENINI  =  600.0     initial cutoff
   ENAUG  =  455.7 eV  augmentation charge cutoff
   NELM   =     60;   NELMIN=  2; NELMDL=  0     # of ELM steps 
   EDIFF  = 0.1E-03   stopping-criterion for ELM
   LREAL  =      T    real-space projection
   NLSPLINE    = F    spline interpolate recip. space projectors
   LCOMPAT=      F    compatible to vasp.4.4
   GGA_COMPAT  = T    GGA compatible to vasp.4.4-vasp.4.6
   LMAXPAW     = -100 max onsite density
   LMAXMIX     =    2 max onsite mixed and CHGCAR
   VOSKOWN=      0    Vosko Wilk Nusair interpolation
   ROPT   =   -0.00050  -0.00050  -0.00050  -0.00050
   ROPT   =   -0.00050
 Ionic relaxation
   EDIFFG = 0.1E-02   stopping-criterion for IOM
   NSW    =     20    number of steps for IOM
   NBLOCK =      1;   KBLOCK =     20    inner block; outer block 
   IBRION =      2    ionic relax: 0-MD 1-quasi-New 2-CG
   NFREE  =      1    steps in history (QN), initial steepest desc. (CG)
   ISIF   =      3    stress and relaxation
   IWAVPR =     11    prediction:  0-non 1-charg 2-wave 3-comb
   ISYM   =      0    0-nonsym 1-usesym 2-fastsym
   LCORR  =      T    Harris-Foulkes like correction to forces

   POTIM  = 0.5000    time-step for ionic-motion
   TEIN   =    0.0    initial temperature
   TEBEG  =    0.0;   TEEND  =   0.0 temperature during run
   SMASS  =  -3.00    Nose mass-parameter (am)
   estimated Nose-frequenzy (Omega)   =  0.10E-29 period in steps =****** mass=  -0.930E-27a.u.
   SCALEE = 1.0000    scale energy and forces
   NPACO  =    256;   APACO  = 16.0  distance and # of slots for P.C.
   PSTRESS=    0.0 pullay stress

  Mass of Ions in am
   POMASS =  92.91 95.94180.95 47.88183.85
  Ionic Valenz
   ZVAL   =  13.00  6.00  5.00  4.00  6.00
  Atomic Wigner-Seitz radii
   RWIGS  =  -1.00 -1.00 -1.00 -1.00 -1.00
  virtual crystal weights 
   VCA    =   1.00  1.00  1.00  1.00  1.00
   NELECT =     204.0000    total number of electrons
   NUPDOWN=      -1.0000    fix difference up-down

 DOS related values:
   EMIN   =  10.00;   EMAX   =-10.00  energy-range for DOS
   EFERMI =   0.00
   ISMEAR =     1;   SIGMA  =   0.20  broadening in eV -4-tet -1-fermi 0-gaus

 Electronic relaxation 2 (details)
   IALGO  =     38    algorithm
   LDIAG  =      T    sub-space diagonalisation (order eigenvalues)
   LSUBROT=      F    optimize rotation matrix (better conditioning)
   TURBO    =      0    0=normal 1=particle mesh
   IRESTART =      0    0=no restart 2=restart with 2 vectors
   NREBOOT  =      0    no. of reboots
   NMIN     =      0    reboot dimension
   EREF     =   0.00    reference energy to select bands
   IMIX   =      4    mixing-type and parameters
     AMIX     =   0.40;   BMIX     =  1.00
     AMIX_MAG =   1.60;   BMIX_MAG =  1.00
     AMIN     =   0.10
     WC   =   100.;   INIMIX=   1;  MIXPRE=   1;  MAXMIX= -45

 Intra band minimization:
   WEIMIN = 0.0010     energy-eigenvalue tresh-hold
   EBREAK =  0.20E-06  absolut break condition
   DEPER  =   0.30     relativ break condition  

   TIME   =   0.40     timestep for ELM

  volume/ion in A,a.u.               =      16.23       109.53
  Fermi-wavevector in a.u.,A,eV,Ry     =   1.224984  2.314884 20.416713  1.500586
  Thomas-Fermi vector in A             =   2.360039
 
 Write flags
   LWAVE        =      T    write WAVECAR
   LDOWNSAMPLE  =      F    k-point downsampling of WAVECAR
   LCHARG       =      T    write CHGCAR
   LVTOT        =      F    write LOCPOT, total local potential
   LVHAR        =      F    write LOCPOT, Hartree potential only
   LELF         =      F    write electronic localiz. function (ELF)
   LORBIT       =      0    0 simple, 1 ext, 2 COOP (PROOUT), +10 PAW based schemes


 Dipole corrections
   LMONO  =      F    monopole corrections only (constant potential shift)
   LDIPOL =      F    correct potential (dipole corrections)
   IDIPOL =      0    1-x, 2-y, 3-z, 4-all directions 
   EPSILON=  1.0000000 bulk dielectric constant

 Exchange correlation treatment:
   GGA     =    PS    GGA type
   LEXCH   =    14    internal setting for exchange type
   VOSKOWN=      0    Vosko Wilk Nusair interpolation
   LHFCALC =     F    Hartree Fock is set to
   LHFONE  =     F    Hartree Fock one center treatment
   AEXX    =    0.0000 exact exchange contribution

 Linear response parameters
   LEPSILON=     F    determine dielectric tensor
   LRPA    =     F    only Hartree local field effects (RPA)
   LNABLA  =     F    use nabla operator in PAW spheres
   LVEL    =     F    velocity operator in full k-point grid
   LINTERFAST=   F  fast interpolation
   KINTER  =     0    interpolate to denser k-point grid
   CSHIFT  =0.1000    complex shift for real part using Kramers Kronig
   OMEGAMAX=  -1.0    maximum frequency
   DEG_THRESHOLD= 0.2000000E-02 threshold for treating states as degnerate
   RTIME   =   -0.100 relaxation time in fs
  (WPLASMAI=    0.000 imaginary part of plasma frequency in eV, 0.658/RTIME)
   DFIELD  = 0.0000000 0.0000000 0.0000000 field for delta impulse in time
 
 Orbital magnetization related:
   ORBITALMAG=     F  switch on orbital magnetization
   LCHIMAG   =     F  perturbation theory with respect to B field
   DQ        =  0.001000  dq finite difference perturbation B field
   LLRAUG    =     F  two centre corrections for induced B field



--------------------------------------------------------------------------------------------------------


 conjugate gradient relaxation of ions
 charge density and potential will be updated during run
 non-spin polarized calculation
 Variant of blocked Davidson
 Davidson routine will perform the subspace rotation
 perform sub-space diagonalisation
    after iterative eigenvector-optimisation
 modified Broyden-mixing scheme, WC =      100.0
 initial mixing is a Kerker type mixing with AMIX =  0.4000 and BMIX =      1.0000
 Hartree-type preconditioning will be used
 using additional bands           26
 real space projection scheme for non local part
 use partial core corrections
 calculate Harris-corrections to forces 
   (improved forces if not selfconsistent)
 use gradient corrections 
 use of overlap-Matrix (Vanderbilt PP)
 Methfessel and Paxton  Order N= 1 SIGMA  =   0.20


--------------------------------------------------------------------------------------------------------


  energy-cutoff  :      600.00
  volume of cell :      486.93
      direct lattice vectors                 reciprocal lattice vectors
     0.000000000  0.000000000  6.380000000    -0.020898642 -0.052246604  0.156739812
     7.975000000  1.595000000  1.595000000     0.125391850  0.000000000  0.000000000
     0.000000000  9.570000000  3.190000000    -0.020898642  0.104493208  0.000000000

  length of vectors
     6.380000000  8.287863114 10.087665736     0.166534770  0.125391850  0.106562581


 
 old parameters found on file WAVECAR:
  energy-cutoff  :      400.00
  volume of cell :      486.93
      direct lattice vectors                 reciprocal lattice vectors
     0.000000000  0.000000000  6.380000000    -0.020898642 -0.052246604  0.156739812
     7.975000000  1.595000000  1.595000000     0.125391850  0.000000000  0.000000000
     0.000000000  9.570000000  3.190000000    -0.020898642  0.104493208  0.000000000

  length of vectors

 
 k-points in units of 2pi/SCALE and weight: k-points                                
   0.00000000  0.00000000  0.00000000       0.008
  -0.01333333 -0.03333333  0.10000000       0.016
  -0.02666667 -0.06666667  0.20000000       0.016
   0.08000000  0.00000000  0.00000000       0.016
   0.06666667 -0.03333333  0.10000000       0.016
   0.05333333 -0.06666667  0.20000000       0.016
   0.10666667  0.06666667 -0.20000000       0.016
   0.09333333  0.03333333 -0.10000000       0.016
   0.16000000  0.00000000  0.00000000       0.016
   0.14666667 -0.03333333  0.10000000       0.016
   0.13333333 -0.06666667  0.20000000       0.016
   0.18666667  0.06666667 -0.20000000       0.016
   0.17333333  0.03333333 -0.10000000       0.016
  -0.01333333  0.06666667  0.00000000       0.016
  -0.02666667  0.03333333  0.10000000       0.016
  -0.04000000  0.00000000  0.20000000       0.016
   0.01333333  0.13333333 -0.20000000       0.016
   0.00000000  0.10000000 -0.10000000       0.016
   0.06666667  0.06666667  0.00000000       0.016
   0.05333333  0.03333333  0.10000000       0.016
   0.04000000  0.00000000  0.20000000       0.016
   0.09333333  0.13333333 -0.20000000       0.016
   0.08000000  0.10000000 -0.10000000       0.016
   0.14666667  0.06666667  0.00000000       0.016
   0.13333333  0.03333333  0.10000000       0.016
   0.12000000  0.00000000  0.20000000       0.016
   0.17333333  0.13333333 -0.20000000       0.016
   0.16000000  0.10000000 -0.10000000       0.016
  -0.17333333  0.06666667  0.00000000       0.016
  -0.18666667  0.03333333  0.10000000       0.016
  -0.20000000  0.00000000  0.20000000       0.016
  -0.14666667  0.13333333 -0.20000000       0.016
  -0.16000000  0.10000000 -0.10000000       0.016
  -0.09333333  0.06666667  0.00000000       0.016
  -0.10666667  0.03333333  0.10000000       0.016
  -0.12000000  0.00000000  0.20000000       0.016
  -0.06666667  0.13333333 -0.20000000       0.016
  -0.08000000  0.10000000 -0.10000000       0.016
  -0.02666667  0.13333333  0.00000000       0.016
  -0.04000000  0.10000000  0.10000000       0.016
  -0.05333333  0.06666667  0.20000000       0.016
   0.00000000  0.20000000 -0.20000000       0.016
  -0.01333333  0.16666667 -0.10000000       0.016
   0.05333333  0.13333333  0.00000000       0.016
   0.04000000  0.10000000  0.10000000       0.016
   0.02666667  0.06666667  0.20000000       0.016
   0.08000000  0.20000000 -0.20000000       0.016
   0.06666667  0.16666667 -0.10000000       0.016
   0.13333333  0.13333333  0.00000000       0.016
   0.12000000  0.10000000  0.10000000       0.016
   0.10666667  0.06666667  0.20000000       0.016
   0.16000000  0.20000000 -0.20000000       0.016
   0.14666667  0.16666667 -0.10000000       0.016
  -0.18666667  0.13333333  0.00000000       0.016
  -0.20000000  0.10000000  0.10000000       0.016
  -0.21333333  0.06666667  0.20000000       0.016
  -0.16000000  0.20000000 -0.20000000       0.016
  -0.17333333  0.16666667 -0.10000000       0.016
  -0.10666667  0.13333333  0.00000000       0.016
  -0.12000000  0.10000000  0.10000000       0.016
  -0.13333333  0.06666667  0.20000000       0.016
  -0.08000000  0.20000000 -0.20000000       0.016
  -0.09333333  0.16666667 -0.10000000       0.016
 
 k-points in reciprocal lattice and weights: k-points                                
   0.00000000  0.00000000  0.00000000       0.008
   0.20000000  0.00000000  0.00000000       0.016
   0.40000000  0.00000000  0.00000000       0.016
   0.00000000  0.20000000  0.00000000       0.016
   0.20000000  0.20000000  0.00000000       0.016
   0.40000000  0.20000000  0.00000000       0.016
  -0.40000000  0.20000000  0.00000000       0.016
  -0.20000000  0.20000000  0.00000000       0.016
   0.00000000  0.40000000  0.00000000       0.016
   0.20000000  0.40000000  0.00000000       0.016
   0.40000000  0.40000000  0.00000000       0.016
  -0.40000000  0.40000000  0.00000000       0.016
  -0.20000000  0.40000000  0.00000000       0.016
   0.00000000  0.00000000  0.20000000       0.016
   0.20000000 -0.00000000  0.20000000       0.016
   0.40000000  0.00000000  0.20000000       0.016
  -0.40000000  0.00000000  0.20000000       0.016
  -0.20000000  0.00000000  0.20000000       0.016
   0.00000000  0.20000000  0.20000000       0.016
   0.20000000  0.20000000  0.20000000       0.016
   0.40000000  0.20000000  0.20000000       0.016
  -0.40000000  0.20000000  0.20000000       0.016
  -0.20000000  0.20000000  0.20000000       0.016
   0.00000000  0.40000000  0.20000000       0.016
   0.20000000  0.40000000  0.20000000       0.016
   0.40000000  0.40000000  0.20000000       0.016
  -0.40000000  0.40000000  0.20000000       0.016
  -0.20000000  0.40000000  0.20000000       0.016
   0.00000000 -0.40000000  0.20000000       0.016
   0.20000000 -0.40000000  0.20000000       0.016
   0.40000000 -0.40000000  0.20000000       0.016
  -0.40000000 -0.40000000  0.20000000       0.016
  -0.20000000 -0.40000000  0.20000000       0.016
   0.00000000 -0.20000000  0.20000000       0.016
   0.20000000 -0.20000000  0.20000000       0.016
   0.40000000 -0.20000000  0.20000000       0.016
  -0.40000000 -0.20000000  0.20000000       0.016
  -0.20000000 -0.20000000  0.20000000       0.016
   0.00000000  0.00000000  0.40000000       0.016
   0.20000000  0.00000000  0.40000000       0.016
   0.40000000 -0.00000000  0.40000000       0.016
  -0.40000000  0.00000000  0.40000000       0.016
  -0.20000000  0.00000000  0.40000000       0.016
   0.00000000  0.20000000  0.40000000       0.016
   0.20000000  0.20000000  0.40000000       0.016
   0.40000000  0.20000000  0.40000000       0.016
  -0.40000000  0.20000000  0.40000000       0.016
  -0.20000000  0.20000000  0.40000000       0.016
   0.00000000  0.40000000  0.40000000       0.016
   0.20000000  0.40000000  0.40000000       0.016
   0.40000000  0.40000000  0.40000000       0.016
  -0.40000000  0.40000000  0.40000000       0.016
  -0.20000000  0.40000000  0.40000000       0.016
   0.00000000 -0.40000000  0.40000000       0.016
   0.20000000 -0.40000000  0.40000000       0.016
   0.40000000 -0.40000000  0.40000000       0.016
  -0.40000000 -0.40000000  0.40000000       0.016
  -0.20000000 -0.40000000  0.40000000       0.016
   0.00000000 -0.20000000  0.40000000       0.016
   0.20000000 -0.20000000  0.40000000       0.016
   0.40000000 -0.20000000  0.40000000       0.016
  -0.40000000 -0.20000000  0.40000000       0.016
  -0.20000000 -0.20000000  0.40000000       0.016
 
 position of ions in fractional coordinates (direct lattice) 
   0.00000000  0.00000000  0.00000000
   0.83333333  0.00000000  0.33333333
   0.10000000  0.40000000  0.60000000
   0.20000000  0.80000000  0.20000000
   0.80000000  0.20000000  0.80000000
   0.93333333  0.40000000  0.93333333
   0.50000000  0.00000000  0.00000000
   0.33333333  0.00000000  0.33333333
   0.46666667  0.20000000  0.46666667
   0.23333333  0.60000000  0.73333333
   0.73333333  0.60000000  0.73333333
   0.86666667  0.80000000  0.86666667
   0.13333333  0.20000000  0.13333333
   0.63333333  0.20000000  0.13333333
   0.66666667  0.00000000  0.66666667
   0.76666667  0.40000000  0.26666667
   0.40000000  0.60000000  0.40000000
   0.60000000  0.40000000  0.60000000
   0.16666667  0.00000000  0.66666667
   0.26666667  0.40000000  0.26666667
   0.30000000  0.20000000  0.80000000
   0.90000000  0.60000000  0.40000000
   0.53333333  0.80000000  0.53333333
   0.36666667  0.80000000  0.86666667
   0.06666667  0.60000000  0.06666667
   0.56666667  0.60000000  0.06666667
   0.96666667  0.20000000  0.46666667
   0.70000000  0.80000000  0.20000000
   0.03333333  0.80000000  0.53333333
   0.43333333  0.40000000  0.93333333
 
 position of ions in cartesian coordinates  (Angst):
   0.00000000  0.00000000  0.00000000
   0.00000000  3.18999997  6.37999997
   3.19000000  6.38000000  3.19000000
   6.38000000  3.19000000  3.19000000
   1.59500000  7.97500000  7.97500000
   3.19000000  9.56999997  9.56999997
   0.00000000  0.00000000  3.19000000
   0.00000000  3.18999997  3.18999997
   1.59500000  4.78500003  4.78500003
   4.78500000  7.97499997  4.78499997
   4.78500000  7.97499997  7.97499997
   6.38000000  9.57000003  9.57000003
   1.59500000  1.59499997  1.59499997
   1.59500000  1.59499997  4.78499997
   0.00000000  6.38000003  6.38000003
   3.19000000  3.19000003  6.38000003
   4.78500000  4.78500000  4.78500000
   3.19000000  6.38000000  6.38000000
   0.00000000  6.38000003  3.19000003
   3.19000000  3.19000003  3.19000003
   1.59500000  7.97500000  4.78500000
   4.78500000  4.78500000  7.97500000
   6.38000000  6.37999997  6.37999997
   6.38000000  9.57000003  6.38000003
   4.78500000  1.59500003  1.59500003
   4.78500000  1.59500003  4.78500003
   1.59500000  4.78500003  7.97500003
   6.38000000  3.19000000  6.38000000
   6.38000000  6.37999997  3.18999997
   3.19000000  9.56999997  6.37999997
 


--------------------------------------------------------------------------------------------------------


 k-point  1 :   0.0000 0.0000 0.0000  plane waves:   16269
 k-point  2 :   0.2000 0.0000 0.0000  plane waves:   16251
 k-point  3 :   0.4000 0.0000 0.0000  plane waves:   16258
 k-point  4 :   0.0000 0.2000 0.0000  plane waves:   16255
 k-point  5 :   0.2000 0.2000 0.0000  plane waves:   16246
 k-point  6 :   0.4000 0.2000 0.0000  plane waves:   16252
 k-point  7 :  -0.4000 0.2000 0.0000  plane waves:   16258
 k-point  8 :  -0.2000 0.2000 0.0000  plane waves:   16265
 k-point  9 :   0.0000 0.4000 0.0000  plane waves:   16236
 k-point 10 :   0.2000 0.4000 0.0000  plane waves:   16245
 k-point 11 :   0.4000 0.4000 0.0000  plane waves:   16249
 k-point 12 :  -0.4000 0.4000 0.0000  plane waves:   16253
 k-point 13 :  -0.2000 0.4000 0.0000  plane waves:   16250
 k-point 14 :   0.0000 0.0000 0.2000  plane waves:   16258
 k-point 15 :   0.2000-0.0000 0.2000  plane waves:   16252
 k-point 16 :   0.4000 0.0000 0.2000  plane waves:   16273
 k-point 17 :  -0.4000 0.0000 0.2000  plane waves:   16249
 k-point 18 :  -0.2000 0.0000 0.2000  plane waves:   16255
 k-point 19 :   0.0000 0.2000 0.2000  plane waves:   16269
 k-point 20 :   0.2000 0.2000 0.2000  plane waves:   16260
 k-point 21 :   0.4000 0.2000 0.2000  plane waves:   16259
 k-point 22 :  -0.4000 0.2000 0.2000  plane waves:   16262
 k-point 23 :  -0.2000 0.2000 0.2000  plane waves:   16257
 k-point 24 :   0.0000 0.4000 0.2000  plane waves:   16245
 k-point 25 :   0.2000 0.4000 0.2000  plane waves:   16247
 k-point 26 :   0.4000 0.4000 0.2000  plane waves:   16234
 k-point 27 :  -0.4000 0.4000 0.2000  plane waves:   16246
 k-point 28 :  -0.2000 0.4000 0.2000  plane waves:   16234
 k-point 29 :   0.0000-0.4000 0.2000  plane waves:   16250
 k-point 30 :   0.2000-0.4000 0.2000  plane waves:   16249
 k-point 31 :   0.4000-0.4000 0.2000  plane waves:   16244
 k-point 32 :  -0.4000-0.4000 0.2000  plane waves:   16228
 k-point 33 :  -0.2000-0.4000 0.2000  plane waves:   16237
 k-point 34 :   0.0000-0.2000 0.2000  plane waves:   16238
 k-point 35 :   0.2000-0.2000 0.2000  plane waves:   16256
 k-point 36 :   0.4000-0.2000 0.2000  plane waves:   16262
 k-point 37 :  -0.4000-0.2000 0.2000  plane waves:   16223
 k-point 38 :  -0.2000-0.2000 0.2000  plane waves:   16241
 k-point 39 :   0.0000 0.0000 0.4000  plane waves:   16261
 k-point 40 :   0.2000 0.0000 0.4000  plane waves:   16246
 k-point 41 :   0.4000-0.0000 0.4000  plane waves:   16280
 k-point 42 :  -0.4000 0.0000 0.4000  plane waves:   16247
 k-point 43 :  -0.2000 0.0000 0.4000  plane waves:   16255
 k-point 44 :   0.0000 0.2000 0.4000  plane waves:   16268
 k-point 45 :   0.2000 0.2000 0.4000  plane waves:   16243
 k-point 46 :   0.4000 0.2000 0.4000  plane waves:   16262
 k-point 47 :  -0.4000 0.2000 0.4000  plane waves:   16252
 k-point 48 :  -0.2000 0.2000 0.4000  plane waves:   16263
 k-point 49 :   0.0000 0.4000 0.4000  plane waves:   16270
 k-point 50 :   0.2000 0.4000 0.4000  plane waves:   16237
 k-point 51 :   0.4000 0.4000 0.4000  plane waves:   16231
 k-point 52 :  -0.4000 0.4000 0.4000  plane waves:   16241
 k-point 53 :  -0.2000 0.4000 0.4000  plane waves:   16238
 k-point 54 :   0.0000-0.4000 0.4000  plane waves:   16263
 k-point 55 :   0.2000-0.4000 0.4000  plane waves:   16240
 k-point 56 :   0.4000-0.4000 0.4000  plane waves:   16231
 k-point 57 :  -0.4000-0.4000 0.4000  plane waves:   16238
 k-point 58 :  -0.2000-0.4000 0.4000  plane waves:   16254
 k-point 59 :   0.0000-0.2000 0.4000  plane waves:   16265
 k-point 60 :   0.2000-0.2000 0.4000  plane waves:   16251
 k-point 61 :   0.4000-0.2000 0.4000  plane waves:   16269
 k-point 62 :  -0.4000-0.2000 0.4000  plane waves:   16237
 k-point 63 :  -0.2000-0.2000 0.4000  plane waves:   16258

 maximum and minimum number of plane-waves per node :      4115     4016

 maximum number of plane-waves:     16280
 maximum index in each direction: 
   IXMAX=   13   IYMAX=   16   IZMAX=   20
   IXMIN=  -13   IYMIN=  -16   IZMIN=  -20


 real space projection operators:
  total allocation   :      15539.02 KBytes
  max/ min on nodes  :       3900.05       3878.62


 parallel 3D FFT for wavefunctions:
    minimum data exchange during FFTs selected (reduces bandwidth)
 parallel 3D FFT for charge:
    minimum data exchange during FFTs selected (reduces bandwidth)


 total amount of memory used by VASP MPI-rank0   111304. kBytes
=======================================================================

   base      :      30000. kBytes
   nonlr-proj:       6807. kBytes
   fftplans  :       2123. kBytes
   grid      :       4126. kBytes
   one-center:        124. kBytes
   wavefun   :      68124. kBytes
 
     INWAV:  cpu time    5.0906: real time    6.1986
 Broyden mixing: mesh for mixing (old mesh)
   NGX = 25   NGY = 33   NGZ = 41
  (NGX  = 80   NGY  =100   NGZ  =120)
  gives a total of  33825 points

 initial charge density was supplied:
 charge density of overlapping atoms calculated
 number of electron     204.0000000 magnetization 
 keeping initial charge density in first step


--------------------------------------------------------------------------------------------------------


 Maximum index for non-local projection operator          977
 Maximum index for augmentation-charges         1136 (set IRDMAX)


--------------------------------------------------------------------------------------------------------


 First call to EWALD:  gamma=   0.225
 Maximum number of real-space cells 3x 3x 2
 Maximum number of reciprocal cells 2x 3x 3

    FEWALD:  cpu time    0.0029: real time    0.0029


--------------------------------------- Iteration      1(   1)  ---------------------------------------


    POTLOK:  cpu time    0.0254: real time    0.0315
    SETDIJ:  cpu time    0.0054: real time    0.0054
     EDDAV:  cpu time   19.8703: real time   19.9037
       DOS:  cpu time    0.0045: real time    0.0046
    CHARGE:  cpu time    0.5508: real time    0.5512
    MIXING:  cpu time    0.0013: real time    0.0015
    --------------------------------------------
      LOOP:  cpu time   20.4577: real time   20.4979

 eigenvalue-minimisations  : 17424
 total energy-change (2. order) :-0.3686674E+03  (-0.7863752E+01)
 number of electron     203.9999998 magnetization 
 augmentation part       22.7749474 magnetization 

 Broyden mixing:
  rms(total) = 0.81248E+01    rms(broyden)= 0.81248E+01
  rms(prec ) = 0.85363E+01
  weight for this iteration     100.00

 Free energy of the ion-electron system (eV)
  ---------------------------------------------------
  alpha Z        PSCENC =      1381.42178624
  Ewald energy   TEWEN  =    -12092.38474530
  -Hartree energ DENC   =     -3004.59813475
  -exchange      EXHF   =         0.00000000
  -V(xc)+E(xc)   XCENC  =      -902.57771330
  PAW double counting   =     12303.85264859   -10739.97191893
  entropy T*S    EENTRO =         0.00977817
  eigenvalues    EBANDS =      -525.41062495
  atomic energy  EATOM  =     13210.99149945
  Solvation  Ediel_sol  =         0.00000000
  ---------------------------------------------------
  free energy    TOTEN  =      -368.66742477 eV

  energy without entropy =     -368.67720294  energy(sigma->0) =     -368.67068416


--------------------------------------------------------------------------------------------------------




--------------------------------------- Iteration      1(   2)  ---------------------------------------


    POTLOK:  cpu time    0.0214: real time    0.0214
    SETDIJ:  cpu time    0.0048: real time    0.0048
     EDDAV:  cpu time   24.2121: real time   24.2458
       DOS:  cpu time    0.0042: real time    0.0042
    CHARGE:  cpu time    0.5523: real time    0.5528
    MIXING:  cpu time    0.0012: real time    0.0013
    --------------------------------------------
      LOOP:  cpu time   24.7960: real time   24.8304

 eigenvalue-minimisations  : 22176
 total energy-change (2. order) : 0.1100154E+02  (-0.9038910E+01)
 number of electron     203.9999999 magnetization 
 augmentation part       29.7105047 magnetization 

 Broyden mixing:
  rms(total) = 0.37267E+01    rms(broyden)= 0.37267E+01
  rms(prec ) = 0.51265E+01
  weight for this iteration     100.00

 eigenvalues of (default mixing * dielectric matrix)
  average eigenvalue GAMMA=   1.3601
  1.3601

 Free energy of the ion-electron system (eV)
  ---------------------------------------------------
  alpha Z        PSCENC =      1381.42178624
  Ewald energy   TEWEN  =    -12092.38474530
  -Hartree energ DENC   =     -2934.67506081
  -exchange      EXHF   =         0.00000000
  -V(xc)+E(xc)   XCENC  =      -899.78764774
  PAW double counting   =     16191.10509062   -14629.10439814
  entropy T*S    EENTRO =        -0.00852950
  eigenvalues    EBANDS =      -585.22388204
  atomic energy  EATOM  =     13210.99149945
  Solvation  Ediel_sol  =         0.00000000
  ---------------------------------------------------
  free energy    TOTEN  =      -357.66588721 eV

  energy without entropy =     -357.65735771  energy(sigma->0) =     -357.66304404


--------------------------------------------------------------------------------------------------------




--------------------------------------- Iteration      1(   3)  ---------------------------------------


    POTLOK:  cpu time    0.0312: real time    0.0327
    SETDIJ:  cpu time    0.0048: real time    0.0049
     EDDAV:  cpu time   24.2403: real time   24.2730
       DOS:  cpu time    0.0039: real time    0.0040
    CHARGE:  cpu time    0.5635: real time    0.5640
    MIXING:  cpu time    0.0010: real time    0.0008
    --------------------------------------------
      LOOP:  cpu time   24.8447: real time   24.8793

 eigenvalue-minimisations  : 22272
 total energy-change (2. order) :-0.1595434E+02  (-0.3430646E+02)
 number of electron     203.9999998 magnetization 
 augmentation part       24.6254004 magnetization 

 Broyden mixing:
  rms(total) = 0.26153E+01    rms(broyden)= 0.26153E+01
  rms(prec ) = 0.50086E+01
  weight for this iteration     100.00

 eigenvalues of (default mixing * dielectric matrix)
  average eigenvalue GAMMA=   1.0124
  1.6089  0.4158

 Free energy of the ion-electron system (eV)
  ---------------------------------------------------
  alpha Z        PSCENC =      1381.42178624
  Ewald energy   TEWEN  =    -12092.38474530
  -Hartree energ DENC   =     -2826.70271331
  -exchange      EXHF   =         0.00000000
  -V(xc)+E(xc)   XCENC  =      -900.97006958
  PAW double counting   =     18272.44991676   -16720.07149285
  entropy T*S    EENTRO =         0.00948748
  eigenvalues    EBANDS =      -698.36389987
  atomic energy  EATOM  =     13210.99149945
  Solvation  Ediel_sol  =         0.00000000
  ---------------------------------------------------
  free energy    TOTEN  =      -373.62023098 eV

  energy without entropy =     -373.62971846  energy(sigma->0) =     -373.62339347


--------------------------------------------------------------------------------------------------------




--------------------------------------- Iteration      1(   4)  ---------------------------------------


    POTLOK:  cpu time    0.0239: real time    0.0279
    SETDIJ:  cpu time    0.0048: real time    0.0048
     EDDAV:  cpu time   24.2747: real time   24.3084
       DOS:  cpu time    0.0044: real time    0.0044
    CHARGE:  cpu time    0.5602: real time    0.5607
    MIXING:  cpu time    0.0009: real time    0.0009
    --------------------------------------------
      LOOP:  cpu time   24.8690: real time   24.9072

 eigenvalue-minimisations  : 22160
 total energy-change (2. order) : 0.2136246E+02  (-0.3799130E+01)
 number of electron     203.9999998 magnetization 
 augmentation part       25.5071217 magnetization 

 Broyden mixing:
  rms(total) = 0.14719E+01    rms(broyden)= 0.14719E+01
  rms(prec ) = 0.25505E+01
  weight for this iteration     100.00

 eigenvalues of (default mixing * dielectric matrix)
  average eigenvalue GAMMA=   0.9259
  1.7681  0.5049  0.5049

 Free energy of the ion-electron system (eV)
  ---------------------------------------------------
  alpha Z        PSCENC =      1381.42178624
  Ewald energy   TEWEN  =    -12092.38474530
  -Hartree energ DENC   =     -2829.76840611
  -exchange      EXHF   =         0.00000000
  -V(xc)+E(xc)   XCENC  =      -898.99084242
  PAW double counting   =     19980.48086590   -18428.36290027
  entropy T*S    EENTRO =         0.00500575
  eigenvalues    EBANDS =      -675.65003178
  atomic energy  EATOM  =     13210.99149945
  Solvation  Ediel_sol  =         0.00000000
  ---------------------------------------------------
  free energy    TOTEN  =      -352.25776854 eV

  energy without entropy =     -352.26277429  energy(sigma->0) =     -352.25943712


--------------------------------------------------------------------------------------------------------




--------------------------------------- Iteration      1(   5)  ---------------------------------------


    POTLOK:  cpu time    0.0343: real time    0.0347
    SETDIJ:  cpu time    0.0100: real time    0.0100
     EDDAV:  cpu time   24.4929: real time   24.5264
       DOS:  cpu time    0.0044: real time    0.0044
    CHARGE:  cpu time    0.5593: real time    0.5597
    MIXING:  cpu time    0.0009: real time    0.0009
    --------------------------------------------
      LOOP:  cpu time   25.1018: real time   25.1361

 eigenvalue-minimisations  : 22408
 total energy-change (2. order) : 0.4759517E+01  (-0.9672277E+00)
 number of electron     203.9999998 magnetization 
 augmentation part       26.1764060 magnetization 

 Broyden mixing:
  rms(total) = 0.82423E+00    rms(broyden)= 0.82423E+00
  rms(prec ) = 0.14485E+01
  weight for this iteration     100.00

 eigenvalues of (default mixing * dielectric matrix)
  average eigenvalue GAMMA=   0.8434
  1.8257  0.5851  0.5851  0.3777

 Free energy of the ion-electron system (eV)
  ---------------------------------------------------
  alpha Z        PSCENC =      1381.42178624
  Ewald energy   TEWEN  =    -12092.38474530
  -Hartree energ DENC   =     -2836.98927837
  -exchange      EXHF   =         0.00000000
  -V(xc)+E(xc)   XCENC  =      -898.03027260
  PAW double counting   =     20645.29603069   -19091.91696909
  entropy T*S    EENTRO =         0.00152320
  eigenvalues    EBANDS =      -665.88782557
  atomic energy  EATOM  =     13210.99149945
  Solvation  Ediel_sol  =         0.00000000
  ---------------------------------------------------
  free energy    TOTEN  =      -347.49825136 eV

  energy without entropy =     -347.49977456  energy(sigma->0) =     -347.49875910


--------------------------------------------------------------------------------------------------------




--------------------------------------- Iteration      1(   6)  ---------------------------------------


    POTLOK:  cpu time    0.0241: real time    0.0257
    SETDIJ:  cpu time    0.0050: real time    0.0050
     EDDAV:  cpu time   26.9516: real time   26.9954
       DOS:  cpu time    0.0046: real time    0.0046
    CHARGE:  cpu time    0.5669: real time    0.5675
    MIXING:  cpu time    0.0010: real time    0.0010
    --------------------------------------------
      LOOP:  cpu time   27.5531: real time   27.5990

 eigenvalue-minimisations  : 25048
 total energy-change (2. order) : 0.8850920E+00  (-0.3980209E+00)
 number of electron     203.9999998 magnetization 
 augmentation part       26.7541370 magnetization 

 Broyden mixing:
  rms(total) = 0.47972E+00    rms(broyden)= 0.47972E+00
  rms(prec ) = 0.76125E+00
  weight for this iteration     100.00

 eigenvalues of (default mixing * dielectric matrix)
  average eigenvalue GAMMA=   0.8184
  1.9013  0.6943  0.6943  0.4730  0.3291

 Free energy of the ion-electron system (eV)
  ---------------------------------------------------
  alpha Z        PSCENC =      1381.42178624
  Ewald energy   TEWEN  =    -12092.38474530
  -Hartree energ DENC   =     -2840.44882322
  -exchange      EXHF   =         0.00000000
  -V(xc)+E(xc)   XCENC  =      -897.53953709
  PAW double counting   =     20971.20289830   -19416.59862118
  entropy T*S    EENTRO =        -0.00381549
  eigenvalues    EBANDS =      -663.25380112
  atomic energy  EATOM  =     13210.99149945
  Solvation  Ediel_sol  =         0.00000000
  ---------------------------------------------------
  free energy    TOTEN  =      -346.61315940 eV

  energy without entropy =     -346.60934391  energy(sigma->0) =     -346.61188757


--------------------------------------------------------------------------------------------------------




--------------------------------------- Iteration      1(   7)  ---------------------------------------


    POTLOK:  cpu time    0.0241: real time    0.0286
    SETDIJ:  cpu time    0.0048: real time    0.0048
     EDDAV:  cpu time   25.4144: real time   25.4491
       DOS:  cpu time    0.0044: real time    0.0044
    CHARGE:  cpu time    0.5645: real time    0.5650
    MIXING:  cpu time    0.0012: real time    0.0012
    --------------------------------------------
      LOOP:  cpu time   26.0135: real time   26.0531

 eigenvalue-minimisations  : 23360
 total energy-change (2. order) : 0.2458313E+00  (-0.1748871E+00)
 number of electron     203.9999998 magnetization 
 augmentation part       27.1065170 magnetization 

 Broyden mixing:
  rms(total) = 0.24323E+00    rms(broyden)= 0.24323E+00
  rms(prec ) = 0.36163E+00
  weight for this iteration     100.00

 eigenvalues of (default mixing * dielectric matrix)
  average eigenvalue GAMMA=   0.8762
  2.0892  1.2880  0.6002  0.6002  0.4328  0.2465

 Free energy of the ion-electron system (eV)
  ---------------------------------------------------
  alpha Z        PSCENC =      1381.42178624
  Ewald energy   TEWEN  =    -12092.38474530
  -Hartree energ DENC   =     -2843.46870869
  -exchange      EXHF   =         0.00000000
  -V(xc)+E(xc)   XCENC  =      -897.15961097
  PAW double counting   =     21238.67043679   -19682.72676762
  entropy T*S    EENTRO =        -0.01000037
  eigenvalues    EBANDS =      -661.70121765
  atomic energy  EATOM  =     13210.99149945
  Solvation  Ediel_sol  =         0.00000000
  ---------------------------------------------------
  free energy    TOTEN  =      -346.36732812 eV

  energy without entropy =     -346.35732775  energy(sigma->0) =     -346.36399467


--------------------------------------------------------------------------------------------------------




--------------------------------------- Iteration      1(   8)  ---------------------------------------


    POTLOK:  cpu time    0.0204: real time    0.0220
    SETDIJ:  cpu time    0.0048: real time    0.0048
     EDDAV:  cpu time   26.5506: real time   26.5871
       DOS:  cpu time    0.0039: real time    0.0039
    CHARGE:  cpu time    0.5647: real time    0.5652
    MIXING:  cpu time    0.0012: real time    0.0012
    --------------------------------------------
      LOOP:  cpu time   27.1456: real time   27.1842

 eigenvalue-minimisations  : 24688
 total energy-change (2. order) : 0.1533910E-01  (-0.6373131E-01)
 number of electron     203.9999998 magnetization 
 augmentation part       27.1951412 magnetization 

 Broyden mixing:
  rms(total) = 0.16778E+00    rms(broyden)= 0.16778E+00
  rms(prec ) = 0.31325E+00
  weight for this iteration     100.00

 eigenvalues of (default mixing * dielectric matrix)
  average eigenvalue GAMMA=   0.8555
  2.1782  1.4793  0.6209  0.6209  0.4757  0.3857  0.2274

 Free energy of the ion-electron system (eV)
  ---------------------------------------------------
  alpha Z        PSCENC =      1381.42178624
  Ewald energy   TEWEN  =    -12092.38474530
  -Hartree energ DENC   =     -2844.07497211
  -exchange      EXHF   =         0.00000000
  -V(xc)+E(xc)   XCENC  =      -896.86034957
  PAW double counting   =     21475.87975991   -19918.33278400
  entropy T*S    EENTRO =        -0.00709214
  eigenvalues    EBANDS =      -662.98509150
  atomic energy  EATOM  =     13210.99149945
  Solvation  Ediel_sol  =         0.00000000
  ---------------------------------------------------
  free energy    TOTEN  =      -346.35198902 eV

  energy without entropy =     -346.34489687  energy(sigma->0) =     -346.34962497


--------------------------------------------------------------------------------------------------------




--------------------------------------- Iteration      1(   9)  ---------------------------------------


    POTLOK:  cpu time    0.0234: real time    0.0238
    SETDIJ:  cpu time    0.0048: real time    0.0048
     EDDAV:  cpu time   25.7051: real time   25.7411
       DOS:  cpu time    0.0043: real time    0.0043
    CHARGE:  cpu time    0.5666: real time    0.5671
    MIXING:  cpu time    0.0012: real time    0.0012
    --------------------------------------------
      LOOP:  cpu time   26.3053: real time   26.3422

 eigenvalue-minimisations  : 23648
 total energy-change (2. order) : 0.2003124E-01  (-0.4920621E-01)
 number of electron     203.9999998 magnetization 
 augmentation part       27.2321995 magnetization 

 Broyden mixing:
  rms(total) = 0.12108E+00    rms(broyden)= 0.12108E+00
  rms(prec ) = 0.22371E+00
[...]
     10     -23.4029      2.00000
     11     -23.2998      2.00000
     12     -23.2763      2.00000
     13     -23.2636      2.00000
     14     -23.2457      2.00000
     15     -23.2351      2.00000
     16     -23.2000      2.00000
     17     -23.1701      2.00000
     18     -23.1588      2.00000
     19     -23.0738      2.00000
     20     -23.0492      2.00000
     21     -22.9837      2.00000
     22     -22.9519      2.00000
     23     -22.8676      2.00000
     24     -22.6681      2.00000
     25       0.2108      2.00000
     26       0.6443      2.00000
     27       1.8771      2.00000
     28       2.2856      2.00000
     29       2.4044      2.00000
     30       2.5407      2.00000
     31       2.6376      2.00000
     32       2.7223      2.00000
     33       2.7709      2.00000
     34       2.8337      2.00000
     35       3.0220      2.00000
     36       3.0920      2.00000
     37       3.1549      2.00000
     38       3.1804      2.00000
     39       3.2814      2.00000
     40       3.2933      2.00000
     41       3.3766      2.00000
     42       3.4502      2.00000
     43       3.5131      2.00000
     44       3.5470      2.00000
     45       3.5845      2.00000
     46       3.6570      2.00000
     47       3.7320      2.00000
     48       3.8215      2.00000
     49       3.9138      2.00000
     50       3.9647      2.00000
     51       4.0381      2.00000
     52       4.1351      2.00000
     53       4.1516      2.00000
     54       4.2649      2.00000
     55       4.3029      2.00000
     56       4.3747      2.00000
     57       4.4253      2.00000
     58       4.4478      2.00000
     59       4.7314      2.00000
     60       4.7939      2.00000
     61       4.8513      2.00000
     62       4.9294      2.00000
     63       4.9986      2.00000
     64       5.0781      2.00000
     65       5.1030      2.00000
     66       5.1657      2.00000
     67       5.2286      2.00000
     68       5.2593      2.00000
     69       5.2850      2.00000
     70       5.3452      2.00000
     71       5.3779      2.00000
     72       5.4082      2.00000
     73       5.4505      2.00000
     74       5.4877      2.00000
     75       5.5232      2.00000
     76       5.6203      2.00000
     77       5.6412      2.00000
     78       5.6938      2.00000
     79       5.7873      2.00000
     80       5.8843      2.00000
     81       5.9226      2.00000
     82       5.9901      2.00000
     83       6.0244      2.00000
     84       6.0604      2.00000
     85       6.1223      2.00000
     86       6.1517      2.00000
     87       6.1965      2.00000
     88       6.2489      2.00001
     89       6.2875      2.00004
     90       6.3278      2.00015
     91       6.3594      2.00035
     92       6.4227      2.00169
     93       6.4571      2.00361
     94       6.4982      2.00818
     95       6.5415      2.01726
     96       6.5934      2.03567
     97       6.6936      2.07089
     98       6.7520      2.03047
     99       6.7756      1.98288
    100       6.8253      1.79949
    101       6.8771      1.48063
    102       6.9913      0.55628
    103       7.0285      0.30656
    104       7.0757      0.08383
    105       7.1491     -0.06087
    106       7.3253     -0.01914
    107       7.3759     -0.00807
    108       7.4049     -0.00457
    109       7.7046     -0.00000
    110       7.7659     -0.00000
    111       7.8962     -0.00000
    112       8.0375     -0.00000
    113       8.0953     -0.00000
    114       8.2013     -0.00000
    115       8.3061     -0.00000
    116       8.3583     -0.00000
    117       8.4581     -0.00000
    118       8.4797     -0.00000
    119       8.5437     -0.00000
    120       8.5890     -0.00000
    121       8.6749     -0.00000
    122       8.7721     -0.00000
    123       8.8975     -0.00000
    124       8.9539     -0.00000
    125       9.0059     -0.00000
    126       9.0534     -0.00000
    127       9.1164     -0.00000
    128       9.2016     -0.00000


--------------------------------------------------------------------------------------------------------


 soft charge-density along one line, spin component           1
         0         1         2         3         4         5         6         7         8         9
 total charge-density along one line
 
 pseudopotential strength for first ion, spin component:           1
  5.488 -20.792  -0.001  -0.000  -0.000   0.003   0.001   0.001
-20.792   9.685  -0.003  -0.000  -0.001   0.000   0.000   0.000
 -0.001  -0.003 -10.438   0.000   0.000   6.670   0.000  -0.000
 -0.000  -0.000   0.000 -10.436  -0.001   0.000   6.668   0.001
 -0.000  -0.001   0.000  -0.001 -10.438  -0.000   0.001   6.670
  0.003   0.000   6.670   0.000  -0.000   7.522  -0.000  -0.000
  0.001   0.000   0.000   6.668   0.001  -0.000   7.524  -0.001
  0.001   0.000  -0.000   0.001   6.670  -0.000  -0.001   7.522
  0.000   0.000   0.000   0.000  -0.002   0.000  -0.000   0.001
  0.000  -0.000   0.000  -0.002   0.000   0.000   0.001  -0.000
  0.001   0.000   0.000  -0.001   0.000  -0.001   0.001  -0.000
 -0.000  -0.000   0.000  -0.001   0.000  -0.000   0.001   0.001
  0.000   0.000   0.001  -0.000  -0.001  -0.001   0.000   0.001
  0.000   0.000   0.000   0.000  -0.002   0.000  -0.000   0.002
  0.000  -0.000   0.000  -0.002   0.000   0.001   0.002  -0.000
  0.001   0.001   0.001  -0.001   0.000  -0.001   0.001  -0.000
 -0.000  -0.000   0.000  -0.001   0.000  -0.000   0.001   0.001
  0.000   0.000   0.001  -0.000  -0.001  -0.001   0.000   0.001
 total augmentation occupancy for first ion, spin component:           1
  1.996  -0.035  -0.000   0.000   0.000  -0.001   0.000   0.000  -0.004   0.004   0.003  -0.003   0.001   0.003  -0.003  -0.003
 -0.035   1.534  -0.002   0.004   0.002  -0.000  -0.009  -0.005  -0.011   0.032  -0.001   0.022  -0.005   0.006  -0.017  -0.006
 -0.000  -0.002   1.998  -0.000   0.000  -0.024   0.000  -0.001   0.002   0.008   0.002  -0.004   0.002   0.001  -0.003  -0.002
  0.000   0.004  -0.000   1.998   0.000   0.000  -0.024  -0.001  -0.003  -0.011   0.002  -0.003  -0.001   0.002   0.006  -0.001
  0.000   0.002   0.000   0.000   1.999  -0.001  -0.001  -0.024  -0.014  -0.003  -0.003   0.005   0.001   0.008   0.002   0.001
 -0.001  -0.000  -0.024   0.000  -0.001   0.069   0.001   0.001  -0.015  -0.027  -0.000   0.006  -0.002   0.007   0.014   0.001
  0.000  -0.009   0.000  -0.024  -0.001   0.001   0.069   0.002   0.001   0.024  -0.004  -0.001   0.003  -0.002  -0.013   0.005
  0.000  -0.005  -0.001  -0.001  -0.024   0.001   0.002   0.070   0.025   0.001   0.008  -0.021  -0.003  -0.012  -0.001  -0.005
 -0.004  -0.011   0.002  -0.003  -0.014  -0.015   0.001   0.025   2.855   0.048   0.041   0.094   0.003  -1.117  -0.029  -0.019
  0.004   0.032   0.008  -0.011  -0.003  -0.027   0.024   0.001   0.048   2.927   0.012  -0.031  -0.002  -0.029  -1.145  -0.010
  0.003  -0.001   0.002   0.002  -0.003  -0.000  -0.004   0.008   0.041   0.012   2.493  -0.000  -0.012  -0.019  -0.010  -1.071
 -0.003   0.022  -0.004  -0.003   0.005   0.006  -0.001  -0.021   0.094  -0.031  -0.000   3.007  -0.026  -0.041   0.015  -0.002
  0.001  -0.005   0.002  -0.001   0.001  -0.002   0.003  -0.003   0.003  -0.002  -0.012  -0.026   2.483  -0.001   0.012   0.012
  0.003   0.006   0.001   0.002   0.008   0.007  -0.002  -0.012  -1.117  -0.029  -0.019  -0.041  -0.001   0.453   0.014   0.009
 -0.003  -0.017  -0.003   0.006   0.002   0.014  -0.013  -0.001  -0.029  -1.145  -0.010   0.015   0.012   0.014   0.465   0.006
 -0.003  -0.006  -0.002  -0.001   0.001   0.001   0.005  -0.005  -0.019  -0.010  -1.071  -0.002   0.012   0.009   0.006   0.470
  0.002  -0.016   0.002   0.002  -0.002  -0.003   0.002   0.012  -0.041   0.015  -0.002  -1.182   0.006   0.018  -0.007   0.002
 -0.001  -0.006  -0.002   0.001  -0.000   0.004  -0.001   0.004  -0.001   0.012   0.012   0.006  -1.056   0.000  -0.009  -0.009


------------------------ aborting loop because EDIFF is reached ----------------------------------------


    CHARGE:  cpu time    0.5568: real time    0.5574
    FORLOC:  cpu time    0.0060: real time    0.0060
    FORNL :  cpu time    3.7920: real time    3.7957
    STRESS:  cpu time   11.3591: real time   11.3760
    FORCOR:  cpu time    0.0266: real time    0.0276
    FORHAR:  cpu time    0.0097: real time    0.0097
    MIXING:  cpu time    0.0009: real time    0.0009
    OFIELD:  cpu time    0.0000: real time    0.0000

  FORCE on cell =-STRESS in cart. coord.  units (eV):
  Direction    XX          YY          ZZ          XY          YZ          ZX
  --------------------------------------------------------------------------------------
  Alpha Z  1382.05219  1382.05219  1382.05219
  Ewald   -4017.13451 -4055.96444 -4054.67470   -29.93190   149.31840    -5.03143
  Hartree   965.24909   922.32285   924.32095   -37.86889   111.05822   -12.87973
  E(xc)    -922.35419  -922.35938  -922.24976     0.87052    -0.05257    -0.36463
  Local    -291.02145  -210.23116  -212.16458    68.51303  -261.96044    18.30877
  n-local  -342.33868  -343.49369  -340.09126     3.72432    -2.01045    -1.12191
  augment   245.37769   245.53896   244.94341    -0.62498     0.38603     0.20265
  Kinetic  2980.68185  2982.57959  2978.28145    -4.69307     3.26929     0.88792
  Fock        0.00000     0.00000     0.00000     0.00000     0.00000     0.00000
  -------------------------------------------------------------------------------------
  Total       0.51200     0.44491     0.41770    -0.01099     0.00849     0.00165
  in kB       1.68544     1.46461     1.37501    -0.03616     0.02796     0.00542
  external pressure =        1.51 kB  Pullay stress =        0.00 kB


 VOLUME and BASIS-vectors are now :
 -----------------------------------------------------------------------------
  energy-cutoff  :      600.00
  volume of cell :      486.70
      direct lattice vectors                 reciprocal lattice vectors
    -0.013440515 -0.007014076  6.379577676    -0.020412037 -0.052034627  0.156649974
     7.976741163  1.616402164  1.576319550     0.125388231 -0.000374431  0.000263757
     0.021867694  9.562496533  3.179236424    -0.021210045  0.104600326  0.000070318

  length of vectors
     6.379595690  8.290110907 10.077170356     0.166323384  0.125389068  0.106729092


 FORCES acting on ions
    electron-ion (+dipol)            ewald-force                    non-local-force                 convergence-correction
 -----------------------------------------------------------------------------------------------
   0.622E+02 0.101E+03 -.492E+02   -.625E+02 -.101E+03 0.486E+02   0.266E+00 -.115E+00 0.582E+00   0.853E-02 -.858E-01 -.353E-01
   -.433E+02 -.210E+03 0.864E+02   0.432E+02 0.211E+03 -.863E+02   0.860E-01 -.416E+00 -.163E+00   -.786E-02 0.120E-01 -.660E-02
   -.720E+02 0.219E+03 -.849E+02   0.717E+02 -.219E+03 0.849E+02   0.353E+00 0.414E+00 0.192E-01   -.790E-01 0.684E-01 -.194E-01
   0.196E+03 -.711E+02 -.121E+03   -.196E+03 0.703E+02 0.121E+03   0.259E+00 0.770E+00 -.400E+00   0.779E-01 -.429E-01 0.581E-03
   0.552E+02 0.160E+03 0.197E+03   -.551E+02 -.159E+03 -.197E+03   -.995E-01 -.433E+00 0.694E+00   -.841E-01 -.548E-01 0.632E-01
   -.116E+03 -.137E+03 -.811E+02   0.117E+03 0.137E+03 0.811E+02   -.587E+00 -.390E+00 0.535E-01   -.223E-01 -.398E-01 -.237E-01
   0.502E+01 0.244E+02 0.257E+02   -.555E+01 -.246E+02 -.255E+02   0.529E+00 0.303E+00 -.183E+00   -.925E-03 -.218E-01 0.135E-01
   -.210E+02 -.695E+02 -.392E+02   0.210E+02 0.699E+02 0.392E+02   0.153E-01 -.388E+00 0.496E-01   -.149E-01 0.278E-01 0.118E-02
   -.564E+01 -.346E+01 -.222E+01   0.571E+01 0.333E+01 0.216E+01   -.168E-01 0.835E-01 0.595E-01   -.513E-01 0.492E-01 -.131E-01
   -.886E+02 0.442E+02 -.876E+02   0.886E+02 -.443E+02 0.875E+02   -.190E-01 0.166E+00 0.122E+00   0.415E-01 0.328E-02 -.637E-03
   -.117E+03 0.408E+02 0.862E+02   0.117E+03 -.411E+02 -.861E+02   0.133E+00 0.278E+00 -.967E-01   0.142E-01 0.504E-02 -.932E-04
   0.140E+02 0.772E+02 0.291E+02   -.143E+02 -.771E+02 -.293E+02   0.249E+00 -.353E-01 0.136E+00   0.465E-01 -.270E-01 0.225E-01
   -.675E+02 -.602E+02 -.676E+02   0.673E+02 0.599E+02 0.678E+02   0.180E+00 0.383E+00 -.297E+00   -.227E-01 -.217E-01 -.999E-02
   -.513E+02 -.908E+02 0.671E+02   0.512E+02 0.904E+02 -.674E+02   0.102E+00 0.398E+00 0.254E+00   -.235E-01 -.303E-01 0.108E-01
   0.372E+02 0.202E+02 0.549E+02   -.370E+02 -.206E+02 -.545E+02   -.199E+00 0.441E+00 -.474E+00   -.839E-02 0.121E-01 0.105E-01
   -.251E+02 -.545E+02 0.755E+00   0.250E+02 0.545E+02 -.729E+00   0.142E+00 0.739E-01 -.774E-02   -.970E-02 -.585E-02 -.175E-02
   0.266E+02 -.141E+02 -.599E+02   -.265E+02 0.141E+02 0.599E+02   -.163E+00 0.493E-01 0.821E-02   0.206E-01 0.248E-01 0.836E-02
   -.428E+02 0.610E+02 0.320E+02   0.429E+02 -.611E+02 -.320E+02   -.134E+00 0.147E+00 0.301E-01   -.126E-01 0.181E-01 0.696E-02
   0.488E+02 0.509E+02 -.432E+02   -.486E+02 -.508E+02 0.432E+02   -.138E+00 -.560E-01 0.646E-01   -.573E-02 0.130E-01 -.466E-02
   0.116E+02 -.401E+01 -.651E+00   -.112E+02 0.410E+01 0.685E+00   -.358E+00 -.819E-01 -.493E-01   -.106E-01 -.203E-02 0.222E-02
   0.211E+02 0.557E+02 -.538E+02   -.212E+02 -.555E+02 0.540E+02   0.765E-01 -.200E+00 -.231E+00   -.232E-01 -.133E-01 -.166E-01
   0.379E+02 -.974E+01 0.485E+02   -.377E+02 0.967E+01 -.487E+02   -.232E+00 0.514E-01 0.153E+00   0.123E-01 0.187E-01 -.714E-02
   0.106E+02 -.211E+02 0.176E+02   -.107E+02 0.212E+02 -.178E+02   0.231E-01 -.105E+00 0.171E+00   0.219E-01 0.254E-01 -.156E-01
   0.551E+01 0.737E+02 -.168E+02   -.569E+01 -.737E+02 0.169E+02   0.147E+00 -.285E-01 -.103E+00   0.247E-01 -.185E-01 -.138E-01
   0.582E+02 -.278E+02 -.172E+02   -.581E+02 0.282E+02 0.172E+02   -.868E-01 -.346E+00 0.513E-01   0.347E-01 -.364E-01 -.116E-01
   0.250E+02 -.334E+02 0.181E+02   -.252E+02 0.337E+02 -.180E+02   0.202E+00 -.300E+00 -.570E-01   0.283E-01 -.325E-01 0.115E-01
   -.242E+02 0.281E+02 0.156E+01   0.246E+02 -.282E+02 -.161E+01   -.302E+00 0.396E-01 0.349E-01   -.532E-01 0.596E-01 0.120E-01
   0.970E+02 -.651E+02 0.546E+02   -.971E+02 0.651E+02 -.547E+02   0.550E-01 -.104E-01 0.864E-01   0.288E-01 -.166E-01 0.820E-03
   0.268E+01 -.499E+02 -.318E+02   -.294E+01 0.497E+02 0.318E+02   0.226E+00 0.131E+00 -.169E-01   0.347E-01 0.477E-01 0.233E-01
   -.400E+02 -.334E+02 0.363E+02   0.405E+02 0.337E+02 -.363E+02   -.563E+00 -.259E+00 -.197E-01   -.200E-02 -.233E-01 0.955E-02
 -----------------------------------------------------------------------------------------------
   -.650E-01 -.478E+00 -.446E+00   -.199E-12 0.568E-13 0.135E-12   0.145E+00 0.566E+00 0.471E+00   -.375E-01 -.874E-01 0.170E-01
 
 
 POSITION                                       TOTAL-FORCE (eV/Angst)
 -----------------------------------------------------------------------------------
     -0.05384     -0.04230     -0.02790         0.001735      0.005653     -0.002310
     -0.03227      3.21724      6.36369         0.006148      0.007199     -0.014840
      3.18115      6.36756      3.17942         0.023253     -0.010427      0.007378
      6.37601      3.13728      3.18327         0.000044     -0.015135     -0.003680
      1.60818      8.00370      7.92547        -0.006190     -0.002148      0.001360
      3.26039      9.55044      9.54770         0.000398      0.003757     -0.001266
     -0.03193     -0.00868      3.20572        -0.006452      0.000712     -0.008516
      0.01644      3.24058      3.18095        -0.012129      0.003559     -0.012362
      1.57521      4.79017      4.76287         0.002866     -0.001246     -0.008600
      4.81249      7.98508      4.76078        -0.016404      0.004921      0.021124
      4.82715      7.97288      7.96912         0.007396      0.015105      0.003233
      6.36009      9.58128      9.53572        -0.014811     -0.004879     -0.009407
      1.57770      1.55113      1.63217        -0.006830      0.024061     -0.026104
      1.55549      1.57709      4.72251        -0.011777      0.005723     -0.005681
      0.03693      6.33536      6.41470        -0.008669     -0.000247     -0.004233
      3.17624      3.19967      6.36654         0.013412     -0.006132      0.015871
      4.84543      4.77955      4.76003         0.019851      0.031802      0.014553
      3.21075      6.38891      6.36133         0.003123      0.000536      0.026125
      0.01818      6.35232      3.13151         0.003475     -0.003540      0.007296
      3.17661      3.19508      3.18504        -0.000194      0.000735     -0.014833
      1.58168      8.05228      4.81548        -0.002280     -0.022204     -0.010271
      4.84285      4.78587      7.99246        -0.002493      0.004723      0.004612
      6.31518      6.48883      6.34654        -0.002632      0.009666      0.017440
      6.36123      9.55338      6.37402        -0.014563      0.003918     -0.011784
      4.78117      1.60667      1.57647         0.020548     -0.013417      0.015593
      4.78354      1.59488      4.78764         0.003375     -0.029766     -0.014667
      1.60137      4.75135      7.97622        -0.004874     -0.004438      0.002775
      6.38110      3.17918      6.34078        -0.001356     -0.017815     -0.001740
      6.39469      6.39876      3.19461         0.007712      0.015668      0.010889
      3.29295      9.58453      6.36416        -0.001685     -0.006345      0.002045
 -----------------------------------------------------------------------------------
    total drift:                                0.042677      0.001072      0.041512


--------------------------------------------------------------------------------------------------------



  FREE ENERGIE OF THE ION-ELECTRON SYSTEM (eV)
  ---------------------------------------------------
  free  energy   TOTEN  =      -346.80018846 eV

  energy  without entropy=     -346.80437967  energy(sigma->0) =     -346.80158553
 
 d Force =-0.2920615E-03[-0.413E-03,-0.172E-03]  d Energy = 0.7363394E-03-0.103E-02
 d Force =-0.3750389E+00[-0.377E+00,-0.374E+00]  d Ewald  =-0.5174380E+01 0.480E+01


--------------------------------------------------------------------------------------------------------


    POTLOK:  cpu time    0.0245: real time    0.0246


--------------------------------------------------------------------------------------------------------


 stress matrix after NEB project (eV)
      0.51200     -0.01099      0.00165
     -0.01099      0.44491      0.00849
      0.00165      0.00849      0.41770
  FORCES: max atom, RMS     0.040215    0.020117
  FORCE total and by dimension    0.110185    0.031802
  Stress total and by dimension    0.796839    0.511997


--------------------------------------------------------------------------------------------------------


  
 reached required accuracy - stopping structural energy minimisation
 writing wavefunctions
     LOOP+:  cpu time  167.6556: real time  174.2447
    4ORBIT:  cpu time    0.0000: real time    0.0000

 total amount of memory used by VASP MPI-rank0   111304. kBytes
=======================================================================

   base      :      30000. kBytes
   nonlr-proj:       6807. kBytes
   fftplans  :       2123. kBytes
   grid      :       4126. kBytes
   one-center:        124. kBytes
   wavefun   :      68124. kBytes
 
  
  
 General timing and accounting informations for this job:
 ========================================================
  
                  Total CPU time used (sec):     2857.480
                            User time (sec):     2834.451
                          System time (sec):       23.029
                         Elapsed time (sec):     2870.262
  
                   Maximum memory used (kb):      171652.
                   Average memory used (kb):           0.
  
                          Minor page faults:       237062
                          Major page faults:            0
                 Voluntary context switches:        99884
