<?xml version="1.0" encoding="ISO-8859-1"?>
<modeling>
 <generator>
  <i name="program" type="string">vasp </i>
  <i name="version" type="string">5.4.4.18Apr17-6-g9f103f2a35  </i>
  <i name="subversion" type="string">(build Aug 09 2018 16:20:53) complex            parallel </i>
  <i name="platform" type="string">LinuxIFC </i>
  <i name="date" type="string">2020 04 12 </i>
  <i name="time" type="string">14:29:29 </i>
 </generator>
 <incar>
  <i type="string" name="SYSTEM"> Nb - Mo - Ta - Ti - W SQS</i>
  <i type="string" name="PREC">normal</i>
  <i type="int" name="IALGO">    38</i>
  <i type="int" name="ICHARG">     2</i>
  <i type="int" name="IBRION">     2</i>
  <i type="int" name="NSW">    20</i>
  <i type="int" name="ISIF">     3</i>
  <i type="int" name="ISYM">     0</i>
  <i name="ENCUT">    600.00000000</i>
  <i type="string" name="LREAL"> Auto</i>
  <i type="int" name="ISMEAR">     1</i>
  <i name="SIGMA">      0.20000000</i>
  <v type="int" name="KPOINT_BSE">    -1     0     0     0</v>
  <i type="string" name="GGA"> PS</i>
 </incar>
 <structure name="primitive_cell" >
  <crystal>
   <varray name="basis" >
    <v>       0.00000000       0.00000000       6.38000000 </v>
    <v>       7.97500000       1.59500000       1.59500000 </v>
    <v>       0.00000000       9.57000000       3.19000000 </v>
   </varray>
   <i name="volume">    486.92638500 </i>
   <varray name="rec_basis" >
    <v>      -0.02089864      -0.05224660       0.15673981 </v>
    <v>       0.12539185       0.00000000       0.00000000 </v>
    <v>      -0.02089864       0.10449321       0.00000000 </v>
   </varray>
  </crystal>
  <varray name="positions" >
   <v>       0.00000000       0.00000000       0.00000000 </v>
   <v>      -0.13333333      -0.20000000      -0.13333333 </v>
   <v>       0.13333333       0.20000000       0.13333333 </v>
   <v>       0.30000000       0.20000000      -0.20000000 </v>
   <v>      -0.30000000      -0.20000000       0.20000000 </v>
   <v>      -0.36666667       0.20000000       0.13333333 </v>
   <v>       0.36666667      -0.20000000      -0.13333333 </v>
   <v>       0.20000000      -0.20000000       0.20000000 </v>
   <v>      -0.20000000       0.20000000      -0.20000000 </v>
   <v>      -0.16666667       0.00000000       0.33333333 </v>
   <v>       0.16666667       0.00000000      -0.33333333 </v>
   <v>      -0.06666667       0.40000000      -0.06666667 </v>
   <v>       0.06666667      -0.40000000       0.06666667 </v>
   <v>      -0.50000000       0.00000000       0.00000000 </v>
   <v>       0.33333333       0.00000000       0.33333333 </v>
   <v>      -0.33333333       0.00000000      -0.33333333 </v>
   <v>      -0.43333333      -0.40000000       0.06666667 </v>
   <v>       0.43333333       0.40000000      -0.06666667 </v>
   <v>       0.10000000       0.40000000      -0.40000000 </v>
   <v>      -0.10000000      -0.40000000       0.40000000 </v>
   <v>       0.23333333      -0.40000000      -0.26666667 </v>
   <v>      -0.23333333       0.40000000       0.26666667 </v>
   <v>      -0.03333333       0.20000000       0.46666667 </v>
   <v>       0.03333333      -0.20000000      -0.46666667 </v>
   <v>       0.46666667       0.20000000       0.46666667 </v>
   <v>      -0.46666667      -0.20000000      -0.46666667 </v>
   <v>      -0.26666667      -0.40000000      -0.26666667 </v>
   <v>       0.26666667       0.40000000       0.26666667 </v>
   <v>       0.40000000      -0.40000000       0.40000000 </v>
   <v>      -0.40000000       0.40000000      -0.40000000 </v>
  </varray>
 </structure>
 <varray name="primitive_index" >
  <v type="int" >        1 </v>
  <v type="int" >       12 </v>
  <v type="int" >       13 </v>
  <v type="int" >       21 </v>
  <v type="int" >       28 </v>
  <v type="int" >       14 </v>
  <v type="int" >       24 </v>
  <v type="int" >        4 </v>
  <v type="int" >        5 </v>
  <v type="int" >        2 </v>
  <v type="int" >       19 </v>
  <v type="int" >        6 </v>
  <v type="int" >       25 </v>
  <v type="int" >        7 </v>
  <v type="int" >        8 </v>
  <v type="int" >       15 </v>
  <v type="int" >       26 </v>
  <v type="int" >       30 </v>
  <v type="int" >        3 </v>
  <v type="int" >       22 </v>
  <v type="int" >       10 </v>
  <v type="int" >       16 </v>
  <v type="int" >       27 </v>
  <v type="int" >       29 </v>
  <v type="int" >        9 </v>
  <v type="int" >       23 </v>
  <v type="int" >       11 </v>
  <v type="int" >       20 </v>
  <v type="int" >       17 </v>
  <v type="int" >       18 </v>
 </varray>
 <kpoints>
  <generation param="Gamma">
   <v type="int" name="divisions">       5        5        5 </v>
   <v name="usershift">      0.00000000       0.00000000       0.00000000 </v>
   <v name="genvec1">      0.20000000       0.00000000       0.00000000 </v>
   <v name="genvec2">      0.00000000       0.20000000       0.00000000 </v>
   <v name="genvec3">      0.00000000       0.00000000       0.20000000 </v>
   <v name="shift">      0.00000000       0.00000000       0.00000000 </v>
  </generation>
  <varray name="kpointlist" >
   <v>       0.00000000       0.00000000       0.00000000 </v>
   <v>       0.20000000       0.00000000       0.00000000 </v>
   <v>       0.40000000       0.00000000       0.00000000 </v>
   <v>       0.00000000       0.20000000       0.00000000 </v>
   <v>       0.20000000       0.20000000       0.00000000 </v>
   <v>       0.40000000       0.20000000       0.00000000 </v>
   <v>      -0.40000000       0.20000000       0.00000000 </v>
   <v>      -0.20000000       0.20000000       0.00000000 </v>
   <v>       0.00000000       0.40000000       0.00000000 </v>
   <v>       0.20000000       0.40000000       0.00000000 </v>
   <v>       0.40000000       0.40000000       0.00000000 </v>
   <v>      -0.40000000       0.40000000       0.00000000 </v>
   <v>      -0.20000000       0.40000000       0.00000000 </v>
   <v>       0.00000000       0.00000000       0.20000000 </v>
   <v>       0.20000000      -0.00000000       0.20000000 </v>
   <v>       0.40000000       0.00000000       0.20000000 </v>
   <v>      -0.40000000       0.00000000       0.20000000 </v>
   <v>      -0.20000000       0.00000000       0.20000000 </v>
   <v>       0.00000000       0.20000000       0.20000000 </v>
   <v>       0.20000000       0.20000000       0.20000000 </v>
   <v>       0.40000000       0.20000000       0.20000000 </v>
   <v>      -0.40000000       0.20000000       0.20000000 </v>
   <v>      -0.20000000       0.20000000       0.20000000 </v>
   <v>       0.00000000       0.40000000       0.20000000 </v>
   <v>       0.20000000       0.40000000       0.20000000 </v>
   <v>       0.40000000       0.40000000       0.20000000 </v>
   <v>      -0.40000000       0.40000000       0.20000000 </v>
   <v>      -0.20000000       0.40000000       0.20000000 </v>
   <v>       0.00000000      -0.40000000       0.20000000 </v>
   <v>       0.20000000      -0.40000000       0.20000000 </v>
   <v>       0.40000000      -0.40000000       0.20000000 </v>
   <v>      -0.40000000      -0.40000000       0.20000000 </v>
   <v>      -0.20000000      -0.40000000       0.20000000 </v>
   <v>       0.00000000      -0.20000000       0.20000000 </v>
   <v>       0.20000000      -0.20000000       0.20000000 </v>
   <v>       0.40000000      -0.20000000       0.20000000 </v>
   <v>      -0.40000000      -0.20000000       0.20000000 </v>
   <v>      -0.20000000      -0.20000000       0.20000000 </v>
   <v>       0.00000000       0.00000000       0.40000000 </v>
   <v>       0.20000000       0.00000000       0.40000000 </v>
   <v>       0.40000000      -0.00000000       0.40000000 </v>
   <v>      -0.40000000       0.00000000       0.40000000 </v>
   <v>      -0.20000000       0.00000000       0.40000000 </v>
   <v>       0.00000000       0.20000000       0.40000000 </v>
   <v>       0.20000000       0.20000000       0.40000000 </v>
   <v>       0.40000000       0.20000000       0.40000000 </v>
   <v>      -0.40000000       0.20000000       0.40000000 </v>
   <v>      -0.20000000       0.20000000       0.40000000 </v>
   <v>       0.00000000       0.40000000       0.40000000 </v>
   <v>       0.20000000       0.40000000       0.40000000 </v>
   <v>       0.40000000       0.40000000       0.40000000 </v>
   <v>      -0.40000000       0.40000000       0.40000000 </v>
   <v>      -0.20000000       0.40000000       0.40000000 </v>
   <v>       0.00000000      -0.40000000       0.40000000 </v>
   <v>       0.20000000      -0.40000000       0.40000000 </v>
   <v>       0.40000000      -0.40000000       0.40000000 </v>
   <v>      -0.40000000      -0.40000000       0.40000000 </v>
   <v>      -0.20000000      -0.40000000       0.40000000 </v>
   <v>       0.00000000      -0.20000000       0.40000000 </v>
   <v>       0.20000000      -0.20000000       0.40000000 </v>
   <v>       0.40000000      -0.20000000       0.40000000 </v>
   <v>      -0.40000000      -0.20000000       0.40000000 </v>
   <v>      -0.20000000      -0.20000000       0.40000000 </v>
  </varray>
  <varray name="weights" >
   <v>       0.00800000 </v>
   <v>       0.01600000 </v>
   <v>       0.01600000 </v>
   <v>       0.01600000 </v>
   <v>       0.01600000 </v>
   <v>       0.01600000 </v>
   <v>       0.01600000 </v>
   <v>       0.01600000 </v>
   <v>       0.01600000 </v>
   <v>       0.01600000 </v>
   <v>       0.01600000 </v>
   <v>       0.01600000 </v>
   <v>       0.01600000 </v>
   <v>       0.01600000 </v>
   <v>       0.01600000 </v>
   <v>       0.01600000 </v>
   <v>       0.01600000 </v>
   <v>       0.01600000 </v>
   <v>       0.01600000 </v>
   <v>       0.01600000 </v>
   <v>       0.01600000 </v>
   <v>       0.01600000 </v>
   <v>       0.01600000 </v>
   <v>       0.01600000 </v>
   <v>       0.01600000 </v>
   <v>       0.01600000 </v>
   <v>       0.01600000 </v>
   <v>       0.01600000 </v>
   <v>       0.01600000 </v>
   <v>       0.01600000 </v>
   <v>       0.01600000 </v>
   <v>       0.01600000 </v>
   <v>       0.01600000 </v>
   <v>       0.01600000 </v>
   <v>       0.01600000 </v>
   <v>       0.01600000 </v>
   <v>       0.01600000 </v>
   <v>       0.01600000 </v>
   <v>       0.01600000 </v>
   <v>       0.01600000 </v>
   <v>       0.01600000 </v>
   <v>       0.01600000 </v>
   <v>       0.01600000 </v>
   <v>       0.01600000 </v>
   <v>       0.01600000 </v>
   <v>       0.01600000 </v>
   <v>       0.01600000 </v>
   <v>       0.01600000 </v>
   <v>       0.01600000 </v>
   <v>       0.01600000 </v>
   <v>       0.01600000 </v>
   <v>       0.01600000 </v>
   <v>       0.01600000 </v>
   <v>       0.01600000 </v>
   <v>       0.01600000 </v>
   <v>       0.01600000 </v>
   <v>       0.01600000 </v>
   <v>       0.01600000 </v>
   <v>       0.01600000 </v>
   <v>       0.01600000 </v>
   <v>       0.01600000 </v>
   <v>       0.01600000 </v>
   <v>       0.01600000 </v>
  </varray>
 </kpoints>
 <parameters>
  <separator name="general" >
   <i type="string" name="SYSTEM">Nb - Mo - Ta - Ti - W SQS</i>
   <i type="logical" name="LCOMPAT"> F  </i>
  </separator>
  <separator name="electronic" >
   <i type="string" name="PREC">normal</i>
   <i name="ENMAX">    600.00000000</i>
   <i name="ENAUG">    455.65900000</i>
   <i name="EDIFF">      0.00010000</i>
   <i type="int" name="IALGO">    38</i>
   <i type="int" name="IWAVPR">    11</i>
   <i type="int" name="NBANDS">   128</i>
   <i name="NELECT">    204.00000000</i>
   <i type="int" name="TURBO">     0</i>
   <i type="int" name="IRESTART">     0</i>
   <i type="int" name="NREBOOT">     0</i>
   <i type="int" name="NMIN">     0</i>
   <i name="EREF">      0.00000000</i>
   <separator name="electronic smearing" >
    <i type="int" name="ISMEAR">     1</i>
    <i name="SIGMA">      0.20000000</i>
    <i name="KSPACING">      0.50000000</i>
    <i type="logical" name="KGAMMA"> T  </i>
   </separator>
   <separator name="electronic projectors" >
    <i type="logical" name="LREAL"> T  </i>
    <v name="ROPT">     -0.00050000     -0.00050000     -0.00050000     -0.00050000     -0.00050000</v>
    <i type="int" name="LMAXPAW">  -100</i>
    <i type="int" name="LMAXMIX">     2</i>
    <i type="logical" name="NLSPLINE"> F  </i>
   </separator>
   <separator name="electronic startup" >
    <i type="int" name="ISTART">     1</i>
    <i type="int" name="ICHARG">     2</i>
    <i type="int" name="INIWAV">     1</i>
   </separator>
   <separator name="electronic spin" >
    <i type="int" name="ISPIN">     1</i>
    <i type="logical" name="LNONCOLLINEAR"> F  </i>
    <v name="MAGMOM">      1.00000000      1.00000000      1.00000000      1.00000000      1.00000000      1.00000000      1.00000000      1.00000000      1.00000000      1.00000000      1.00000000      1.00000000      1.00000000      1.00000000      1.00000000      1.00000000      1.00000000      1.00000000      1.00000000      1.00000000
      1.00000000      1.00000000      1.00000000      1.00000000      1.00000000      1.00000000      1.00000000      1.00000000      1.00000000      1.00000000</v>
    <i name="NUPDOWN">     -1.00000000</i>
    <i type="logical" name="LSORBIT"> F  </i>
    <v name="SAXIS">      0.00000000      0.00000000      1.00000000</v>
    <i type="logical" name="LSPIRAL"> F  </i>
    <v name="QSPIRAL">      0.00000000      0.00000000      0.00000000</v>
    <i type="logical" name="LZEROZ"> F  </i>
   </separator>
   <separator name="electronic exchange-correlation" >
    <i type="logical" name="LASPH"> F  </i>
    <i type="logical" name="LMETAGGA"> F  </i>
   </separator>
   <separator name="electronic convergence" >
    <i type="int" name="NELM">    60</i>
    <i type="int" name="NELMDL">     0</i>
    <i type="int" name="NELMIN">     2</i>
    <i name="ENINI">    600.00000000</i>
    <separator name="electronic convergence detail" >
     <i type="logical" name="LDIAG"> T  </i>
     <i type="logical" name="LSUBROT"> F  </i>
     <i name="WEIMIN">      0.00100000</i>
     <i name="EBREAK">      0.00000020</i>
     <i name="DEPER">      0.30000000</i>
     <i type="int" name="NRMM">     4</i>
     <i name="TIME">      0.40000000</i>
    </separator>
   </separator>
   <separator name="electronic mixer" >
    <i name="AMIX">      0.40000000</i>
    <i name="BMIX">      1.00000000</i>
    <i name="AMIN">      0.10000000</i>
    <i name="AMIX_MAG">      1.60000000</i>
    <i name="BMIX_MAG">      1.00000000</i>
    <separator name="electronic mixer details" >
     <i type="int" name="IMIX">     4</i>
     <i type="logical" name="MIXFIRST"> F  </i>
     <i type="int" name="MAXMIX">   -45</i>
     <i name="WC">    100.00000000</i>
     <i type="int" name="INIMIX">     1</i>
     <i type="int" name="MIXPRE">     1</i>
     <i type="int" name="MREMOVE">     5</i>
    </separator>
   </separator>
   <separator name="electronic dipolcorrection" >
    <i type="logical" name="LDIPOL"> F  </i>
    <i type="logical" name="LMONO"> F  </i>
    <i type="int" name="IDIPOL">     0</i>
    <i name="EPSILON">      1.00000000</i>
    <v name="DIPOL">   -100.00000000   -100.00000000   -100.00000000</v>
    <i name="EFIELD">      0.00000000</i>
   </separator>
  </separator>
  <separator name="grids" >
   <i type="int" name="NGX">    40</i>
   <i type="int" name="NGY">    50</i>
   <i type="int" name="NGZ">    60</i>
   <i type="int" name="NGXF">    80</i>
   <i type="int" name="NGYF">   100</i>
   <i type="int" name="NGZF">   120</i>
   <i type="logical" name="ADDGRID"> F  </i>
  </separator>
  <separator name="ionic" >
   <i type="int" name="NSW">    20</i>
   <i type="int" name="IBRION">     2</i>
   <i type="int" name="MDALGO">     0</i>
   <i type="int" name="ISIF">     3</i>
   <i name="PSTRESS">      0.00000000</i>
   <i name="EDIFFG">      0.00100000</i>
   <i type="int" name="NFREE">     1</i>
   <i name="POTIM">      0.50000000</i>
   <i name="SMASS">     -3.00000000</i>
   <i name="SCALEE">      1.00000000</i>
  </separator>
  <separator name="ionic md" >
   <i name="TEBEG">      0.00010000</i>
   <i name="TEEND">      0.00010000</i>
   <i type="int" name="NBLOCK">     1</i>
   <i type="int" name="KBLOCK">    20</i>
   <i type="int" name="NPACO">   256</i>
   <i name="APACO">     16.00000000</i>
  </separator>
  <separator name="symmetry" >
   <i type="int" name="ISYM">     0</i>
   <i name="SYMPREC">      0.00001000</i>
  </separator>
  <separator name="dos" >
   <i type="int" name="LORBIT">     0</i>
   <v name="RWIGS">     -1.00000000     -1.00000000     -1.00000000     -1.00000000     -1.00000000</v>
   <i type="int" name="NEDOS">   301</i>
   <i name="EMIN">     10.00000000</i>
   <i name="EMAX">    -10.00000000</i>
   <i name="EFERMI">      0.00000000</i>
  </separator>
  <separator name="writing" >
   <i type="int" name="NWRITE">     2</i>
   <i type="logical" name="LWAVE"> T  </i>
   <i type="logical" name="LDOWNSAMPLE"> F  </i>
   <i type="logical" name="LCHARG"> T  </i>
   <i type="logical" name="LPARD"> F  </i>
   <i type="logical" name="LVTOT"> F  </i>
   <i type="logical" name="LVHAR"> F  </i>
   <i type="logical" name="LELF"> F  </i>
   <i type="logical" name="LOPTICS"> F  </i>
   <v name="STM">      0.00000000      0.00000000      0.00000000      0.00000000      0.00000000      0.00000000      0.00000000</v>
  </separator>
  <separator name="performance" >
   <i type="int" name="NPAR">     8</i>
   <i type="int" name="NSIM">     4</i>
   <i type="int" name="NBLK">    -1</i>
   <i type="logical" name="LPLANE"> T  </i>
   <i type="logical" name="LSCALAPACK"> T  </i>
   <i type="logical" name="LSCAAWARE"> F  </i>
   <i type="logical" name="LSCALU"> F  </i>
   <i type="logical" name="LASYNC"> F  </i>
   <i type="logical" name="LORBITALREAL"> F  </i>
  </separator>
  <separator name="miscellaneous" >
   <i type="int" name="IDIOT">     3</i>
   <i type="int" name="ISPECIAL">     0</i>
   <i type="logical" name="LMUSIC"> F  </i>
   <v name="POMASS">     92.91000000     95.94000000    180.94800000     47.88000000    183.85000000</v>
   <v name="DARWINR">      0.00000000      0.00000000      0.00000000      0.00000000      0.00000000</v>
   <v name="DARWINV">      1.00000000      1.00000000      1.00000000      1.00000000      1.00000000</v>
   <i type="logical" name="LCORR"> T  </i>
  </separator>
  <i type="logical" name="GGA_COMPAT"> T  </i>
  <i type="logical" name="LBERRY"> F  </i>
  <i type="int" name="ICORELEVEL">     0</i>
  <i type="logical" name="LDAU"> F  </i>
  <i type="int" name="I_CONSTRAINED_M">     0</i>
  <separator name="electronic exchange-correlation" >
   <i type="string" name="GGA">PS</i>
   <i type="int" name="VOSKOWN">     0</i>
   <i type="logical" name="LHFCALC"> F  </i>
   <i type="string" name="PRECFOCK"></i>
   <i type="logical" name="LSYMGRAD"> F  </i>
   <i type="logical" name="LHFONE"> F  </i>
   <i type="logical" name="LRHFCALC"> F  </i>
   <i type="logical" name="LTHOMAS"> F  </i>
   <i type="logical" name="LMODELHF"> F  </i>
   <i name="ENCUT4O">     -1.00000000</i>
   <i type="int" name="EXXOEP">     0</i>
   <i type="int" name="FOURORBIT">     0</i>
   <i name="AEXX">      0.00000000</i>
   <i name="HFALPHA">      0.00000000</i>
   <i name="MCALPHA">      0.00000000</i>
   <i name="ALDAX">      1.00000000</i>
   <i name="AGGAX">      1.00000000</i>
   <i name="ALDAC">      1.00000000</i>
   <i name="AGGAC">      1.00000000</i>
   <i type="int" name="NKREDX">     1</i>
   <i type="int" name="NKREDY">     1</i>
   <i type="int" name="NKREDZ">     1</i>
   <i type="logical" name="SHIFTRED"> F  </i>
   <i type="logical" name="ODDONLY"> F  </i>
   <i type="logical" name="EVENONLY"> F  </i>
   <i type="int" name="LMAXFOCK">     0</i>
   <i type="int" name="NMAXFOCKAE">     0</i>
   <i type="logical" name="LFOCKAEDFT"> F  </i>
   <i name="HFSCREEN">      0.00000000</i>
   <i name="HFSCREENC">      0.00000000</i>
   <i type="int" name="NBANDSGWLOW">     0</i>
  </separator>
  <separator name="vdW DFT" >
   <i type="logical" name="LUSE_VDW"> F  </i>
   <i name="Zab_VDW">     -0.84910000</i>
   <i name="PARAM1">      0.12340000</i>
   <i name="PARAM2">      1.00000000</i>
   <i name="PARAM3">      0.00000000</i>
  </separator>
  <separator name="model GW" >
   <i type="int" name="MODEL_GW">     0</i>
   <i name="MODEL_EPS0">      9.73852770</i>
   <i name="MODEL_ALPHA">      1.00000000</i>
  </separator>
  <separator name="linear response parameters" >
   <i type="logical" name="LEPSILON"> F  </i>
   <i type="logical" name="LRPA"> F  </i>
   <i type="logical" name="LNABLA"> F  </i>
   <i type="logical" name="LVEL"> F  </i>
   <i type="int" name="KINTER">     0</i>
   <i name="CSHIFT">      0.10000000</i>
   <i name="OMEGAMAX">     -1.00000000</i>
   <i name="DEG_THRESHOLD">      0.00200000</i>
   <i name="RTIME">     -0.10000000</i>
   <i name="WPLASMAI">      0.00000000</i>
   <v name="DFIELD">      0.00000000      0.00000000      0.00000000</v>
   <v name="WPLASMA">      0.00000000      0.00000000      0.00000000      0.00000000      0.00000000      0.00000000      0.00000000      0.00000000      0.00000000</v>
  </separator>
  <separator name="orbital magnetization" >
   <i type="logical" name="NUCIND"> F  </i>
   <v name="MAGPOS">      0.00000000      0.00000000      0.00000000</v>
   <i type="logical" name="LNICSALL"> T  </i>
   <i type="logical" name="ORBITALMAG"> F  </i>
   <i type="logical" name="LMAGBLOCH"> F  </i>
   <i type="logical" name="LCHIMAG"> F  </i>
   <i type="logical" name="LGAUGE"> T  </i>
   <i type="int" name="MAGATOM">     0</i>
   <v name="MAGDIPOL">      0.00000000      0.00000000      0.00000000</v>
   <v name="AVECCONST">      0.00000000      0.00000000      0.00000000</v>
  </separator>
  <separator name="response functions" >
   <i type="logical" name="LADDER"> F  </i>
   <i type="logical" name="LRPAFORCE"> F  </i>
   <i type="logical" name="LFXC"> F  </i>
   <i type="logical" name="LHARTREE"> T  </i>
   <i type="int" name="IBSE">     0</i>
   <v type="int" name="KPOINT">    -1     0     0     0</v>
   <i type="logical" name="LTCTE"> F  </i>
   <i type="logical" name="LTETE"> F  </i>
   <i type="logical" name="LTRIPLET"> F  </i>
   <i type="logical" name="LFXCEPS"> F  </i>
   <i type="logical" name="LFXHEG"> F  </i>
   <i type="int" name="NATURALO">     2</i>
   <i type="logical" name="L2ORDER"> F  </i>
   <i type="logical" name="LMP2LT"> F  </i>
   <i type="logical" name="LUSEW"> F  </i>
   <i name="ENCUTGW">     -2.00000000</i>
   <i name="ENCUTGWSOFT">     -2.00000000</i>
   <i name="ENCUTLF">     -1.00000000</i>
   <i type="int" name="LMAXMP2">    -1</i>
   <i name="SCISSOR">      0.00000000</i>
   <i type="int" name="NOMEGA">     0</i>
   <i type="int" name="NOMEGAR">     0</i>
   <i type="int" name="NBANDSGW">    -1</i>
   <i type="int" name="NBANDSO">    -1</i>
   <i type="int" name="NBANDSV">    -1</i>
   <i type="int" name="NELM">     1</i>
   <i type="int" name="NELMHF">     1</i>
   <i type="int" name="DIM">     3</i>
   <i type="int" name="ANTIRES">     0</i>
   <i name="OMEGAMAX">    -30.00000000</i>
   <i name="OMEGAMIN">    -30.00000000</i>
   <i name="OMEGATL">   -200.00000000</i>
   <i type="int" name="OMEGAGRID">   140</i>
   <i name="CSHIFT">     -0.10000000</i>
   <i type="logical" name="SELFENERGY"> F  </i>
   <i type="logical" name="LSPECTRAL"> F  </i>
   <i type="logical" name="LSPECTRALGW"> F  </i>
   <i type="logical" name="LSINGLES"> F  </i>
   <i type="logical" name="LFERMIGW"> F  </i>
   <i type="logical" name="ODDONLYGW"> F  </i>
   <i type="logical" name="EVENONLYGW"> F  </i>
   <i type="int" name="NKREDLFX">     1</i>
   <i type="int" name="NKREDLFY">     1</i>
   <i type="int" name="NKREDLFZ">     1</i>
   <i type="int" name="MAXMEM">  2800</i>
   <i type="int" name="TELESCOPE">     0</i>
   <i type="int" name="TAUPAR">     1</i>
   <i type="int" name="OMEGAPAR">    -1</i>
   <i name="LAMBDA">      1.00000000</i>
  </separator>
  <separator name="External order field" >
   <i name="OFIELD_KAPPA">      0.00000000</i>
   <v name="OFIELD_K">      0.00000000      0.00000000      0.00000000</v>
   <i name="OFIELD_Q6_NEAR">      0.00000000</i>
   <i name="OFIELD_Q6_FAR">      0.00000000</i>
   <i name="OFIELD_A">      0.00000000</i>
  </separator>
  <separator name="solvation model" >
   <i type="logical" name="LSOL"> F  </i>
  </separator>
 </parameters>
 <atominfo>
  <atoms>      30 </atoms>
  <types>       5 </types>
  <array name="atoms" >
   <dimension dim="1">ion</dimension>
   <field type="string">element</field>
   <field type="int">atomtype</field>
   <set>
    <rc><c>Nb</c><c>   1</c></rc>
    <rc><c>Nb</c><c>   1</c></rc>
    <rc><c>Nb</c><c>   1</c></rc>
    <rc><c>Nb</c><c>   1</c></rc>
    <rc><c>Nb</c><c>   1</c></rc>
    <rc><c>Nb</c><c>   1</c></rc>
    <rc><c>Mo</c><c>   2</c></rc>
    <rc><c>Mo</c><c>   2</c></rc>
    <rc><c>Mo</c><c>   2</c></rc>
    <rc><c>Mo</c><c>   2</c></rc>
    <rc><c>Mo</c><c>   2</c></rc>
    <rc><c>Mo</c><c>   2</c></rc>
    <rc><c>Ta</c><c>   3</c></rc>
    <rc><c>Ta</c><c>   3</c></rc>
    <rc><c>Ta</c><c>   3</c></rc>
    <rc><c>Ta</c><c>   3</c></rc>
    <rc><c>Ta</c><c>   3</c></rc>
    <rc><c>Ta</c><c>   3</c></rc>
    <rc><c>Ti</c><c>   4</c></rc>
    <rc><c>Ti</c><c>   4</c></rc>
    <rc><c>Ti</c><c>   4</c></rc>
    <rc><c>Ti</c><c>   4</c></rc>
    <rc><c>Ti</c><c>   4</c></rc>
    <rc><c>Ti</c><c>   4</c></rc>
    <rc><c>W </c><c>   5</c></rc>
    <rc><c>W </c><c>   5</c></rc>
    <rc><c>W </c><c>   5</c></rc>
    <rc><c>W </c><c>   5</c></rc>
    <rc><c>W </c><c>   5</c></rc>
    <rc><c>W </c><c>   5</c></rc>
   </set>
  </array>
  <array name="atomtypes" >
   <dimension dim="1">type</dimension>
   <field type="int">atomspertype</field>
   <field type="string">element</field>
   <field>mass</field>
   <field>valence</field>
   <field type="string">pseudopotential</field>
   <set>
    <rc><c>   6</c><c>Nb</c><c>     92.91000000</c><c>     13.00000000</c><c>  PAW_PBE Nb_sv 25May2007               </c></rc>
    <rc><c>   6</c><c>Mo</c><c>     95.94000000</c><c>      6.00000000</c><c>  PAW_PBE Mo 08Apr2002                  </c></rc>
    <rc><c>   6</c><c>Ta</c><c>    180.94800000</c><c>      5.00000000</c><c>  PAW_PBE Ta 17Jan2003                  </c></rc>
    <rc><c>   6</c><c>Ti</c><c>     47.88000000</c><c>      4.00000000</c><c>  PAW_PBE Ti 08Apr2002                  </c></rc>
    <rc><c>   6</c><c>W </c><c>    183.85000000</c><c>      6.00000000</c><c>  PAW_PBE W 08Apr2002                   </c></rc>
   </set>
  </array>
 </atominfo>
 <structure name="initialpos" >
  <crystal>
   <varray name="basis" >
    <v>       0.00000000       0.00000000       6.38000000 </v>
    <v>       7.97500000       1.59500000       1.59500000 </v>
    <v>       0.00000000       9.57000000       3.19000000 </v>
   </varray>
   <i name="volume">    486.92638500 </i>
   <varray name="rec_basis" >
    <v>      -0.02089864      -0.05224660       0.15673981 </v>
    <v>       0.12539185       0.00000000       0.00000000 </v>
    <v>      -0.02089864       0.10449321       0.00000000 </v>
   </varray>
  </crystal>
  <varray name="positions" >
   <v>       0.00000000       0.00000000       0.00000000 </v>
   <v>       0.83333333       0.00000000       0.33333333 </v>
   <v>       0.10000000       0.40000000       0.60000000 </v>
   <v>       0.20000000       0.80000000       0.20000000 </v>
   <v>       0.80000000       0.20000000       0.80000000 </v>
   <v>       0.93333333       0.40000000       0.93333333 </v>
   <v>       0.50000000       0.00000000       0.00000000 </v>
   <v>       0.33333333       0.00000000       0.33333333 </v>
   <v>       0.46666667       0.20000000       0.46666667 </v>
   <v>       0.23333333       0.60000000       0.73333333 </v>
   <v>       0.73333333       0.60000000       0.73333333 </v>
   <v>       0.86666667       0.80000000       0.86666667 </v>
   <v>       0.13333333       0.20000000       0.13333333 </v>
   <v>       0.63333333       0.20000000       0.13333333 </v>
   <v>       0.66666667       0.00000000       0.66666667 </v>
   <v>       0.76666667       0.40000000       0.26666667 </v>
   <v>       0.40000000       0.60000000       0.40000000 </v>
   <v>       0.60000000       0.40000000       0.60000000 </v>
   <v>       0.16666667       0.00000000       0.66666667 </v>
   <v>       0.26666667       0.40000000       0.26666667 </v>
   <v>       0.30000000       0.20000000       0.80000000 </v>
   <v>       0.90000000       0.60000000       0.40000000 </v>
   <v>       0.53333333       0.80000000       0.53333333 </v>
   <v>       0.36666667       0.80000000       0.86666667 </v>
   <v>       0.06666667       0.60000000       0.06666667 </v>
   <v>       0.56666667       0.60000000       0.06666667 </v>
   <v>       0.96666667       0.20000000       0.46666667 </v>
   <v>       0.70000000       0.80000000       0.20000000 </v>
   <v>       0.03333333       0.80000000       0.53333333 </v>
   <v>       0.43333333       0.40000000       0.93333333 </v>
  </varray>
 </structure>
 <calculation>
  <scstep>
   <time name="dav">   19.87   19.90</time>
   <time name="total">   20.46   20.50</time>
   <energy>
    <i name="alphaZ">   1381.42178624 </i>
    <i name="ewald"> -12092.38474530 </i>
    <i name="hartreedc">  -3004.59813475 </i>
    <i name="XCdc">   -902.57771330 </i>
    <i name="pawpsdc">  12303.85264859 </i>
    <i name="pawaedc"> -10739.97191893 </i>
    <i name="eentropy">      0.00977817 </i>
    <i name="bandstr">   -525.41062495 </i>
    <i name="atom">  13210.99149945 </i>
    <i name="e_fr_energy">   -368.66742477 </i>
    <i name="e_wo_entrp">   -368.67720294 </i>
    <i name="e_0_energy">   -368.67068416 </i>
   </energy>
  </scstep>
  <scstep>
   <time name="dav">   24.21   24.25</time>
   <time name="total">   24.80   24.83</time>
   <energy>
    <i name="e_fr_energy">   -357.66588721 </i>
    <i name="e_wo_entrp">   -357.65735771 </i>
    <i name="e_0_energy">   -357.66304404 </i>
   </energy>
  </scstep>
  <scstep>
   <time name="dav">   24.24   24.27</time>
   <time name="total">   24.84   24.88</time>
   <energy>
    <i name="e_fr_energy">   -373.62023098 </i>
    <i name="e_wo_entrp">   -373.62971846 </i>
    <i name="e_0_energy">   -373.62339347 </i>
   </energy>
  </scstep>
  <scstep>
   <time name="dav">   24.27   24.31</time>
   <time name="total">   24.87   24.91</time>
   <energy>
    <i name="e_fr_energy">   -352.25776854 </i>
    <i name="e_wo_entrp">   -352.26277429 </i>
    <i name="e_0_energy">   -352.25943712 </i>
   </energy>
  </scstep>
  <scstep>
   <time name="dav">   24.49   24.53</time>
   <time name="total">   25.10   25.14</time>
   <energy>
    <i name="e_fr_energy">   -347.49825136 </i>
    <i name="e_wo_entrp">   -347.49977456 </i>
    <i name="e_0_energy">   -347.49875910 </i>
   </energy>
  </scstep>
  <scstep>
   <time name="dav">   26.95   27.00</time>
   <time name="total">   27.55   27.60</time>
   <energy>
    <i name="e_fr_energy">   -346.61315940 </i>
    <i name="e_wo_entrp">   -346.60934391 </i>
    <i name="e_0_energy">   -346.61188757 </i>
   </energy>
  </scstep>
  <scstep>
   <time name="dav">   25.41   25.45</time>
   <time name="total">   26.01   26.05</time>
   <energy>
    <i name="e_fr_energy">   -346.36732812 </i>
    <i name="e_wo_entrp">   -346.35732775 </i>
    <i name="e_0_energy">   -346.36399467 </i>
   </energy>
  </scstep>
  <scstep>
   <time name="dav">   26.55   26.59</time>
   <time name="total">   27.15   27.18</time>
   <energy>
    <i name="e_fr_energy">   -346.35198902 </i>
    <i name="e_wo_entrp">   -346.34489687 </i>
    <i name="e_0_energy">   -346.34962497 </i>
   </energy>
  </scstep>
  <scstep>
   <time name="dav">   25.71   25.74</time>
   <time name="total">   26.31   26.34</time>
   <energy>
    <i name="e_fr_energy">   -346.33195778 </i>
    <i name="e_wo_entrp">   -346.32088815 </i>
    <i name="e_0_energy">   -346.32826790 </i>
   </energy>
  </scstep>
  <scstep>
   <time name="dav">   27.75   27.79</time>
   <time name="total">   28.35   28.40</time>
   <energy>
    <i name="e_fr_energy">   -346.31241347 </i>
    <i name="e_wo_entrp">   -346.30297173 </i>
    <i name="e_0_energy">   -346.30926622 </i>
   </energy>
  </scstep>
  <scstep>
   <time name="dav">   25.97   26.01</time>
   <time name="total">   26.57   26.61</time>
   <energy>
    <i name="e_fr_energy">   -346.31436100 </i>
    <i name="e_wo_entrp">   -346.30395978 </i>
    <i name="e_0_energy">   -346.31089393 </i>
   </energy>
  </scstep>
  <scstep>
   <time name="dav">   25.28   25.31</time>
   <time name="total">   25.87   25.91</time>
   <energy>
    <i name="e_fr_energy">   -346.31254225 </i>
    <i name="e_wo_entrp">   -346.30251315 </i>
    <i name="e_0_energy">   -346.30919922 </i>
   </energy>
  </scstep>
  <scstep>
   <time name="dav">   23.94   23.97</time>
   <time name="total">   24.53   24.57</time>
   <energy>
    <i name="e_fr_energy">   -346.31031087 </i>
    <i name="e_wo_entrp">   -346.30042842 </i>
    <i name="e_0_energy">   -346.30701672 </i>
   </energy>
  </scstep>
  <scstep>
   <time name="dav">   24.39   24.43</time>
   <time name="total">   24.99   25.02</time>
   <energy>
    <i name="e_fr_energy">   -346.30994959 </i>
    <i name="e_wo_entrp">   -346.30027850 </i>
    <i name="e_0_energy">   -346.30672589 </i>
   </energy>
  </scstep>
  <scstep>
   <time name="dav">   22.22   22.25</time>
   <time name="total">   22.82   22.85</time>
   <energy>
    <i name="e_fr_energy">   -346.30991356 </i>
    <i name="e_wo_entrp">   -346.30018269 </i>
    <i name="e_0_energy">   -346.30666993 </i>
   </energy>
  </scstep>
  <scstep>
   <time name="dav">   18.89   18.91</time>
   <time name="total">   18.92   18.95</time>
   <energy>
    <i name="alphaZ">   1381.42178624 </i>
    <i name="ewald"> -12092.38474530 </i>
    <i name="hartreedc">  -2846.99910623 </i>
    <i name="XCdc">   -896.56566044 </i>
    <i name="pawpsdc">  21701.27923123 </i>
    <i name="pawaedc"> -20140.56138095 </i>
    <i name="eentropy">     -0.00964185 </i>
    <i name="bandstr">   -663.48193534 </i>
    <i name="atom">  13210.99149945 </i>
    <i name="e_fr_energy">   -346.30995319 </i>
    <i name="e_wo_entrp">   -346.30031134 </i>
    <i name="e_0_energy">   -346.30673924 </i>
   </energy>
  </scstep>
  <structure>
   <crystal>
    <varray name="basis" >
     <v>       0.00000000       0.00000000       6.38000000 </v>
     <v>       7.97500000       1.59500000       1.59500000 </v>
     <v>       0.00000000       9.57000000       3.19000000 </v>
    </varray>
    <i name="volume">    486.92638500 </i>
    <varray name="rec_basis" >
     <v>      -0.02089864      -0.05224660       0.15673981 </v>
     <v>       0.12539185       0.00000000       0.00000000 </v>
     <v>      -0.02089864       0.10449321       0.00000000 </v>
    </varray>
   </crystal>
   <varray name="positions" >
    <v>       0.00000000       0.00000000       0.00000000 </v>
    <v>       0.83333333       0.00000000       0.33333333 </v>
    <v>       0.10000000       0.40000000       0.60000000 </v>
    <v>       0.20000000       0.80000000       0.20000000 </v>
    <v>       0.80000000       0.20000000       0.80000000 </v>
    <v>       0.93333333       0.40000000       0.93333333 </v>
    <v>       0.50000000       0.00000000       0.00000000 </v>
    <v>       0.33333333       0.00000000       0.33333333 </v>
    <v>       0.46666667       0.20000000       0.46666667 </v>
    <v>       0.23333333       0.60000000       0.73333333 </v>
    <v>       0.73333333       0.60000000       0.73333333 </v>
    <v>       0.86666667       0.80000000       0.86666667 </v>
    <v>       0.13333333       0.20000000       0.13333333 </v>
    <v>       0.63333333       0.20000000       0.13333333 </v>
    <v>       0.66666667       0.00000000       0.66666667 </v>
    <v>       0.76666667       0.40000000       0.26666667 </v>
    <v>       0.40000000       0.60000000       0.40000000 </v>
    <v>       0.60000000       0.40000000       0.60000000 </v>
    <v>       0.16666667       0.00000000       0.66666667 </v>
    <v>       0.26666667       0.40000000       0.26666667 </v>
    <v>       0.30000000       0.20000000       0.80000000 </v>
    <v>       0.90000000       0.60000000       0.40000000 </v>
    <v>       0.53333333       0.80000000       0.53333333 </v>
    <v>       0.36666667       0.80000000       0.86666667 </v>
    <v>       0.06666667       0.60000000       0.06666667 </v>
    <v>       0.56666667       0.60000000       0.06666667 </v>
    <v>       0.96666667       0.20000000       0.46666667 </v>
    <v>       0.70000000       0.80000000       0.20000000 </v>
    <v>       0.03333333       0.80000000       0.53333333 </v>
    <v>       0.43333333       0.40000000       0.93333333 </v>
   </varray>
  </structure>
  <varray name="forces" >
   <v>      -0.68096841      -0.44937585      -0.29594511 </v>
   <v>      -0.35775325       0.66450051      -0.13919548 </v>
   <v>      -0.14744636      -0.19011349      -0.07213805 </v>
   <v>      -0.19498431      -0.72805602       0.28474151 </v>
   <v>      -0.12021691       0.40259552      -0.42177100 </v>
   <v>       1.04470552      -0.20056659      -0.02392008 </v>
   <v>      -0.29800272      -0.04397377       0.36691000 </v>
   <v>       0.16798058       0.63561417      -0.00674568 </v>
   <v>      -0.32325917       0.04317824      -0.19854999 </v>
   <v>       0.16189306       0.12735892      -0.08323462 </v>
   <v>       0.42583859       0.01391641       0.09947914 </v>
   <v>      -0.58900932       0.25423103      -0.16727265 </v>
   <v>      -0.21722128      -0.44491017       0.87395299 </v>
   <v>      -0.42268101      -0.27612573      -0.88133351 </v>
   <v>       0.19077160      -0.50297533       0.45659849 </v>
   <v>       0.13611126       0.23415151       0.00672064 </v>
   <v>       0.75366953       0.00132568      -0.06789422 </v>
   <v>       0.10910458       0.19922086      -0.00843423 </v>
   <v>      -0.05835309      -0.31969895      -0.43372311 </v>
   <v>      -0.16200949      -0.06645097       0.04090086 </v>
   <v>      -0.17048075       0.63181354       0.38232350 </v>
   <v>       0.40120770      -0.00210475       0.16839412 </v>
   <v>      -0.48485714       0.42061589      -0.18624569 </v>
   <v>      -0.55372045       0.04466006       0.18333941 </v>
   <v>       0.11804853      -0.06394164      -0.07855621 </v>
   <v>       0.18939415      -0.23150574       0.11516960 </v>
   <v>      -0.06337404      -0.23455604       0.20120686 </v>
   <v>       0.03640803      -0.31585853      -0.42969328 </v>
   <v>      -0.05525828       0.23434674       0.28208303 </v>
   <v>       1.16446287       0.16268451       0.03283276 </v>
  </varray>
  <varray name="stress" >
   <v>      -4.54839609       3.54704197      -1.55176551 </v>
   <v>       3.54704194      -5.16608064      -0.91501883 </v>
   <v>      -1.55176558      -0.91501878      -4.99664644 </v>
  </varray>
  <energy>
   <i name="e_fr_energy">   -346.30995319 </i>
   <i name="e_wo_entrp">   -346.30673924 </i>
   <i name="e_0_energy">     -0.00964185 </i>
  </energy>
  <time name="totalsc">  418.25  418.95</time>
 </calculation>
 <calculation>
  <scstep>
   <time name="dav">   19.93   19.96</time>
   <time name="total">   20.56   20.59</time>
   <energy>
    <i name="alphaZ">   1391.40685548 </i>
    <i name="ewald"> -12151.62781129 </i>
    <i name="hartreedc">  -2824.66008717 </i>
    <i name="XCdc">   -895.69739962 </i>
    <i name="pawpsdc">  21702.97409796 </i>
    <i name="pawaedc"> -20142.20049875 </i>
    <i name="eentropy">     -0.00657287 </i>
    <i name="bandstr">   -637.61280294 </i>
    <i name="atom">  13210.99149945 </i>
    <i name="e_fr_energy">   -346.43271975 </i>
    <i name="e_wo_entrp">   -346.42614687 </i>
    <i name="e_0_energy">   -346.43052879 </i>
   </energy>
  </scstep>
  <scstep>
   <time name="dav">   27.68   27.72</time>
   <time name="total">   28.28   28.32</time>
   <energy>
    <i name="e_fr_energy">   -346.89826622 </i>
    <i name="e_wo_entrp">   -346.89538385 </i>
    <i name="e_0_energy">   -346.89730543 </i>
   </energy>
  </scstep>
  <scstep>
   <time name="dav">   26.98   27.22</time>
   <time name="total">   27.57   27.84</time>
   <energy>
    <i name="e_fr_energy">   -346.73951316 </i>
    <i name="e_wo_entrp">   -346.73213505 </i>
    <i name="e_0_energy">   -346.73705379 </i>
   </energy>
  </scstep>
  <scstep>
   <time name="dav">   28.23   28.28</time>
   <time name="total">   28.82   28.87</time>
   <energy>
    <i name="e_fr_energy">   -346.70081464 </i>
    <i name="e_wo_entrp">   -346.69585210 </i>
    <i name="e_0_energy">   -346.69916046 </i>
   </energy>
  </scstep>
  <scstep>
   <time name="dav">   27.02   27.07</time>
   <time name="total">   27.60   27.65</time>
   <energy>
    <i name="e_fr_energy">   -346.70183957 </i>
    <i name="e_wo_entrp">   -346.69486269 </i>
    <i name="e_0_energy">   -346.69951394 </i>
   </energy>
  </scstep>
  <scstep>
   <time name="dav">   27.66   27.70</time>
   <time name="total">   28.26   28.30</time>
   <energy>
    <i name="e_fr_energy">   -346.69299941 </i>
    <i name="e_wo_entrp">   -346.68757184 </i>
    <i name="e_0_energy">   -346.69119022 </i>
   </energy>
  </scstep>
  <scstep>
   <time name="dav">   28.40   28.44</time>
   <time name="total">   29.00   29.04</time>
   <energy>
    <i name="e_fr_energy">   -346.68670384 </i>
    <i name="e_wo_entrp">   -346.68076537 </i>
    <i name="e_0_energy">   -346.68472435 </i>
   </energy>
  </scstep>
  <scstep>
   <time name="dav">   26.16   26.22</time>
   <time name="total">   26.75   26.82</time>
   <energy>
    <i name="e_fr_energy">   -346.68518528 </i>
    <i name="e_wo_entrp">   -346.67913199 </i>
    <i name="e_0_energy">   -346.68316751 </i>
   </energy>
  </scstep>
  <scstep>
   <time name="dav">   25.03   25.08</time>
   <time name="total">   25.63   25.69</time>
   <energy>
    <i name="e_fr_energy">   -346.68493392 </i>
    <i name="e_wo_entrp">   -346.67908526 </i>
    <i name="e_0_energy">   -346.68298437 </i>
   </energy>
  </scstep>
  <scstep>
   <time name="dav">   23.90   23.95</time>
   <time name="total">   24.49   24.55</time>
   <energy>
    <i name="e_fr_energy">   -346.68497953 </i>
    <i name="e_wo_entrp">   -346.67894839 </i>
    <i name="e_0_energy">   -346.68296915 </i>
   </energy>
  </scstep>
  <scstep>
   <time name="dav">   23.32   23.35</time>
   <time name="total">   23.91   23.95</time>
   <energy>
    <i name="e_fr_energy">   -346.68498956 </i>
    <i name="e_wo_entrp">   -346.67906680 </i>
    <i name="e_0_energy">   -346.68301531 </i>
   </energy>
  </scstep>
  <scstep>
   <time name="dav">   20.16   20.21</time>
   <time name="total">   20.19   20.24</time>
   <energy>
    <i name="alphaZ">   1391.40685548 </i>
    <i name="ewald"> -12151.62781129 </i>
    <i name="hartreedc">  -2810.56242217 </i>
    <i name="XCdc">   -896.03966776 </i>
    <i name="pawpsdc">  21947.53217997 </i>
    <i name="pawaedc"> -20387.23951657 </i>
    <i name="eentropy">     -0.00592490 </i>
    <i name="bandstr">   -651.14009799 </i>
    <i name="atom">  13210.99149945 </i>
    <i name="e_fr_energy">   -346.68490578 </i>
    <i name="e_wo_entrp">   -346.67898089 </i>
    <i name="e_0_energy">   -346.68293082 </i>
   </energy>
  </scstep>
  <structure>
   <crystal>
    <varray name="basis" >
     <v>      -0.00483849      -0.00285308       6.36442020 </v>
     <v>       7.95882767       1.60408453       1.58434367 </v>
     <v>       0.01417055       9.54441130       3.17793048 </v>
    </varray>
    <i name="volume">    483.43208450 </i>
    <varray name="rec_basis" >
     <v>      -0.02073499      -0.05227239       0.15708431 </v>
     <v>       0.12567166      -0.00021836       0.00009544 </v>
     <v>      -0.02112725       0.10479443       0.00003092 </v>
    </varray>
   </crystal>
   <varray name="positions" >
    <v>      -0.00041859      -0.00411934      -0.00157876 </v>
    <v>       0.83096660      -0.00216413       0.33704379 </v>
    <v>       0.10008237       0.39910806       0.59919029 </v>
    <v>       0.20418475       0.79882049       0.19652643 </v>
    <v>       0.79591722       0.19927278       0.80215070 </v>
    <v>       0.93260471       0.40631967       0.93126899 </v>
    <v>       0.50318569      -0.00180269       0.00007878 </v>
    <v>       0.33151089       0.00101615       0.33636812 </v>
    <v>       0.46538241       0.19804453       0.46721024 </v>
    <v>       0.23221972       0.60097933       0.73381213 </v>
    <v>       0.73362114       0.60257600       0.73297415 </v>
    <v>       0.86535488       0.79643694       0.86854210 </v>
    <v>       0.14128217       0.19868598       0.13130953 </v>
    <v>       0.62779122       0.19744310       0.13236752 </v>
    <v>       0.67119468       0.00115402       0.66393882 </v>
    <v>       0.76599008       0.40082337       0.26770981 </v>
    <v>       0.39872342       0.60455912       0.39924683 </v>
    <v>       0.59932409       0.40066000       0.60089428 </v>
    <v>       0.16425169      -0.00035299       0.66511389 </v>
    <v>       0.26730677       0.39901997       0.26649503 </v>
    <v>       0.30147034       0.19896872       0.80335687 </v>
    <v>       0.90087412       0.60242700       0.39958489 </v>
    <v>       0.53135369       0.79706698       0.53594250 </v>
    <v>       0.36849870       0.79665041       0.86745007 </v>
    <v>       0.06611481       0.60071410       0.06622532 </v>
    <v>       0.56793010       0.60114569       0.06530869 </v>
    <v>       0.96884320       0.19961664       0.46554816 </v>
    <v>       0.69751027       0.80022024       0.19837104 </v>
    <v>       0.03493135       0.79966573       0.53457039 </v>
    <v>       0.43199753       0.40704411       0.93297941 </v>
   </varray>
  </structure>
  <varray name="forces" >
   <v>      -0.18862424      -0.15641056      -0.06592802 </v>
   <v>      -0.08053230       0.04279108      -0.00986438 </v>
   <v>      -0.13563848      -0.05631513       0.00042976 </v>
   <v>       0.02304076      -0.27653089      -0.04278034 </v>
   <v>       0.02664372       0.17636832      -0.12505035 </v>
   <v>       0.12592413      -0.02710560      -0.02114697 </v>
   <v>      -0.10060384      -0.06678416       0.01529319 </v>
   <v>       0.05852129       0.28741671      -0.03812365 </v>
   <v>      -0.10691886       0.05091959      -0.05384461 </v>
   <v>       0.11679908      -0.01662550       0.00260965 </v>
   <v>       0.20474862      -0.05408467       0.01672044 </v>
   <v>      -0.05351789      -0.01794316      -0.03324540 </v>
   <v>      -0.11760232      -0.22354550       0.05008002 </v>
   <v>      -0.12071959      -0.04438001      -0.11081821 </v>
   <v>       0.11523871      -0.15659463       0.14990266 </v>
   <v>      -0.15130512      -0.05611060      -0.01970565 </v>
   <v>       0.20577662      -0.06051634      -0.05797462 </v>
   <v>       0.06185328       0.06948863      -0.02017966 </v>
   <v>       0.01525184      -0.09726995      -0.21422609 </v>
   <v>      -0.04394142       0.02354545       0.04634744 </v>
   <v>      -0.12151643       0.38470820       0.17726056 </v>
   <v>       0.28230811       0.00156677       0.15543236 </v>
   <v>      -0.32964411       0.45941235      -0.07437705 </v>
   <v>      -0.12024415      -0.13132395       0.09063281 </v>
   <v>      -0.05826335       0.05727419      -0.02344498 </v>
   <v>      -0.03754520      -0.01281814       0.05977385 </v>
   <v>       0.06439019      -0.12130839       0.04385888 </v>
   <v>       0.07348537      -0.03410107      -0.02397316 </v>
   <v>      -0.02861644       0.03635792       0.12388521 </v>
   <v>       0.42125202       0.01991901       0.00245630 </v>
  </varray>
  <varray name="stress" >
   <v>      14.07588794       2.34007202      -0.87086539 </v>
   <v>       2.34007191      13.23084378      -1.14999990 </v>
   <v>      -0.87086559      -1.14999992      13.64833467 </v>
  </varray>
  <energy>
   <i name="e_fr_energy">   -346.68490578 </i>
   <i name="e_wo_entrp">   -346.68293082 </i>
   <i name="e_0_energy">     -0.00592490 </i>
  </energy>
  <time name="totalsc">  329.02  329.85</time>
 </calculation>
 <calculation>
  <scstep>
   <time name="dav">   20.31   20.33</time>
   <time name="total">   20.91   20.93</time>
   <energy>
    <i name="alphaZ">   1394.26947887 </i>
    <i name="ewald"> -12166.97904217 </i>
    <i name="hartreedc">  -2805.54786824 </i>
    <i name="XCdc">   -895.78650777 </i>
    <i name="pawpsdc">  21948.12715034 </i>
    <i name="pawaedc"> -20387.80425741 </i>
    <i name="eentropy">     -0.00482434 </i>
    <i name="bandstr">   -643.95063828 </i>
    <i name="atom">  13210.99149945 </i>
    <i name="e_fr_energy">   -346.68500955 </i>
    <i name="e_wo_entrp">   -346.68018521 </i>
    <i name="e_0_energy">   -346.68340143 </i>
   </energy>
  </scstep>
  <scstep>
   <time name="dav">   26.74   26.77</time>
   <time name="total">   27.34   27.37</time>
   <energy>
    <i name="e_fr_energy">   -346.72145521 </i>
    <i name="e_wo_entrp">   -346.71793553 </i>
    <i name="e_0_energy">   -346.72028198 </i>
   </energy>
  </scstep>
  <scstep>
   <time name="dav">   26.32   26.35</time>
   <time name="total">   26.92   26.97</time>
   <energy>
    <i name="e_fr_energy">   -346.71017350 </i>
    <i name="e_wo_entrp">   -346.70509265 </i>
    <i name="e_0_energy">   -346.70847988 </i>
   </energy>
  </scstep>
  <scstep>
   <time name="dav">   26.21   26.24</time>
   <time name="total">   26.80   26.83</time>
   <energy>
    <i name="e_fr_energy">   -346.70714424 </i>
    <i name="e_wo_entrp">   -346.70282304 </i>
    <i name="e_0_energy">   -346.70570384 </i>
   </energy>
  </scstep>
  <scstep>
   <time name="dav">   26.33   26.36</time>
   <time name="total">   26.91   26.94</time>
   <energy>
    <i name="e_fr_energy">   -346.70730205 </i>
    <i name="e_wo_entrp">   -346.70244042 </i>
    <i name="e_0_energy">   -346.70568150 </i>
   </energy>
  </scstep>
  <scstep>
   <time name="dav">   27.50   27.56</time>
   <time name="total">   28.10   28.17</time>
   <energy>
    <i name="e_fr_energy">   -346.70652357 </i>
    <i name="e_wo_entrp">   -346.70207404 </i>
    <i name="e_0_energy">   -346.70504039 </i>
   </energy>
  </scstep>
  <scstep>
   <time name="dav">   26.68   26.73</time>
   <time name="total">   27.28   27.34</time>
   <energy>
    <i name="e_fr_energy">   -346.70599137 </i>
    <i name="e_wo_entrp">   -346.70137309 </i>
    <i name="e_0_energy">   -346.70445194 </i>
   </energy>
  </scstep>
  <scstep>
   <time name="dav">   23.56   23.61</time>
   <time name="total">   24.16   24.21</time>
   <energy>
    <i name="e_fr_energy">   -346.70585134 </i>
    <i name="e_wo_entrp">   -346.70123846 </i>
    <i name="e_0_energy">   -346.70431371 </i>
   </energy>
  </scstep>
  <scstep>
   <time name="dav">   15.50   15.54</time>
   <time name="total">   15.54   15.59</time>
   <energy>
    <i name="alphaZ">   1394.26947887 </i>
    <i name="ewald"> -12166.97904217 </i>
    <i name="hartreedc">  -2801.42864301 </i>
    <i name="XCdc">   -895.89073432 </i>
    <i name="pawpsdc">  22024.14444947 </i>
    <i name="pawaedc"> -20464.11373345 </i>
    <i name="eentropy">     -0.00457859 </i>
    <i name="bandstr">   -647.69452829 </i>
    <i name="atom">  13210.99149945 </i>
    <i name="e_fr_energy">   -346.70583203 </i>
    <i name="e_wo_entrp">   -346.70125344 </i>
    <i name="e_0_energy">   -346.70430583 </i>
   </energy>
  </scstep>
  <structure>
   <crystal>
    <varray name="basis" >
     <v>      -0.00621616      -0.00366544       6.35998412 </v>
     <v>       7.95422289       1.60667119       1.58130947 </v>
     <v>       0.01820537       9.53712536       3.17449390 </v>
    </varray>
    <i name="volume">    482.43953319 </i>
    <varray name="rec_basis" >
     <v>      -0.02068814      -0.05227980       0.15718275 </v>
     <v>       0.12575172      -0.00028090       0.00012275 </v>
     <v>      -0.02119271       0.10488063       0.00003973 </v>
    </varray>
   </crystal>
   <varray name="positions" >
    <v>      -0.00054054      -0.00529391      -0.00202813 </v>
    <v>       0.83029102      -0.00278388       0.33810409 </v>
    <v>       0.10010521       0.39885401       0.59895938 </v>
    <v>       0.20537745       0.79848646       0.19553512 </v>
    <v>       0.79475230       0.19906349       0.80276494 </v>
    <v>       0.93239955       0.40812367       0.93067708 </v>
    <v>       0.50409384      -0.00231651       0.00010211 </v>
    <v>       0.33099210       0.00130422       0.33723432 </v>
    <v>       0.46501505       0.19748611       0.46736613 </v>
    <v>       0.23190256       0.60125831       0.73394844 </v>
    <v>       0.73370451       0.60331119       0.73287064 </v>
    <v>       0.86497916       0.79541918       0.86907893 </v>
    <v>       0.14354927       0.19831348       0.13073250 </v>
    <v>       0.62620817       0.19671312       0.13209233 </v>
    <v>       0.67248672       0.00148545       0.66315962 </v>
    <v>       0.76579768       0.40105764       0.26800737 </v>
    <v>       0.39836131       0.60586006       0.39902999 </v>
    <v>       0.59913176       0.40084773       0.60114939 </v>
    <v>       0.16356200      -0.00045333       0.66467044 </v>
    <v>       0.26748888       0.39874055       0.26644641 </v>
    <v>       0.30189020       0.19867303       0.80431599 </v>
    <v>       0.90112472       0.60311982       0.39946550 </v>
    <v>       0.53078790       0.79622849       0.53668860 </v>
    <v>       0.36901994       0.79569466       0.86767513 </v>
    <v>       0.06595760       0.60091797       0.06609899 </v>
    <v>       0.56829089       0.60147348       0.06492053 </v>
    <v>       0.96946382       0.19950820       0.46522900 </v>
    <v>       0.69679953       0.80028347       0.19790562 </v>
    <v>       0.03538749       0.79957001       0.53492389 </v>
    <v>       0.43161990       0.40905383       0.93287567 </v>
   </varray>
  </structure>
  <varray name="forces" >
   <v>      -0.04839734      -0.07898982       0.00654330 </v>
   <v>      -0.00840303      -0.13269448       0.02325845 </v>
   <v>      -0.13149850      -0.01043411       0.02439477 </v>
   <v>       0.08725656      -0.14365193      -0.13972302 </v>
   <v>       0.06924330       0.10706715      -0.03415341 </v>
   <v>      -0.13945247       0.01275897      -0.01719795 </v>
   <v>      -0.04729283      -0.08025212      -0.09881551 </v>
   <v>       0.02132832       0.18348605      -0.04680066 </v>
   <v>      -0.03823105       0.05457912      -0.01166629 </v>
   <v>       0.10193536      -0.06031875       0.02699517 </v>
   <v>       0.13414000      -0.07406860      -0.00714082 </v>
   <v>       0.11721268      -0.10184413       0.00931363 </v>
   <v>      -0.08827710      -0.16394255      -0.16827087 </v>
   <v>      -0.03929933       0.00736830       0.11188487 </v>
   <v>       0.09578003      -0.03543322       0.06860214 </v>
   <v>      -0.22209745      -0.13570387      -0.03597200 </v>
   <v>       0.05951158      -0.08070349      -0.07158281 </v>
   <v>       0.04650342       0.02915975      -0.03422767 </v>
   <v>       0.04051257      -0.02155870      -0.15242430 </v>
   <v>      -0.00487039       0.04871883       0.04385209 </v>
   <v>      -0.10884591       0.31172239       0.12086079 </v>
   <v>       0.24208561       0.00130699       0.15398436 </v>
   <v>      -0.27671773       0.46429518      -0.03937595 </v>
   <v>      -0.00129594      -0.18014406       0.06974092 </v>
   <v>      -0.11376971       0.09890578      -0.00437494 </v>
   <v>      -0.11031535       0.06346720       0.03962152 </v>
   <v>       0.10494393      -0.08634887      -0.00405417 </v>
   <v>       0.07982476       0.04813571       0.09917697 </v>
   <v>      -0.02096869      -0.01488910       0.07440514 </v>
   <v>       0.19945468      -0.02999361      -0.00685375 </v>
  </varray>
  <varray name="stress" >
   <v>      20.09403592       1.74510855      -0.61947591 </v>
   <v>       1.74510863      19.34109856      -1.05354531 </v>
   <v>      -0.61947592      -1.05354532      19.84392642 </v>
  </varray>
  <energy>
   <i name="e_fr_energy">   -346.70583203 </i>
   <i name="e_wo_entrp">   -346.70430583 </i>
   <i name="e_0_energy">     -0.00457859 </i>
  </energy>
  <time name="totalsc">  242.36  242.79</time>
 </calculation>
 <calculation>
  <scstep>
   <time name="dav">   23.62   23.66</time>
   <time name="total">   24.22   24.26</time>
   <energy>
    <i name="alphaZ">   1356.58569625 </i>
    <i name="ewald"> -12060.71070576 </i>
    <i name="hartreedc">  -2771.52727162 </i>
    <i name="XCdc">   -899.42227987 </i>
    <i name="pawpsdc">  22024.87350551 </i>
    <i name="pawaedc"> -20464.78409312 </i>
    <i name="eentropy">      0.00279348 </i>
    <i name="bandstr">   -743.27849015 </i>
    <i name="atom">  13210.99149945 </i>
    <i name="e_fr_energy">   -347.26934584 </i>
    <i name="e_wo_entrp">   -347.27213932 </i>
    <i name="e_0_energy">   -347.27027700 </i>
   </energy>
  </scstep>
  <scstep>
   <time name="dav">   29.72   29.77</time>
   <time name="total">   30.32   30.37</time>
   <energy>
    <i name="e_fr_energy">   -347.47473267 </i>
    <i name="e_wo_entrp">   -347.46563702 </i>
    <i name="e_0_energy">   -347.47170079 </i>
   </energy>
  </scstep>
  <scstep>
   <time name="dav">   26.20   26.24</time>
   <time name="total">   26.80   26.85</time>
   <energy>
    <i name="e_fr_energy">   -346.97835667 </i>
    <i name="e_wo_entrp">   -346.98384547 </i>
    <i name="e_0_energy">   -346.98018627 </i>
   </energy>
  </scstep>
  <scstep>
   <time name="dav">   28.38   28.42</time>
   <time name="total">   28.97   29.02</time>
   <energy>
    <i name="e_fr_energy">   -346.76527025 </i>
    <i name="e_wo_entrp">   -346.76475243 </i>
    <i name="e_0_energy">   -346.76509765 </i>
   </energy>
  </scstep>
  <scstep>
   <time name="dav">   25.88   25.93</time>
   <time name="total">   26.48   26.53</time>
   <energy>
    <i name="e_fr_energy">   -346.71072160 </i>
    <i name="e_wo_entrp">   -346.71350015 </i>
    <i name="e_0_energy">   -346.71164778 </i>
   </energy>
  </scstep>
  <scstep>
   <time name="dav">   26.35   26.39</time>
   <time name="total">   26.96   27.01</time>
   <energy>
    <i name="e_fr_energy">   -346.65475676 </i>
    <i name="e_wo_entrp">   -346.65512145 </i>
    <i name="e_0_energy">   -346.65487832 </i>
   </energy>
  </scstep>
  <scstep>
   <time name="dav">   27.94   27.98</time>
   <time name="total">   28.53   28.58</time>
   <energy>
    <i name="e_fr_energy">   -346.66315965 </i>
    <i name="e_wo_entrp">   -346.66379200 </i>
    <i name="e_0_energy">   -346.66337043 </i>
   </energy>
  </scstep>
  <scstep>
   <time name="dav">   25.85   25.88</time>
   <time name="total">   26.46   26.49</time>
   <energy>
    <i name="e_fr_energy">   -346.65828024 </i>
    <i name="e_wo_entrp">   -346.65865488 </i>
    <i name="e_0_energy">   -346.65840512 </i>
   </energy>
  </scstep>
  <scstep>
   <time name="dav">   26.50   26.53</time>
   <time name="total">   27.10   27.14</time>
   <energy>
    <i name="e_fr_energy">   -346.65939511 </i>
    <i name="e_wo_entrp">   -346.65992287 </i>
    <i name="e_0_energy">   -346.65957103 </i>
   </energy>
  </scstep>
  <scstep>
   <time name="dav">   26.44   26.47</time>
   <time name="total">   27.03   27.06</time>
   <energy>
    <i name="e_fr_energy">   -346.66083654 </i>
    <i name="e_wo_entrp">   -346.66141263 </i>
    <i name="e_0_energy">   -346.66102857 </i>
   </energy>
  </scstep>
  <scstep>
   <time name="dav">   27.40   27.54</time>
   <time name="total">   28.03   28.18</time>
   <energy>
    <i name="e_fr_energy">   -346.66133516 </i>
    <i name="e_wo_entrp">   -346.66198650 </i>
    <i name="e_0_energy">   -346.66155227 </i>
   </energy>
  </scstep>
  <scstep>
   <time name="dav">   25.80   25.84</time>
   <time name="total">   26.39   26.44</time>
   <energy>
    <i name="e_fr_energy">   -346.66142405 </i>
    <i name="e_wo_entrp">   -346.66219208 </i>
    <i name="e_0_energy">   -346.66168006 </i>
   </energy>
  </scstep>
  <scstep>
   <time name="dav">   24.40   24.44</time>
   <time name="total">   24.99   25.03</time>
   <energy>
    <i name="e_fr_energy">   -346.66137164 </i>
    <i name="e_wo_entrp">   -346.66201069 </i>
    <i name="e_0_energy">   -346.66158466 </i>
   </energy>
  </scstep>
  <scstep>
   <time name="dav">   16.45   16.47</time>
   <time name="total">   16.48   16.50</time>
   <energy>
    <i name="alphaZ">   1356.58569625 </i>
    <i name="ewald"> -12060.71070576 </i>
    <i name="hartreedc">  -2818.54278280 </i>
    <i name="XCdc">   -898.02019456 </i>
    <i name="pawpsdc">  21112.50845732 </i>
    <i name="pawaedc"> -19552.09836412 </i>
    <i name="eentropy">      0.00065955 </i>
    <i name="bandstr">   -697.37561163 </i>
    <i name="atom">  13210.99149945 </i>
    <i name="e_fr_energy">   -346.66134630 </i>
    <i name="e_wo_entrp">   -346.66200585 </i>
    <i name="e_0_energy">   -346.66156615 </i>
   </energy>
  </scstep>
  <structure>
   <crystal>
    <varray name="basis" >
     <v>      -0.01018211      -0.00824884       6.41851205 </v>
     <v>       8.03066661       1.63235429       1.58983308 </v>
     <v>       0.03140939       9.61988041       3.19688347 </v>
    </varray>
    <i name="volume">    495.84093242 </i>
    <varray name="rec_basis" >
     <v>      -0.02032014      -0.05167619       0.15570070 </v>
     <v>       0.12457965      -0.00047223       0.00019702 </v>
     <v>      -0.02115678       0.10398722       0.00010008 </v>
    </varray>
   </crystal>
   <varray name="positions" >
    <v>      -0.00039499      -0.00721610      -0.00301506 </v>
    <v>       0.82991195      -0.00368788       0.33886061 </v>
    <v>       0.10049838       0.39766234       0.59872862 </v>
    <v>       0.20618624       0.79858930       0.19331058 </v>
    <v>       0.79252004       0.19921757       0.80410655 </v>
    <v>       0.93209409       0.40970745       0.93008182 </v>
    <v>       0.50481277      -0.00332477      -0.00024376 </v>
    <v>       0.32939326       0.00183299       0.33938234 </v>
    <v>       0.46431144       0.19647290       0.46791372 </v>
    <v>       0.23173677       0.60229598       0.73370288 </v>
    <v>       0.73381823       0.60518224       0.73218699 </v>
    <v>       0.86468503       0.79477386       0.86914568 </v>
    <v>       0.14584443       0.19723803       0.12915838 </v>
    <v>       0.62495162       0.19545887       0.13179660 </v>
    <v>       0.67480470       0.00255662       0.66179615 </v>
    <v>       0.76584141       0.39995678       0.26793026 </v>
    <v>       0.39744340       0.60802932       0.39823533 </v>
    <v>       0.59846670       0.40140292       0.60160540 </v>
    <v>       0.16140750      -0.00033189       0.66390179 </v>
    <v>       0.26796555       0.39832518       0.26664565 </v>
    <v>       0.30271954       0.19756469       0.80741884 </v>
    <v>       0.90244467       0.60562479       0.39904683 </v>
    <v>       0.52874901       0.79329489       0.54049599 </v>
    <v>       0.37077587       0.79437655       0.86702302 </v>
    <v>       0.06556304       0.60046711       0.06657716 </v>
    <v>       0.56905132       0.60121606       0.06484579 </v>
    <v>       0.97040312       0.20003376       0.46421540 </v>
    <v>       0.69640548       0.80088226       0.19743745 </v>
    <v>       0.03667224       0.79930461       0.53535283 </v>
    <v>       0.43091719       0.41309356       0.93235614 </v>
   </varray>
  </structure>
  <varray name="forces" >
   <v>       0.06087446       0.06652344      -0.03936584 </v>
   <v>       0.08149751      -0.16643472       0.04538217 </v>
   <v>      -0.02919962       0.01967627       0.05676627 </v>
   <v>       0.07742330       0.00702936      -0.06981046 </v>
   <v>       0.10397986      -0.00992019      -0.00496598 </v>
   <v>      -0.19534965       0.07218805      -0.01526483 </v>
   <v>       0.02827649       0.03966135      -0.07880075 </v>
   <v>       0.00880740      -0.06667639      -0.04726740 </v>
   <v>       0.05004036      -0.00640240       0.08908518 </v>
   <v>      -0.04062867      -0.06235386      -0.00867107 </v>
   <v>      -0.08311595      -0.02328672       0.04880406 </v>
   <v>       0.15890922      -0.06935671       0.03140064 </v>
   <v>       0.01116536      -0.02316875      -0.23645955 </v>
   <v>       0.02464234       0.02751491       0.17029978 </v>
   <v>       0.09689351       0.04715937       0.05223118 </v>
   <v>      -0.16477838      -0.09772971      -0.03269068 </v>
   <v>      -0.11664795      -0.08089728      -0.03145771 </v>
   <v>       0.01889056      -0.08211963      -0.03919252 </v>
   <v>       0.07675467       0.04472228      -0.07801077 </v>
   <v>       0.00252483       0.02511236       0.00810499 </v>
   <v>      -0.03555148       0.11696195       0.05621214 </v>
   <v>       0.12060839      -0.02199124       0.07923074 </v>
   <v>      -0.13122586       0.31406298       0.03424186 </v>
   <v>       0.10250760      -0.12795494       0.01211834 </v>
   <v>      -0.10479834       0.02254202      -0.03757992 </v>
   <v>      -0.08873678       0.09834700       0.06318507 </v>
   <v>       0.07159322      -0.00920913      -0.10859261 </v>
   <v>       0.00663277       0.01786580       0.10613253 </v>
   <v>       0.04237536      -0.10467992      -0.02854412 </v>
   <v>      -0.15436454       0.03281444       0.00347927 </v>
  </varray>
  <varray name="stress" >
   <v>     -38.37742711      -0.65471491      -0.32066771 </v>
   <v>      -0.65471496     -38.30554956       0.10799991 </v>
   <v>      -0.32066785       0.10799996     -37.93251607 </v>
  </varray>
  <energy>
   <i name="e_fr_energy">   -346.66134630 </i>
   <i name="e_wo_entrp">   -346.66156615 </i>
   <i name="e_0_energy">      0.00065955 </i>
  </energy>
  <time name="totalsc">  386.33  387.06</time>
 </calculation>
 <calculation>
  <scstep>
   <time name="dav">   23.27   23.29</time>
   <time name="total">   23.87   23.90</time>
   <energy>
    <i name="alphaZ">   1378.33230804 </i>
    <i name="ewald"> -12122.44750118 </i>
    <i name="hartreedc">  -2835.90958692 </i>
    <i name="XCdc">   -895.96076761 </i>
    <i name="pawpsdc">  21113.31835013 </i>
    <i name="pawaedc"> -19553.04589850 </i>
    <i name="eentropy">     -0.00389180 </i>
    <i name="bandstr">   -642.23764112 </i>
    <i name="atom">  13210.99149945 </i>
    <i name="e_fr_energy">   -346.96312951 </i>
    <i name="e_wo_entrp">   -346.95923771 </i>
    <i name="e_0_energy">   -346.96183225 </i>
   </energy>
  </scstep>
  <scstep>
   <time name="dav">   28.39   28.42</time>
   <time name="total">   28.99   29.02</time>
   <energy>
    <i name="e_fr_energy">   -347.03836823 </i>
    <i name="e_wo_entrp">   -347.04286503 </i>
    <i name="e_0_energy">   -347.03986716 </i>
   </energy>
  </scstep>
  <scstep>
   <time name="dav">   26.53   26.56</time>
   <time name="total">   27.13   27.16</time>
   <energy>
    <i name="e_fr_energy">   -346.84789980 </i>
    <i name="e_wo_entrp">   -346.84336965 </i>
    <i name="e_0_energy">   -346.84638975 </i>
   </energy>
  </scstep>
  <scstep>
   <time name="dav">   27.81   27.84</time>
   <time name="total">   28.41   28.44</time>
   <energy>
    <i name="e_fr_energy">   -346.79561288 </i>
    <i name="e_wo_entrp">   -346.79525663 </i>
    <i name="e_0_energy">   -346.79549413 </i>
   </energy>
  </scstep>
  <scstep>
   <time name="dav">   26.06   26.09</time>
   <time name="total">   26.66   26.69</time>
   <energy>
    <i name="e_fr_energy">   -346.76899022 </i>
    <i name="e_wo_entrp">   -346.76605837 </i>
    <i name="e_0_energy">   -346.76801294 </i>
   </energy>
  </scstep>
  <scstep>
   <time name="dav">   26.82   26.85</time>
   <time name="total">   27.42   27.45</time>
   <energy>
    <i name="e_fr_energy">   -346.75394546 </i>
    <i name="e_wo_entrp">   -346.75207685 </i>
    <i name="e_0_energy">   -346.75332259 </i>
   </energy>
  </scstep>
  <scstep>
   <time name="dav">   27.81   27.84</time>
   <time name="total">   28.40   28.43</time>
   <energy>
    <i name="e_fr_energy">   -346.75660545 </i>
    <i name="e_wo_entrp">   -346.75449508 </i>
    <i name="e_0_energy">   -346.75590199 </i>
   </energy>
  </scstep>
  <scstep>
   <time name="dav">   26.46   26.49</time>
   <time name="total">   27.06   27.09</time>
   <energy>
    <i name="e_fr_energy">   -346.75512176 </i>
    <i name="e_wo_entrp">   -346.75301608 </i>
    <i name="e_0_energy">   -346.75441987 </i>
   </energy>
  </scstep>
  <scstep>
   <time name="dav">   24.60   24.62</time>
   <time name="total">   25.22   25.25</time>
   <energy>
    <i name="e_fr_energy">   -346.75540134 </i>
    <i name="e_wo_entrp">   -346.75322460 </i>
    <i name="e_0_energy">   -346.75467576 </i>
   </energy>
  </scstep>
  <scstep>
   <time name="dav">   25.57   25.59</time>
   <time name="total">   26.17   26.20</time>
   <energy>
    <i name="e_fr_energy">   -346.75610925 </i>
    <i name="e_wo_entrp">   -346.75390087 </i>
    <i name="e_0_energy">   -346.75537312 </i>
   </energy>
  </scstep>
  <scstep>
   <time name="dav">   27.46   27.49</time>
   <time name="total">   28.06   28.09</time>
   <energy>
    <i name="e_fr_energy">   -346.75632681 </i>
    <i name="e_wo_entrp">   -346.75408686 </i>
    <i name="e_0_energy">   -346.75558016 </i>
   </energy>
  </scstep>
  <scstep>
   <time name="dav">   24.21   24.24</time>
   <time name="total">   24.82   24.85</time>
   <energy>
    <i name="e_fr_energy">   -346.75635039 </i>
    <i name="e_wo_entrp">   -346.75406325 </i>
    <i name="e_0_energy">   -346.75558801 </i>
   </energy>
  </scstep>
  <scstep>
   <time name="dav">   16.47   16.48</time>
   <time name="total">   16.50   16.51</time>
   <energy>
    <i name="alphaZ">   1378.33230804 </i>
    <i name="ewald"> -12122.44750118 </i>
    <i name="hartreedc">  -2808.31568117 </i>
    <i name="XCdc">   -896.78649792 </i>
    <i name="pawpsdc">  21635.61941118 </i>
    <i name="pawaedc"> -20075.56630444 </i>
    <i name="eentropy">     -0.00224794 </i>
    <i name="bandstr">   -668.58130902 </i>
    <i name="atom">  13210.99149945 </i>
    <i name="e_fr_energy">   -346.75632299 </i>
    <i name="e_wo_entrp">   -346.75407505 </i>
    <i name="e_0_energy">   -346.75557368 </i>
   </energy>
  </scstep>
  <structure>
   <crystal>
    <varray name="basis" >
     <v>      -0.00787567      -0.00558331       6.38447444 </v>
     <v>       7.98620986       1.61741798       1.58487607 </v>
     <v>       0.02373043       9.57175323       3.18386255 </v>
    </varray>
    <i name="volume">    488.01781153 </i>
    <varray name="rec_basis" >
     <v>      -0.02053287      -0.05202553       0.15655914 </v>
     <v>       0.12525852      -0.00036183       0.00015420 </v>
     <v>      -0.02117794       0.10450486       0.00006527 </v>
    </varray>
   </crystal>
   <varray name="positions" >
    <v>      -0.00047650      -0.00610982      -0.00244709 </v>
    <v>       0.83013067      -0.00316634       0.33842384 </v>
    <v>       0.10027311       0.39834845       0.59886088 </v>
    <v>       0.20572159       0.79852775       0.19459339 </v>
    <v>       0.79380503       0.19913070       0.80333342 </v>
    <v>       0.93226900       0.40879467       0.93042616 </v>
    <v>       0.50439974      -0.00274450      -0.00004507 </v>
    <v>       0.33031252       0.00153086       0.33814423 </v>
    <v>       0.46471735       0.19705725       0.46759745 </v>
    <v>       0.23183149       0.60169806       0.73384518 </v>
    <v>       0.73375145       0.60410379       0.73258239 </v>
    <v>       0.86485501       0.79514573       0.86910685 </v>
    <v>       0.14452418       0.19785540       0.13006503 </v>
    <v>       0.62567681       0.19618143       0.13196667 </v>
    <v>       0.67346924       0.00193767       0.66258263 </v>
    <v>       0.76581726       0.40059082       0.26797404 </v>
    <v>       0.39797071       0.60677928       0.39869516 </v>
    <v>       0.59884905       0.40108373       0.60134290 </v>
    <v>       0.16264902      -0.00040196       0.66434564 </v>
    <v>       0.26769121       0.39856450       0.26653038 </v>
    <v>       0.30224086       0.19820580       0.80562851 </v>
    <v>       0.90168227       0.60418109       0.39928952 </v>
    <v>       0.52992388       0.79498887       0.53829886 </v>
    <v>       0.36976591       0.79513472       0.86739790 </v>
    <v>       0.06579045       0.60072738       0.06630120 </v>
    <v>       0.56861353       0.60136406       0.06488857 </v>
    <v>       0.96986216       0.19972981       0.46480007 </v>
    <v>       0.69663223       0.80053701       0.19770791 </v>
    <v>       0.03593210       0.79945753       0.53510500 </v>
    <v>       0.43131868       0.41076627       0.93265839 </v>
   </varray>
  </structure>
  <varray name="forces" >
   <v>      -0.00654858      -0.01916262      -0.01265748 </v>
   <v>       0.02996529      -0.14152499       0.02923799 </v>
   <v>      -0.09136247      -0.00332623       0.03787409 </v>
   <v>       0.08321768      -0.08591717      -0.10591809 </v>
   <v>       0.08465257       0.05932215      -0.02752408 </v>
   <v>      -0.15887092       0.04147715      -0.01634046 </v>
   <v>      -0.01241656      -0.02861478      -0.09204088 </v>
   <v>       0.01437190       0.07140843      -0.04506962 </v>
   <v>       0.00201897       0.02977242       0.03347056 </v>
   <v>       0.04115898      -0.06238208       0.01138603 </v>
   <v>       0.04191712      -0.05544211       0.01511965 </v>
   <v>       0.13568792      -0.08924784       0.01683333 </v>
   <v>      -0.04450171      -0.09617690      -0.21653284 </v>
   <v>       0.00841973       0.01577946       0.14682510 </v>
   <v>       0.08852798      -0.00012264       0.06240780 </v>
   <v>      -0.21494489      -0.10507731      -0.02266022 </v>
   <v>      -0.01857037      -0.08191549      -0.04384551 </v>
   <v>       0.03971100      -0.02632069      -0.03444801 </v>
   <v>       0.05347126       0.00308818      -0.11965228 </v>
   <v>       0.00200157       0.03599007       0.03011170 </v>
   <v>      -0.08234040       0.22613203       0.09136874 </v>
   <v>       0.18917333      -0.00350162       0.12235602 </v>
   <v>      -0.20973288       0.40125952      -0.00799702 </v>
   <v>       0.04837906      -0.15647629       0.04396134 </v>
   <v>      -0.11202142       0.06805423      -0.01951253 </v>
   <v>      -0.10294263       0.07920183       0.04961359 </v>
   <v>       0.09430222      -0.05494954      -0.05312244 </v>
   <v>       0.04609254       0.03793828       0.10009097 </v>
   <v>       0.00580072      -0.05597605       0.02888333 </v>
   <v>       0.04538298      -0.00328942      -0.00221877 </v>
  </varray>
  <varray name="stress" >
   <v>      -5.61146701       0.74540278      -0.49302143 </v>
   <v>       0.74540281      -6.13914002      -0.47007243 </v>
   <v>      -0.49302127      -0.47007240      -5.69317103 </v>
  </varray>
  <energy>
   <i name="e_fr_energy">   -346.75632299 </i>
   <i name="e_wo_entrp">   -346.75557368 </i>
   <i name="e_0_energy">     -0.00224794 </i>
  </energy>
  <time name="totalsc">  356.37  356.80</time>
 </calculation>
 <calculation>
  <scstep>
   <time name="dav">   20.26   20.29</time>
   <time name="total">   20.86   20.90</time>
   <energy>
    <i name="alphaZ">   1380.42223453 </i>
    <i name="ewald"> -12124.96800564 </i>
    <i name="hartreedc">  -2813.16810933 </i>
    <i name="XCdc">   -896.58301011 </i>
    <i name="pawpsdc">  21635.17035843 </i>
    <i name="pawaedc"> -20075.06047369 </i>
    <i name="eentropy">      0.00130406 </i>
    <i name="bandstr">   -663.58413219 </i>
    <i name="atom">  13210.99149945 </i>
    <i name="e_fr_energy">   -346.77833447 </i>
    <i name="e_wo_entrp">   -346.77963854 </i>
    <i name="e_0_energy">   -346.77876916 </i>
   </energy>
  </scstep>
  <scstep>
   <time name="dav">   28.23   28.31</time>
   <time name="total">   28.82   28.92</time>
   <energy>
    <i name="e_fr_energy">   -346.79251072 </i>
    <i name="e_wo_entrp">   -346.79373600 </i>
    <i name="e_0_energy">   -346.79291914 </i>
   </energy>
  </scstep>
  <scstep>
   <time name="dav">   27.90   27.98</time>
   <time name="total">   28.49   28.58</time>
   <energy>
    <i name="e_fr_energy">   -346.79185329 </i>
    <i name="e_wo_entrp">   -346.79303404 </i>
    <i name="e_0_energy">   -346.79224687 </i>
   </energy>
  </scstep>
  <scstep>
   <time name="dav">   25.89   25.97</time>
   <time name="total">   26.49   26.57</time>
   <energy>
    <i name="e_fr_energy">   -346.78942393 </i>
    <i name="e_wo_entrp">   -346.79058538 </i>
    <i name="e_0_energy">   -346.78981108 </i>
   </energy>
  </scstep>
  <scstep>
   <time name="dav">   26.23   26.27</time>
   <time name="total">   26.83   26.88</time>
   <energy>
    <i name="e_fr_energy">   -346.78907853 </i>
    <i name="e_wo_entrp">   -346.79037170 </i>
    <i name="e_0_energy">   -346.78950958 </i>
   </energy>
  </scstep>
  <scstep>
   <time name="dav">   25.41   25.45</time>
   <time name="total">   26.01   26.05</time>
   <energy>
    <i name="e_fr_energy">   -346.78855522 </i>
    <i name="e_wo_entrp">   -346.78952959 </i>
    <i name="e_0_energy">   -346.78888001 </i>
   </energy>
  </scstep>
  <scstep>
   <time name="dav">   23.97   24.00</time>
   <time name="total">   24.56   24.60</time>
   <energy>
    <i name="e_fr_energy">   -346.78817132 </i>
    <i name="e_wo_entrp">   -346.78937708 </i>
    <i name="e_0_energy">   -346.78857324 </i>
   </energy>
  </scstep>
  <scstep>
   <time name="dav">   19.53   19.58</time>
   <time name="total">   19.56   19.62</time>
   <energy>
    <i name="alphaZ">   1380.42223453 </i>
    <i name="ewald"> -12124.96800564 </i>
    <i name="hartreedc">  -2810.57905479 </i>
    <i name="XCdc">   -896.65339692 </i>
    <i name="pawpsdc">  21686.71242374 </i>
    <i name="pawaedc"> -20126.69325508 </i>
    <i name="eentropy">      0.00112993 </i>
    <i name="bandstr">   -666.02172278 </i>
    <i name="atom">  13210.99149945 </i>
    <i name="e_fr_energy">   -346.78814756 </i>
    <i name="e_wo_entrp">   -346.78927749 </i>
    <i name="e_0_energy">   -346.78852420 </i>
   </energy>
  </scstep>
  <structure>
   <crystal>
    <varray name="basis" >
     <v>      -0.01023692      -0.00802872       6.38165032 </v>
     <v>       7.98393267       1.62132461       1.58060246 </v>
     <v>       0.02934084       9.56370551       3.17877908 </v>
    </varray>
    <i name="volume">    487.27896415 </i>
    <varray name="rec_basis" >
     <v>      -0.02044534      -0.05198825       0.15660108 </v>
     <v>       0.12530347      -0.00045104       0.00020043 </v>
     <v>      -0.02125973       0.10459480       0.00009749 </v>
    </varray>
   </crystal>
   <varray name="positions" >
    <v>      -0.00048115      -0.00659612      -0.00276193 </v>
    <v>       0.83055222      -0.00320634       0.33790607 </v>
    <v>       0.10072439       0.39755436       0.59887864 </v>
    <v>       0.20528783       0.79902255       0.19358840 </v>
    <v>       0.79287136       0.19964305       0.80384584 </v>
    <v>       0.93213219       0.40826784       0.93063351 </v>
    <v>       0.50399703      -0.00305056      -0.00024906 </v>
    <v>       0.32944011       0.00173379       0.33896933 </v>
    <v>       0.46471708       0.19683122       0.46786408 </v>
    <v>       0.23198132       0.60217427       0.73345459 </v>
    <v>       0.73397612       0.60477925       0.73212114 </v>
    <v>       0.86498853       0.79576212       0.86857284 </v>
[...]
       <r>    5.2850    1.0000 </r>
       <r>    5.3452    1.0000 </r>
       <r>    5.3779    1.0000 </r>
       <r>    5.4082    1.0000 </r>
       <r>    5.4505    1.0000 </r>
       <r>    5.4877    1.0000 </r>
       <r>    5.5232    1.0000 </r>
       <r>    5.6203    1.0000 </r>
       <r>    5.6412    1.0000 </r>
       <r>    5.6938    1.0000 </r>
       <r>    5.7873    1.0000 </r>
       <r>    5.8843    1.0000 </r>
       <r>    5.9226    1.0000 </r>
       <r>    5.9901    1.0000 </r>
       <r>    6.0244    1.0000 </r>
       <r>    6.0604    1.0000 </r>
       <r>    6.1223    1.0000 </r>
       <r>    6.1517    1.0000 </r>
       <r>    6.1965    1.0000 </r>
       <r>    6.2489    1.0000 </r>
       <r>    6.2875    1.0000 </r>
       <r>    6.3278    1.0001 </r>
       <r>    6.3594    1.0002 </r>
       <r>    6.4227    1.0008 </r>
       <r>    6.4571    1.0018 </r>
       <r>    6.4982    1.0041 </r>
       <r>    6.5415    1.0086 </r>
       <r>    6.5934    1.0178 </r>
       <r>    6.6936    1.0354 </r>
       <r>    6.7520    1.0152 </r>
       <r>    6.7756    0.9914 </r>
       <r>    6.8253    0.8997 </r>
       <r>    6.8771    0.7403 </r>
       <r>    6.9913    0.2781 </r>
       <r>    7.0285    0.1533 </r>
       <r>    7.0757    0.0419 </r>
       <r>    7.1491   -0.0304 </r>
       <r>    7.3253   -0.0096 </r>
       <r>    7.3759   -0.0040 </r>
       <r>    7.4049   -0.0023 </r>
       <r>    7.7046   -0.0000 </r>
       <r>    7.7659   -0.0000 </r>
       <r>    7.8962   -0.0000 </r>
       <r>    8.0375   -0.0000 </r>
       <r>    8.0953   -0.0000 </r>
       <r>    8.2013   -0.0000 </r>
       <r>    8.3061   -0.0000 </r>
       <r>    8.3583   -0.0000 </r>
       <r>    8.4581   -0.0000 </r>
       <r>    8.4797   -0.0000 </r>
       <r>    8.5437   -0.0000 </r>
       <r>    8.5890   -0.0000 </r>
       <r>    8.6749   -0.0000 </r>
       <r>    8.7721   -0.0000 </r>
       <r>    8.8975   -0.0000 </r>
       <r>    8.9539   -0.0000 </r>
       <r>    9.0059   -0.0000 </r>
       <r>    9.0534   -0.0000 </r>
       <r>    9.1164   -0.0000 </r>
       <r>    9.2016   -0.0000 </r>
      </set>
     </set>
    </set>
   </array>
  </eigenvalues>
  <separator name="orbital magnetization" >
   <v name="MAGDIPOLOUT">      0.00000000      0.00000000      0.00000000</v>
  </separator>
  <dos>
   <i name="efermi">      6.93669124 </i>
   <total>
    <array>
     <dimension dim="1">gridpoints</dimension>
     <dimension dim="2">spin</dimension>
     <field>energy</field>
     <field>total</field>
     <field>integrated</field>
     <set>
      <set comment="spin 1">
       <r>   -49.9365     0.0000     0.0000 </r>
       <r>   -49.7292     0.0000     0.0000 </r>
       <r>   -49.5219     0.0000     0.0000 </r>
       <r>   -49.3146     0.0000     0.0000 </r>
       <r>   -49.1073     0.0000     0.0000 </r>
       <r>   -48.9000    -0.0000    -0.0000 </r>
       <r>   -48.6927    -0.0000    -0.0000 </r>
       <r>   -48.4854    -0.0000    -0.0000 </r>
       <r>   -48.2781    -0.0000    -0.0000 </r>
       <r>   -48.0708    -0.0000    -0.0000 </r>
       <r>   -47.8635    -0.0000    -0.0000 </r>
       <r>   -47.6562    -0.0075    -0.0016 </r>
       <r>   -47.4489    -0.4804    -0.1012 </r>
       <r>   -47.2416     0.4438    -0.0092 </r>
       <r>   -47.0343    27.0801     5.6046 </r>
       <r>   -46.8270    28.2296    11.4566 </r>
       <r>   -46.6197     3.2986    12.1404 </r>
       <r>   -46.4124    -0.6438    12.0069 </r>
       <r>   -46.2051    -0.0331    12.0000 </r>
       <r>   -45.9978    -0.0001    12.0000 </r>
       <r>   -45.7905    -0.0000    12.0000 </r>
       <r>   -45.5832    -0.0000    12.0000 </r>
       <r>   -45.3759     0.0000    12.0000 </r>
       <r>   -45.1686     0.0000    12.0000 </r>
       <r>   -44.9613     0.0000    12.0000 </r>
       <r>   -44.7540     0.0000    12.0000 </r>
       <r>   -44.5467     0.0000    12.0000 </r>
       <r>   -44.3394     0.0000    12.0000 </r>
       <r>   -44.1321     0.0000    12.0000 </r>
       <r>   -43.9248     0.0000    12.0000 </r>
       <r>   -43.7175     0.0000    12.0000 </r>
       <r>   -43.5102     0.0000    12.0000 </r>
       <r>   -43.3029     0.0000    12.0000 </r>
       <r>   -43.0956     0.0000    12.0000 </r>
       <r>   -42.8883     0.0000    12.0000 </r>
       <r>   -42.6810     0.0000    12.0000 </r>
       <r>   -42.4737     0.0000    12.0000 </r>
       <r>   -42.2664     0.0000    12.0000 </r>
       <r>   -42.0591     0.0000    12.0000 </r>
       <r>   -41.8518     0.0000    12.0000 </r>
       <r>   -41.6445     0.0000    12.0000 </r>
       <r>   -41.4372     0.0000    12.0000 </r>
       <r>   -41.2299     0.0000    12.0000 </r>
       <r>   -41.0226     0.0000    12.0000 </r>
       <r>   -40.8153     0.0000    12.0000 </r>
       <r>   -40.6080     0.0000    12.0000 </r>
       <r>   -40.4007     0.0000    12.0000 </r>
       <r>   -40.1934     0.0000    12.0000 </r>
       <r>   -39.9861     0.0000    12.0000 </r>
       <r>   -39.7787     0.0000    12.0000 </r>
       <r>   -39.5714     0.0000    12.0000 </r>
       <r>   -39.3641     0.0000    12.0000 </r>
       <r>   -39.1568     0.0000    12.0000 </r>
       <r>   -38.9495     0.0000    12.0000 </r>
       <r>   -38.7422     0.0000    12.0000 </r>
       <r>   -38.5349     0.0000    12.0000 </r>
       <r>   -38.3276     0.0000    12.0000 </r>
       <r>   -38.1203     0.0000    12.0000 </r>
       <r>   -37.9130     0.0000    12.0000 </r>
       <r>   -37.7057     0.0000    12.0000 </r>
       <r>   -37.4984     0.0000    12.0000 </r>
       <r>   -37.2911     0.0000    12.0000 </r>
       <r>   -37.0838     0.0000    12.0000 </r>
       <r>   -36.8765     0.0000    12.0000 </r>
       <r>   -36.6692     0.0000    12.0000 </r>
       <r>   -36.4619     0.0000    12.0000 </r>
       <r>   -36.2546     0.0000    12.0000 </r>
       <r>   -36.0473     0.0000    12.0000 </r>
       <r>   -35.8400     0.0000    12.0000 </r>
       <r>   -35.6327     0.0000    12.0000 </r>
       <r>   -35.4254     0.0000    12.0000 </r>
       <r>   -35.2181     0.0000    12.0000 </r>
       <r>   -35.0108     0.0000    12.0000 </r>
       <r>   -34.8035     0.0000    12.0000 </r>
       <r>   -34.5962     0.0000    12.0000 </r>
       <r>   -34.3889     0.0000    12.0000 </r>
       <r>   -34.1816     0.0000    12.0000 </r>
       <r>   -33.9743     0.0000    12.0000 </r>
       <r>   -33.7670     0.0000    12.0000 </r>
       <r>   -33.5597     0.0000    12.0000 </r>
       <r>   -33.3524     0.0000    12.0000 </r>
       <r>   -33.1451     0.0000    12.0000 </r>
       <r>   -32.9378     0.0000    12.0000 </r>
       <r>   -32.7305     0.0000    12.0000 </r>
       <r>   -32.5232     0.0000    12.0000 </r>
       <r>   -32.3159     0.0000    12.0000 </r>
       <r>   -32.1086     0.0000    12.0000 </r>
       <r>   -31.9013     0.0000    12.0000 </r>
       <r>   -31.6940     0.0000    12.0000 </r>
       <r>   -31.4867     0.0000    12.0000 </r>
       <r>   -31.2794     0.0000    12.0000 </r>
       <r>   -31.0721     0.0000    12.0000 </r>
       <r>   -30.8648     0.0000    12.0000 </r>
       <r>   -30.6575     0.0000    12.0000 </r>
       <r>   -30.4502     0.0000    12.0000 </r>
       <r>   -30.2429     0.0000    12.0000 </r>
       <r>   -30.0356     0.0000    12.0000 </r>
       <r>   -29.8283     0.0000    12.0000 </r>
       <r>   -29.6210     0.0000    12.0000 </r>
       <r>   -29.4137     0.0000    12.0000 </r>
       <r>   -29.2064     0.0000    12.0000 </r>
       <r>   -28.9991     0.0000    12.0000 </r>
       <r>   -28.7918     0.0000    12.0000 </r>
       <r>   -28.5845     0.0000    12.0000 </r>
       <r>   -28.3772     0.0000    12.0000 </r>
       <r>   -28.1699     0.0000    12.0000 </r>
       <r>   -27.9626     0.0000    12.0000 </r>
       <r>   -27.7553     0.0000    12.0000 </r>
       <r>   -27.5480     0.0000    12.0000 </r>
       <r>   -27.3407     0.0000    12.0000 </r>
       <r>   -27.1334     0.0000    12.0000 </r>
       <r>   -26.9261     0.0000    12.0000 </r>
       <r>   -26.7188     0.0000    12.0000 </r>
       <r>   -26.5115     0.0000    12.0000 </r>
       <r>   -26.3042     0.0000    12.0000 </r>
       <r>   -26.0969     0.0000    12.0000 </r>
       <r>   -25.8896     0.0000    12.0000 </r>
       <r>   -25.6823     0.0000    12.0000 </r>
       <r>   -25.4750     0.0000    12.0000 </r>
       <r>   -25.2677    -0.0000    12.0000 </r>
       <r>   -25.0604    -0.0000    12.0000 </r>
       <r>   -24.8531    -0.0000    12.0000 </r>
       <r>   -24.6458    -0.0000    12.0000 </r>
       <r>   -24.4385    -0.0000    12.0000 </r>
       <r>   -24.2312    -0.0011    11.9998 </r>
       <r>   -24.0239    -0.1214    11.9746 </r>
       <r>   -23.8166    -0.5917    11.8519 </r>
       <r>   -23.6093     8.8199    13.6803 </r>
       <r>   -23.4020    24.9687    18.8563 </r>
       <r>   -23.1947    55.8867    30.4416 </r>
       <r>   -22.9874    52.7243    41.3714 </r>
       <r>   -22.7801    22.9112    46.1209 </r>
       <r>   -22.5728     8.1548    47.8114 </r>
       <r>   -22.3655     1.1844    48.0569 </r>
       <r>   -22.1582    -0.2655    48.0019 </r>
       <r>   -21.9509    -0.0090    48.0000 </r>
       <r>   -21.7436    -0.0000    48.0000 </r>
       <r>   -21.5363    -0.0000    48.0000 </r>
       <r>   -21.3290    -0.0000    48.0000 </r>
       <r>   -21.1217     0.0000    48.0000 </r>
       <r>   -20.9144     0.0000    48.0000 </r>
       <r>   -20.7071     0.0000    48.0000 </r>
       <r>   -20.4998     0.0000    48.0000 </r>
       <r>   -20.2925     0.0000    48.0000 </r>
       <r>   -20.0852     0.0000    48.0000 </r>
       <r>   -19.8779     0.0000    48.0000 </r>
       <r>   -19.6706     0.0000    48.0000 </r>
       <r>   -19.4633     0.0000    48.0000 </r>
       <r>   -19.2560     0.0000    48.0000 </r>
       <r>   -19.0487     0.0000    48.0000 </r>
       <r>   -18.8414     0.0000    48.0000 </r>
       <r>   -18.6341     0.0000    48.0000 </r>
       <r>   -18.4268     0.0000    48.0000 </r>
       <r>   -18.2195     0.0000    48.0000 </r>
       <r>   -18.0122     0.0000    48.0000 </r>
       <r>   -17.8049     0.0000    48.0000 </r>
       <r>   -17.5976     0.0000    48.0000 </r>
       <r>   -17.3903     0.0000    48.0000 </r>
       <r>   -17.1830     0.0000    48.0000 </r>
       <r>   -16.9757     0.0000    48.0000 </r>
       <r>   -16.7684     0.0000    48.0000 </r>
       <r>   -16.5611     0.0000    48.0000 </r>
       <r>   -16.3538     0.0000    48.0000 </r>
       <r>   -16.1465     0.0000    48.0000 </r>
       <r>   -15.9392     0.0000    48.0000 </r>
       <r>   -15.7319     0.0000    48.0000 </r>
       <r>   -15.5246     0.0000    48.0000 </r>
       <r>   -15.3173     0.0000    48.0000 </r>
       <r>   -15.1100     0.0000    48.0000 </r>
       <r>   -14.9027     0.0000    48.0000 </r>
       <r>   -14.6954     0.0000    48.0000 </r>
       <r>   -14.4881     0.0000    48.0000 </r>
       <r>   -14.2808     0.0000    48.0000 </r>
       <r>   -14.0735     0.0000    48.0000 </r>
       <r>   -13.8662     0.0000    48.0000 </r>
       <r>   -13.6589     0.0000    48.0000 </r>
       <r>   -13.4516     0.0000    48.0000 </r>
       <r>   -13.2443     0.0000    48.0000 </r>
       <r>   -13.0370     0.0000    48.0000 </r>
       <r>   -12.8297     0.0000    48.0000 </r>
       <r>   -12.6224     0.0000    48.0000 </r>
       <r>   -12.4151     0.0000    48.0000 </r>
       <r>   -12.2078     0.0000    48.0000 </r>
       <r>   -12.0005     0.0000    48.0000 </r>
       <r>   -11.7932     0.0000    48.0000 </r>
       <r>   -11.5859     0.0000    48.0000 </r>
       <r>   -11.3786     0.0000    48.0000 </r>
       <r>   -11.1713     0.0000    48.0000 </r>
       <r>   -10.9640     0.0000    48.0000 </r>
       <r>   -10.7567     0.0000    48.0000 </r>
       <r>   -10.5494     0.0000    48.0000 </r>
       <r>   -10.3421     0.0000    48.0000 </r>
       <r>   -10.1348     0.0000    48.0000 </r>
       <r>    -9.9275     0.0000    48.0000 </r>
       <r>    -9.7202     0.0000    48.0000 </r>
       <r>    -9.5129     0.0000    48.0000 </r>
       <r>    -9.3056     0.0000    48.0000 </r>
       <r>    -9.0983     0.0000    48.0000 </r>
       <r>    -8.8910     0.0000    48.0000 </r>
       <r>    -8.6837     0.0000    48.0000 </r>
       <r>    -8.4764     0.0000    48.0000 </r>
       <r>    -8.2691     0.0000    48.0000 </r>
       <r>    -8.0618     0.0000    48.0000 </r>
       <r>    -7.8545     0.0000    48.0000 </r>
       <r>    -7.6472     0.0000    48.0000 </r>
       <r>    -7.4399     0.0000    48.0000 </r>
       <r>    -7.2326     0.0000    48.0000 </r>
       <r>    -7.0253     0.0000    48.0000 </r>
       <r>    -6.8180     0.0000    48.0000 </r>
       <r>    -6.6107     0.0000    48.0000 </r>
       <r>    -6.4034     0.0000    48.0000 </r>
       <r>    -6.1961     0.0000    48.0000 </r>
       <r>    -5.9888     0.0000    48.0000 </r>
       <r>    -5.7815     0.0000    48.0000 </r>
       <r>    -5.5742     0.0000    48.0000 </r>
       <r>    -5.3669     0.0000    48.0000 </r>
       <r>    -5.1596     0.0000    48.0000 </r>
       <r>    -4.9523     0.0000    48.0000 </r>
       <r>    -4.7450     0.0000    48.0000 </r>
       <r>    -4.5377     0.0000    48.0000 </r>
       <r>    -4.3304     0.0000    48.0000 </r>
       <r>    -4.1231     0.0000    48.0000 </r>
       <r>    -3.9158     0.0000    48.0000 </r>
       <r>    -3.7085     0.0000    48.0000 </r>
       <r>    -3.5012     0.0000    48.0000 </r>
       <r>    -3.2939     0.0000    48.0000 </r>
       <r>    -3.0866     0.0000    48.0000 </r>
       <r>    -2.8793     0.0000    48.0000 </r>
       <r>    -2.6720     0.0000    48.0000 </r>
       <r>    -2.4647     0.0000    48.0000 </r>
       <r>    -2.2574    -0.0000    48.0000 </r>
       <r>    -2.0501    -0.0000    48.0000 </r>
       <r>    -1.8428    -0.0000    48.0000 </r>
       <r>    -1.6355    -0.0000    48.0000 </r>
       <r>    -1.4282    -0.0000    48.0000 </r>
       <r>    -1.2209    -0.0000    48.0000 </r>
       <r>    -1.0136    -0.0000    48.0000 </r>
       <r>    -0.8063    -0.0020    47.9996 </r>
       <r>    -0.5990    -0.0146    47.9965 </r>
       <r>    -0.3917     0.1329    48.0241 </r>
       <r>    -0.1844     0.7741    48.1846 </r>
       <r>     0.0229     1.4937    48.4942 </r>
       <r>     0.2302     1.6280    48.8317 </r>
       <r>     0.4375     1.7190    49.1880 </r>
       <r>     0.6448     2.2472    49.6539 </r>
       <r>     0.8521     2.6197    50.1970 </r>
       <r>     1.0594     2.9444    50.8074 </r>
       <r>     1.2667     3.0523    51.4401 </r>
       <r>     1.4740     4.2410    52.3193 </r>
       <r>     1.6813     4.7667    53.3074 </r>
       <r>     1.8886     3.5672    54.0469 </r>
       <r>     2.0959     5.0074    55.0849 </r>
       <r>     2.3032     7.4979    56.6392 </r>
       <r>     2.5105    12.7490    59.2821 </r>
       <r>     2.7178    16.7179    62.7477 </r>
       <r>     2.9251    21.0890    67.1195 </r>
       <r>     3.1324    23.6981    72.0321 </r>
       <r>     3.3397    26.8335    77.5947 </r>
       <r>     3.5470    30.8049    83.9806 </r>
       <r>     3.7543    32.6483    90.7486 </r>
       <r>     3.9616    31.3874    97.2552 </r>
       <r>     4.1689    31.8158   103.8506 </r>
       <r>     4.3762    25.6982   109.1779 </r>
       <r>     4.5835    19.2731   113.1732 </r>
       <r>     4.7908    27.8400   118.9444 </r>
       <r>     4.9981    40.3479   127.3085 </r>
       <r>     5.2054    46.1089   136.8669 </r>
       <r>     5.4127    42.1939   145.6137 </r>
       <r>     5.6200    36.6096   153.2029 </r>
       <r>     5.8273    34.8004   160.4170 </r>
       <r>     6.0346    38.8978   168.4806 </r>
       <r>     6.2419    42.4209   177.2744 </r>
       <r>     6.4492    43.1705   186.2237 </r>
       <r>     6.6565    39.1957   194.3490 </r>
       <r>     6.8638    35.3514   201.6773 </r>
       <r>     7.0711    30.8783   208.0784 </r>
       <r>     7.2784    26.2978   213.5299 </r>
       <r>     7.4857    17.7571   217.2110 </r>
       <r>     7.6930    14.8173   220.2826 </r>
       <r>     7.9003    13.9476   223.1740 </r>
       <r>     8.1076    13.5595   225.9849 </r>
       <r>     8.3149    15.7644   229.2528 </r>
       <r>     8.5222    19.9395   233.3863 </r>
       <r>     8.7295    24.1601   238.3947 </r>
       <r>     8.9368    28.6377   244.3313 </r>
       <r>     9.1441    30.2356   250.5991 </r>
       <r>     9.3514    22.2791   255.2176 </r>
       <r>     9.5587     4.3495   256.1193 </r>
       <r>     9.7660    -0.5225   256.0109 </r>
       <r>     9.9733    -0.0523   256.0001 </r>
       <r>    10.1806    -0.0005   256.0000 </r>
       <r>    10.3879    -0.0000   256.0000 </r>
       <r>    10.5952    -0.0000   256.0000 </r>
       <r>    10.8025    -0.0000   256.0000 </r>
       <r>    11.0098     0.0000   256.0000 </r>
       <r>    11.2171     0.0000   256.0000 </r>
       <r>    11.4244     0.0000   256.0000 </r>
       <r>    11.6317     0.0000   256.0000 </r>
       <r>    11.8390     0.0000   256.0000 </r>
       <r>    12.0463     0.0000   256.0000 </r>
       <r>    12.2536     0.0000   256.0000 </r>
      </set>
     </set>
    </array>
   </total>
  </dos>
 </calculation>
 <structure name="finalpos" >
  <crystal>
   <varray name="basis" >
    <v>      -0.01344051      -0.00701408       6.37957768 </v>
    <v>       7.97674116       1.61640216       1.57631955 </v>
    <v>       0.02186769       9.56249653       3.17923642 </v>
   </varray>
   <i name="volume">    486.70427952 </i>
   <varray name="rec_basis" >
    <v>      -0.02041204      -0.05203463       0.15664997 </v>
    <v>       0.12538823      -0.00037443       0.00026376 </v>
    <v>      -0.02121004       0.10460033       0.00007032 </v>
   </varray>
  </crystal>
  <varray name="positions" >
   <v>      -0.00106995      -0.00674282      -0.00328505 </v>
   <v>       0.83012260      -0.00357270       0.33765594 </v>
   <v>       0.10178860       0.39733374       0.59879986 </v>
   <v>       0.20526464       0.79914207       0.19314919 </v>
   <v>       0.79222931       0.20073987       0.80363793 </v>
   <v>       0.93214173       0.40775671       0.93049735 </v>
   <v>       0.50327933      -0.00315529      -0.00000512 </v>
   <v>       0.32933718       0.00168722       0.33884082 </v>
   <v>       0.46469502       0.19697585       0.46797792 </v>
   <v>       0.23204319       0.60169494       0.73350378 </v>
   <v>       0.73496455       0.60438385       0.73214229 </v>
   <v>       0.86538931       0.79640810       0.86797738 </v>
   <v>       0.14276214       0.19767413       0.12890084 </v>
   <v>       0.62596624       0.19569557       0.13230422 </v>
   <v>       0.67445021       0.00394992       0.66234847 </v>
   <v>       0.76599174       0.39874459       0.26776589 </v>
   <v>       0.39805121       0.60702561       0.39750505 </v>
   <v>       0.59851978       0.40187637       0.60062958 </v>
   <v>       0.15963961       0.00072690       0.66428952 </v>
   <v>       0.26784099       0.39795311       0.26705412 </v>
   <v>       0.30306278       0.19657939       0.80906197 </v>
   <v>       0.90413458       0.60755276       0.39844838 </v>
   <v>       0.52763606       0.79109353       0.54523468 </v>
   <v>       0.37153719       0.79572750       0.86481264 </v>
   <v>       0.06575831       0.59931666       0.06676020 </v>
   <v>       0.56935337       0.60046577       0.06570283 </v>
   <v>       0.96955329       0.20111728       0.46358879 </v>
   <v>       0.69760452       0.80059699       0.19764618 </v>
   <v>       0.03695044       0.80026596       0.53390530 </v>
   <v>       0.43100205       0.41098643       0.93314907 </v>
  </varray>
 </structure>
</modeling>
