Nb - Mo - Ta - Ti - W SQS               
           1
     0.000000    0.000000    6.380000
     7.975000    1.595000    1.595000
     0.000000    9.570000    3.190000
   Nb   Mo   Ta   Ti   W 
   6   6   6   6   6
Direct configuration=     1
   0.00000000  0.00000000  0.00000000
   0.83333333  0.00000000  0.33333333
   0.10000000  0.40000000  0.60000000
   0.20000000  0.80000000  0.20000000
   0.80000000  0.20000000  0.80000000
   0.93333333  0.40000000  0.93333333
   0.50000000  0.00000000  0.00000000
   0.33333333  0.00000000  0.33333333
   0.46666667  0.20000000  0.46666667
   0.23333333  0.60000000  0.73333333
   0.73333333  0.60000000  0.73333333
   0.86666667  0.80000000  0.86666667
   0.13333333  0.20000000  0.13333333
   0.63333333  0.20000000  0.13333333
   0.66666667  0.00000000  0.66666667
   0.76666667  0.40000000  0.26666667
   0.40000000  0.60000000  0.40000000
   0.60000000  0.40000000  0.60000000
   0.16666667  0.00000000  0.66666667
   0.26666667  0.40000000  0.26666667
   0.30000000  0.20000000  0.80000000
   0.90000000  0.60000000  0.40000000
   0.53333333  0.80000000  0.53333333
   0.36666667  0.80000000  0.86666667
   0.06666667  0.60000000  0.06666667
   0.56666667  0.60000000  0.06666667
   0.96666667  0.20000000  0.46666667
   0.70000000  0.80000000  0.20000000
   0.03333333  0.80000000  0.53333333
   0.43333333  0.40000000  0.93333333
Nb - Mo - Ta - Ti - W SQS               
           1
    -0.004838   -0.002853    6.364420
     7.958828    1.604085    1.584344
     0.014171    9.544411    3.177930
   Nb   Mo   Ta   Ti   W 
   6   6   6   6   6
Direct configuration=     2
  -0.00041859 -0.00411934 -0.00157876
   0.83096660 -0.00216413  0.33704379
   0.10008237  0.39910806  0.59919029
   0.20418475  0.79882049  0.19652643
   0.79591722  0.19927278  0.80215070
   0.93260471  0.40631967  0.93126899
   0.50318569 -0.00180269  0.00007878
   0.33151089  0.00101615  0.33636812
   0.46538241  0.19804453  0.46721024
   0.23221972  0.60097933  0.73381213
   0.73362114  0.60257600  0.73297415
   0.86535488  0.79643694  0.86854210
   0.14128217  0.19868598  0.13130953
   0.62779122  0.19744310  0.13236752
   0.67119468  0.00115402  0.66393882
   0.76599008  0.40082337  0.26770981
   0.39872342  0.60455912  0.39924683
   0.59932409  0.40066000  0.60089428
   0.16425169 -0.00035299  0.66511389
   0.26730677  0.39901997  0.26649503
   0.30147034  0.19896872  0.80335687
   0.90087412  0.60242700  0.39958489
   0.53135369  0.79706698  0.53594250
   0.36849870  0.79665041  0.86745007
   0.06611481  0.60071410  0.06622532
   0.56793010  0.60114569  0.06530869
   0.96884320  0.19961664  0.46554816
   0.69751027  0.80022024  0.19837104
   0.03493135  0.79966573  0.53457039
   0.43199753  0.40704411  0.93297941
Nb - Mo - Ta - Ti - W SQS               
           1
    -0.006216   -0.003665    6.359984
     7.954223    1.606671    1.581309
     0.018205    9.537125    3.174494
   Nb   Mo   Ta   Ti   W 
   6   6   6   6   6
Direct configuration=     3
  -0.00054054 -0.00529391 -0.00202813
   0.83029102 -0.00278388  0.33810409
   0.10010521  0.39885401  0.59895938
   0.20537745  0.79848646  0.19553512
   0.79475230  0.19906349  0.80276494
   0.93239955  0.40812367  0.93067708
   0.50409384 -0.00231651  0.00010211
   0.33099210  0.00130422  0.33723432
   0.46501505  0.19748611  0.46736613
   0.23190256  0.60125831  0.73394844
   0.73370451  0.60331119  0.73287064
   0.86497916  0.79541918  0.86907893
   0.14354927  0.19831348  0.13073250
   0.62620817  0.19671312  0.13209233
   0.67248672  0.00148545  0.66315962
   0.76579768  0.40105764  0.26800737
   0.39836131  0.60586006  0.39902999
   0.59913176  0.40084773  0.60114939
   0.16356200 -0.00045333  0.66467044
   0.26748888  0.39874055  0.26644641
   0.30189020  0.19867303  0.80431599
   0.90112472  0.60311982  0.39946550
   0.53078790  0.79622849  0.53668860
   0.36901994  0.79569466  0.86767513
   0.06595760  0.60091797  0.06609899
   0.56829089  0.60147348  0.06492053
   0.96946382  0.19950820  0.46522900
   0.69679953  0.80028347  0.19790562
   0.03538749  0.79957001  0.53492389
   0.43161990  0.40905383  0.93287567
Nb - Mo - Ta - Ti - W SQS               
           1
    -0.010182   -0.008249    6.418512
     8.030667    1.632354    1.589833
     0.031409    9.619880    3.196883
   Nb   Mo   Ta   Ti   W 
   6   6   6   6   6
Direct configuration=     4
  -0.00039499 -0.00721610 -0.00301506
   0.82991195 -0.00368788  0.33886061
   0.10049838  0.39766234  0.59872862
   0.20618624  0.79858930  0.19331058
   0.79252004  0.19921757  0.80410655
   0.93209409  0.40970745  0.93008182
   0.50481277 -0.00332477 -0.00024376
   0.32939326  0.00183299  0.33938234
   0.46431144  0.19647290  0.46791372
   0.23173677  0.60229598  0.73370288
   0.73381823  0.60518224  0.73218699
   0.86468503  0.79477386  0.86914568
   0.14584443  0.19723803  0.12915838
   0.62495162  0.19545887  0.13179660
   0.67480470  0.00255662  0.66179615
   0.76584141  0.39995678  0.26793026
   0.39744340  0.60802932  0.39823533
   0.59846670  0.40140292  0.60160540
   0.16140750 -0.00033189  0.66390179
   0.26796555  0.39832518  0.26664565
   0.30271954  0.19756469  0.80741884
   0.90244467  0.60562479  0.39904683
   0.52874901  0.79329489  0.54049599
   0.37077587  0.79437655  0.86702302
   0.06556304  0.60046711  0.06657716
   0.56905132  0.60121606  0.06484579
   0.97040312  0.20003376  0.46421540
   0.69640548  0.80088226  0.19743745
   0.03667224  0.79930461  0.53535283
   0.43091719  0.41309356  0.93235614
Nb - Mo - Ta - Ti - W SQS               
           1
    -0.007876   -0.005583    6.384474
     7.986210    1.617418    1.584876
     0.023730    9.571753    3.183863
   Nb   Mo   Ta   Ti   W 
   6   6   6   6   6
Direct configuration=     5
  -0.00047650 -0.00610982 -0.00244709
   0.83013067 -0.00316634  0.33842384
   0.10027311  0.39834845  0.59886088
   0.20572159  0.79852775  0.19459339
   0.79380503  0.19913070  0.80333342
   0.93226900  0.40879467  0.93042616
   0.50439974 -0.00274450 -0.00004507
   0.33031252  0.00153086  0.33814423
   0.46471735  0.19705725  0.46759745
   0.23183149  0.60169806  0.73384518
   0.73375145  0.60410379  0.73258239
   0.86485501  0.79514573  0.86910685
   0.14452418  0.19785540  0.13006503
   0.62567681  0.19618143  0.13196667
   0.67346924  0.00193767  0.66258263
   0.76581726  0.40059082  0.26797404
   0.39797071  0.60677928  0.39869516
   0.59884905  0.40108373  0.60134290
   0.16264902 -0.00040196  0.66434564
   0.26769121  0.39856450  0.26653038
   0.30224086  0.19820580  0.80562851
   0.90168227  0.60418109  0.39928952
   0.52992388  0.79498887  0.53829886
   0.36976591  0.79513472  0.86739790
   0.06579045  0.60072738  0.06630120
   0.56861353  0.60136406  0.06488857
   0.96986216  0.19972981  0.46480007
   0.69663223  0.80053701  0.19770791
   0.03593210  0.79945753  0.53510500
   0.43131868  0.41076627  0.93265839
Nb - Mo - Ta - Ti - W SQS               
           1
    -0.010237   -0.008029    6.381650
     7.983933    1.621325    1.580602
     0.029341    9.563706    3.178779
   Nb   Mo   Ta   Ti   W 
   6   6   6   6   6
Direct configuration=     6
  -0.00048115 -0.00659612 -0.00276193
   0.83055222 -0.00320634  0.33790607
   0.10072439  0.39755436  0.59887864
   0.20528783  0.79902255  0.19358840
   0.79287136  0.19964305  0.80384584
   0.93213219  0.40826784  0.93063351
   0.50399703 -0.00305056 -0.00024906
   0.32944011  0.00173379  0.33896933
   0.46471708  0.19683122  0.46786408
   0.23198132  0.60217427  0.73345459
   0.73397612  0.60477925  0.73212114
   0.86498853  0.79576212  0.86857284
   0.14379997  0.19735305  0.12928570
   0.62637357  0.19593625  0.13196423
   0.67437023  0.00268870  0.66217857
   0.76611265  0.39912167  0.26766636
   0.39765611  0.60718310  0.39814074
   0.59847552  0.40143784  0.60128762
   0.16124408 -0.00007262  0.66412879
   0.26792889  0.39847823  0.26674474
   0.30262569  0.19747825  0.80749865
   0.90268778  0.60583590  0.39899466
   0.52864377  0.79311147  0.54127993
   0.37080865  0.79510243  0.86646259
   0.06550457  0.59998830  0.06684047
   0.56905097  0.60072192  0.06534246
   0.96974872  0.20038575  0.46421389
   0.69711458  0.80093739  0.19773320
   0.03656231  0.79942928  0.53493644
   0.43110490  0.41196764  0.93247753
Nb - Mo - Ta - Ti - W SQS               
           1
    -0.011443   -0.009278    6.380207
     7.982769    1.623321    1.578419
     0.032207    9.559594    3.176182
   Nb   Mo   Ta   Ti   W 
   6   6   6   6   6
Direct configuration=     7
  -0.00048381 -0.00684455 -0.00292284
   0.83076752 -0.00322654  0.33764132
   0.10095471  0.39714857  0.59888795
   0.20506610  0.79927575  0.19307424
   0.79239452  0.19990458  0.80410770
   0.93206210  0.40799847  0.93073966
   0.50379103 -0.00320698 -0.00035337
   0.32899452  0.00183708  0.33939118
   0.46471692  0.19671560  0.46800050
   0.23205799  0.60241782  0.73325473
   0.73409111  0.60512468  0.73188510
   0.86505690  0.79607737  0.86829959
   0.14342943  0.19709646  0.12888716
   0.62672957  0.19581105  0.13196311
   0.67483094  0.00307284  0.66197184
   0.76626292  0.39837095  0.26750937
   0.39749534  0.60738965  0.39785707
   0.59828475  0.40161879  0.60125922
   0.16052612  0.00009558  0.66401765
   0.26805038  0.39843409  0.26685441
   0.30282254  0.19710578  0.80845533
   0.90320231  0.60668193  0.39884357
   0.52798948  0.79215066  0.54280489
   0.37134133  0.79508642  0.86598435
   0.06535829  0.59961032  0.06711641
   0.56927438  0.60039363  0.06557480
   0.96969087  0.20072119  0.46391393
   0.69736128  0.80114208  0.19774609
   0.03688434  0.79941500  0.53485031
   0.43099611  0.41258170  0.93238472
Nb - Mo - Ta - Ti - W SQS               
           1
    -0.012343   -0.008329    6.381368
     7.981560    1.620516    1.577816
     0.027477    9.563195    3.178173
   Nb   Mo   Ta   Ti   W 
   6   6   6   6   6
Direct configuration=     8
  -0.00074015 -0.00678533 -0.00312691
   0.83050594 -0.00341041  0.33762265
   0.10133448  0.39715447  0.59889630
   0.20512918  0.79922647  0.19313774
   0.79233888  0.20032425  0.80387676
   0.93212400  0.40783517  0.93061751
   0.50352794 -0.00315896 -0.00020229
   0.32919390  0.00179247  0.33911359
   0.46473460  0.19684496  0.46800038
   0.23200047  0.60209635  0.73336138
   0.73454774  0.60474075  0.73197513
   0.86524758  0.79630039  0.86812726
   0.14318911  0.19742631  0.12881531
   0.62635043  0.19580059  0.13212908
   0.67462404  0.00353584  0.66216239
   0.76607748  0.39852385  0.26765182
   0.39778920  0.60715327  0.39762647
   0.59833041  0.40173766  0.60095807
   0.16006427  0.00041144  0.66416834
   0.26799515  0.39819379  0.26695278
   0.30294883  0.19685637  0.80879573
   0.90366565  0.60712971  0.39863764
   0.52776711  0.79162227  0.54402228
   0.37146462  0.79544800  0.86537221
   0.06549900  0.59939440  0.06697440
   0.56934236  0.60040344  0.06570737
   0.96959422  0.20094356  0.46375994
   0.69747835  0.80087638  0.19773240
   0.03690092  0.79982261  0.53435939
   0.43097431  0.41175990  0.93277490
Nb - Mo - Ta - Ti - W SQS               
           1
    -0.013059   -0.007574    6.382292
     7.980597    1.618282    1.577335
     0.023710    9.566063    3.179759
   Nb   Mo   Ta   Ti   W 
   6   6   6   6   6
Direct configuration=     9
  -0.00094423 -0.00673827 -0.00328932
   0.83029767 -0.00355689  0.33760777
   0.10163686  0.39715921  0.59890290
   0.20517940  0.79918726  0.19318827
   0.79229459  0.20065839  0.80369304
   0.93217332  0.40770506  0.93052024
   0.50331843 -0.00312066 -0.00008201
   0.32935271  0.00175682  0.33889260
   0.46474867  0.19694799  0.46800031
   0.23195466  0.60184035  0.73344622
   0.73491134  0.60443503  0.73204667
   0.86539943  0.79647796  0.86799011
   0.14299775  0.19768898  0.12875821
   0.62604851  0.19579230  0.13226123
   0.67445923  0.00390469  0.66231419
   0.76592979  0.39864568  0.26776526
   0.39802324  0.60696491  0.39744284
   0.59836682  0.40183221  0.60071837
   0.15969648  0.00066305  0.66428839
   0.26795116  0.39800243  0.26703104
   0.30304934  0.19665790  0.80906662
   0.90403459  0.60748631  0.39847377
   0.52758987  0.79120196  0.54499122
   0.37156287  0.79573571  0.86488501
   0.06561108  0.59922237  0.06686131
   0.56939645  0.60041133  0.06581290
   0.96951728  0.20112060  0.46363741
   0.69757159  0.80066476  0.19772143
   0.03691418  0.80014704  0.53396871
   0.43095693  0.41110554  0.93308530
Nb - Mo - Ta - Ti - W SQS               
           1
    -0.013796   -0.006492    6.377046
     7.973145    1.614649    1.575372
     0.020149    9.559171    3.178749
   Nb   Mo   Ta   Ti   W 
   6   6   6   6   6
Direct configuration=    10
  -0.00118742 -0.00674709 -0.00328104
   0.82995901 -0.00358747  0.33770096
   0.10193040  0.39749676  0.59870367
   0.20534429  0.79909983  0.19311267
   0.79216835  0.20081594  0.80358651
   0.93211223  0.40780496  0.93047600
   0.50324277 -0.00318759  0.00006668
   0.32932271  0.00162214  0.33879244
   0.46464490  0.19700186  0.46795703
   0.23212588  0.60155914  0.73355746
   0.73501423  0.60433611  0.73223154
   0.86537987  0.79634281  0.86796548
   0.14254195  0.19766033  0.12903408
   0.62588936  0.19560521  0.13234434
   0.67444176  0.00399220  0.66238051
   0.76604961  0.39883702  0.26776650
   0.39807731  0.60708238  0.39756317
   0.59866272  0.40191759  0.60054665
   0.15958647  0.00078655  0.66429061
   0.26773805  0.39790703  0.26707567
   0.30307535  0.19650603  0.80905761
   0.90422799  0.60761484  0.39842469
   0.52767910  0.79099243  0.54546197
   0.37151323  0.79571977  0.86474505
   0.06589590  0.59940471  0.06666578
   0.56931316  0.60051653  0.06560007
   0.96958695  0.20111415  0.46354337
   0.69763533  0.80053361  0.19757587
   0.03698434  0.80037703  0.53384612
   0.43104418  0.41087520  0.93320856
Nb - Mo - Ta - Ti - W SQS               
           1
    -0.013441   -0.007014    6.379578
     7.976741    1.616402    1.576320
     0.021868    9.562497    3.179236
   Nb   Mo   Ta   Ti   W 
   6   6   6   6   6
Direct configuration=    11
  -0.00106995 -0.00674282 -0.00328505
   0.83012260 -0.00357270  0.33765594
   0.10178860  0.39733374  0.59879986
   0.20526464  0.79914207  0.19314919
   0.79222931  0.20073987  0.80363793
   0.93214173  0.40775671  0.93049735
   0.50327933 -0.00315529 -0.00000512
   0.32933718  0.00168722  0.33884082
   0.46469502  0.19697585  0.46797792
   0.23204319  0.60169494  0.73350378
   0.73496455  0.60438385  0.73214229
   0.86538931  0.79640810  0.86797738
   0.14276214  0.19767413  0.12890084
   0.62596624  0.19569557  0.13230422
   0.67445021  0.00394992  0.66234847
   0.76599174  0.39874459  0.26776589
   0.39805121  0.60702561  0.39750505
   0.59851978  0.40187637  0.60062958
   0.15963961  0.00072690  0.66428952
   0.26784099  0.39795311  0.26705412
   0.30306278  0.19657939  0.80906197
   0.90413458  0.60755276  0.39844838
   0.52763606  0.79109353  0.54523468
   0.37153719  0.79572750  0.86481264
   0.06575831  0.59931666  0.06676020
   0.56935337  0.60046577  0.06570283
   0.96955329  0.20111728  0.46358879
   0.69760452  0.80059699  0.19764618
   0.03695044  0.80026596  0.53390530
   0.43100205  0.41098643  0.93314907
