  29  29   0   0
  0.1632129E+02  0.5473281E-09  0.8209921E-09  0.1128346E-08  0.5000000E-15
  1.000000000000000E-004
  CAR 
 Nb - Mo - Ta - Ti - V SQS               
     11.63437526    -50.32661358  301      6.62048816      1.00000000
    -50.327  0.0000E+00  0.0000E+00
    -50.120  0.0000E+00  0.0000E+00
    -49.914  0.0000E+00  0.0000E+00
    -49.707  0.0000E+00  0.0000E+00
    -49.500  0.0000E+00  0.0000E+00
    -49.294 -0.4143E-35 -0.8558E-36
    -49.087 -0.1525E-27 -0.3150E-28
    -48.881 -0.5889E-21 -0.1216E-21
    -48.674 -0.2624E-15 -0.5419E-16
    -48.468 -0.1386E-10 -0.2864E-11
    -48.261 -0.8612E-07 -0.1779E-07
    -48.055 -0.6134E-04 -0.1269E-04
    -47.848 -0.4590E-02 -0.9606E-03
    -47.642 -0.1020E-01 -0.3068E-02
    -47.435  0.3120E+00  0.6137E-01
    -47.229  0.6372E+00  0.1930E+00
    -47.022  0.2425E+00  0.2430E+00
    -46.815 -0.1116E-01  0.2407E+00
    -46.609 -0.3520E-02  0.2400E+00
    -46.402 -0.4243E-04  0.2400E+00
    -46.196 -0.5210E-07  0.2400E+00
    -45.989 -0.7112E-11  0.2400E+00
    -45.783 -0.1237E-15  0.2400E+00
    -45.576  0.0000E+00  0.2400E+00
    -45.370  0.0000E+00  0.2400E+00
    -45.163  0.0000E+00  0.2400E+00
    -44.957  0.0000E+00  0.2400E+00
    -44.750  0.0000E+00  0.2400E+00
    -44.544  0.0000E+00  0.2400E+00
    -44.337  0.0000E+00  0.2400E+00
    -44.131  0.0000E+00  0.2400E+00
    -43.924  0.0000E+00  0.2400E+00
    -43.717  0.0000E+00  0.2400E+00
    -43.511  0.0000E+00  0.2400E+00
    -43.304  0.0000E+00  0.2400E+00
    -43.098  0.0000E+00  0.2400E+00
    -42.891  0.0000E+00  0.2400E+00
    -42.685  0.0000E+00  0.2400E+00
    -42.478  0.0000E+00  0.2400E+00
    -42.272  0.0000E+00  0.2400E+00
    -42.065  0.0000E+00  0.2400E+00
    -41.859  0.0000E+00  0.2400E+00
    -41.652  0.0000E+00  0.2400E+00
    -41.446  0.0000E+00  0.2400E+00
    -41.239  0.0000E+00  0.2400E+00
    -41.032  0.0000E+00  0.2400E+00
    -40.826  0.0000E+00  0.2400E+00
    -40.619  0.0000E+00  0.2400E+00
    -40.413  0.0000E+00  0.2400E+00
    -40.206  0.0000E+00  0.2400E+00
    -40.000  0.0000E+00  0.2400E+00
    -39.793  0.0000E+00  0.2400E+00
    -39.587  0.0000E+00  0.2400E+00
    -39.380  0.0000E+00  0.2400E+00
    -39.174  0.0000E+00  0.2400E+00
    -38.967  0.0000E+00  0.2400E+00
    -38.761  0.0000E+00  0.2400E+00
    -38.554  0.0000E+00  0.2400E+00
    -38.347  0.0000E+00  0.2400E+00
    -38.141  0.0000E+00  0.2400E+00
    -37.934  0.0000E+00  0.2400E+00
    -37.728  0.0000E+00  0.2400E+00
    -37.521  0.0000E+00  0.2400E+00
    -37.315  0.0000E+00  0.2400E+00
    -37.108  0.0000E+00  0.2400E+00
    -36.902  0.0000E+00  0.2400E+00
    -36.695  0.0000E+00  0.2400E+00
    -36.489  0.0000E+00  0.2400E+00
    -36.282  0.0000E+00  0.2400E+00
    -36.076  0.0000E+00  0.2400E+00
    -35.869  0.0000E+00  0.2400E+00
    -35.663  0.0000E+00  0.2400E+00
    -35.456  0.0000E+00  0.2400E+00
    -35.249  0.0000E+00  0.2400E+00
    -35.043  0.0000E+00  0.2400E+00
    -34.836  0.0000E+00  0.2400E+00
    -34.630  0.0000E+00  0.2400E+00
    -34.423  0.0000E+00  0.2400E+00
    -34.217  0.0000E+00  0.2400E+00
    -34.010  0.0000E+00  0.2400E+00
    -33.804  0.0000E+00  0.2400E+00
    -33.597  0.0000E+00  0.2400E+00
    -33.391  0.0000E+00  0.2400E+00
    -33.184  0.0000E+00  0.2400E+00
    -32.978  0.0000E+00  0.2400E+00
    -32.771  0.0000E+00  0.2400E+00
    -32.564  0.0000E+00  0.2400E+00
    -32.358  0.0000E+00  0.2400E+00
    -32.151  0.0000E+00  0.2400E+00
    -31.945  0.0000E+00  0.2400E+00
    -31.738  0.0000E+00  0.2400E+00
    -31.532  0.0000E+00  0.2400E+00
    -31.325  0.0000E+00  0.2400E+00
    -31.119  0.0000E+00  0.2400E+00
    -30.912  0.0000E+00  0.2400E+00
    -30.706  0.0000E+00  0.2400E+00
    -30.499  0.0000E+00  0.2400E+00
    -30.293  0.0000E+00  0.2400E+00
    -30.086  0.0000E+00  0.2400E+00
    -29.879  0.0000E+00  0.2400E+00
    -29.673  0.0000E+00  0.2400E+00
    -29.466  0.0000E+00  0.2400E+00
    -29.260  0.0000E+00  0.2400E+00
    -29.053  0.0000E+00  0.2400E+00
    -28.847  0.0000E+00  0.2400E+00
    -28.640  0.0000E+00  0.2400E+00
    -28.434  0.0000E+00  0.2400E+00
    -28.227  0.0000E+00  0.2400E+00
    -28.021  0.0000E+00  0.2400E+00
    -27.814  0.0000E+00  0.2400E+00
    -27.608  0.0000E+00  0.2400E+00
    -27.401  0.0000E+00  0.2400E+00
    -27.195  0.0000E+00  0.2400E+00
    -26.988  0.0000E+00  0.2400E+00
    -26.781  0.0000E+00  0.2400E+00
    -26.575  0.0000E+00  0.2400E+00
    -26.368  0.0000E+00  0.2400E+00
    -26.162  0.0000E+00  0.2400E+00
    -25.955 -0.2720E-32  0.2400E+00
    -25.749 -0.3525E-25  0.2400E+00
    -25.542 -0.5364E-19  0.2400E+00
    -25.336 -0.9264E-14  0.2400E+00
    -25.129 -0.1910E-09  0.2400E+00
    -24.923 -0.4531E-06  0.2400E+00
    -24.716 -0.1180E-03  0.2400E+00
    -24.510 -0.2711E-02  0.2394E+00
    -24.303  0.7879E-02  0.2410E+00
    -24.096  0.1129E+00  0.2644E+00
    -23.890  0.3410E+00  0.3348E+00
    -23.683  0.4805E+00  0.4340E+00
    -23.477  0.1042E+01  0.6493E+00
    -23.270  0.7921E+00  0.8129E+00
    -23.064  0.4040E+00  0.8963E+00
    -22.857  0.3055E+00  0.9594E+00
    -22.651  0.8952E-02  0.9613E+00
    -22.444 -0.6031E-02  0.9600E+00
    -22.238 -0.1337E-03  0.9600E+00
    -22.031 -0.3196E-06  0.9600E+00
    -21.825 -0.9441E-10  0.9600E+00
    -21.618 -0.3459E-14  0.9600E+00
    -21.411  0.0000E+00  0.9600E+00
    -21.205  0.0000E+00  0.9600E+00
    -20.998  0.0000E+00  0.9600E+00
    -20.792  0.0000E+00  0.9600E+00
    -20.585  0.0000E+00  0.9600E+00
    -20.379  0.0000E+00  0.9600E+00
    -20.172  0.0000E+00  0.9600E+00
    -19.966  0.0000E+00  0.9600E+00
    -19.759  0.0000E+00  0.9600E+00
    -19.553  0.0000E+00  0.9600E+00
    -19.346  0.0000E+00  0.9600E+00
    -19.140  0.0000E+00  0.9600E+00
    -18.933  0.0000E+00  0.9600E+00
    -18.727  0.0000E+00  0.9600E+00
    -18.520  0.0000E+00  0.9600E+00
    -18.313  0.0000E+00  0.9600E+00
    -18.107  0.0000E+00  0.9600E+00
    -17.900  0.0000E+00  0.9600E+00
    -17.694  0.0000E+00  0.9600E+00
    -17.487  0.0000E+00  0.9600E+00
    -17.281  0.0000E+00  0.9600E+00
    -17.074  0.0000E+00  0.9600E+00
    -16.868  0.0000E+00  0.9600E+00
    -16.661  0.0000E+00  0.9600E+00
    -16.455  0.0000E+00  0.9600E+00
    -16.248  0.0000E+00  0.9600E+00
    -16.042  0.0000E+00  0.9600E+00
    -15.835  0.0000E+00  0.9600E+00
    -15.628  0.0000E+00  0.9600E+00
    -15.422  0.0000E+00  0.9600E+00
    -15.215  0.0000E+00  0.9600E+00
    -15.009  0.0000E+00  0.9600E+00
    -14.802  0.0000E+00  0.9600E+00
    -14.596  0.0000E+00  0.9600E+00
    -14.389  0.0000E+00  0.9600E+00
    -14.183  0.0000E+00  0.9600E+00
    -13.976  0.0000E+00  0.9600E+00
    -13.770  0.0000E+00  0.9600E+00
    -13.563  0.0000E+00  0.9600E+00
    -13.357  0.0000E+00  0.9600E+00
    -13.150  0.0000E+00  0.9600E+00
    -12.943  0.0000E+00  0.9600E+00
    -12.737  0.0000E+00  0.9600E+00
    -12.530  0.0000E+00  0.9600E+00
    -12.324  0.0000E+00  0.9600E+00
    -12.117  0.0000E+00  0.9600E+00
    -11.911  0.0000E+00  0.9600E+00
    -11.704  0.0000E+00  0.9600E+00
    -11.498  0.0000E+00  0.9600E+00
    -11.291  0.0000E+00  0.9600E+00
    -11.085  0.0000E+00  0.9600E+00
    -10.878  0.0000E+00  0.9600E+00
    -10.672  0.0000E+00  0.9600E+00
    -10.465  0.0000E+00  0.9600E+00
    -10.259  0.0000E+00  0.9600E+00
    -10.052  0.0000E+00  0.9600E+00
     -9.845  0.0000E+00  0.9600E+00
     -9.639  0.0000E+00  0.9600E+00
     -9.432  0.0000E+00  0.9600E+00
     -9.226  0.0000E+00  0.9600E+00
     -9.019  0.0000E+00  0.9600E+00
     -8.813  0.0000E+00  0.9600E+00
     -8.606  0.0000E+00  0.9600E+00
     -8.400  0.0000E+00  0.9600E+00
     -8.193  0.0000E+00  0.9600E+00
     -7.987  0.0000E+00  0.9600E+00
     -7.780  0.0000E+00  0.9600E+00
     -7.574  0.0000E+00  0.9600E+00
     -7.367  0.0000E+00  0.9600E+00
     -7.160  0.0000E+00  0.9600E+00
     -6.954  0.0000E+00  0.9600E+00
     -6.747  0.0000E+00  0.9600E+00
     -6.541  0.0000E+00  0.9600E+00
     -6.334  0.0000E+00  0.9600E+00
     -6.128  0.0000E+00  0.9600E+00
     -5.921  0.0000E+00  0.9600E+00
     -5.715  0.0000E+00  0.9600E+00
     -5.508  0.0000E+00  0.9600E+00
     -5.302  0.0000E+00  0.9600E+00
     -5.095  0.0000E+00  0.9600E+00
     -4.889  0.0000E+00  0.9600E+00
     -4.682  0.0000E+00  0.9600E+00
     -4.475  0.0000E+00  0.9600E+00
     -4.269  0.0000E+00  0.9600E+00
     -4.062  0.0000E+00  0.9600E+00
     -3.856  0.0000E+00  0.9600E+00
     -3.649  0.0000E+00  0.9600E+00
     -3.443  0.0000E+00  0.9600E+00
     -3.236  0.0000E+00  0.9600E+00
     -3.030  0.0000E+00  0.9600E+00
     -2.823  0.0000E+00  0.9600E+00
     -2.617  0.0000E+00  0.9600E+00
     -2.410  0.0000E+00  0.9600E+00
     -2.204  0.0000E+00  0.9600E+00
     -1.997  0.0000E+00  0.9600E+00
     -1.791 -0.2732E-33  0.9600E+00
     -1.584 -0.3050E-26  0.9600E+00
     -1.377 -0.4038E-20  0.9600E+00
     -1.171 -0.6141E-15  0.9600E+00
     -0.964 -0.1136E-10  0.9600E+00
     -0.758 -0.2504E-07  0.9600E+00
     -0.551 -0.6582E-05  0.9600E+00
     -0.345 -0.1908E-03  0.9600E+00
     -0.138  0.3011E-03  0.9600E+00
      0.068  0.9458E-02  0.9620E+00
      0.275  0.2219E-01  0.9666E+00
      0.481  0.2816E-01  0.9724E+00
      0.688  0.4200E-01  0.9810E+00
      0.894  0.4188E-01  0.9897E+00
      1.101  0.5254E-01  0.1001E+01
      1.308  0.6416E-01  0.1014E+01
      1.514  0.6331E-01  0.1027E+01
      1.721  0.6896E-01  0.1041E+01
      1.927  0.7666E-01  0.1057E+01
      2.134  0.9896E-01  0.1077E+01
      2.340  0.1217E+00  0.1103E+01
      2.547  0.1750E+00  0.1139E+01
      2.753  0.3002E+00  0.1201E+01
      2.960  0.4240E+00  0.1288E+01
      3.166  0.4990E+00  0.1391E+01
      3.373  0.5690E+00  0.1509E+01
      3.579  0.6125E+00  0.1635E+01
      3.786  0.6367E+00  0.1767E+01
      3.993  0.6387E+00  0.1899E+01
      4.199  0.6247E+00  0.2028E+01
      4.406  0.5525E+00  0.2142E+01
      4.612  0.5366E+00  0.2253E+01
      4.819  0.6316E+00  0.2383E+01
      5.025  0.7377E+00  0.2536E+01
      5.232  0.8204E+00  0.2705E+01
      5.438  0.8444E+00  0.2879E+01
      5.645  0.8126E+00  0.3047E+01
      5.851  0.8035E+00  0.3213E+01
      6.058  0.8517E+00  0.3389E+01
      6.264  0.8780E+00  0.3570E+01
      6.471  0.8449E+00  0.3745E+01
      6.677  0.7548E+00  0.3901E+01
      6.884  0.6541E+00  0.4036E+01
      7.091  0.5689E+00  0.4153E+01
      7.297  0.4668E+00  0.4250E+01
      7.504  0.3955E+00  0.4331E+01
      7.710  0.3654E+00  0.4407E+01
      7.917  0.3986E+00  0.4489E+01
      8.123  0.4824E+00  0.4589E+01
      8.330  0.4992E+00  0.4692E+01
      8.536  0.3572E+00  0.4766E+01
      8.743  0.1519E+00  0.4797E+01
      8.949  0.1728E-01  0.4801E+01
      9.156 -0.3152E-02  0.4800E+01
      9.362 -0.2778E-03  0.4800E+01
      9.569 -0.2600E-05  0.4800E+01
      9.776 -0.3082E-08  0.4800E+01
      9.982 -0.4530E-12  0.4800E+01
     10.189 -0.7522E-17  0.4800E+01
     10.395  0.0000E+00  0.4800E+01
     10.602  0.0000E+00  0.4800E+01
     10.808  0.0000E+00  0.4800E+01
     11.015  0.0000E+00  0.4800E+01
     11.221  0.0000E+00  0.4800E+01
     11.428  0.0000E+00  0.4800E+01
     11.634  0.0000E+00  0.4800E+01
