   29   29   50    1
  0.1632129E+02  0.5473281E-09  0.8209921E-09  0.1128346E-08  0.5000000E-15
  1.000000000000000E-004
  CAR 
 Nb - Mo - Ta - Ti - V SQS               
    193    172    120
 
  0.0000000E+00  0.0000000E+00  0.0000000E+00  0.2915452E-02
    1      -47.510205   1.000000
    2      -47.436970   1.000000
    3      -47.351510   1.000000
    4      -47.333473   1.000000
    5      -47.250039   1.000000
    6      -47.182427   1.000000
    7      -24.254871   1.000000
    8      -24.020951   1.000000
    9      -23.907838   1.000000
   10      -23.841334   1.000000
   11      -23.682687   1.000000
   12      -23.617823   1.000000
   13      -23.596969   1.000000
   14      -23.568301   1.000000
   15      -23.513241   1.000000
   16      -23.509695   1.000000
   17      -23.462693   1.000000
   18      -23.398823   1.000000
   19      -23.392364   1.000000
   20      -23.368445   1.000000
   21      -23.171705   1.000000
   22      -23.083928   1.000000
   23      -22.994601   1.000000
   24      -22.924921   1.000000
   25       -0.107792   1.000000
   26        1.104163   1.000000
   27        1.562876   1.000000
   28        2.322600   1.000000
   29        2.440022   1.000000
   30        2.572652   1.000000
   31        2.639274   1.000000
   32        2.711851   1.000000
   33        2.805086   1.000000
   34        2.856754   1.000000
   35        2.901976   1.000000
   36        2.953152   1.000000
   37        3.115615   1.000000
   38        3.151169   1.000000
   39        3.203195   1.000000
   40        3.223316   1.000000
   41        3.271491   1.000000
   42        3.413661   1.000000
   43        3.467624   1.000000
   44        3.568519   1.000000
   45        3.649343   1.000000
   46        3.684935   1.000000
   47        3.713976   1.000000
   48        3.729529   1.000000
   49        3.869903   1.000000
   50        3.986851   1.000000
   51        4.050925   1.000000
   52        4.097778   1.000000
   53        4.166505   1.000000
   54        4.256276   1.000000
   55        4.359843   1.000000
   56        4.446178   1.000000
   57        4.484086   1.000000
   58        4.623244   1.000000
   59        4.669404   1.000000
   60        4.777798   1.000000
   61        4.791695   1.000000
   62        4.858286   1.000000
   63        4.884377   1.000000
   64        4.949686   1.000000
   65        5.007612   1.000000
   66        5.051074   1.000000
   67        5.078874   1.000000
   68        5.112951   1.000000
   69        5.159454   1.000000
   70        5.215769   1.000000
   71        5.287068   1.000000
   72        5.314092   1.000000
   73        5.410807   1.000000
   74        5.415699   1.000000
   75        5.499986   1.000000
   76        5.541157   1.000000
   77        5.612513   1.000000
   78        5.641095   1.000000
   79        5.767443   1.000000
   80        5.915410   1.000004
   81        5.985417   1.000034
   82        6.055256   1.000239
   83        6.057469   1.000253
   84        6.140242   1.001780
   85        6.163306   1.002855
   86        6.184227   1.004262
   87        6.238322   1.010549
   88        6.268252   1.015967
   89        6.318529   1.027213
   90        6.337315   1.031178
   91        6.409516   1.029923
   92        6.503215   0.913802
   93        6.549209   0.781421
   94        6.662726   0.325621
   95        6.678865   0.264267
   96        6.787083   0.001991
   97        6.872463  -0.035277
   98        6.942533  -0.022594
   99        7.056811  -0.004258
  100        7.075082  -0.003005
  101        7.181917  -0.000264
  102        7.310871  -0.000006
  103        7.364005  -0.000001
  104        7.416030  -0.000000
  105        7.500565  -0.000000
  106        7.542546  -0.000000
  107        7.648545  -0.000000
  108        7.752750  -0.000000
  109        7.819247  -0.000000
  110        8.113830  -0.000000
  111        8.168530  -0.000000
  112        8.326679  -0.000000
  113        8.391783  -0.000000
  114        8.514441  -0.000000
  115        8.545103  -0.000000
  116        8.588493  -0.000000
  117        8.661435  -0.000000
  118        8.689759  -0.000000
  119        8.726433  -0.000000
  120        8.738316  -0.000000
 
  0.1428571E+00  0.0000000E+00 -0.1561251E-16  0.5830904E-02
    1      -47.503353   1.000000
    2      -47.436822   1.000000
    3      -47.351859   1.000000
    4      -47.338712   1.000000
    5      -47.250978   1.000000
    6      -47.182547   1.000000
    7      -24.199450   1.000000
    8      -24.018511   1.000000
    9      -23.903553   1.000000
   10      -23.839254   1.000000
   11      -23.675894   1.000000
   12      -23.620102   1.000000
   13      -23.599494   1.000000
   14      -23.571260   1.000000
   15      -23.518341   1.000000
   16      -23.513521   1.000000
   17      -23.463948   1.000000
   18      -23.400346   1.000000
   19      -23.393060   1.000000
   20      -23.370036   1.000000
   21      -23.175318   1.000000
   22      -23.088251   1.000000
   23      -23.002364   1.000000
   24      -22.981567   1.000000
   25        0.056852   1.000000
   26        1.254268   1.000000
   27        1.702906   1.000000
   28        2.373209   1.000000
   29        2.529809   1.000000
   30        2.662816   1.000000
   31        2.753346   1.000000
   32        2.825240   1.000000
   33        2.885052   1.000000
   34        2.935165   1.000000
   35        3.014827   1.000000
   36        3.077244   1.000000
   37        3.174145   1.000000
   38        3.218707   1.000000
   39        3.262010   1.000000
   40        3.277018   1.000000
   41        3.415704   1.000000
   42        3.478989   1.000000
   43        3.506651   1.000000
   44        3.593237   1.000000
   45        3.660422   1.000000
   46        3.726446   1.000000
   47        3.791346   1.000000
   48        3.837171   1.000000
   49        3.932621   1.000000
   50        4.029180   1.000000
   51        4.122767   1.000000
   52        4.155040   1.000000
   53        4.202183   1.000000
   54        4.281157   1.000000
   55        4.352424   1.000000
   56        4.463663   1.000000
   57        4.496740   1.000000
   58        4.636404   1.000000
   59        4.707887   1.000000
   60        4.758074   1.000000
   61        4.786672   1.000000
   62        4.917415   1.000000
   63        4.938856   1.000000
   64        4.989378   1.000000
   65        5.010098   1.000000
   66        5.099287   1.000000
   67        5.125064   1.000000
   68        5.201437   1.000000
   69        5.243734   1.000000
   70        5.276031   1.000000
   71        5.313225   1.000000
   72        5.376960   1.000000
   73        5.423601   1.000000
   74        5.495032   1.000000
   75        5.508627   1.000000
   76        5.538283   1.000000
   77        5.608783   1.000000
   78        5.651696   1.000000
   79        5.792048   1.000000
   80        5.825757   1.000000
   81        5.920778   1.000004
   82        5.977436   1.000027
   83        6.070073   1.000349
   84        6.102255   1.000763
   85        6.114678   1.001016
   86        6.159803   1.002663
   87        6.219113   1.007818
   88        6.294544   1.021697
   89        6.310127   1.025295
   90        6.361624   1.034780
   91        6.394009   1.033972
   92        6.467431   0.980626
   93        6.511190   0.894557
   94        6.568685   0.711257
   95        6.588619   0.632970
   96        6.681873   0.253326
   97        6.726730   0.113245
   98        6.854994  -0.035007
   99        6.906377  -0.030647
  100        6.984026  -0.013761
  101        7.067218  -0.003500
  102        7.127186  -0.000996
  103        7.198417  -0.000171
  104        7.273867  -0.000019
  105        7.312426  -0.000006
  106        7.414623  -0.000000
  107        7.468322  -0.000000
  108        7.641745  -0.000000
  109        7.703464  -0.000000
  110        7.939795  -0.000000
  111        8.001617  -0.000000
  112        8.126449  -0.000000
  113        8.184082  -0.000000
  114        8.282546  -0.000000
  115        8.315799  -0.000000
  116        8.394359  -0.000000
  117        8.416168  -0.000000
  118        8.489953  -0.000000
  119        8.545163  -0.000000
  120        8.601967  -0.000000
 
  0.2857143E+00  0.1387779E-16  0.3469447E-17  0.5830904E-02
    1      -47.485269   1.000000
    2      -47.436642   1.000000
    3      -47.359617   1.000000
    4      -47.346368   1.000000
    5      -47.252763   1.000000
    6      -47.182822   1.000000
    7      -24.059266   1.000000
    8      -24.004399   1.000000
    9      -23.887887   1.000000
   10      -23.831953   1.000000
   11      -23.658071   1.000000
   12      -23.626295   1.000000
   13      -23.604174   1.000000
   14      -23.578112   1.000000
   15      -23.534752   1.000000
   16      -23.520183   1.000000
   17      -23.466342   1.000000
   18      -23.405481   1.000000
   19      -23.394782   1.000000
   20      -23.373335   1.000000
   21      -23.221639   1.000000
   22      -23.141575   1.000000
   23      -23.072568   1.000000
   24      -23.005262   1.000000
   25        0.523934   1.000000
   26        1.663300   1.000000
   27        2.076303   1.000000
   28        2.503772   1.000000
   29        2.733752   1.000000
   30        2.771007   1.000000
   31        2.928016   1.000000
   32        3.018870   1.000000
   33        3.138836   1.000000
   34        3.179400   1.000000
   35        3.206746   1.000000
   36        3.255119   1.000000
   37        3.322424   1.000000
   38        3.388403   1.000000
   39        3.443900   1.000000
   40        3.471529   1.000000
   41        3.577802   1.000000
   42        3.625904   1.000000
   43        3.673862   1.000000
   44        3.690732   1.000000
   45        3.786189   1.000000
   46        3.857797   1.000000
   47        3.950072   1.000000
   48        4.007668   1.000000
   49        4.062936   1.000000
   50        4.165948   1.000000
   51        4.223291   1.000000
   52        4.293179   1.000000
   53        4.336376   1.000000
   54        4.415126   1.000000
   55        4.496477   1.000000
   56        4.543740   1.000000
   57        4.597090   1.000000
   58        4.658332   1.000000
   59        4.761918   1.000000
   60        4.805168   1.000000
   61        4.847635   1.000000
   62        4.940536   1.000000
   63        4.988938   1.000000
   64        5.030554   1.000000
   65        5.045077   1.000000
   66        5.144586   1.000000
   67        5.197849   1.000000
   68        5.229719   1.000000
   69        5.289217   1.000000
   70        5.330872   1.000000
   71        5.399674   1.000000
   72        5.468482   1.000000
   73        5.478581   1.000000
   74        5.545176   1.000000
   75        5.593722   1.000000
   76        5.623807   1.000000
   77        5.666835   1.000000
   78        5.703293   1.000000
   79        5.759936   1.000000
   80        5.796052   1.000000
   81        5.831882   1.000000
   82        5.899082   1.000002
   83        5.928996   1.000006
   84        5.985560   1.000034
   85        6.070275   1.000351
   86        6.103554   1.000787
   87        6.166191   1.003022
   88        6.193490   1.005046
   89        6.241156   1.011002
   90        6.310760   1.025441
   91        6.352670   1.033742
   92        6.372776   1.035429
   93        6.421043   1.024837
   94        6.509316   0.899222
   95        6.517184   0.879036
   96        6.540174   0.811362
   97        6.621785   0.494511
   98        6.657811   0.345083
   99        6.760199   0.040632
  100        6.772477   0.020921
  101        6.835668  -0.031316
  102        6.870641  -0.035357
  103        6.919605  -0.027848
  104        6.993598  -0.012042
  105        7.080967  -0.002674
  106        7.156503  -0.000499
  107        7.215575  -0.000107
  108        7.364361  -0.000001
  109        7.422581  -0.000000
  110        7.485713  -0.000000
  111        7.541970  -0.000000
  112        7.716328  -0.000000
  113        7.751294  -0.000000
  114        7.903682  -0.000000
  115        7.978653  -0.000000
  116        8.031935  -0.000000
  117        8.121896  -0.000000
  118        8.200526  -0.000000
  119        8.238667  -0.000000
  120        8.331334  -0.000000
 
  0.4285714E+00  0.5551115E-16 -0.4163336E-16  0.5830904E-02
    1      -47.465435   1.000000
    2      -47.437157   1.000000
    3      -47.376343   1.000000
    4      -47.346949   1.000000
    5      -47.253916   1.000000
    6      -47.183045   1.000000
    7      -24.019734   1.000000
    8      -23.924979   1.000000
    9      -23.844972   1.000000
   10      -23.754574   1.000000
   11      -23.642732   1.000000
   12      -23.629508   1.000000
   13      -23.606208   1.000000
   14      -23.583952   1.000000
   15      -23.553243   1.000000
   16      -23.525067   1.000000
   17      -23.474972   1.000000
   18      -23.456109   1.000000
   19      -23.396627   1.000000
   20      -23.383943   1.000000
   21      -23.374964   1.000000
   22      -23.162567   1.000000
   23      -23.081375   1.000000
   24      -23.011974   1.000000
   25        1.195474   1.000000
   26        2.017379   1.000000
   27        2.290993   1.000000
   28        2.543204   1.000000
   29        2.757360   1.000000
   30        2.889781   1.000000
   31        2.991299   1.000000
   32        3.155317   1.000000
   33        3.241665   1.000000
   34        3.273017   1.000000
   35        3.371951   1.000000
   36        3.433764   1.000000
   37        3.467390   1.000000
   38        3.561581   1.000000
   39        3.620681   1.000000
   40        3.648912   1.000000
   41        3.719189   1.000000
   42        3.772042   1.000000
   43        3.814121   1.000000
   44        3.916850   1.000000
   45        3.942814   1.000000
   46        3.989265   1.000000
   47        4.068644   1.000000
   48        4.156267   1.000000
   49        4.237015   1.000000
   50        4.306591   1.000000
   51        4.377951   1.000000
   52        4.434087   1.000000
   53        4.461249   1.000000
   54        4.585142   1.000000
   55        4.640461   1.000000
   56        4.671994   1.000000
   57        4.712845   1.000000
   58        4.740553   1.000000
   59        4.791951   1.000000
   60        4.830641   1.000000
   61        4.879884   1.000000
   62        4.918705   1.000000
   63        4.959240   1.000000
   64        5.063769   1.000000
   65        5.082919   1.000000
   66        5.135216   1.000000
   67        5.191786   1.000000
   68        5.225089   1.000000
   69        5.298005   1.000000
   70        5.328449   1.000000
   71        5.353886   1.000000
   72        5.412849   1.000000
   73        5.487176   1.000000
   74        5.499227   1.000000
   75        5.583463   1.000000
   76        5.604487   1.000000
   77        5.643589   1.000000
   78        5.677066   1.000000
   79        5.749486   1.000000
   80        5.791726   1.000000
   81        5.853201   1.000000
   82        5.906487   1.000003
   83        5.944681   1.000010
   84        5.977568   1.000027
   85        6.031362   1.000126
   86        6.086565   1.000525
   87        6.112743   1.000972
   88        6.144125   1.001932
   89        6.179247   1.003884
   90        6.237805   1.010468
   91        6.253118   1.013056
   92        6.316795   1.026821
   93        6.357863   1.034393
   94        6.407214   1.030715
   95        6.446961   1.005385
   96        6.498634   0.924131
   97        6.521712   0.866718
   98        6.586625   0.641035
   99        6.624709   0.482144
  100        6.699776   0.191948
  101        6.749083   0.061633
  102        6.789234  -0.000405
  103        6.832985  -0.030455
  104        6.886042  -0.034042
  105        6.968672  -0.016801
  106        7.007133  -0.009860
  107        7.105034  -0.001624
  108        7.163042  -0.000425
  109        7.226998  -0.000078
  110        7.318460  -0.000005
  111        7.390827  -0.000000
  112        7.493099  -0.000000
  113        7.658757  -0.000000
  114        7.704129  -0.000000
  115        7.728029  -0.000000
  116        7.821959  -0.000000
  117        7.921506  -0.000000
  118        8.013127  -0.000000
  119        8.079589  -0.000000
  120        8.175683  -0.000000
 
 -0.6938894E-17  0.1428571E+00  0.1040834E-16  0.5830904E-02
    1      -47.510204   1.000000
    2      -47.436934   1.000000
    3      -47.351309   1.000000
    4      -47.333459   1.000000
    5      -47.250039   1.000000
    6      -47.182681   1.000000
    7      -24.254875   1.000000
    8      -24.018623   1.000000
    9      -23.906555   1.000000
   10      -23.840739   1.000000
   11      -23.682717   1.000000
   12      -23.617824   1.000000
   13      -23.596979   1.000000
   14      -23.568338   1.000000
   15      -23.513362   1.000000
   16      -23.509759   1.000000
   17      -23.462760   1.000000
   18      -23.398865   1.000000
   19      -23.392277   1.000000
   20      -23.368282   1.000000
   21      -23.171758   1.000000
   22      -23.084940   1.000000
   23      -22.998574   1.000000
   24      -22.924932   1.000000
   25       -0.034415   1.000000
   26        1.148922   1.000000
   27        1.611476   1.000000
   28        2.120635   1.000000
   29        2.422734   1.000000
   30        2.531552   1.000000
   31        2.663031   1.000000
   32        2.726679   1.000000
   33        2.827517   1.000000
   34        2.875372   1.000000
   35        2.901167   1.000000
   36        2.957655   1.000000
   37        3.009851   1.000000
   38        3.104471   1.000000
   39        3.157358   1.000000
   40        3.207493   1.000000
   41        3.345311   1.000000
   42        3.429304   1.000000
   43        3.534000   1.000000
   44        3.558971   1.000000
   45        3.624356   1.000000
   46        3.702474   1.000000
   47        3.759457   1.000000
   48        3.842367   1.000000
   49        3.905730   1.000000
   50        3.994930   1.000000
   51        4.033486   1.000000
   52        4.075562   1.000000
   53        4.180612   1.000000
   54        4.266705   1.000000
   55        4.349464   1.000000
   56        4.425846   1.000000
   57        4.507306   1.000000
   58        4.636767   1.000000
   59        4.687703   1.000000
   60        4.745110   1.000000
   61        4.802718   1.000000
   62        4.866754   1.000000
   63        4.886172   1.000000
   64        4.974447   1.000000
   65        5.016915   1.000000
   66        5.081440   1.000000
   67        5.114305   1.000000
   68        5.169321   1.000000
   69        5.204613   1.000000
   70        5.250899   1.000000
   71        5.325691   1.000000
   72        5.375579   1.000000
   73        5.419399   1.000000
   74        5.460105   1.000000
   75        5.475990   1.000000
   76        5.563529   1.000000
   77        5.596267   1.000000
   78        5.664529   1.000000
   79        5.816649   1.000000
   80        5.916482   1.000004
   81        5.960070   1.000016
   82        5.984938   1.000033
   83        6.082412   1.000474
   84        6.095848   1.000656
   85        6.166628   1.003048
   86        6.183831   1.004231
   87        6.232902   1.009719
   88        6.261513   1.014629
   89        6.294399   1.021664
   90        6.329189   1.029540
   91        6.390837   1.034460
   92        6.435361   1.015589
   93        6.510906   0.895269
   94        6.567379   0.716180
   95        6.642269   0.408441
   96        6.705680   0.173232
   97        6.842143  -0.033022
   98        6.920879  -0.027564
   99        6.982381  -0.014070
  100        7.056296  -0.004298
  101        7.182478  -0.000260
  102        7.262966  -0.000027
  103        7.337696  -0.000002
  104        7.484653  -0.000000
  105        7.521706  -0.000000
  106        7.596900  -0.000000
  107        7.724906  -0.000000
  108        7.738169  -0.000000
  109        7.805125  -0.000000
  110        8.025843  -0.000000
  111        8.146905  -0.000000
  112        8.211704  -0.000000
  113        8.290918  -0.000000
  114        8.390514  -0.000000
  115        8.440529  -0.000000
  116        8.486282  -0.000000
  117        8.525253  -0.000000
  118        8.589751  -0.000000
  119        8.674509  -0.000000
  120        8.707783  -0.000000
 
  0.1428571E+00  0.1428571E+00 -0.1387779E-16  0.5830904E-02
    1      -47.503354   1.000000
    2      -47.436856   1.000000
    3      -47.352038   1.000000
    4      -47.338741   1.000000
    5      -47.250979   1.000000
    6      -47.182302   1.000000
    7      -24.199449   1.000000
    8      -24.020792   1.000000
    9      -23.904861   1.000000
   10      -23.839785   1.000000
   11      -23.675882   1.000000
   12      -23.620103   1.000000
   13      -23.599481   1.000000
   14      -23.571260   1.000000
   15      -23.518310   1.000000
   16      -23.513515   1.000000
   17      -23.463899   1.000000
   18      -23.400309   1.000000
   19      -23.393087   1.000000
   20      -23.370026   1.000000
   21      -23.175260   1.000000
   22      -23.087299   1.000000
   23      -22.999105   1.000000
   24      -22.980948   1.000000
   25        0.056705   1.000000
   26        1.237992   1.000000
   27        1.708987   1.000000
   28        2.348959   1.000000
   29        2.532510   1.000000
   30        2.668135   1.000000
   31        2.733631   1.000000
   32        2.822126   1.000000
   33        2.848035   1.000000
   34        2.891444   1.000000
   35        2.963869   1.000000
   36        3.056499   1.000000
   37        3.098872   1.000000
   38        3.194801   1.000000
   39        3.258974   1.000000
   40        3.310444   1.000000
   41        3.377239   1.000000
   42        3.483372   1.000000
   43        3.546328   1.000000
   44        3.614779   1.000000
   45        3.694199   1.000000
   46        3.727033   1.000000
   47        3.780081   1.000000
   48        3.851137   1.000000
   49        3.915804   1.000000
   50        4.035415   1.000000
   51        4.103664   1.000000
   52        4.179117   1.000000
   53        4.207859   1.000000
   54        4.325587   1.000000
   55        4.400086   1.000000
   56        4.503068   1.000000
   57        4.537318   1.000000
   58        4.624131   1.000000
   59        4.722569   1.000000
   60        4.746230   1.000000
   61        4.835116   1.000000
   62        4.883814   1.000000
   63        4.929125   1.000000
   64        4.956864   1.000000
   65        5.016820   1.000000
   66        5.034643   1.000000
   67        5.130391   1.000000
   68        5.154844   1.000000
   69        5.179948   1.000000
   70        5.238814   1.000000
   71        5.286618   1.000000
   72        5.345678   1.000000
   73        5.399916   1.000000
   74        5.462838   1.000000
   75        5.501521   1.000000
   76        5.563138   1.000000
   77        5.590587   1.000000
   78        5.688330   1.000000
   79        5.751683   1.000000
   80        5.874056   1.000001
   81        5.926068   1.000005
   82        5.953058   1.000013
   83        5.991392   1.000040
   84        6.025164   1.000106
   85        6.078133   1.000427
   86        6.131615   1.001479
   87        6.184193   1.004260
   88        6.278384   1.018091
   89        6.314292   1.026251
   90        6.366520   1.035163
   91        6.408584   1.030252
   92        6.494675   0.932632
   93        6.541971   0.805550
   94        6.613191   0.530854
   95        6.652911   0.364788
   96        6.763894   0.034322
   97        6.809526  -0.018464
   98        6.867565  -0.035441
   99        6.913934  -0.029085
  100        7.011823  -0.009173
  101        7.106280  -0.001581
  102        7.161444  -0.000442
  103        7.200699  -0.000161
  104        7.314315  -0.000005
  105        7.358039  -0.000001
  106        7.426427  -0.000000
  107        7.518317  -0.000000
  108        7.562265  -0.000000
  109        7.642243  -0.000000
  110        7.919287  -0.000000
  111        8.053723  -0.000000
  112        8.131873  -0.000000
  113        8.242359  -0.000000
  114        8.373149  -0.000000
  115        8.445703  -0.000000
  116        8.480221  -0.000000
  117        8.565233  -0.000000
  118        8.609002  -0.000000
  119        8.685319  -0.000000
  120        8.697860  -0.000000
 
  0.2857143E+00  0.1428571E+00  0.2775558E-16  0.5830904E-02
    1      -47.485271   1.000000
    2      -47.436718   1.000000
    3      -47.359728   1.000000
    4      -47.346734   1.000000
    5      -47.252764   1.000000
    6      -47.182262   1.000000
    7      -24.059858   1.000000
    8      -24.009234   1.000000
    9      -23.891021   1.000000
   10      -23.832831   1.000000
   11      -23.658044   1.000000
   12      -23.626313   1.000000
   13      -23.604150   1.000000
   14      -23.578087   1.000000
   15      -23.534631   1.000000
   16      -23.520135   1.000000
   17      -23.466203   1.000000
   18      -23.405413   1.000000
   19      -23.394851   1.000000
   20      -23.373429   1.000000
   21      -23.221604   1.000000
   22      -23.141070   1.000000
   23      -23.069740   1.000000
   24      -22.997385   1.000000
   25        0.456139   1.000000
   26        1.582265   1.000000
   27        2.033124   1.000000
   28        2.511009   1.000000
   29        2.675651   1.000000
   30        2.860137   1.000000
   31        2.947482   1.000000
   32        3.000666   1.000000
   33        3.082579   1.000000
   34        3.131435   1.000000
   35        3.185179   1.000000
   36        3.216213   1.000000
   37        3.334253   1.000000
   38        3.390881   1.000000
   39        3.444834   1.000000
   40        3.501924   1.000000
   41        3.586458   1.000000
   42        3.646495   1.000000
   43        3.674584   1.000000
   44        3.736071   1.000000
   45        3.821839   1.000000
   46        3.835903   1.000000
   47        3.928208   1.000000
   48        3.958615   1.000000
   49        4.094535   1.000000
   50        4.119374   1.000000
   51        4.206619   1.000000
   52        4.236352   1.000000
   53        4.361951   1.000000
   54        4.431885   1.000000
   55        4.499041   1.000000
   56        4.520104   1.000000
   57        4.588894   1.000000
   58        4.664141   1.000000
   59        4.740896   1.000000
   60        4.813886   1.000000
   61        4.872573   1.000000
   62        4.938718   1.000000
   63        4.969724   1.000000
   64        5.022641   1.000000
   65        5.059749   1.000000
   66        5.097551   1.000000
   67        5.134471   1.000000
   68        5.195568   1.000000
   69        5.244846   1.000000
   70        5.308548   1.000000
   71        5.340371   1.000000
   72        5.393095   1.000000
   73        5.426364   1.000000
   74        5.479772   1.000000
   75        5.545279   1.000000
   76        5.582060   1.000000
   77        5.607279   1.000000
   78        5.727237   1.000000
   79        5.770733   1.000000
   80        5.834451   1.000000
   81        5.868624   1.000001
   82        5.935418   1.000007
   83        5.991653   1.000041
   84        6.009532   1.000069
   85        6.045141   1.000183
   86        6.072569   1.000372
   87        6.161447   1.002752
   88        6.223818   1.008433
   89        6.250404   1.012570
   90        6.279037   1.018232
   91        6.334260   1.030580
   92        6.362037   1.034818
   93        6.448928   1.003393
   94        6.475354   0.968516
   95        6.534067   0.830563
   96        6.572412   0.697055
   97        6.610853   0.540719
   98        6.684898   0.242495
   99        6.720616   0.129552
  100        6.763111   0.035631
  101        6.822869  -0.026319
  102        6.895938  -0.032571
  103        6.961875  -0.018246
  104        6.989314  -0.012793
  105        7.074635  -0.003031
  106        7.179109  -0.000283
  107        7.232929  -0.000066
  108        7.359595  -0.000001
  109        7.455711  -0.000000
  110        7.641626  -0.000000
  111        7.712489  -0.000000
  112        7.845344  -0.000000
  113        7.980896  -0.000000
  114        8.118460  -0.000000
  115        8.178365  -0.000000
  116        8.265877  -0.000000
  117        8.324941  -0.000000
  118        8.385265  -0.000000
  119        8.420261  -0.000000
  120        8.451662  -0.000000
 
  0.4285714E+00  0.1428571E+00 -0.2081668E-16  0.5830904E-02
    1      -47.465436   1.000000
    2      -47.437215   1.000000
    3      -47.376372   1.000000
    4      -47.347307   1.000000
    5      -47.253917   1.000000
    6      -47.182594   1.000000
    7      -24.022999   1.000000
    8      -23.927585   1.000000
    9      -23.846829   1.000000
   10      -23.754542   1.000000
   11      -23.642733   1.000000
   12      -23.629531   1.000000
   13      -23.606201   1.000000
   14      -23.583936   1.000000
   15      -23.553142   1.000000
   16      -23.525040   1.000000
   17      -23.474884   1.000000
   18      -23.456045   1.000000
   19      -23.396673   1.000000
   20      -23.383893   1.000000
   21      -23.375038   1.000000
   22      -23.162277   1.000000
   23      -23.078486   1.000000
   24      -23.005997   1.000000
   25        1.092359   1.000000
   26        2.025397   1.000000
   27        2.260649   1.000000
   28        2.479028   1.000000
   29        2.623467   1.000000
   30        2.738291   1.000000
   31        3.185225   1.000000
   32        3.198937   1.000000
   33        3.273714   1.000000
   34        3.331250   1.000000
   35        3.362986   1.000000
   36        3.468897   1.000000
   37        3.526482   1.000000
   38        3.576457   1.000000
   39        3.629637   1.000000
   40        3.662267   1.000000
   41        3.725021   1.000000
   42        3.776913   1.000000
   43        3.834241   1.000000
   44        3.854201   1.000000
   45        3.952553   1.000000
   46        4.039217   1.000000
   47        4.066649   1.000000