 running on   96 total cores
 distrk:  each k-point on   96 cores,    1 groups
 distr:  one band on    8 cores,   12 groups
 using from now: INCAR     
 vasp.5.4.4.18Apr17-6-g9f103f2a35 (build Aug 09 2018 16:20:53) complex          
  
 POSCAR found :  5 types and      29 ions
 scaLAPACK will be used

 ----------------------------------------------------------------------------- 
|                                                                             |
|  ADVICE TO THIS USER RUNNING 'VASP/VAMP'   (HEAR YOUR MASTER'S VOICE ...):  |
|                                                                             |
|      You enforced a specific xc-type in the INCAR file,                     |
|      a different type was found on the POTCAR file                          |
|          I HOPE YOU KNOW, WHAT YOU ARE  DOING                               |
|                                                                             |
 ----------------------------------------------------------------------------- 

 LDA part: xc-table for Pade appr. of Perdew
 POSCAR found :  5 types and      29 ions
 POSCAR, INCAR and KPOINTS ok, starting setup
 FFT: planning ...
 WAVECAR not read
 initial charge from wavefunction
 entering main loop
       N       E                     dE             d eps       ncg     rms          rms(c)
DAV:   1    -0.449632398904E+04   -0.44963E+04   -0.17004E+05 63672   0.199E+03
DAV:   2    -0.983915473693E+04   -0.53428E+04   -0.50736E+04 74424   0.126E+03
DAV:   3    -0.107557841374E+05   -0.91663E+03   -0.86818E+03 82560   0.539E+02
DAV:   4    -0.110300209795E+05   -0.27424E+03   -0.25002E+03 82560   0.249E+02
DAV:   5    -0.112005209432E+05   -0.17050E+03   -0.15528E+03 82560   0.181E+02BRMIX: very serious problems
 the old and the new charge density differ
 old charge density:   192.50000 new  193.00000
    0.637E+03
DAV:   6    -0.127288239805E+04    0.99276E+04   -0.25384E+04 62436   0.639E+02    0.291E+03
DAV:   7    -0.952056576211E+03    0.32083E+03   -0.17601E+04 72096   0.562E+02    0.220E+03
DAV:   8    -0.694019054487E+03    0.25804E+03   -0.45833E+03 70884   0.344E+02    0.196E+03
DAV:   9    -0.587874057578E+03    0.10614E+03   -0.77919E+02 73884   0.876E+01    0.186E+03
DAV:  10    -0.588328717339E+03   -0.45466E+00   -0.20762E+02 76740   0.603E+01    0.180E+03
DAV:  11    -0.537388348070E+03    0.50940E+02   -0.10173E+02 64848   0.490E+01    0.174E+03
DAV:  12    -0.758425664647E+03   -0.22104E+03   -0.36860E+03 74724   0.246E+02    0.118E+03
DAV:  13    -0.621319662042E+03    0.13711E+03   -0.13765E+03 70740   0.137E+02    0.820E+02
DAV:  14    -0.437046041507E+03    0.18427E+03   -0.19517E+03 72876   0.219E+02    0.508E+02
DAV:  15    -0.331300109934E+03    0.10575E+03   -0.98377E+02 73764   0.122E+02    0.326E+02
DAV:  16    -0.340973845087E+03   -0.96737E+01   -0.38168E+02 75024   0.904E+01    0.207E+02
DAV:  17    -0.321407109268E+03    0.19567E+02   -0.21307E+02 73644   0.640E+01    0.170E+02
DAV:  18    -0.332026273948E+03   -0.10619E+02   -0.22375E+02 66168   0.702E+01    0.151E+02
DAV:  19    -0.322791208147E+03    0.92351E+01   -0.27676E+02 75540   0.805E+01    0.109E+02
DAV:  20    -0.310718766935E+03    0.12072E+02   -0.13260E+02 67704   0.436E+01    0.601E+01
DAV:  21    -0.307911153558E+03    0.28076E+01   -0.41577E+01 71436   0.287E+01    0.526E+01
DAV:  22    -0.307521966048E+03    0.38919E+00   -0.13711E+01 68856   0.136E+01    0.488E+01
DAV:  23    -0.306599969788E+03    0.92200E+00   -0.50640E+00 71400   0.973E+00    0.434E+01
DAV:  24    -0.305247364142E+03    0.13526E+01   -0.79166E+00 68964   0.135E+01    0.343E+01
DAV:  25    -0.304294328477E+03    0.95304E+00   -0.58063E+00 67548   0.101E+01    0.283E+01
DAV:  26    -0.303449110900E+03    0.84522E+00   -0.57099E+00 71124   0.101E+01    0.225E+01
DAV:  27    -0.303302082541E+03    0.14703E+00   -0.16287E+00 71148   0.488E+00    0.199E+01
DAV:  28    -0.303185471113E+03    0.11661E+00   -0.67070E-01 71112   0.354E+00    0.185E+01
DAV:  29    -0.303153554316E+03    0.31917E-01   -0.67294E-01 67560   0.375E+00    0.153E+01
DAV:  30    -0.303019321753E+03    0.13423E+00   -0.77219E-01 68448   0.371E+00    0.113E+01
DAV:  31    -0.302938588473E+03    0.80733E-01   -0.81503E-01 69108   0.246E+00    0.865E+00
DAV:  32    -0.302913401144E+03    0.25187E-01   -0.52876E-01 71268   0.261E+00    0.675E+00
DAV:  33    -0.302878584935E+03    0.34816E-01   -0.86359E-02 71748   0.114E+00    0.497E+00
DAV:  34    -0.302852222419E+03    0.26363E-01   -0.13321E-01 74148   0.141E+00    0.446E+00
DAV:  35    -0.302845435335E+03    0.67871E-02   -0.48238E-02 71220   0.707E-01    0.385E+00
DAV:  36    -0.302837531509E+03    0.79038E-02   -0.11882E-02 62892   0.458E-01    0.323E+00
DAV:  37    -0.302831432868E+03    0.60986E-02   -0.29304E-02 70296   0.626E-01    0.259E+00
DAV:  38    -0.302825905328E+03    0.55275E-02   -0.11448E-02 63708   0.442E-01    0.211E+00
DAV:  39    -0.302824248534E+03    0.16568E-02   -0.89804E-03 65124   0.328E-01    0.182E+00
DAV:  40    -0.302823190403E+03    0.10581E-02   -0.27297E-03 64716   0.201E-01    0.151E+00
DAV:  41    -0.302822955704E+03    0.23470E-03   -0.18243E-03 64524   0.156E-01    0.133E+00
DAV:  42    -0.302822531705E+03    0.42400E-03   -0.76997E-04 49248   0.127E-01    0.113E+00
DAV:  43    -0.302822318453E+03    0.21325E-03   -0.23601E-04 29232   0.772E-02    0.917E-01
DAV:  44    -0.302822270536E+03    0.47917E-04   -0.34122E-04 39960   0.474E-02
   1 F= -.30282227E+03 E0= -.30281797E+03  d E =-.302822E+03
 curvature:   0.00 expect dE= 0.000E+00 dE for cont linesearch  0.000E+00
 trial: gam= 0.00000 g(F)=  0.754E+00 g(S)=  0.241E+00 ort = 0.000E+00 (trialstep = 0.100E+01)
 search vector abs. value=  0.994E+00
 bond charge predicted
       N       E                     dE             d eps       ncg     rms          rms(c)
DAV:   1    -0.303955620306E+03   -0.11333E+01   -0.11330E+02 41628   0.430E+01    0.104E+01
DAV:   2    -0.306245496908E+03   -0.22899E+01   -0.26633E+01 75168   0.294E+01    0.127E+01
DAV:   3    -0.304273829184E+03    0.19717E+01   -0.19076E+01 72648   0.182E+01    0.871E+00
DAV:   4    -0.304222678485E+03    0.51151E-01   -0.11853E+01 67044   0.170E+01    0.816E+00
DAV:   5    -0.303626456432E+03    0.59622E+00   -0.54343E+00 70296   0.111E+01    0.435E+00
DAV:   6    -0.303515572731E+03    0.11088E+00   -0.25115E+00 72456   0.672E+00    0.370E+00
DAV:   7    -0.303443446088E+03    0.72127E-01   -0.14188E+00 73356   0.543E+00    0.257E+00
DAV:   8    -0.303416367404E+03    0.27079E-01   -0.70093E-01 76512   0.375E+00    0.185E+00
DAV:   9    -0.303393445570E+03    0.22922E-01   -0.26361E-01 74496   0.224E+00    0.121E+00
DAV:  10    -0.303388949196E+03    0.44964E-02   -0.11570E-01 69012   0.149E+00    0.946E-01
DAV:  11    -0.303387943413E+03    0.10058E-02   -0.58469E-02 68244   0.106E+00    0.725E-01
DAV:  12    -0.303391652262E+03   -0.37088E-02   -0.38646E-02 74328   0.807E-01    0.614E-01
DAV:  13    -0.303393306224E+03   -0.16540E-02   -0.44447E-02 67308   0.959E-01    0.523E-01
DAV:  14    -0.303391543208E+03    0.17630E-02   -0.28247E-02 70824   0.738E-01    0.226E-01
DAV:  15    -0.303391347830E+03    0.19538E-03   -0.92103E-03 67476   0.348E-01    0.157E-01
DAV:  16    -0.303391282394E+03    0.65435E-04   -0.36438E-03 60228   0.273E-01    0.139E-01
DAV:  17    -0.303391153289E+03    0.12911E-03   -0.13581E-03 56172   0.187E-01    0.829E-02
DAV:  18    -0.303391107836E+03    0.45452E-04   -0.23381E-04 31536   0.941E-02
   2 F= -.30339111E+03 E0= -.30338715E+03  d E =-.568837E+00
 trial-energy change:   -0.568837  1 .order   -0.563125   -0.994429   -0.131820
 step:   1.1462(harm=  1.1528)  dis= 0.05340  next Energy=  -303.400759 (dE=-0.578E+00)
 bond charge predicted
       N       E                     dE             d eps       ncg     rms          rms(c)
DAV:   1    -0.303409581640E+03   -0.18428E-01   -0.24535E+00 42708   0.638E+00    0.152E+00
DAV:   2    -0.303461418723E+03   -0.51837E-01   -0.56645E-01 73428   0.422E+00    0.209E+00
DAV:   3    -0.303419497900E+03    0.41921E-01   -0.46625E-01 72540   0.313E+00    0.128E+00
DAV:   4    -0.303419303745E+03    0.19416E-03   -0.23533E-01 69012   0.221E+00    0.129E+00
DAV:   5    -0.303404778451E+03    0.14525E-01   -0.13704E-01 70284   0.170E+00    0.668E-01
DAV:   6    -0.303401661313E+03    0.31171E-02   -0.56413E-02 71148   0.101E+00    0.511E-01
DAV:   7    -0.303400512658E+03    0.11487E-02   -0.29703E-02 71748   0.805E-01    0.383E-01
DAV:   8    -0.303399927108E+03    0.58555E-03   -0.14753E-02 69240   0.545E-01    0.288E-01
DAV:   9    -0.303399432120E+03    0.49499E-03   -0.58557E-03 61020   0.349E-01    0.193E-01
DAV:  10    -0.303399297472E+03    0.13465E-03   -0.24471E-03 59364   0.222E-01    0.142E-01
DAV:  11    -0.303399308536E+03   -0.11064E-04   -0.12505E-03 53796   0.163E-01    0.121E-01
DAV:  12    -0.303399403135E+03   -0.94599E-04   -0.10111E-03 52344   0.149E-01    0.951E-02
DAV:  13    -0.303399457353E+03   -0.54218E-04   -0.12974E-03 54816   0.181E-01    0.887E-02
DAV:  14    -0.303399380544E+03    0.76809E-04   -0.70350E-04 48180   0.139E-01
   3 F= -.30339938E+03 E0= -.30339553E+03  d E =-.577110E+00
 curvature:  -0.58 expect dE=-0.709E+00 dE for cont linesearch -0.288E-05
 trial: gam= 1.24126 g(F)=  0.317E+00 g(S)=  0.915E+00 ort =-0.223E-02 (trialstep = 0.371E+00)
 search vector abs. value=  0.276E+01
 bond charge predicted
       N       E                     dE             d eps       ncg     rms          rms(c)
DAV:   1    -0.303678823091E+03   -0.27937E+00   -0.39124E+01 41280   0.218E+01    0.349E+00
DAV:   2    -0.304542692492E+03   -0.86387E+00   -0.74777E+00 71532   0.141E+01    0.758E+00
DAV:   3    -0.303827436407E+03    0.71526E+00   -0.43558E+00 72372   0.911E+00    0.257E+00
DAV:   4    -0.303867640545E+03   -0.40204E-01   -0.11412E+00 69852   0.488E+00    0.318E+00
DAV:   5    -0.303776035388E+03    0.91605E-01   -0.69837E-01 67176   0.395E+00    0.123E+00
DAV:   6    -0.303771777311E+03    0.42581E-02   -0.25315E-01 72408   0.231E+00    0.132E+00
DAV:   7    -0.303762517356E+03    0.92600E-02   -0.20573E-01 71340   0.220E+00    0.948E-01
DAV:   8    -0.303756385211E+03    0.61321E-02   -0.83996E-02 73452   0.131E+00    0.568E-01
DAV:   9    -0.303754279164E+03    0.21060E-02   -0.32349E-02 66432   0.843E-01    0.396E-01
DAV:  10    -0.303753312362E+03    0.96680E-03   -0.10432E-02 62112   0.466E-01    0.241E-01
DAV:  11    -0.303753341875E+03   -0.29513E-04   -0.36755E-03 63396   0.246E-01    0.208E-01
DAV:  12    -0.303753478267E+03   -0.13639E-03   -0.29093E-03 59808   0.264E-01    0.185E-01
DAV:  13    -0.303753644412E+03   -0.16614E-03   -0.38539E-03 59904   0.297E-01    0.170E-01
DAV:  14    -0.303753470291E+03    0.17412E-03   -0.26554E-03 61224   0.231E-01    0.741E-02
DAV:  15    -0.303753417550E+03    0.52741E-04   -0.11436E-03 60924   0.146E-01    0.550E-02
DAV:  16    -0.303753384285E+03    0.33265E-04   -0.26938E-04 32976   0.115E-01
   4 F= -.30375338E+03 E0= -.30375028E+03  d E =-.354004E+00
 trial-energy change:   -0.354004  1 .order   -0.352808   -0.456094   -0.249522
 step:   0.7884(harm=  0.8192)  dis= 0.05457  next Energy=  -303.895431 (dE=-0.496E+00)
 bond charge predicted
       N       E                     dE             d eps       ncg     rms          rms(c)
DAV:   1    -0.303812322262E+03   -0.58905E-01   -0.49425E+01 41280   0.245E+01    0.384E+00
DAV:   2    -0.304879006619E+03   -0.10667E+01   -0.93527E+00 71268   0.160E+01    0.828E+00
DAV:   3    -0.303984140566E+03    0.89487E+00   -0.52580E+00 72516   0.101E+01    0.261E+00
DAV:   4    -0.304042601637E+03   -0.58461E-01   -0.13321E+00 69528   0.531E+00    0.349E+00
DAV:   5    -0.303929232010E+03    0.11337E+00   -0.84357E-01 67284   0.435E+00    0.128E+00
DAV:   6    -0.303926242337E+03    0.29897E-02   -0.28570E-01 72252   0.246E+00    0.141E+00
DAV:   7    -0.303914770092E+03    0.11472E-01   -0.23460E-01 70884   0.234E+00    0.978E-01
DAV:   8    -0.303907848358E+03    0.69217E-02   -0.92028E-02 73128   0.137E+00    0.553E-01
DAV:   9    -0.303906012119E+03    0.18362E-02   -0.33773E-02 67608   0.853E-01    0.417E-01
DAV:  10    -0.303905063791E+03    0.94833E-03   -0.12321E-02 61980   0.508E-01    0.264E-01
DAV:  11    -0.303905111126E+03   -0.47335E-04   -0.48451E-03 63816   0.278E-01    0.219E-01
DAV:  12    -0.303905356403E+03   -0.24528E-03   -0.40668E-03 59916   0.311E-01    0.214E-01
DAV:  13    -0.303905439775E+03   -0.83373E-04   -0.50807E-03 60696   0.350E-01    0.184E-01
DAV:  14    -0.303905259103E+03    0.18067E-03   -0.32869E-03 63468   0.257E-01    0.859E-02
DAV:  15    -0.303905153128E+03    0.10597E-03   -0.12165E-03 59016   0.135E-01    0.386E-02
DAV:  16    -0.303905130257E+03    0.22871E-04   -0.17834E-04 27456   0.907E-02
   5 F= -.30390513E+03 E0= -.30390285E+03  d E =-.505750E+00
 curvature:  -0.91 expect dE=-0.157E+00 dE for cont linesearch -0.100E-02
 ZBRENT: extrapolating
 opt :   0.8255  next Energy=  -303.906151 (dE=-0.507E+00)
 bond charge predicted
       N       E                     dE             d eps       ncg     rms          rms(c)
DAV:   1    -0.303905494458E+03   -0.34133E-03   -0.39021E-01 41976   0.215E+00    0.338E-01
DAV:   2    -0.303914196720E+03   -0.87023E-02   -0.74545E-02 71136   0.140E+00    0.786E-01
DAV:   3    -0.303906936401E+03    0.72603E-02   -0.45875E-02 70236   0.102E+00    0.248E-01
DAV:   4    -0.303907216913E+03   -0.28051E-03   -0.10158E-02 61872   0.467E-01    0.297E-01
DAV:   5    -0.303906387109E+03    0.82980E-03   -0.63380E-03 61044   0.375E-01    0.119E-01
DAV:   6    -0.303906362986E+03    0.24124E-04   -0.24835E-03 61884   0.237E-01    0.133E-01
DAV:   7    -0.303906248197E+03    0.11479E-03   -0.18746E-03 58776   0.223E-01    0.821E-02
DAV:   8    -0.303906195047E+03    0.53150E-04   -0.58996E-04 44016   0.129E-01
   6 F= -.30390620E+03 E0= -.30390399E+03  d E =-.506815E+00
 curvature:  -0.93 expect dE=-0.157E+00 dE for cont linesearch -0.335E-05
 trial: gam=-0.00251 g(F)=  0.148E+00 g(S)=  0.202E-01 ort = 0.315E-02 (trialstep = 0.462E+00)
 search vector abs. value=  0.168E+00
 bond charge predicted
       N       E                     dE             d eps       ncg     rms          rms(c)
DAV:   1    -0.303954860335E+03   -0.48612E-01   -0.43135E+00 41292   0.784E+00    0.134E+00
DAV:   2    -0.303988461481E+03   -0.33601E-01   -0.53803E-01 70632   0.363E+00    0.122E+00
DAV:   3    -0.303992055878E+03   -0.35944E-02   -0.33388E-01 70716   0.263E+00    0.135E+00
DAV:   4    -0.303978031504E+03    0.14024E-01   -0.18233E-01 66540   0.199E+00    0.774E-01
DAV:   5    -0.303972428839E+03    0.56027E-02   -0.65614E-02 71796   0.111E+00    0.498E-01
DAV:   6    -0.303972174062E+03    0.25478E-03   -0.39492E-02 72624   0.887E-01    0.466E-01
DAV:   7    -0.303970411888E+03    0.17622E-02   -0.18252E-02 69192   0.652E-01    0.257E-01
DAV:   8    -0.303969942365E+03    0.46952E-03   -0.79136E-03 67824   0.369E-01    0.185E-01
DAV:   9    -0.303969806892E+03    0.13547E-03   -0.26033E-03 61752   0.235E-01    0.144E-01
DAV:  10    -0.303969742734E+03    0.64158E-04   -0.11917E-03 53736   0.171E-01    0.108E-01
DAV:  11    -0.303969803351E+03   -0.60616E-04   -0.66910E-04 45624   0.134E-01
   7 F= -.30396980E+03 E0= -.30396756E+03  d E =-.636083E-01
 trial-energy change:   -0.063608  1 .order   -0.064522   -0.077747   -0.051296
 step:   1.3577(harm=  1.3577)  dis= 0.03422  next Energy=  -304.020456 (dE=-0.114E+00)
 bond charge predicted
       N       E                     dE             d eps       ncg     rms          rms(c)
DAV:   1    -0.303959387035E+03    0.10356E-01   -0.16248E+01 41280   0.152E+01    0.256E+00
DAV:   2    -0.304083132862E+03   -0.12375E+00   -0.20069E+00 70344   0.701E+00    0.239E+00
DAV:   3    -0.304102315930E+03   -0.19183E-01   -0.12947E+00 70224   0.521E+00    0.273E+00
DAV:   4    -0.304044185373E+03    0.58131E-01   -0.69454E-01 66648   0.392E+00    0.145E+00
DAV:   5    -0.304024433679E+03    0.19752E-01   -0.23782E-01 73848   0.212E+00    0.992E-01
DAV:   6    -0.304023265431E+03    0.11682E-02   -0.15486E-01 71904   0.176E+00    0.917E-01
DAV:   7    -0.304016166558E+03    0.70989E-02   -0.70322E-02 75072   0.126E+00    0.495E-01
DAV:   8    -0.304014759888E+03    0.14067E-02   -0.31615E-02 71424   0.737E-01    0.398E-01
DAV:   9    -0.304014159983E+03    0.59991E-03   -0.12120E-02 61968   0.508E-01    0.301E-01
DAV:  10    -0.304013722965E+03    0.43702E-03   -0.49574E-03 61092   0.326E-01    0.196E-01
DAV:  11    -0.304014039450E+03   -0.31648E-03   -0.30283E-03 61704   0.253E-01    0.196E-01
DAV:  12    -0.304014015219E+03    0.24231E-04   -0.33564E-03 63168   0.267E-01    0.112E-01
DAV:  13    -0.304013967736E+03    0.47483E-04   -0.19805E-03 65844   0.184E-01    0.673E-02
DAV:  14    -0.304013956341E+03    0.11395E-04   -0.84106E-04 53748   0.126E-01
   8 F= -.30401396E+03 E0= -.30401161E+03  d E =-.107761E+00
 curvature:  -0.68 expect dE=-0.141E+00 dE for cont linesearch -0.262E-03
 trial: gam= 1.28063 g(F)=  0.383E-01 g(S)=  0.169E+00 ort =-0.806E-02 (trialstep = 0.233E+00)
 search vector abs. value=  0.463E+00
 bond charge predicted
       N       E                     dE             d eps       ncg     rms          rms(c)
DAV:   1    -0.304050407279E+03   -0.36440E-01   -0.26917E+00 41280   0.636E+00    0.118E+00
DAV:   2    -0.304068974208E+03   -0.18567E-01   -0.37900E-01 71856   0.292E+00    0.102E+00
DAV:   3    -0.304070507431E+03   -0.15332E-02   -0.24005E-01 72156   0.218E+00    0.119E+00
DAV:   4    -0.304060338011E+03    0.10169E-01   -0.13154E-01 69012   0.173E+00    0.707E-01
DAV:   5    -0.304054388677E+03    0.59493E-02   -0.54434E-02 71100   0.962E-01    0.388E-01
DAV:   6    -0.304054164793E+03    0.22388E-03   -0.25154E-02 71868   0.747E-01    0.392E-01
DAV:   7    -0.304053227384E+03    0.93741E-03   -0.16305E-02 70824   0.583E-01    0.247E-01
DAV:   8    -0.304052933583E+03    0.29380E-03   -0.62692E-03 61848   0.362E-01    0.185E-01
DAV:   9    -0.304052744489E+03    0.18909E-03   -0.28653E-03 59124   0.254E-01    0.125E-01
DAV:  10    -0.304052668843E+03    0.75646E-04   -0.97728E-04 53484   0.142E-01
   9 F= -.30405267E+03 E0= -.30405034E+03  d E =-.387125E-01
 trial-energy change:   -0.038713  1 .order   -0.039163   -0.045965   -0.032361
 step:   0.7876(harm=  0.7876)  dis= 0.03627  next Energy=  -304.091611 (dE=-0.777E-01)
 bond charge predicted
       N       E                     dE             d eps       ncg     rms          rms(c)
DAV:   1    -0.304068737241E+03   -0.15993E-01   -0.15200E+01 41280   0.151E+01    0.280E+00
DAV:   2    -0.304176743155E+03   -0.10801E+00   -0.21513E+00 71940   0.710E+00    0.246E+00
DAV:   3    -0.304180694203E+03   -0.39510E-02   -0.13227E+00 71640   0.521E+00    0.280E+00
DAV:   4    -0.304122294063E+03    0.58400E-01   -0.71757E-01 68772   0.414E+00    0.156E+00
DAV:   5    -0.304091114874E+03    0.31179E-01   -0.27280E-01 71760   0.213E+00    0.833E-01
DAV:   6    -0.304092155985E+03   -0.10411E-02   -0.13138E-01 72228   0.170E+00    0.948E-01
DAV:   7    -0.304086196568E+03    0.59594E-02   -0.87775E-02 73596   0.135E+00    0.554E-01
DAV:   8    -0.304084918978E+03    0.12776E-02   -0.31250E-02 70704   0.802E-01    0.427E-01
DAV:   9    -0.304083990727E+03    0.92825E-03   -0.13832E-02 62160   0.546E-01    0.286E-01
DAV:  10    -0.304083789849E+03    0.20088E-03   -0.49965E-03 61860   0.310E-01    0.212E-01
DAV:  11    -0.304084080768E+03   -0.29092E-03   -0.27894E-03 63384   0.220E-01    0.177E-01
DAV:  12    -0.304084490051E+03   -0.40928E-03   -0.41628E-03 62616   0.315E-01    0.189E-01
DAV:  13    -0.304084238701E+03    0.25135E-03   -0.32468E-03 62412   0.262E-01    0.670E-02
DAV:  14    -0.304084233615E+03    0.50860E-05   -0.10107E-03 56796   0.134E-01    0.494E-02
DAV:  15    -0.304084196052E+03    0.37563E-04   -0.24698E-04 31128   0.987E-02
  10 F= -.30408420E+03 E0= -.30408201E+03  d E =-.702397E-01
 curvature:  -0.92 expect dE=-0.623E-01 dE for cont linesearch -0.112E-02
 ZBRENT: interpolating
 opt :   0.7069  next Energy=  -304.085150 (dE=-0.712E-01)
 bond charge predicted
       N       E                     dE             d eps       ncg     rms          rms(c)
DAV:   1    -0.304084952685E+03   -0.71907E-03   -0.32446E-01 41376   0.221E+00    0.415E-01
DAV:   2    -0.304087372923E+03   -0.24202E-02   -0.46729E-02 71940   0.104E+00    0.384E-01
DAV:   3    -0.304087434706E+03   -0.61783E-04   -0.30322E-02 71484   0.809E-01    0.420E-01
DAV:   4    -0.304086107739E+03    0.13270E-02   -0.15202E-02 60648   0.586E-01    0.236E-01
DAV:   5    -0.304085425104E+03    0.68263E-03   -0.64067E-03 67056   0.342E-01    0.141E-01
DAV:   6    -0.304085399009E+03    0.26095E-04   -0.32937E-03 60936   0.273E-01    0.144E-01
DAV:   7    -0.304085271960E+03    0.12705E-03   -0.21872E-03 60780   0.224E-01    0.913E-02
DAV:   8    -0.304085212721E+03    0.59239E-04   -0.78984E-04 47016   0.146E-01
  11 F= -.30408521E+03 E0= -.30408299E+03  d E =-.712564E-01
 curvature:  -0.79 expect dE=-0.442E-01 dE for cont linesearch -0.696E-05
 trial: gam= 0.19983 g(F)=  0.536E-01 g(S)=  0.239E-02 ort =-0.202E-02 (trialstep = 0.328E+00)
 search vector abs. value=  0.736E-01
 bond charge predicted
       N       E                     dE             d eps       ncg     rms          rms(c)
DAV:   1    -0.304100989692E+03   -0.15718E-01   -0.58112E-01 42024   0.236E+00    0.271E-01
DAV:   2    -0.304112168960E+03   -0.11179E-01   -0.85914E-02 71904   0.157E+00    0.866E-01
DAV:   3    -0.304102818615E+03    0.93503E-02   -0.48054E-02 70284   0.104E+00    0.204E-01
DAV:   4    -0.304102712653E+03    0.10596E-03   -0.66930E-03 62604   0.370E-01    0.197E-01
DAV:   5    -0.304102454668E+03    0.25798E-03   -0.36015E-03 62412   0.273E-01    0.128E-01
DAV:   6    -0.304102378269E+03    0.76400E-04   -0.17059E-03 56304   0.190E-01    0.118E-01
DAV:   7    -0.304102298690E+03    0.79579E-04   -0.13581E-03 54672   0.186E-01    0.807E-02
DAV:   8    -0.304102314551E+03   -0.15861E-04   -0.95817E-04 51372   0.149E-01
  12 F= -.30410231E+03 E0= -.30410026E+03  d E =-.171018E-01
 ZBRENT: can't locate minimum, use default step
 trial-energy change:   -0.017102  1 .order   -0.017119   -0.018215   -0.016023
 step:   1.3115(harm=  2.7243)  dis= 0.03054  next Energy=  -304.160888 (dE=-0.757E-01)
 bond charge predicted
       N       E                     dE             d eps       ncg     rms          rms(c)
DAV:   1    -0.304129595652E+03   -0.27297E-01   -0.52320E+00 42504   0.705E+00    0.793E-01
DAV:   2    -0.304220881223E+03   -0.91286E-01   -0.70870E-01 70608   0.451E+00    0.250E+00
DAV:   3    -0.304143962783E+03    0.76918E-01   -0.37822E-01 70536   0.293E+00    0.538E-01
DAV:   4    -0.304143851982E+03    0.11080E-03   -0.53174E-02 70188   0.105E+00    0.573E-01
DAV:   5    -0.304141611221E+03    0.22408E-02   -0.32352E-02 66240   0.817E-01    0.372E-01
DAV:   6    -0.304140818385E+03    0.79284E-03   -0.15419E-02 64824   0.562E-01    0.332E-01
DAV:   7    -0.304140203854E+03    0.61453E-03   -0.12608E-02 60756   0.528E-01    0.235E-01
DAV:   8    -0.304140181014E+03    0.22841E-04   -0.72572E-03 64176   0.381E-01    0.206E-01
DAV:   9    -0.304139632809E+03    0.54820E-03   -0.35599E-03 62244   0.277E-01    0.899E-02
DAV:  10    -0.304139569054E+03    0.63755E-04   -0.94316E-04 52476   0.147E-01
  13 F= -.30413957E+03 E0= -.30413790E+03  d E =-.543563E-01
 curvature:  -1.18 expect dE=-0.260E-01 dE for cont linesearch -0.117E-01
 ZBRENT: increasing intervall
 opt :   3.2787  next Energy=  -304.149823 (dE=-0.646E-01)
 bond charge predicted
       N       E                     dE             d eps       ncg     rms          rms(c)
DAV:   1    -0.304106540518E+03    0.33092E-01   -0.20894E+01 42228   0.141E+01    0.159E+00
DAV:   2    -0.304466058641E+03   -0.35952E+00   -0.28732E+00 70812   0.923E+00    0.481E+00
DAV:   3    -0.304163522915E+03    0.30254E+00   -0.14235E+00 69840   0.558E+00    0.100E+00
DAV:   4    -0.304164265393E+03   -0.74248E-03   -0.19712E-01 70776   0.203E+00    0.112E+00
DAV:   5    -0.304155736169E+03    0.85292E-02   -0.12686E-01 69852   0.164E+00    0.714E-01
DAV:   6    -0.304152482915E+03    0.32533E-02   -0.54921E-02 65436   0.107E+00    0.627E-01
DAV:   7    -0.304150831013E+03    0.16519E-02   -0.50199E-02 68664   0.106E+00    0.484E-01
DAV:   8    -0.304150299154E+03    0.53186E-03   -0.26188E-02 70440   0.737E-01    0.382E-01
DAV:   9    -0.304148403843E+03    0.18953E-02   -0.12820E-02 63804   0.508E-01    0.172E-01
DAV:  10    -0.304148171058E+03    0.23278E-03   -0.32795E-03 60180   0.258E-01    0.106E-01
DAV:  11    -0.304148100178E+03    0.70880E-04   -0.12561E-03 55536   0.158E-01    0.714E-02
DAV:  12    -0.304148106197E+03   -0.60187E-05   -0.64020E-04 46956   0.125E-01
  14 F= -.30414811E+03 E0= -.30414697E+03  d E =-.628935E-01
 curvature:  -1.03 expect dE=-0.614E-01 dE for cont linesearch -0.533E-02
 ZBRENT: bracketing found
 ZBRENT: interpolating
 opt :   2.4546  next Energy=  -304.156139 (dE=-0.709E-01)
 bond charge predicted
       N       E                     dE             d eps       ncg     rms          rms(c)
DAV:   1    -0.304147557539E+03    0.54264E-03   -0.36616E+00 42204   0.591E+00    0.695E-01
DAV:   2    -0.304217116296E+03   -0.69559E-01   -0.53509E-01 70224   0.398E+00    0.225E+00
DAV:   3    -0.304159106397E+03    0.58010E-01   -0.30675E-01 69492   0.281E+00    0.489E-01
DAV:   4    -0.304158716911E+03    0.38949E-03   -0.40273E-02 67824   0.905E-01    0.481E-01
DAV:   5    -0.304157123899E+03    0.15930E-02   -0.22501E-02 65196   0.669E-01    0.322E-01
DAV:   6    -0.304156523538E+03    0.60036E-03   -0.10129E-02 63216   0.461E-01    0.267E-01
DAV:   7    -0.304156218409E+03    0.30513E-03   -0.85908E-03 59016   0.444E-01    0.214E-01
DAV:   8    -0.304156212034E+03    0.63753E-05   -0.58579E-03 65232   0.353E-01    0.193E-01
DAV:   9    -0.304155727096E+03    0.48494E-03   -0.27965E-03 61488   0.250E-01    0.769E-02
DAV:  10    -0.304155689208E+03    0.37889E-04   -0.79742E-04 50016   0.138E-01
  15 F= -.30415569E+03 E0= -.30415438E+03  d E =-.704765E-01
 curvature:  -1.56 expect dE=-0.413E-01 dE for cont linesearch -0.151E-04
 trial: gam= 0.45167 g(F)=  0.171E-01 g(S)=  0.938E-02 ort = 0.844E-03 (trialstep = 0.753E+00)
 search vector abs. value=  0.423E-01
 bond charge predicted
       N       E                     dE             d eps       ncg     rms          rms(c)
DAV:   1    -0.304182074743E+03   -0.26348E-01   -0.19454E+00 42612   0.569E+00    0.141E+00
DAV:   2    -0.304210709708E+03   -0.28635E-01   -0.40199E-01 69936   0.327E+00    0.188E+00
DAV:   3    -0.304187655482E+03    0.23054E-01   -0.40049E-01 68760   0.305E+00    0.131E+00
DAV:   4    -0.304179666566E+03    0.79889E-02   -0.15257E-01 68784   0.191E+00    0.918E-01
DAV:   5    -0.304172637550E+03    0.70290E-02   -0.10207E-01 70260   0.141E+00    0.631E-01
DAV:   6    -0.304168743468E+03    0.38941E-02   -0.43223E-02 69888   0.934E-01    0.324E-01
DAV:   7    -0.304168480470E+03    0.26300E-03   -0.16962E-02 67020   0.594E-01    0.318E-01
DAV:   8    -0.304167766231E+03    0.71424E-03   -0.74631E-03 58620   0.419E-01    0.164E-01
DAV:   9    -0.304167751451E+03    0.14780E-04   -0.17612E-03 60996   0.196E-01    0.140E-01
DAV:  10    -0.304167704445E+03    0.47006E-04   -0.95157E-04 51888   0.157E-01
  16 F= -.30416770E+03 E0= -.30416639E+03  d E =-.120152E-01
 trial-energy change:   -0.012015  1 .order   -0.012784   -0.020267   -0.005300
 step:   1.3477(harm=  1.0200)  dis= 0.02302  next Energy=  -304.169418 (dE=-0.137E-01)
 bond charge predicted
       N       E                     dE             d eps       ncg     rms          rms(c)
DAV:   1    -0.304174690024E+03   -0.69386E-02   -0.12074E+00 42228   0.446E+00    0.111E+00
DAV:   2    -0.304192710910E+03   -0.18021E-01   -0.25292E-01 69804   0.260E+00    0.152E+00
DAV:   3    -0.304177280593E+03    0.15430E-01   -0.25702E-01 68544   0.243E+00    0.102E+00
DAV:   4    -0.304172367968E+03    0.49126E-02   -0.91533E-02 69756   0.147E+00    0.707E-01
DAV:   5    -0.304167809934E+03    0.45580E-02   -0.59712E-02 71220   0.107E+00    0.480E-01
DAV:   6    -0.304165733930E+03    0.20760E-02   -0.26492E-02 70056   0.734E-01    0.276E-01
DAV:   7    -0.304165382582E+03    0.35135E-03   -0.10238E-02 68208   0.444E-01    0.230E-01
DAV:   8    -0.304165089143E+03    0.29344E-03   -0.40327E-03 58872   0.299E-01    0.147E-01
DAV:   9    -0.304165083024E+03    0.61188E-05   -0.12131E-03 55488   0.167E-01    0.123E-01
DAV:  10    -0.304165059386E+03    0.23638E-04   -0.62755E-04 45960   0.130E-01
  17 F= -.30416506E+03 E0= -.30416374E+03  d E =-.937018E-02
 curvature:   0.41 expect dE= 0.220E-01 dE for cont linesearch  0.116E-02
 ZBRENT: interpolating
 opt :   0.9854  next Energy=  -304.168522 (dE=-0.128E-01)
 bond charge predicted
       N       E                     dE             d eps       ncg     rms          rms(c)
DAV:   1    -0.304171295198E+03   -0.62122E-02   -0.44970E-01 43224   0.274E+00    0.695E-01
DAV:   2    -0.304179130992E+03   -0.78358E-02   -0.10374E-01 71844   0.162E+00    0.942E-01
DAV:   3    -0.304172807306E+03    0.63237E-02   -0.99912E-02 69072   0.157E+00    0.626E-01
DAV:   4    -0.304170983987E+03    0.18233E-02   -0.35571E-02 64644   0.903E-01    0.469E-01
DAV:   5    -0.304169290814E+03    0.16932E-02   -0.26533E-02 67932   0.717E-01    0.327E-01
DAV:   6    -0.304168336716E+03    0.95410E-03   -0.11769E-02 69432   0.484E-01    0.184E-01
DAV:   7    -0.304168283033E+03    0.53683E-04   -0.54221E-03 59976   0.344E-01    0.179E-01
DAV:   8    -0.304167992801E+03    0.29023E-03   -0.25514E-03 59772   0.245E-01    0.708E-02
DAV:   9    -0.304167975707E+03    0.17095E-04   -0.44166E-04 41316   0.115E-01
  18 F= -.30416798E+03 E0= -.30416666E+03  d E =-.122865E-01
 curvature:  -0.29 expect dE=-0.828E-02 dE for cont linesearch -0.505E-04
 trial: gam= 1.20257 g(F)=  0.754E-02 g(S)=  0.213E-01 ort =-0.273E-02 (trialstep = 0.405E+00)
 search vector abs. value=  0.835E-01
 bond charge predicted
       N       E                     dE             d eps       ncg     rms          rms(c)
DAV:   1    -0.304175534422E+03   -0.75416E-02   -0.93126E-01 41280   0.295E+00    0.386E-01
DAV:   2    -0.304192291298E+03   -0.16757E-01   -0.13266E-01 67800   0.209E+00    0.116E+00
DAV:   3    -0.304177918018E+03    0.14373E-01   -0.76180E-02 66900   0.140E+00    0.265E-01
DAV:   4    -0.304177999584E+03   -0.81566E-04   -0.12662E-02 64920   0.486E-01    0.288E-01
DAV:   5    -0.304177368634E+03    0.63095E-03   -0.90578E-03 62976   0.417E-01    0.194E-01
DAV:   6    -0.304177046736E+03    0.32190E-03   -0.48231E-03 61656   0.311E-01    0.137E-01
DAV:   7    -0.304176964774E+03    0.81962E-04   -0.27224E-03 62388   0.253E-01    0.103E-01
DAV:   8    -0.304176915804E+03    0.48970E-04   -0.14815E-03 59844   0.179E-01    0.759E-02
DAV:   9    -0.304176856994E+03    0.58810E-04   -0.34778E-04 37308   0.117E-01
  19 F= -.30417686E+03 E0= -.30417555E+03  d E =-.888129E-02
 trial-energy change:   -0.008881  1 .order   -0.008770   -0.010366   -0.007174
 step:   1.3159(harm=  1.3159)  dis= 0.03243  next Energy=  -304.184805 (dE=-0.168E-01)
 bond charge predicted
       N       E                     dE             d eps       ncg     rms          rms(c)
DAV:   1    -0.304177473772E+03   -0.55797E-03   -0.46930E+00 41280   0.660E+00    0.872E-01
DAV:   2    -0.304261204208E+03   -0.83730E-01   -0.67927E-01 67644   0.478E+00    0.255E+00
DAV:   3    -0.304189190693E+03    0.72014E-01   -0.37183E-01 66660   0.306E+00    0.590E-01
DAV:   4    -0.304189621724E+03   -0.43103E-03   -0.62823E-02 71172   0.109E+00    0.653E-01
DAV:   5    -0.304186481215E+03    0.31405E-02   -0.44981E-02 67032   0.921E-01    0.440E-01
DAV:   6    -0.304184848669E+03    0.16325E-02   -0.25125E-02 70284   0.693E-01    0.314E-01
DAV:   7    -0.304184416086E+03    0.43258E-03   -0.14500E-02 69492   0.556E-01    0.237E-01
DAV:   8    -0.304184014388E+03    0.40170E-03   -0.72796E-03 64428   0.365E-01    0.154E-01
DAV:   9    -0.304183804248E+03    0.21014E-03   -0.21636E-03 59844   0.220E-01    0.103E-01
DAV:  10    -0.304183726848E+03    0.77401E-04   -0.54020E-04 43872   0.126E-01
  20 F= -.30418373E+03 E0= -.30418245E+03  d E =-.157511E-01
 curvature:  -2.15 expect dE=-0.237E-01 dE for cont linesearch -0.166E-03
 trial: gam= 0.28541 g(F)=  0.105E-01 g(S)=  0.558E-03 ort =-0.254E-02 (trialstep = 0.587E+00)
 search vector abs. value=  0.164E-01
 bond charge predicted
       N       E                     dE             d eps       ncg     rms          rms(c)
DAV:   1    -0.304187034135E+03   -0.32299E-02   -0.49964E-01 41280   0.250E+00    0.348E-01
DAV:   2    -0.304189771853E+03   -0.27377E-02   -0.46244E-02 67824   0.102E+00    0.298E-01
DAV:   3    -0.304190899342E+03   -0.11275E-02   -0.22230E-02 68568   0.749E-01    0.430E-01
DAV:   4    -0.304189005775E+03    0.18936E-02   -0.10861E-02 59916   0.526E-01    0.136E-01
DAV:   5    -0.304188921735E+03    0.84040E-04   -0.36739E-03 66336   0.268E-01    0.143E-01
DAV:   6    -0.304188869287E+03    0.52448E-04   -0.25810E-03 59172   0.256E-01    0.120E-01
DAV:   7    -0.304188731391E+03    0.13790E-03   -0.90669E-04 49164   0.151E-01    0.589E-02
DAV:   8    -0.304188715384E+03    0.16007E-04   -0.24952E-04 31464   0.975E-02
  21 F= -.30418872E+03 E0= -.30418751E+03  d E =-.498854E-02
 trial-energy change:   -0.004989  1 .order   -0.005064   -0.006066   -0.004062
 step:   1.7784(harm=  1.7784)  dis= 0.01724  next Energy=  -304.192909 (dE=-0.918E-02)
 bond charge predicted
       N       E                     dE             d eps       ncg     rms          rms(c)
DAV:   1    -0.304186242441E+03    0.24890E-02   -0.20494E+00 41280   0.505E+00    0.731E-01
DAV:   2    -0.304197345062E+03   -0.11103E-01   -0.19664E-01 68292   0.214E+00    0.630E-01
DAV:   3    -0.304201805290E+03   -0.44602E-02   -0.99164E-02 67536   0.153E+00    0.898E-01
DAV:   4    -0.304194300723E+03    0.75046E-02   -0.54585E-02 66852   0.114E+00    0.333E-01
DAV:   5    -0.304193606710E+03    0.69401E-03   -0.18334E-02 70116   0.620E-01    0.318E-01
DAV:   6    -0.304193189069E+03    0.41764E-03   -0.11221E-02 67980   0.529E-01    0.225E-01
DAV:   7    -0.304192709276E+03    0.47979E-03   -0.42923E-03 62376   0.311E-01    0.126E-01
DAV:   8    -0.304192688153E+03    0.21122E-04   -0.21517E-03 60576   0.220E-01    0.119E-01
DAV:   9    -0.304192589994E+03    0.98159E-04   -0.77632E-04 48024   0.144E-01
  22 F= -.30419259E+03 E0= -.30419151E+03  d E =-.886315E-02
 curvature:  -1.41 expect dE=-0.190E-01 dE for cont linesearch -0.554E-05
 trial: gam= 1.14127 g(F)=  0.318E-02 g(S)=  0.103E-01 ort = 0.254E-03 (trialstep = 0.383E+00)
 search vector abs. value=  0.354E-01
 bond charge predicted
       N       E                     dE             d eps       ncg     rms          rms(c)
DAV:   1    -0.304196742393E+03   -0.40542E-02   -0.50648E-01 41292   0.277E+00    0.575E-01
DAV:   2    -0.304199852010E+03   -0.31096E-02   -0.71036E-02 70728   0.125E+00    0.439E-01
DAV:   3    -0.304199988869E+03   -0.13686E-03   -0.50436E-02 72192   0.936E-01    0.494E-01
DAV:   4    -0.304198466283E+03    0.15226E-02   -0.27715E-02 61500   0.823E-01    0.349E-01
DAV:   5    -0.304196939716E+03    0.15266E-02   -0.10338E-02 70368   0.488E-01    0.151E-01
DAV:   6    -0.304196896798E+03    0.42918E-04   -0.51712E-03 64944   0.292E-01    0.163E-01
DAV:   7    -0.304196746794E+03    0.15000E-03   -0.32091E-03 59088   0.265E-01    0.121E-01
DAV:   8    -0.304196643668E+03    0.10313E-03   -0.14055E-03 56028   0.181E-01    0.699E-02
DAV:   9    -0.304196597257E+03    0.46412E-04   -0.31247E-04 33696   0.110E-01
  23 F= -.30419660E+03 E0= -.30419554E+03  d E =-.400726E-02
 trial-energy change:   -0.004007  1 .order   -0.004027   -0.005253   -0.002802
 step:   0.8203(harm=  0.8203)  dis= 0.00969  next Energy=  -304.198218 (dE=-0.563E-02)
 bond charge predicted
       N       E                     dE             d eps       ncg     rms          rms(c)
DAV:   1    -0.304197556762E+03   -0.91309E-03   -0.66115E-01 41280   0.315E+00    0.618E-01
DAV:   2    -0.304200951572E+03   -0.33948E-02   -0.83956E-02 70020   0.138E+00    0.440E-01
DAV:   3    -0.304200991024E+03   -0.39452E-04   -0.50427E-02 71940   0.893E-01    0.464E-01
DAV:   4    -0.304199762798E+03    0.12282E-02   -0.31507E-02 65760   0.801E-01    0.415E-01
DAV:   5    -0.304198062839E+03    0.17000E-02   -0.14148E-02 68640   0.565E-01    0.172E-01
DAV:   6    -0.304197859141E+03    0.20370E-03   -0.44633E-03 63864   0.263E-01    0.123E-01
DAV:   7    -0.304197722512E+03    0.13663E-03   -0.19918E-03 63216   0.155E-01    0.828E-02
DAV:   8    -0.304197716683E+03    0.58296E-05   -0.49295E-04 40644   0.136E-01
  24 F= -.30419772E+03 E0= -.30419667E+03  d E =-.512669E-02
 curvature:  -1.06 expect dE=-0.686E-02 dE for cont linesearch -0.499E-04
 trial: gam= 0.67763 g(F)=  0.386E-02 g(S)=  0.262E-02 ort =-0.129E-02 (trialstep = 0.470E+00)
 search vector abs. value=  0.210E-01
 bond charge predicted
       N       E                     dE             d eps       ncg     rms          rms(c)
DAV:   1    -0.304197404267E+03    0.31825E-03   -0.45452E-01 41388   0.221E+00    0.181E-01
DAV:   2    -0.304200613807E+03   -0.32095E-02   -0.35178E-02 66276   0.974E-01    0.242E-01
DAV:   3    -0.304200443728E+03    0.17008E-03   -0.79864E-03 66768   0.475E-01    0.189E-01
DAV:   4    -0.304200121008E+03    0.32272E-03   -0.20703E-03 55788   0.239E-01    0.955E-02
DAV:   5    -0.304200088368E+03    0.32640E-04   -0.73398E-04 48624   0.134E-01
  25 F= -.30420009E+03 E0= -.30419906E+03  d E =-.237169E-02
 ZBRENT: can't locate minimum, use default step
 trial-energy change:   -0.002372  1 .order   -0.002532   -0.002639   -0.002426
 step:   1.8811(harm=  5.8301)  dis= 0.01372  next Energy=  -304.214072 (dE=-0.164E-01)
 bond charge predicted
       N       E                     dE             d eps       ncg     rms          rms(c)
DAV:   1    -0.304180975760E+03    0.19145E-01   -0.40785E+00 41352   0.662E+00    0.547E-01
DAV:   2    -0.304209922422E+03   -0.28947E-01   -0.31222E-01 66228   0.288E+00    0.721E-01
DAV:   3    -0.304208308651E+03    0.16138E-02   -0.72123E-02 66216   0.151E+00    0.555E-01
DAV:   4    -0.304205506776E+03    0.28019E-02   -0.16877E-02 65532   0.729E-01    0.275E-01
DAV:   5    -0.304205335934E+03    0.17084E-03   -0.74015E-03 70332   0.410E-01    0.262E-01
DAV:   6    -0.304204994931E+03    0.34100E-03   -0.50619E-03 64284   0.345E-01    0.199E-01
DAV:   7    -0.304204929548E+03    0.65383E-04   -0.69031E-03 65460   0.393E-01    0.212E-01
DAV:   8    -0.304204462924E+03    0.46662E-03   -0.32430E-03 64464   0.277E-01    0.816E-02
DAV:   9    -0.304204420581E+03    0.42343E-04   -0.85405E-04 50292   0.133E-01
  26 F= -.30420442E+03 E0= -.30420344E+03  d E =-.670390E-02
 curvature:  -4.98 expect dE=-0.266E-01 dE for cont linesearch -0.697E-03
 trial: gam= 0.14724 g(F)=  0.365E-02 g(S)=  0.168E-02 ort = 0.171E-02 (trialstep = 0.752E+00)
 search vector abs. value=  0.629E-02
 bond charge predicted
       N       E                     dE             d eps       ncg     rms          rms(c)
DAV:   1    -0.304208431449E+03   -0.39685E-02   -0.43075E-01 45828   0.268E+00    0.602E-01
DAV:   2    -0.304211009619E+03   -0.25782E-02   -0.67699E-02 72780   0.133E+00    0.524E-01
DAV:   3    -0.304210289911E+03    0.71971E-03   -0.54431E-02 71988   0.111E+00    0.515E-01
DAV:   4    -0.304208871084E+03    0.14188E-02   -0.34018E-02 64356   0.878E-01    0.391E-01
DAV:   5    -0.304207298623E+03    0.15725E-02   -0.14653E-02 70020   0.544E-01    0.218E-01
DAV:   6    -0.304207038642E+03    0.25998E-03   -0.69047E-03 63912   0.375E-01    0.176E-01
DAV:   7    -0.304206867134E+03    0.17151E-03   -0.34686E-03 63396   0.268E-01    0.118E-01
DAV:   8    -0.304206789585E+03    0.77549E-04   -0.13366E-03 58800   0.174E-01    0.732E-02
DAV:   9    -0.304206748073E+03    0.41512E-04   -0.21051E-04 31152   0.968E-02
  27 F= -.30420675E+03 E0= -.30420586E+03  d E =-.232749E-02
 trial-energy change:   -0.002327  1 .order   -0.002470   -0.004202   -0.000738
 step:   0.9127(harm=  0.9127)  dis= 0.00436  next Energy=  -304.206969 (dE=-0.255E-02)
 bond charge predicted
       N       E                     dE             d eps       ncg     rms          rms(c)
DAV:   1    -0.304206903992E+03   -0.11441E-03   -0.20119E-02 54732   0.589E-01    0.116E-01
DAV:   2    -0.304207044351E+03   -0.14036E-03   -0.30382E-03 72600   0.268E-01    0.118E-01
DAV:   3    -0.304206934803E+03    0.10955E-03   -0.21600E-03 61908   0.212E-01    0.899E-02
DAV:   4    -0.304206910427E+03    0.24376E-04   -0.10362E-03 51084   0.163E-01    0.761E-02
DAV:   5    -0.304206854030E+03    0.56398E-04   -0.53096E-04 43608   0.118E-01
  28 F= -.30420685E+03 E0= -.30420597E+03  d E =-.243345E-02
 curvature:  -0.51 expect dE=-0.240E-02 dE for cont linesearch -0.259E-05
 trial: gam= 0.89141 g(F)=  0.152E-02 g(S)=  0.316E-02 ort = 0.178E-03 (trialstep = 0.494E+00)
 search vector abs. value=  0.999E-02
 bond charge predicted
       N       E                     dE             d eps       ncg     rms          rms(c)
DAV:   1    -0.304207703046E+03   -0.79262E-03   -0.26624E-01 41280   0.178E+00    0.251E-01
DAV:   2    -0.304210848892E+03   -0.31458E-02   -0.34731E-02 69744   0.926E-01    0.421E-01
DAV:   3    -0.304209301917E+03    0.15470E-02   -0.17606E-02 68604   0.656E-01    0.204E-01
DAV:   4    -0.304208998730E+03    0.30319E-03   -0.32840E-03 61380   0.287E-01    0.124E-01
DAV:   5    -0.304208883975E+03    0.11476E-03   -0.21609E-03 60984   0.204E-01    0.100E-01
DAV:   6    -0.304208878481E+03    0.54931E-05   -0.15456E-03 55320   0.195E-01    0.100E-01
DAV:   7    -0.304208800959E+03    0.77522E-04   -0.85871E-04 46956   0.153E-01
  29 F= -.30420880E+03 E0= -.30420797E+03  d E =-.194693E-02
 trial-energy change:   -0.001947  1 .order   -0.002005   -0.002387   -0.001623
 step:   1.5421(harm=  1.5421)  dis= 0.01085  next Energy=  -304.210580 (dE=-0.373E-02)
 bond charge predicted
       N       E                     dE             d eps       ncg     rms          rms(c)
DAV:   1    -0.304204238470E+03    0.46400E-02   -0.11890E+00 41280   0.376E+00    0.513E-01
DAV:   2    -0.304217029281E+03   -0.12791E-01   -0.14533E-01 69372   0.188E+00    0.819E-01
DAV:   3    -0.304211707953E+03    0.53213E-02   -0.71308E-02 68208   0.133E+00    0.444E-01
DAV:   4    -0.304210639063E+03    0.10689E-02   -0.17245E-02 65400   0.657E-01    0.323E-01
DAV:   5    -0.304209767111E+03    0.87195E-03   -0.10595E-02 66192   0.462E-01    0.205E-01
DAV:   6    -0.304209618434E+03    0.14868E-03   -0.57829E-03 65556   0.339E-01    0.165E-01
DAV:   7    -0.304209414394E+03    0.20404E-03   -0.36734E-03 66792   0.263E-01    0.121E-01
DAV:   8    -0.304209286406E+03    0.12799E-03   -0.15128E-03 58944   0.187E-01    0.660E-02
DAV:   9    -0.304209250001E+03    0.36405E-04   -0.33035E-04 37320   0.101E-01
  30 F= -.30420925E+03 E0= -.30420855E+03  d E =-.239597E-02
 curvature:  -1.59 expect dE=-0.664E-02 dE for cont linesearch -0.393E-03
 trial: gam= 0.00000 g(F)=  0.343E-02 g(S)=  0.737E-03 ort =-0.157E-02 (trialstep = 0.704E+00)
 search vector abs. value=  0.416E-02
 bond charge predicted
       N       E                     dE             d eps       ncg     rms          rms(c)
DAV:   1    -0.304210556094E+03   -0.12697E-02   -0.29388E-01 41604   0.206E+00    0.393E-01
DAV:   2    -0.304214637651E+03   -0.40816E-02   -0.50586E-02 70680   0.118E+00    0.557E-01
DAV:   3    -0.304212844453E+03    0.17932E-02   -0.34687E-02 68196   0.928E-01    0.362E-01
DAV:   4    -0.304211971080E+03    0.87337E-03   -0.11001E-02 62484   0.502E-01    0.232E-01
DAV:   5    -0.304211574246E+03    0.39683E-03   -0.71994E-03 65712   0.386E-01    0.182E-01
DAV:   6    -0.304211314294E+03    0.25995E-03   -0.34840E-03 61212   0.276E-01    0.103E-01
DAV:   7    -0.304211245306E+03    0.68988E-04   -0.15760E-03 58980   0.175E-01    0.795E-02
DAV:   8    -0.304211220459E+03    0.24847E-04   -0.79627E-04 50760   0.141E-01
  31 F= -.30421122E+03 E0= -.30421056E+03  d E =-.197046E-02
 trial-energy change:   -0.001970  1 .order   -0.001905   -0.002930   -0.000879
 step:   1.0053(harm=  1.0053)  dis= 0.00334  next Energy=  -304.211343 (dE=-0.209E-02)
 bond charge predicted
       N       E                     dE             d eps       ncg     rms          rms(c)
DAV:   1    -0.304211246964E+03   -0.16577E-05   -0.54245E-02 45156   0.899E-01    0.158E-01
DAV:   2    -0.304212051269E+03   -0.80431E-03   -0.92299E-03 69516   0.520E-01    0.243E-01
DAV:   3    -0.304211634702E+03    0.41657E-03   -0.61028E-03 63780   0.395E-01    0.142E-01
DAV:   4    -0.304211530689E+03    0.10401E-03   -0.19714E-03 58164   0.212E-01    0.982E-02
DAV:   5    -0.304211462872E+03    0.67818E-04   -0.11597E-03 52716   0.168E-01    0.764E-02
DAV:   6    -0.304211389446E+03    0.73426E-04   -0.32880E-04 34764   0.115E-01
  32 F= -.30421139E+03 E0= -.30421073E+03  d E =-.213945E-02
 curvature:  -0.50 expect dE=-0.996E-03 dE for cont linesearch -0.263E-04
 trial: gam= 0.36381 g(F)=  0.838E-03 g(S)=  0.114E-02 ort = 0.467E-03 (trialstep = 0.764E+00)
 search vector abs. value=  0.287E-02
 bond charge predicted
       N       E                     dE             d eps       ncg     rms          rms(c)
DAV:   1    -0.304212102989E+03   -0.64012E-03   -0.24593E-01 44544   0.201E+00    0.400E-01
DAV:   2    -0.304214867916E+03   -0.27649E-02   -0.43798E-02 71388   0.112E+00    0.431E-01
DAV:   3    -0.304214564040E+03    0.30388E-03   -0.32532E-02 68760   0.921E-01    0.420E-01
DAV:   4    -0.304213330136E+03    0.12339E-02   -0.15674E-02 62292   0.598E-01    0.234E-01
DAV:   5    -0.304212842598E+03    0.48754E-03   -0.67397E-03 66384   0.365E-01    0.190E-01
DAV:   6    -0.304212557799E+03    0.28480E-03   -0.42428E-03 59808   0.285E-01    0.105E-01
DAV:   7    -0.304212478756E+03    0.79043E-04   -0.13641E-03 57204   0.174E-01    0.668E-02
DAV:   8    -0.304212444981E+03    0.33775E-04   -0.53535E-04 41568   0.121E-01
  33 F= -.30421244E+03 E0= -.30421180E+03  d E =-.105554E-02
 trial-energy change:   -0.001056  1 .order   -0.001073   -0.001644   -0.000502
 step:   1.1001(harm=  1.1001)  dis= 0.00257  next Energy=  -304.212573 (dE=-0.118E-02)
 bond charge predicted
       N       E                     dE             d eps       ncg     rms          rms(c)
DAV:   1    -0.304212303418E+03    0.17534E-03   -0.46517E-02 41724   0.877E-01    0.166E-01
DAV:   2    -0.304212913950E+03   -0.61053E-03   -0.82952E-03 67980   0.514E-01    0.205E-01
DAV:   3    -0.304212750220E+03    0.16373E-03   -0.55289E-03 66660   0.395E-01    0.162E-01
DAV:   4    -0.304212565138E+03    0.18508E-03   -0.22431E-03 58620   0.230E-01    0.918E-02
DAV:   5    -0.304212497589E+03    0.67548E-04   -0.11951E-03 52836   0.168E-01    0.837E-02
DAV:   6    -0.304212427986E+03    0.69603E-04   -0.52727E-04 41388   0.122E-01
  34 F= -.30421243E+03 E0= -.30421181E+03  d E =-.103854E-02
 curvature:  -0.73 expect dE=-0.981E-03 dE for cont linesearch -0.107E-06
 trial: gam= 0.74169 g(F)=  0.890E-03 g(S)=  0.446E-03 ort =-0.204E-04 (trialstep = 0.827E+00)
 search vector abs. value=  0.289E-02
 bond charge predicted
       N       E                     dE             d eps       ncg     rms          rms(c)
DAV:   1    -0.304211115368E+03    0.13822E-02   -0.27118E-01 41280   0.184E+00    0.174E-01
DAV:   2    -0.304214305050E+03   -0.31897E-02   -0.32884E-02 66876   0.948E-01    0.302E-01
DAV:   3    -0.304213688229E+03    0.61682E-03   -0.96970E-03 67740   0.537E-01    0.165E-01
DAV:   4    -0.304213503114E+03    0.18511E-03   -0.20859E-03 56472   0.237E-01    0.116E-01
DAV:   5    -0.304213394775E+03    0.10834E-03   -0.10014E-03 51120   0.158E-01    0.766E-02
DAV:   6    -0.304213385323E+03    0.94523E-05   -0.52336E-04 42816   0.116E-01
  35 F= -.30421339E+03 E0= -.30421283E+03  d E =-.957336E-03
 ZBRENT: can't locate minimum, use default step
 trial-energy change:   -0.000957  1 .order   -0.001101   -0.001093   -0.001108
 step:   3.3099(harm=  3.3099)  dis= 0.01116  next Energy=  -304.216924 (dE=-0.450E-02)
 bond charge predicted
       N       E                     dE             d eps       ncg     rms          rms(c)
DAV:   1    -0.304195075821E+03    0.18319E-01   -0.24398E+00 41280   0.550E+00    0.512E-01
DAV:   2    -0.304221690796E+03   -0.26615E-01   -0.27912E-01 66360   0.275E+00    0.823E-01
DAV:   3    -0.304218106804E+03    0.35840E-02   -0.75609E-02 67392   0.153E+00    0.497E-01
DAV:   4    -0.304216190379E+03    0.19164E-02   -0.16411E-02 65292   0.679E-01    0.320E-01
DAV:   5    -0.304215369354E+03    0.82103E-03   -0.86034E-03 65304   0.426E-01    0.207E-01
DAV:   6    -0.304215429967E+03   -0.60613E-04   -0.54598E-03 65892   0.325E-01    0.203E-01
DAV:   7    -0.304215107739E+03    0.32223E-03   -0.51680E-03 67932   0.295E-01    0.132E-01
DAV:   8    -0.304214914669E+03    0.19307E-03   -0.17806E-03 63708   0.206E-01    0.653E-02
DAV:   9    -0.304214873185E+03    0.41484E-04   -0.45234E-04 41268   0.112E-01
  36 F= -.30421487E+03 E0= -.30421452E+03  d E =-.244520E-02
 curvature:  -5.46 expect dE=-0.121E-01 dE for cont linesearch -0.139E-03
 trial: gam= 0.88690 g(F)=  0.183E-02 g(S)=  0.376E-03 ort = 0.271E-03 (trialstep = 0.771E+00)
 search vector abs. value=  0.496E-02
 bond charge predicted
       N       E                     dE             d eps       ncg     rms          rms(c)
DAV:   1    -0.304214699377E+03    0.21529E-03   -0.32516E-01 41280   0.198E+00    0.265E-01
DAV:   2    -0.304218122247E+03   -0.34229E-02   -0.39506E-02 69444   0.104E+00    0.394E-01
DAV:   3    -0.304216840833E+03    0.12814E-02   -0.16364E-02 68796   0.660E-01    0.217E-01
DAV:   4    -0.304216636052E+03    0.20478E-03   -0.56477E-03 62676   0.350E-01    0.171E-01
DAV:   5    -0.304216412711E+03    0.22334E-03   -0.29991E-03 62976   0.253E-01    0.124E-01
DAV:   6    -0.304216314899E+03    0.97813E-04   -0.18489E-03 57216   0.200E-01    0.886E-02
DAV:   7    -0.304216296798E+03    0.18101E-04   -0.11567E-03 55128   0.174E-01    0.751E-02
DAV:   8    -0.304216246941E+03    0.49857E-04   -0.51707E-04 44268   0.125E-01
  37 F= -.30421625E+03 E0= -.30421600E+03  d E =-.137376E-02
 trial-energy change:   -0.001374  1 .order   -0.001496   -0.001886   -0.001105
 step:   1.8604(harm=  1.8604)  dis= 0.00826  next Energy=  -304.217150 (dE=-0.228E-02)
 bond charge predicted
       N       E                     dE             d eps       ncg     rms          rms(c)
DAV:   1    -0.304213585860E+03    0.27109E-02   -0.64668E-01 41280   0.279E+00    0.375E-01
DAV:   2    -0.304220454636E+03   -0.68688E-02   -0.78625E-02 68460   0.148E+00    0.575E-01
DAV:   3    -0.304217874781E+03    0.25799E-02   -0.33333E-02 67020   0.946E-01    0.315E-01
DAV:   4    -0.304217432259E+03    0.44252E-03   -0.11663E-02 66240   0.501E-01    0.232E-01
DAV:   5    -0.304217017639E+03    0.41462E-03   -0.57180E-03 66504   0.355E-01    0.179E-01
DAV:   6    -0.304216804519E+03    0.21312E-03   -0.38611E-03 62160   0.277E-01    0.120E-01
DAV:   7    -0.304216787537E+03    0.16982E-04   -0.21379E-03 60084   0.225E-01    0.108E-01
DAV:   8    -0.304216687822E+03    0.99715E-04   -0.11070E-03 55080   0.166E-01    0.572E-02
DAV:   9    -0.304216658192E+03    0.29630E-04   -0.14396E-04 26880   0.886E-02
  38 F= -.30421666E+03 E0= -.30421655E+03  d E =-.178501E-02
 curvature:  -1.88 expect dE=-0.105E-01 dE for cont linesearch -0.149E-04
 trial: gam= 2.79121 g(F)=  0.577E-03 g(S)=  0.501E-02 ort =-0.198E-03 (trialstep = 0.114E+00)
 search vector abs. value=  0.431E-01
 bond charge predicted
       N       E                     dE             d eps       ncg     rms          rms(c)
DAV:   1    -0.304216844491E+03   -0.15667E-03   -0.60423E-02 41376   0.812E-01    0.904E-02
DAV:   2    -0.304217484049E+03   -0.63956E-03   -0.66505E-03 68796   0.386E-01    0.164E-01
DAV:   3    -0.304217266550E+03    0.21750E-03   -0.24269E-03 63936   0.250E-01    0.841E-02
DAV:   4    -0.304217213328E+03    0.53222E-04   -0.38557E-04 41412   0.114E-01
  39 F= -.30421721E+03 E0= -.30421715E+03  d E =-.555136E-03
 ZBRENT: can't locate minimum, use default step
 trial-energy change:   -0.000555  1 .order   -0.000528   -0.000572   -0.000485
 step:   0.4548(harm=  0.7463)  dis= 0.00595  next Energy=  -304.218535 (dE=-0.188E-02)
 bond charge predicted
       N       E                     dE             d eps       ncg     rms          rms(c)
DAV:   1    -0.304215024035E+03    0.22425E-02   -0.54226E-01 41280   0.242E+00    0.262E-01
DAV:   2    -0.304220696090E+03   -0.56721E-02   -0.57802E-02 68448   0.119E+00    0.494E-01
DAV:   3    -0.304218713390E+03    0.19827E-02   -0.21269E-02 67200   0.760E-01    0.231E-01
DAV:   4    -0.304218464241E+03    0.24915E-03   -0.47726E-03 63972   0.330E-01    0.180E-01
DAV:   5    -0.304218203315E+03    0.26093E-03   -0.26061E-03 60600   0.237E-01    0.115E-01
DAV:   6    -0.304218133686E+03    0.69629E-04   -0.12429E-03 54696   0.168E-01    0.852E-02
DAV:   7    -0.304218110006E+03    0.23679E-04   -0.11429E-03 59772   0.154E-01    0.759E-02
DAV:   8    -0.304218071631E+03    0.38376E-04   -0.68927E-04 47280   0.142E-01
  40 F= -.30421807E+03 E0= -.30421812E+03  d E =-.141344E-02
 curvature:  -2.52 expect dE=-0.622E-02 dE for cont linesearch -0.357E-04
 trial: gam=-0.07000 g(F)=  0.132E-02 g(S)=  0.115E-02 ort = 0.782E-03 (trialstep = 0.182E+00)
 search vector abs. value=  0.257E-02
 bond charge predicted
       N       E                     dE             d eps       ncg     rms          rms(c)
DAV:   1    -0.304218544794E+03   -0.43479E-03   -0.12081E-02 57768   0.489E-01    0.105E-01
DAV:   2    -0.304218768973E+03   -0.22418E-03   -0.31487E-03 71664   0.285E-01    0.157E-01
DAV:   3    -0.304218573606E+03    0.19537E-03   -0.27480E-03 58428   0.255E-01    0.102E-01
DAV:   4    -0.304218507938E+03    0.65668E-04   -0.95671E-04 51096   0.151E-01
  41 F= -.30421851E+03 E0= -.30421853E+03  d E =-.436308E-03
 ZBRENT: can't locate minimum, use default step
 trial-energy change:   -0.000436  1 .order   -0.000413   -0.000439   -0.000388
 step:   0.7277(harm=  1.5561)  dis= 0.00154  next Energy=  -304.219949 (dE=-0.188E-02)
 bond charge predicted
       N       E                     dE             d eps       ncg     rms          rms(c)
DAV:   1    -0.304220065261E+03   -0.14917E-02   -0.10444E-01 54960   0.142E+00    0.342E-01
DAV:   2    -0.304221397598E+03   -0.13323E-02   -0.26940E-02 74172   0.797E-01    0.412E-01
DAV:   3    -0.304220468820E+03    0.92878E-03   -0.27630E-02 70248   0.738E-01    0.372E-01
DAV:   4    -0.304219482020E+03    0.98680E-03   -0.12350E-02 63504   0.490E-01    0.185E-01
DAV:   5    -0.304219126661E+03    0.35536E-03   -0.45770E-03 65436   0.272E-01    0.142E-01
DAV:   6    -0.304218988595E+03    0.13807E-03   -0.28624E-03 59016   0.267E-01    0.106E-01
DAV:   7    -0.304218901531E+03    0.87064E-04   -0.10825E-03 53136   0.174E-01    0.612E-02
DAV:   8    -0.304218872348E+03    0.29183E-04   -0.34825E-04 35400   0.120E-01
  42 F= -.30421887E+03 E0= -.30421888E+03  d E =-.800717E-03
 curvature:  -0.53 expect dE=-0.497E-03 dE for cont linesearch -0.159E-04
 trial: gam= 0.46662 g(F)=  0.351E-03 g(S)=  0.591E-03 ort =-0.278E-03 (trialstep = 0.291E+00)
 search vector abs. value=  0.124E-02
 reached required accuracy - stopping structural energy minimisation
 writing wavefunctions
VASP is done!
