<?xml version="1.0" encoding="ISO-8859-1"?>
<modeling>
 <generator>
  <i name="program" type="string">vasp </i>
  <i name="version" type="string">5.4.4.18Apr17-6-g9f103f2a35  </i>
  <i name="subversion" type="string">(build Aug 09 2018 16:20:53) complex            parallel </i>
  <i name="platform" type="string">LinuxIFC </i>
  <i name="date" type="string">2020 04 29 </i>
  <i name="time" type="string">15:06:08 </i>
 </generator>
 <incar>
  <i type="string" name="SYSTEM"> Nb - Mo - Ta - Ti - V SQS</i>
  <i type="string" name="PREC">normal</i>
  <i type="int" name="ICHARG">     0</i>
  <i type="int" name="IBRION">     2</i>
  <i type="int" name="NSW">    50</i>
  <i type="int" name="ISIF">     3</i>
  <i name="ENCUT">    600.00000000</i>
  <i type="string" name="LREAL"> Auto</i>
  <i type="int" name="ISMEAR">     1</i>
  <i name="SIGMA">      0.20000000</i>
  <v type="int" name="KPOINT_BSE">    -1     0     0     0</v>
  <i type="string" name="GGA"> PS</i>
 </incar>
 <structure name="primitive_cell" >
  <crystal>
   <varray name="basis" >
    <v>      -3.16000000      -3.16000000      -3.16000000 </v>
    <v>       1.58000000       1.58000000      -7.90000000 </v>
    <v>       7.90000000      -7.90000000      -1.58000000 </v>
   </varray>
   <i name="volume">    473.31744000 </i>
   <varray name="rec_basis" >
    <v>      -0.13713080      -0.12658228      -0.05274262 </v>
    <v>       0.04219409       0.06329114      -0.10548523 </v>
    <v>       0.06329114      -0.06329114       0.00000000 </v>
   </varray>
  </crystal>
  <varray name="positions" >
   <v>      -0.03333333      -0.06666667       0.40000000 </v>
   <v>       0.30000000      -0.40000000       0.40000000 </v>
   <v>      -0.10000000      -0.20000000       0.20000000 </v>
   <v>       0.06666667       0.13333333       0.20000000 </v>
   <v>       0.46666667      -0.06666667       0.40000000 </v>
   <v>      -0.13333333      -0.26666667      -0.40000000 </v>
   <v>       0.03333333       0.06666667      -0.40000000 </v>
   <v>      -0.36666667       0.26666667       0.40000000 </v>
   <v>       0.40000000      -0.20000000       0.20000000 </v>
   <v>      -0.20000000      -0.40000000       0.40000000 </v>
   <v>      -0.43333333       0.13333333       0.20000000 </v>
   <v>       0.36666667      -0.26666667      -0.40000000 </v>
   <v>       0.13333333       0.26666667       0.40000000 </v>
   <v>      -0.46666667       0.06666667      -0.40000000 </v>
   <v>       0.23333333       0.46666667       0.20000000 </v>
   <v>       0.20000000       0.40000000      -0.40000000 </v>
   <v>       0.00000000       0.00000000       0.00000000 </v>
   <v>      -0.06666667      -0.13333333      -0.20000000 </v>
   <v>      -0.30000000       0.40000000      -0.40000000 </v>
   <v>      -0.26666667       0.46666667       0.20000000 </v>
   <v>       0.33333333      -0.33333333       0.00000000 </v>
   <v>       0.43333333      -0.13333333      -0.20000000 </v>
   <v>      -0.50000000       0.00000000       0.00000000 </v>
   <v>       0.26666667      -0.46666667      -0.20000000 </v>
   <v>      -0.33333333       0.33333333       0.00000000 </v>
   <v>      -0.40000000       0.20000000      -0.20000000 </v>
   <v>      -0.23333333      -0.46666667      -0.20000000 </v>
   <v>       0.16666667       0.33333333       0.00000000 </v>
   <v>       0.10000000       0.20000000      -0.20000000 </v>
  </varray>
 </structure>
 <varray name="primitive_index" >
  <v type="int" >        1 </v>
  <v type="int" >       17 </v>
  <v type="int" >        7 </v>
  <v type="int" >       23 </v>
  <v type="int" >       19 </v>
  <v type="int" >       18 </v>
  <v type="int" >        6 </v>
  <v type="int" >        2 </v>
  <v type="int" >       15 </v>
  <v type="int" >        8 </v>
  <v type="int" >       14 </v>
  <v type="int" >       11 </v>
  <v type="int" >       12 </v>
  <v type="int" >       27 </v>
  <v type="int" >       29 </v>
  <v type="int" >       22 </v>
  <v type="int" >        4 </v>
  <v type="int" >       13 </v>
  <v type="int" >       25 </v>
  <v type="int" >        9 </v>
  <v type="int" >       28 </v>
  <v type="int" >       16 </v>
  <v type="int" >        3 </v>
  <v type="int" >       21 </v>
  <v type="int" >       10 </v>
  <v type="int" >       26 </v>
  <v type="int" >       24 </v>
  <v type="int" >       20 </v>
  <v type="int" >        5 </v>
 </varray>
 <kpoints>
  <generation param="Gamma">
   <v type="int" name="divisions">       7        7        7 </v>
   <v name="usershift">      0.00000000       0.00000000       0.00000000 </v>
   <v name="genvec1">      0.14285714       0.00000000       0.00000000 </v>
   <v name="genvec2">     -0.00000000       0.14285714       0.00000000 </v>
   <v name="genvec3">      0.00000000       0.00000000       0.14285714 </v>
   <v name="shift">      0.00000000       0.00000000       0.00000000 </v>
  </generation>
  <varray name="kpointlist" >
   <v>       0.00000000       0.00000000       0.00000000 </v>
   <v>       0.14285714       0.00000000      -0.00000000 </v>
   <v>       0.28571429       0.00000000       0.00000000 </v>
   <v>       0.42857143       0.00000000      -0.00000000 </v>
   <v>      -0.00000000       0.14285714       0.00000000 </v>
   <v>       0.14285714       0.14285714      -0.00000000 </v>
   <v>       0.28571429       0.14285714       0.00000000 </v>
   <v>       0.42857143       0.14285714      -0.00000000 </v>
   <v>      -0.42857143       0.14285714       0.00000000 </v>
   <v>      -0.28571429       0.14285714       0.00000000 </v>
   <v>      -0.14285714       0.14285714       0.00000000 </v>
   <v>       0.00000000       0.28571429      -0.00000000 </v>
   <v>       0.14285714       0.28571429      -0.00000000 </v>
   <v>       0.28571429       0.28571429      -0.00000000 </v>
   <v>       0.42857143       0.28571429      -0.00000000 </v>
   <v>      -0.42857143       0.28571429      -0.00000000 </v>
   <v>      -0.28571429       0.28571429      -0.00000000 </v>
   <v>      -0.14285714       0.28571429      -0.00000000 </v>
   <v>      -0.00000000       0.42857143      -0.00000000 </v>
   <v>       0.14285714       0.42857143       0.00000000 </v>
   <v>       0.28571429       0.42857143       0.00000000 </v>
   <v>       0.42857143       0.42857143      -0.00000000 </v>
   <v>      -0.42857143       0.42857143       0.00000000 </v>
   <v>      -0.28571429       0.42857143      -0.00000000 </v>
   <v>      -0.14285714       0.42857143      -0.00000000 </v>
   <v>       0.00000000       0.00000000       0.14285714 </v>
   <v>       0.14285714       0.00000000       0.14285714 </v>
   <v>       0.28571429       0.00000000       0.14285714 </v>
   <v>       0.42857143       0.00000000       0.14285714 </v>
   <v>      -0.42857143       0.00000000       0.14285714 </v>
   <v>      -0.28571429       0.00000000       0.14285714 </v>
   <v>      -0.14285714      -0.00000000       0.14285714 </v>
   <v>      -0.00000000       0.14285714       0.14285714 </v>
   <v>       0.14285714       0.14285714       0.14285714 </v>
   <v>       0.28571429       0.14285714       0.14285714 </v>
   <v>       0.42857143       0.14285714       0.14285714 </v>
   <v>      -0.42857143       0.14285714       0.14285714 </v>
   <v>      -0.28571429       0.14285714       0.14285714 </v>
   <v>      -0.14285714       0.14285714       0.14285714 </v>
   <v>      -0.00000000       0.28571429       0.14285714 </v>
   <v>       0.14285714       0.28571429       0.14285714 </v>
   <v>       0.28571429       0.28571429       0.14285714 </v>
   <v>       0.42857143       0.28571429       0.14285714 </v>
   <v>      -0.42857143       0.28571429       0.14285714 </v>
   <v>      -0.28571429       0.28571429       0.14285714 </v>
   <v>      -0.14285714       0.28571429       0.14285714 </v>
   <v>       0.00000000       0.42857143       0.14285714 </v>
   <v>       0.14285714       0.42857143       0.14285714 </v>
   <v>       0.28571429       0.42857143       0.14285714 </v>
   <v>       0.42857143       0.42857143       0.14285714 </v>
   <v>      -0.42857143       0.42857143       0.14285714 </v>
   <v>      -0.28571429       0.42857143       0.14285714 </v>
   <v>      -0.14285714       0.42857143       0.14285714 </v>
   <v>       0.00000000      -0.42857143       0.14285714 </v>
   <v>       0.14285714      -0.42857143       0.14285714 </v>
   <v>       0.28571429      -0.42857143       0.14285714 </v>
   <v>       0.42857143      -0.42857143       0.14285714 </v>
   <v>      -0.42857143      -0.42857143       0.14285714 </v>
   <v>      -0.28571429      -0.42857143       0.14285714 </v>
   <v>      -0.14285714      -0.42857143       0.14285714 </v>
   <v>       0.00000000      -0.28571429       0.14285714 </v>
   <v>       0.14285714      -0.28571429       0.14285714 </v>
   <v>       0.28571429      -0.28571429       0.14285714 </v>
   <v>       0.42857143      -0.28571429       0.14285714 </v>
   <v>      -0.42857143      -0.28571429       0.14285714 </v>
   <v>      -0.28571429      -0.28571429       0.14285714 </v>
   <v>      -0.14285714      -0.28571429       0.14285714 </v>
   <v>       0.00000000      -0.14285714       0.14285714 </v>
   <v>       0.14285714      -0.14285714       0.14285714 </v>
   <v>       0.28571429      -0.14285714       0.14285714 </v>
   <v>       0.42857143      -0.14285714       0.14285714 </v>
   <v>      -0.42857143      -0.14285714       0.14285714 </v>
   <v>      -0.28571429      -0.14285714       0.14285714 </v>
   <v>      -0.14285714      -0.14285714       0.14285714 </v>
   <v>       0.00000000       0.00000000       0.28571429 </v>
   <v>       0.14285714       0.00000000       0.28571429 </v>
   <v>       0.28571429       0.00000000       0.28571429 </v>
   <v>       0.42857143       0.00000000       0.28571429 </v>
   <v>      -0.42857143      -0.00000000       0.28571429 </v>
   <v>      -0.28571429      -0.00000000       0.28571429 </v>
   <v>      -0.14285714      -0.00000000       0.28571429 </v>
   <v>      -0.00000000       0.14285714       0.28571429 </v>
   <v>       0.14285714       0.14285714       0.28571429 </v>
   <v>       0.28571429       0.14285714       0.28571429 </v>
   <v>       0.42857143       0.14285714       0.28571429 </v>
   <v>      -0.42857143       0.14285714       0.28571429 </v>
   <v>      -0.28571429       0.14285714       0.28571429 </v>
   <v>      -0.14285714       0.14285714       0.28571429 </v>
   <v>      -0.00000000       0.28571429       0.28571429 </v>
   <v>       0.14285714       0.28571429       0.28571429 </v>
   <v>       0.28571429       0.28571429       0.28571429 </v>
   <v>       0.42857143       0.28571429       0.28571429 </v>
   <v>      -0.42857143       0.28571429       0.28571429 </v>
   <v>      -0.28571429       0.28571429       0.28571429 </v>
   <v>      -0.14285714       0.28571429       0.28571429 </v>
   <v>       0.00000000       0.42857143       0.28571429 </v>
   <v>       0.14285714       0.42857143       0.28571429 </v>
   <v>       0.28571429       0.42857143       0.28571429 </v>
   <v>       0.42857143       0.42857143       0.28571429 </v>
   <v>      -0.42857143       0.42857143       0.28571429 </v>
   <v>      -0.28571429       0.42857143       0.28571429 </v>
   <v>      -0.14285714       0.42857143       0.28571429 </v>
   <v>      -0.00000000      -0.42857143       0.28571429 </v>
   <v>       0.14285714      -0.42857143       0.28571429 </v>
   <v>       0.28571429      -0.42857143       0.28571429 </v>
   <v>       0.42857143      -0.42857143       0.28571429 </v>
   <v>      -0.42857143      -0.42857143       0.28571429 </v>
   <v>      -0.28571429      -0.42857143       0.28571429 </v>
   <v>      -0.14285714      -0.42857143       0.28571429 </v>
   <v>       0.00000000      -0.28571429       0.28571429 </v>
   <v>       0.14285714      -0.28571429       0.28571429 </v>
   <v>       0.28571429      -0.28571429       0.28571429 </v>
   <v>       0.42857143      -0.28571429       0.28571429 </v>
   <v>      -0.42857143      -0.28571429       0.28571429 </v>
   <v>      -0.28571429      -0.28571429       0.28571429 </v>
   <v>      -0.14285714      -0.28571429       0.28571429 </v>
   <v>       0.00000000      -0.14285714       0.28571429 </v>
   <v>       0.14285714      -0.14285714       0.28571429 </v>
   <v>       0.28571429      -0.14285714       0.28571429 </v>
   <v>       0.42857143      -0.14285714       0.28571429 </v>
   <v>      -0.42857143      -0.14285714       0.28571429 </v>
   <v>      -0.28571429      -0.14285714       0.28571429 </v>
   <v>      -0.14285714      -0.14285714       0.28571429 </v>
   <v>       0.00000000       0.00000000       0.42857143 </v>
   <v>       0.14285714       0.00000000       0.42857143 </v>
   <v>       0.28571429       0.00000000       0.42857143 </v>
   <v>       0.42857143      -0.00000000       0.42857143 </v>
   <v>      -0.42857143      -0.00000000       0.42857143 </v>
   <v>      -0.28571429       0.00000000       0.42857143 </v>
   <v>      -0.14285714      -0.00000000       0.42857143 </v>
   <v>      -0.00000000       0.14285714       0.42857143 </v>
   <v>       0.14285714       0.14285714       0.42857143 </v>
   <v>       0.28571429       0.14285714       0.42857143 </v>
   <v>       0.42857143       0.14285714       0.42857143 </v>
   <v>      -0.42857143       0.14285714       0.42857143 </v>
   <v>      -0.28571429       0.14285714       0.42857143 </v>
   <v>      -0.14285714       0.14285714       0.42857143 </v>
   <v>       0.00000000       0.28571429       0.42857143 </v>
   <v>       0.14285714       0.28571429       0.42857143 </v>
   <v>       0.28571429       0.28571429       0.42857143 </v>
   <v>       0.42857143       0.28571429       0.42857143 </v>
   <v>      -0.42857143       0.28571429       0.42857143 </v>
   <v>      -0.28571429       0.28571429       0.42857143 </v>
   <v>      -0.14285714       0.28571429       0.42857143 </v>
   <v>       0.00000000       0.42857143       0.42857143 </v>
   <v>       0.14285714       0.42857143       0.42857143 </v>
   <v>       0.28571429       0.42857143       0.42857143 </v>
   <v>       0.42857143       0.42857143       0.42857143 </v>
   <v>      -0.42857143       0.42857143       0.42857143 </v>
   <v>      -0.28571429       0.42857143       0.42857143 </v>
   <v>      -0.14285714       0.42857143       0.42857143 </v>
   <v>       0.00000000      -0.42857143       0.42857143 </v>
   <v>       0.14285714      -0.42857143       0.42857143 </v>
   <v>       0.28571429      -0.42857143       0.42857143 </v>
   <v>       0.42857143      -0.42857143       0.42857143 </v>
   <v>      -0.42857143      -0.42857143       0.42857143 </v>
   <v>      -0.28571429      -0.42857143       0.42857143 </v>
   <v>      -0.14285714      -0.42857143       0.42857143 </v>
   <v>      -0.00000000      -0.28571429       0.42857143 </v>
   <v>       0.14285714      -0.28571429       0.42857143 </v>
   <v>       0.28571429      -0.28571429       0.42857143 </v>
   <v>       0.42857143      -0.28571429       0.42857143 </v>
   <v>      -0.42857143      -0.28571429       0.42857143 </v>
   <v>      -0.28571429      -0.28571429       0.42857143 </v>
   <v>      -0.14285714      -0.28571429       0.42857143 </v>
   <v>       0.00000000      -0.14285714       0.42857143 </v>
   <v>       0.14285714      -0.14285714       0.42857143 </v>
   <v>       0.28571429      -0.14285714       0.42857143 </v>
   <v>       0.42857143      -0.14285714       0.42857143 </v>
   <v>      -0.42857143      -0.14285714       0.42857143 </v>
   <v>      -0.28571429      -0.14285714       0.42857143 </v>
   <v>      -0.14285714      -0.14285714       0.42857143 </v>
  </varray>
  <varray name="weights" >
   <v>       0.00291545 </v>
   <v>       0.00583090 </v>
   <v>       0.00583090 </v>
   <v>       0.00583090 </v>
   <v>       0.00583090 </v>
   <v>       0.00583090 </v>
   <v>       0.00583090 </v>
   <v>       0.00583090 </v>
   <v>       0.00583090 </v>
   <v>       0.00583090 </v>
   <v>       0.00583090 </v>
   <v>       0.00583090 </v>
   <v>       0.00583090 </v>
   <v>       0.00583090 </v>
   <v>       0.00583090 </v>
   <v>       0.00583090 </v>
   <v>       0.00583090 </v>
   <v>       0.00583090 </v>
   <v>       0.00583090 </v>
   <v>       0.00583090 </v>
   <v>       0.00583090 </v>
   <v>       0.00583090 </v>
   <v>       0.00583090 </v>
   <v>       0.00583090 </v>
   <v>       0.00583090 </v>
   <v>       0.00583090 </v>
   <v>       0.00583090 </v>
   <v>       0.00583090 </v>
   <v>       0.00583090 </v>
   <v>       0.00583090 </v>
   <v>       0.00583090 </v>
   <v>       0.00583090 </v>
   <v>       0.00583090 </v>
   <v>       0.00583090 </v>
   <v>       0.00583090 </v>
   <v>       0.00583090 </v>
   <v>       0.00583090 </v>
   <v>       0.00583090 </v>
   <v>       0.00583090 </v>
   <v>       0.00583090 </v>
   <v>       0.00583090 </v>
   <v>       0.00583090 </v>
   <v>       0.00583090 </v>
   <v>       0.00583090 </v>
   <v>       0.00583090 </v>
   <v>       0.00583090 </v>
   <v>       0.00583090 </v>
   <v>       0.00583090 </v>
   <v>       0.00583090 </v>
   <v>       0.00583090 </v>
   <v>       0.00583090 </v>
   <v>       0.00583090 </v>
   <v>       0.00583090 </v>
   <v>       0.00583090 </v>
   <v>       0.00583090 </v>
   <v>       0.00583090 </v>
   <v>       0.00583090 </v>
   <v>       0.00583090 </v>
   <v>       0.00583090 </v>
   <v>       0.00583090 </v>
   <v>       0.00583090 </v>
   <v>       0.00583090 </v>
   <v>       0.00583090 </v>
   <v>       0.00583090 </v>
   <v>       0.00583090 </v>
   <v>       0.00583090 </v>
   <v>       0.00583090 </v>
   <v>       0.00583090 </v>
   <v>       0.00583090 </v>
   <v>       0.00583090 </v>
   <v>       0.00583090 </v>
   <v>       0.00583090 </v>
   <v>       0.00583090 </v>
   <v>       0.00583090 </v>
   <v>       0.00583090 </v>
   <v>       0.00583090 </v>
   <v>       0.00583090 </v>
   <v>       0.00583090 </v>
   <v>       0.00583090 </v>
   <v>       0.00583090 </v>
   <v>       0.00583090 </v>
   <v>       0.00583090 </v>
   <v>       0.00583090 </v>
   <v>       0.00583090 </v>
   <v>       0.00583090 </v>
   <v>       0.00583090 </v>
   <v>       0.00583090 </v>
   <v>       0.00583090 </v>
   <v>       0.00583090 </v>
   <v>       0.00583090 </v>
   <v>       0.00583090 </v>
   <v>       0.00583090 </v>
   <v>       0.00583090 </v>
   <v>       0.00583090 </v>
   <v>       0.00583090 </v>
   <v>       0.00583090 </v>
   <v>       0.00583090 </v>
   <v>       0.00583090 </v>
   <v>       0.00583090 </v>
   <v>       0.00583090 </v>
   <v>       0.00583090 </v>
   <v>       0.00583090 </v>
   <v>       0.00583090 </v>
   <v>       0.00583090 </v>
   <v>       0.00583090 </v>
   <v>       0.00583090 </v>
   <v>       0.00583090 </v>
   <v>       0.00583090 </v>
   <v>       0.00583090 </v>
   <v>       0.00583090 </v>
   <v>       0.00583090 </v>
   <v>       0.00583090 </v>
   <v>       0.00583090 </v>
   <v>       0.00583090 </v>
   <v>       0.00583090 </v>
   <v>       0.00583090 </v>
   <v>       0.00583090 </v>
   <v>       0.00583090 </v>
   <v>       0.00583090 </v>
   <v>       0.00583090 </v>
   <v>       0.00583090 </v>
   <v>       0.00583090 </v>
   <v>       0.00583090 </v>
   <v>       0.00583090 </v>
   <v>       0.00583090 </v>
   <v>       0.00583090 </v>
   <v>       0.00583090 </v>
   <v>       0.00583090 </v>
   <v>       0.00583090 </v>
   <v>       0.00583090 </v>
   <v>       0.00583090 </v>
   <v>       0.00583090 </v>
   <v>       0.00583090 </v>
   <v>       0.00583090 </v>
   <v>       0.00583090 </v>
   <v>       0.00583090 </v>
   <v>       0.00583090 </v>
   <v>       0.00583090 </v>
   <v>       0.00583090 </v>
   <v>       0.00583090 </v>
   <v>       0.00583090 </v>
   <v>       0.00583090 </v>
   <v>       0.00583090 </v>
   <v>       0.00583090 </v>
   <v>       0.00583090 </v>
   <v>       0.00583090 </v>
   <v>       0.00583090 </v>
   <v>       0.00583090 </v>
   <v>       0.00583090 </v>
   <v>       0.00583090 </v>
   <v>       0.00583090 </v>
   <v>       0.00583090 </v>
   <v>       0.00583090 </v>
   <v>       0.00583090 </v>
   <v>       0.00583090 </v>
   <v>       0.00583090 </v>
   <v>       0.00583090 </v>
   <v>       0.00583090 </v>
   <v>       0.00583090 </v>
   <v>       0.00583090 </v>
   <v>       0.00583090 </v>
   <v>       0.00583090 </v>
   <v>       0.00583090 </v>
   <v>       0.00583090 </v>
   <v>       0.00583090 </v>
   <v>       0.00583090 </v>
   <v>       0.00583090 </v>
   <v>       0.00583090 </v>
   <v>       0.00583090 </v>
   <v>       0.00583090 </v>
   <v>       0.00583090 </v>
   <v>       0.00583090 </v>
  </varray>
 </kpoints>
 <parameters>
  <separator name="general" >
   <i type="string" name="SYSTEM">Nb - Mo - Ta - Ti - V SQS</i>
   <i type="logical" name="LCOMPAT"> F  </i>
  </separator>
  <separator name="electronic" >
   <i type="string" name="PREC">normal</i>
   <i name="ENMAX">    600.00000000</i>
   <i name="ENAUG">    455.65900000</i>
   <i name="EDIFF">      0.00010000</i>
   <i type="int" name="IALGO">    38</i>
   <i type="int" name="IWAVPR">    11</i>
   <i type="int" name="NBANDS">   120</i>
   <i name="NELECT">    193.00000000</i>
   <i type="int" name="TURBO">     0</i>
   <i type="int" name="IRESTART">     0</i>
   <i type="int" name="NREBOOT">     0</i>
   <i type="int" name="NMIN">     0</i>
   <i name="EREF">      0.00000000</i>
   <separator name="electronic smearing" >
    <i type="int" name="ISMEAR">     1</i>
    <i name="SIGMA">      0.20000000</i>
    <i name="KSPACING">      0.50000000</i>
    <i type="logical" name="KGAMMA"> T  </i>
   </separator>
   <separator name="electronic projectors" >
    <i type="logical" name="LREAL"> T  </i>
    <v name="ROPT">     -0.00050000     -0.00050000     -0.00050000     -0.00050000     -0.00050000</v>
    <i type="int" name="LMAXPAW">  -100</i>
    <i type="int" name="LMAXMIX">     2</i>
    <i type="logical" name="NLSPLINE"> F  </i>
   </separator>
   <separator name="electronic startup" >
    <i type="int" name="ISTART">     0</i>
    <i type="int" name="ICHARG">     0</i>
    <i type="int" name="INIWAV">     1</i>
   </separator>
   <separator name="electronic spin" >
    <i type="int" name="ISPIN">     1</i>
    <i type="logical" name="LNONCOLLINEAR"> F  </i>
    <v name="MAGMOM">      1.00000000      1.00000000      1.00000000      1.00000000      1.00000000      1.00000000      1.00000000      1.00000000      1.00000000      1.00000000      1.00000000      1.00000000      1.00000000      1.00000000      1.00000000      1.00000000      1.00000000      1.00000000      1.00000000      1.00000000
      1.00000000      1.00000000      1.00000000      1.00000000      1.00000000      1.00000000      1.00000000      1.00000000      1.00000000</v>
    <i name="NUPDOWN">     -1.00000000</i>
    <i type="logical" name="LSORBIT"> F  </i>
    <v name="SAXIS">      0.00000000      0.00000000      1.00000000</v>
    <i type="logical" name="LSPIRAL"> F  </i>
    <v name="QSPIRAL">      0.00000000      0.00000000      0.00000000</v>
    <i type="logical" name="LZEROZ"> F  </i>
   </separator>
   <separator name="electronic exchange-correlation" >
    <i type="logical" name="LASPH"> F  </i>
    <i type="logical" name="LMETAGGA"> F  </i>
   </separator>
   <separator name="electronic convergence" >
    <i type="int" name="NELM">    60</i>
    <i type="int" name="NELMDL">    -5</i>
    <i type="int" name="NELMIN">     2</i>
    <i name="ENINI">    600.00000000</i>
    <separator name="electronic convergence detail" >
     <i type="logical" name="LDIAG"> T  </i>
     <i type="logical" name="LSUBROT"> F  </i>
     <i name="WEIMIN">      0.00100000</i>
     <i name="EBREAK">      0.00000021</i>
     <i name="DEPER">      0.30000000</i>
     <i type="int" name="NRMM">     4</i>
     <i name="TIME">      0.40000000</i>
    </separator>
   </separator>
   <separator name="electronic mixer" >
    <i name="AMIX">      0.40000000</i>
    <i name="BMIX">      1.00000000</i>
    <i name="AMIN">      0.10000000</i>
    <i name="AMIX_MAG">      1.60000000</i>
    <i name="BMIX_MAG">      1.00000000</i>
    <separator name="electronic mixer details" >
     <i type="int" name="IMIX">     4</i>
     <i type="logical" name="MIXFIRST"> F  </i>
     <i type="int" name="MAXMIX">   -45</i>
     <i name="WC">    100.00000000</i>
     <i type="int" name="INIMIX">     1</i>
     <i type="int" name="MIXPRE">     1</i>
     <i type="int" name="MREMOVE">     5</i>
    </separator>
   </separator>
   <separator name="electronic dipolcorrection" >
    <i type="logical" name="LDIPOL"> F  </i>
    <i type="logical" name="LMONO"> F  </i>
    <i type="int" name="IDIPOL">     0</i>
    <i name="EPSILON">      1.00000000</i>
    <v name="DIPOL">   -100.00000000   -100.00000000   -100.00000000</v>
    <i name="EFIELD">      0.00000000</i>
   </separator>
  </separator>
  <separator name="grids" >
   <i type="int" name="NGX">    36</i>
   <i type="int" name="NGY">    50</i>
   <i type="int" name="NGZ">    70</i>
   <i type="int" name="NGXF">    72</i>
   <i type="int" name="NGYF">   100</i>
   <i type="int" name="NGZF">   140</i>
   <i type="logical" name="ADDGRID"> F  </i>
  </separator>
  <separator name="ionic" >
   <i type="int" name="NSW">    50</i>
   <i type="int" name="IBRION">     2</i>
   <i type="int" name="MDALGO">     0</i>
   <i type="int" name="ISIF">     3</i>
   <i name="PSTRESS">      0.00000000</i>
   <i name="EDIFFG">      0.00100000</i>
   <i type="int" name="NFREE">     1</i>
   <i name="POTIM">      0.50000000</i>
   <i name="SMASS">     -3.00000000</i>
   <i name="SCALEE">      1.00000000</i>
  </separator>
  <separator name="ionic md" >
   <i name="TEBEG">      0.00010000</i>
   <i name="TEEND">      0.00010000</i>
   <i type="int" name="NBLOCK">     1</i>
   <i type="int" name="KBLOCK">    50</i>
   <i type="int" name="NPACO">   256</i>
   <i name="APACO">     16.00000000</i>
  </separator>
  <separator name="symmetry" >
   <i type="int" name="ISYM">     2</i>
   <i name="SYMPREC">      0.00001000</i>
  </separator>
  <separator name="dos" >
   <i type="int" name="LORBIT">     0</i>
   <v name="RWIGS">     -1.00000000     -1.00000000     -1.00000000     -1.00000000     -1.00000000</v>
   <i type="int" name="NEDOS">   301</i>
   <i name="EMIN">     10.00000000</i>
   <i name="EMAX">    -10.00000000</i>
   <i name="EFERMI">      0.00000000</i>
  </separator>
  <separator name="writing" >
   <i type="int" name="NWRITE">     2</i>
   <i type="logical" name="LWAVE"> T  </i>
   <i type="logical" name="LDOWNSAMPLE"> F  </i>
   <i type="logical" name="LCHARG"> T  </i>
   <i type="logical" name="LPARD"> F  </i>
   <i type="logical" name="LVTOT"> F  </i>
   <i type="logical" name="LVHAR"> F  </i>
   <i type="logical" name="LELF"> F  </i>
   <i type="logical" name="LOPTICS"> F  </i>
   <v name="STM">      0.00000000      0.00000000      0.00000000      0.00000000      0.00000000      0.00000000      0.00000000</v>
  </separator>
  <separator name="performance" >
   <i type="int" name="NPAR">    12</i>
   <i type="int" name="NSIM">     4</i>
   <i type="int" name="NBLK">    -1</i>
   <i type="logical" name="LPLANE"> T  </i>
   <i type="logical" name="LSCALAPACK"> T  </i>
   <i type="logical" name="LSCAAWARE"> F  </i>
   <i type="logical" name="LSCALU"> F  </i>
   <i type="logical" name="LASYNC"> F  </i>
   <i type="logical" name="LORBITALREAL"> F  </i>
  </separator>
  <separator name="miscellaneous" >
   <i type="int" name="IDIOT">     3</i>
   <i type="int" name="ISPECIAL">     0</i>
   <i type="logical" name="LMUSIC"> F  </i>
   <v name="POMASS">     92.91000000     95.94000000    180.94800000     47.88000000     50.94100000</v>
   <v name="DARWINR">      0.00000000      0.00000000      0.00000000      0.00000000      0.00000000</v>
   <v name="DARWINV">      1.00000000      1.00000000      1.00000000      1.00000000      1.00000000</v>
   <i type="logical" name="LCORR"> T  </i>
  </separator>
  <i type="logical" name="GGA_COMPAT"> T  </i>
  <i type="logical" name="LBERRY"> F  </i>
  <i type="int" name="ICORELEVEL">     0</i>
  <i type="logical" name="LDAU"> F  </i>
  <i type="int" name="I_CONSTRAINED_M">     0</i>
  <separator name="electronic exchange-correlation" >
   <i type="string" name="GGA">PS</i>
   <i type="int" name="VOSKOWN">     0</i>
   <i type="logical" name="LHFCALC"> F  </i>
   <i type="string" name="PRECFOCK"></i>
   <i type="logical" name="LSYMGRAD"> F  </i>
   <i type="logical" name="LHFONE"> F  </i>
   <i type="logical" name="LRHFCALC"> F  </i>
   <i type="logical" name="LTHOMAS"> F  </i>
   <i type="logical" name="LMODELHF"> F  </i>
   <i name="ENCUT4O">     -1.00000000</i>
   <i type="int" name="EXXOEP">     0</i>
   <i type="int" name="FOURORBIT">     0</i>
   <i name="AEXX">      0.00000000</i>
   <i name="HFALPHA">      0.00000000</i>
   <i name="MCALPHA">      0.00000000</i>
   <i name="ALDAX">      1.00000000</i>
   <i name="AGGAX">      1.00000000</i>
   <i name="ALDAC">      1.00000000</i>
   <i name="AGGAC">      1.00000000</i>
   <i type="int" name="NKREDX">     1</i>
   <i type="int" name="NKREDY">     1</i>
   <i type="int" name="NKREDZ">     1</i>
   <i type="logical" name="SHIFTRED"> F  </i>
   <i type="logical" name="ODDONLY"> F  </i>
   <i type="logical" name="EVENONLY"> F  </i>
   <i type="int" name="LMAXFOCK">     0</i>
   <i type="int" name="NMAXFOCKAE">     0</i>
   <i type="logical" name="LFOCKAEDFT"> F  </i>
   <i name="HFSCREEN">      0.00000000</i>
   <i name="HFSCREENC">      0.00000000</i>
   <i type="int" name="NBANDSGWLOW">     0</i>
  </separator>
  <separator name="vdW DFT" >
   <i type="logical" name="LUSE_VDW"> F  </i>
   <i name="Zab_VDW">     -0.84910000</i>
   <i name="PARAM1">      0.12340000</i>
   <i name="PARAM2">      1.00000000</i>
   <i name="PARAM3">      0.00000000</i>
  </separator>
  <separator name="model GW" >
   <i type="int" name="MODEL_GW">     0</i>
   <i name="MODEL_EPS0">      9.79277462</i>
   <i name="MODEL_ALPHA">      1.00000000</i>
  </separator>
  <separator name="linear response parameters" >
   <i type="logical" name="LEPSILON"> F  </i>
   <i type="logical" name="LRPA"> F  </i>
   <i type="logical" name="LNABLA"> F  </i>
   <i type="logical" name="LVEL"> F  </i>
   <i type="int" name="KINTER">     0</i>
   <i name="CSHIFT">      0.10000000</i>
   <i name="OMEGAMAX">     -1.00000000</i>
   <i name="DEG_THRESHOLD">      0.00200000</i>
   <i name="RTIME">     -0.10000000</i>
   <i name="WPLASMAI">      0.00000000</i>
   <v name="DFIELD">      0.00000000      0.00000000      0.00000000</v>
   <v name="WPLASMA">      0.00000000      0.00000000      0.00000000      0.00000000      0.00000000      0.00000000      0.00000000      0.00000000      0.00000000</v>
  </separator>
  <separator name="orbital magnetization" >
   <i type="logical" name="NUCIND"> F  </i>
   <v name="MAGPOS">      0.00000000      0.00000000      0.00000000</v>
   <i type="logical" name="LNICSALL"> T  </i>
   <i type="logical" name="ORBITALMAG"> F  </i>
   <i type="logical" name="LMAGBLOCH"> F  </i>
   <i type="logical" name="LCHIMAG"> F  </i>
   <i type="logical" name="LGAUGE"> T  </i>
   <i type="int" name="MAGATOM">     0</i>
   <v name="MAGDIPOL">      0.00000000      0.00000000      0.00000000</v>
   <v name="AVECCONST">      0.00000000      0.00000000      0.00000000</v>
  </separator>
  <separator name="response functions" >
   <i type="logical" name="LADDER"> F  </i>
   <i type="logical" name="LRPAFORCE"> F  </i>
   <i type="logical" name="LFXC"> F  </i>
   <i type="logical" name="LHARTREE"> T  </i>
   <i type="int" name="IBSE">     0</i>
   <v type="int" name="KPOINT">    -1     0     0     0</v>
   <i type="logical" name="LTCTE"> F  </i>
   <i type="logical" name="LTETE"> F  </i>
   <i type="logical" name="LTRIPLET"> F  </i>
   <i type="logical" name="LFXCEPS"> F  </i>
   <i type="logical" name="LFXHEG"> F  </i>
   <i type="int" name="NATURALO">     2</i>
   <i type="logical" name="L2ORDER"> F  </i>
   <i type="logical" name="LMP2LT"> F  </i>
   <i type="logical" name="LUSEW"> F  </i>
   <i name="ENCUTGW">     -2.00000000</i>
   <i name="ENCUTGWSOFT">     -2.00000000</i>
   <i name="ENCUTLF">     -1.00000000</i>
   <i type="int" name="LMAXMP2">    -1</i>
   <i name="SCISSOR">      0.00000000</i>
   <i type="int" name="NOMEGA">     0</i>
   <i type="int" name="NOMEGAR">     0</i>
   <i type="int" name="NBANDSGW">    -1</i>
   <i type="int" name="NBANDSO">    -1</i>
   <i type="int" name="NBANDSV">    -1</i>
   <i type="int" name="NELM">     1</i>
   <i type="int" name="NELMHF">     1</i>
   <i type="int" name="DIM">     3</i>
   <i type="int" name="ANTIRES">     0</i>
   <i name="OMEGAMAX">    -30.00000000</i>
   <i name="OMEGAMIN">    -30.00000000</i>
   <i name="OMEGATL">   -200.00000000</i>
   <i type="int" name="OMEGAGRID">   140</i>
   <i name="CSHIFT">     -0.10000000</i>
   <i type="logical" name="SELFENERGY"> F  </i>
   <i type="logical" name="LSPECTRAL"> F  </i>
   <i type="logical" name="LSPECTRALGW"> F  </i>
   <i type="logical" name="LSINGLES"> F  </i>
   <i type="logical" name="LFERMIGW"> F  </i>
   <i type="logical" name="ODDONLYGW"> F  </i>
   <i type="logical" name="EVENONLYGW"> F  </i>
   <i type="int" name="NKREDLFX">     1</i>
   <i type="int" name="NKREDLFY">     1</i>
   <i type="int" name="NKREDLFZ">     1</i>
   <i type="int" name="MAXMEM">  2800</i>
   <i type="int" name="TELESCOPE">     0</i>
   <i type="int" name="TAUPAR">     1</i>
   <i type="int" name="OMEGAPAR">    -1</i>
   <i name="LAMBDA">      1.00000000</i>
  </separator>
  <separator name="External order field" >
   <i name="OFIELD_KAPPA">      0.00000000</i>
   <v name="OFIELD_K">      0.00000000      0.00000000      0.00000000</v>
   <i name="OFIELD_Q6_NEAR">      0.00000000</i>
   <i name="OFIELD_Q6_FAR">      0.00000000</i>
   <i name="OFIELD_A">      0.00000000</i>
  </separator>
  <separator name="solvation model" >
   <i type="logical" name="LSOL"> F  </i>
  </separator>
 </parameters>
 <atominfo>
  <atoms>      29 </atoms>
  <types>       5 </types>
  <array name="atoms" >
   <dimension dim="1">ion</dimension>
   <field type="string">element</field>
   <field type="int">atomtype</field>
   <set>
    <rc><c>Nb</c><c>   1</c></rc>
    <rc><c>Nb</c><c>   1</c></rc>
    <rc><c>Nb</c><c>   1</c></rc>
    <rc><c>Nb</c><c>   1</c></rc>
    <rc><c>Nb</c><c>   1</c></rc>
    <rc><c>Nb</c><c>   1</c></rc>
    <rc><c>Mo</c><c>   2</c></rc>
    <rc><c>Mo</c><c>   2</c></rc>
    <rc><c>Mo</c><c>   2</c></rc>
    <rc><c>Mo</c><c>   2</c></rc>
    <rc><c>Mo</c><c>   2</c></rc>
    <rc><c>Mo</c><c>   2</c></rc>
    <rc><c>Ta</c><c>   3</c></rc>
    <rc><c>Ta</c><c>   3</c></rc>
    <rc><c>Ta</c><c>   3</c></rc>
    <rc><c>Ta</c><c>   3</c></rc>
    <rc><c>Ta</c><c>   3</c></rc>
    <rc><c>Ti</c><c>   4</c></rc>
    <rc><c>Ti</c><c>   4</c></rc>
    <rc><c>Ti</c><c>   4</c></rc>
    <rc><c>Ti</c><c>   4</c></rc>
    <rc><c>Ti</c><c>   4</c></rc>
    <rc><c>Ti</c><c>   4</c></rc>
    <rc><c>V </c><c>   5</c></rc>
    <rc><c>V </c><c>   5</c></rc>
    <rc><c>V </c><c>   5</c></rc>
    <rc><c>V </c><c>   5</c></rc>
    <rc><c>V </c><c>   5</c></rc>
    <rc><c>V </c><c>   5</c></rc>
   </set>
  </array>
  <array name="atomtypes" >
   <dimension dim="1">type</dimension>
   <field type="int">atomspertype</field>
   <field type="string">element</field>
   <field>mass</field>
   <field>valence</field>
   <field type="string">pseudopotential</field>
   <set>
    <rc><c>   6</c><c>Nb</c><c>     92.91000000</c><c>     13.00000000</c><c>  PAW_PBE Nb_sv 25May2007               </c></rc>
    <rc><c>   6</c><c>Mo</c><c>     95.94000000</c><c>      6.00000000</c><c>  PAW_PBE Mo 08Apr2002                  </c></rc>
    <rc><c>   5</c><c>Ta</c><c>    180.94800000</c><c>      5.00000000</c><c>  PAW_PBE Ta 17Jan2003                  </c></rc>
    <rc><c>   6</c><c>Ti</c><c>     47.88000000</c><c>      4.00000000</c><c>  PAW_PBE Ti 08Apr2002                  </c></rc>
    <rc><c>   6</c><c>V </c><c>     50.94100000</c><c>      5.00000000</c><c>  PAW_PBE V 08Apr2002                   </c></rc>
   </set>
  </array>
 </atominfo>
 <structure name="initialpos" >
  <crystal>
   <varray name="basis" >
    <v>      -3.16000000      -3.16000000      -3.16000000 </v>
    <v>       1.58000000       1.58000000      -7.90000000 </v>
    <v>       7.90000000      -7.90000000      -1.58000000 </v>
   </varray>
   <i name="volume">    473.31744000 </i>
   <varray name="rec_basis" >
    <v>      -0.13713080      -0.12658228      -0.05274262 </v>
    <v>       0.04219409       0.06329114      -0.10548523 </v>
    <v>       0.06329114      -0.06329114       0.00000000 </v>
   </varray>
  </crystal>
  <varray name="positions" >
   <v>       0.96666667       0.93333333       0.40000000 </v>
   <v>       0.63333333       0.26666667       0.40000000 </v>
   <v>       0.50000000       0.00000000       0.00000000 </v>
   <v>       0.00000000       0.00000000       0.00000000 </v>
   <v>       0.10000000       0.20000000       0.80000000 </v>
   <v>       0.03333333       0.06666667       0.60000000 </v>
   <v>       0.90000000       0.80000000       0.20000000 </v>
   <v>       0.80000000       0.60000000       0.40000000 </v>
   <v>       0.73333333       0.46666667       0.20000000 </v>
   <v>       0.66666667       0.33333333       0.00000000 </v>
   <v>       0.36666667       0.73333333       0.60000000 </v>
   <v>       0.13333333       0.26666667       0.40000000 </v>
   <v>       0.93333333       0.86666667       0.80000000 </v>
   <v>       0.56666667       0.13333333       0.20000000 </v>
   <v>       0.40000000       0.80000000       0.20000000 </v>
   <v>       0.43333333       0.86666667       0.80000000 </v>
   <v>       0.30000000       0.60000000       0.40000000 </v>
   <v>       0.86666667       0.73333333       0.60000000 </v>
   <v>       0.46666667       0.93333333       0.40000000 </v>
   <v>       0.16666667       0.33333333       0.00000000 </v>
   <v>       0.26666667       0.53333333       0.80000000 </v>
   <v>       0.20000000       0.40000000       0.60000000 </v>
   <v>       0.06666667       0.13333333       0.20000000 </v>
   <v>       0.76666667       0.53333333       0.80000000 </v>
   <v>       0.70000000       0.40000000       0.60000000 </v>
   <v>       0.60000000       0.20000000       0.80000000 </v>
   <v>       0.53333333       0.06666667       0.60000000 </v>
   <v>       0.33333333       0.66666667       0.00000000 </v>
   <v>       0.23333333       0.46666667       0.20000000 </v>
  </varray>
 </structure>
 <calculation>
  <scstep>
   <time name="dav">   46.07   46.13</time>
   <time name="total">   46.22   46.30</time>
   <energy>
    <i name="alphaZ">   1153.76813855 </i>
    <i name="ewald"> -11023.73043242 </i>
    <i name="hartreedc">   -110.50561363 </i>
    <i name="XCdc">   -916.43703089 </i>
    <i name="pawpsdc"> 522457.87719416 </i>
    <i name="pawaedc">-521222.12104263 </i>
    <i name="eentropy">      0.00282210 </i>
    <i name="bandstr">  -7710.35174080 </i>
    <i name="atom">  12875.17371654 </i>
    <i name="e_fr_energy">  -4496.32398904 </i>
    <i name="e_wo_entrp">  -4496.32681113 </i>
    <i name="e_0_energy">  -4496.32492974 </i>
   </energy>
  </scstep>
  <scstep>
   <time name="dav">   51.93   52.00</time>
   <time name="total">   51.94   52.01</time>
   <energy>
    <i name="e_fr_energy">  -9839.15473693 </i>
    <i name="e_wo_entrp">  -9839.15271429 </i>
    <i name="e_0_energy">  -9839.15406272 </i>
   </energy>
  </scstep>
  <scstep>
   <time name="dav">   56.58   56.66</time>
   <time name="total">   56.58   56.67</time>
   <energy>
    <i name="e_fr_energy"> -10755.78413740 </i>
    <i name="e_wo_entrp"> -10755.78629605 </i>
    <i name="e_0_energy"> -10755.78485695 </i>
   </energy>
  </scstep>
  <scstep>
   <time name="dav">   56.48   56.55</time>
   <time name="total">   56.48   56.56</time>
   <energy>
    <i name="e_fr_energy"> -11030.02097954 </i>
    <i name="e_wo_entrp"> -11030.02098807 </i>
    <i name="e_0_energy"> -11030.02098239 </i>
   </energy>
  </scstep>
  <scstep>
   <time name="dav">   56.53   56.62</time>
   <time name="total">   57.15   57.24</time>
   <energy>
    <i name="e_fr_energy"> -11200.52094324 </i>
    <i name="e_wo_entrp"> -11200.52055490 </i>
    <i name="e_0_energy"> -11200.52081379 </i>
   </energy>
  </scstep>
  <scstep>
   <time name="dav">   44.77   44.83</time>
   <time name="total">   45.50   45.56</time>
   <energy>
    <i name="e_fr_energy">  -1272.88239805 </i>
    <i name="e_wo_entrp">  -1272.88376518 </i>
    <i name="e_0_energy">  -1272.88285376 </i>
   </energy>
  </scstep>
  <scstep>
   <time name="dav">   50.34   50.40</time>
   <time name="total">   51.02   51.10</time>
   <energy>
    <i name="e_fr_energy">   -952.05657621 </i>
    <i name="e_wo_entrp">   -952.05802903 </i>
    <i name="e_0_energy">   -952.05706048 </i>
   </energy>
  </scstep>
  <scstep>
   <time name="dav">   49.47   49.53</time>
   <time name="total">   50.12   50.19</time>
   <energy>
    <i name="e_fr_energy">   -694.01905449 </i>
    <i name="e_wo_entrp">   -694.02197770 </i>
    <i name="e_0_energy">   -694.02002889 </i>
   </energy>
  </scstep>
  <scstep>
   <time name="dav">   51.18   51.25</time>
   <time name="total">   51.84   51.91</time>
   <energy>
    <i name="e_fr_energy">   -587.87405758 </i>
    <i name="e_wo_entrp">   -587.88005623 </i>
    <i name="e_0_energy">   -587.87605713 </i>
   </energy>
  </scstep>
  <scstep>
   <time name="dav">   52.89   52.96</time>
   <time name="total">   53.54   53.61</time>
   <energy>
    <i name="e_fr_energy">   -588.32871734 </i>
    <i name="e_wo_entrp">   -588.33358832 </i>
    <i name="e_0_energy">   -588.33034100 </i>
   </energy>
  </scstep>
  <scstep>
   <time name="dav">   46.14   46.21</time>
   <time name="total">   46.80   46.88</time>
   <energy>
    <i name="e_fr_energy">   -537.38834807 </i>
    <i name="e_wo_entrp">   -537.38822305 </i>
    <i name="e_0_energy">   -537.38830640 </i>
   </energy>
  </scstep>
  <scstep>
   <time name="dav">   52.50   52.56</time>
   <time name="total">   53.14   53.21</time>
   <energy>
    <i name="e_fr_energy">   -758.42566465 </i>
    <i name="e_wo_entrp">   -758.42982275 </i>
    <i name="e_0_energy">   -758.42705068 </i>
   </energy>
  </scstep>
  <scstep>
   <time name="dav">   49.58   49.64</time>
   <time name="total">   50.24   50.31</time>
   <energy>
    <i name="e_fr_energy">   -621.31966204 </i>
    <i name="e_wo_entrp">   -621.32436930 </i>
    <i name="e_0_energy">   -621.32123113 </i>
   </energy>
  </scstep>
  <scstep>
   <time name="dav">   50.91   50.98</time>
   <time name="total">   51.56   51.63</time>
   <energy>
    <i name="e_fr_energy">   -437.04604151 </i>
    <i name="e_wo_entrp">   -437.04468803 </i>
    <i name="e_0_energy">   -437.04559035 </i>
   </energy>
  </scstep>
  <scstep>
   <time name="dav">   51.45   51.51</time>
   <time name="total">   52.11   52.19</time>
   <energy>
    <i name="e_fr_energy">   -331.30010993 </i>
    <i name="e_wo_entrp">   -331.30006707 </i>
    <i name="e_0_energy">   -331.30009565 </i>
   </energy>
  </scstep>
  <scstep>
   <time name="dav">   52.18   52.25</time>
   <time name="total">   52.83   52.90</time>
   <energy>
    <i name="e_fr_energy">   -340.97384509 </i>
    <i name="e_wo_entrp">   -340.97502589 </i>
    <i name="e_0_energy">   -340.97423869 </i>
   </energy>
  </scstep>
  <scstep>
   <time name="dav">   51.36   51.43</time>
   <time name="total">   52.02   52.10</time>
   <energy>
    <i name="e_fr_energy">   -321.40710927 </i>
    <i name="e_wo_entrp">   -321.39828681 </i>
    <i name="e_0_energy">   -321.40416845 </i>
   </energy>
  </scstep>
  <scstep>
   <time name="dav">   46.98   47.04</time>
   <time name="total">   47.63   47.69</time>
   <energy>
    <i name="e_fr_energy">   -332.02627395 </i>
    <i name="e_wo_entrp">   -332.00943763 </i>
    <i name="e_0_energy">   -332.02066184 </i>
   </energy>
  </scstep>
  <scstep>
   <time name="dav">   52.30   52.37</time>
   <time name="total">   52.96   53.04</time>
   <energy>
    <i name="e_fr_energy">   -322.79120815 </i>
    <i name="e_wo_entrp">   -322.80480107 </i>
    <i name="e_0_energy">   -322.79573912 </i>
   </energy>
  </scstep>
  <scstep>
   <time name="dav">   47.87   47.93</time>
   <time name="total">   48.52   48.58</time>
   <energy>
    <i name="e_fr_energy">   -310.71876694 </i>
    <i name="e_wo_entrp">   -310.71147413 </i>
    <i name="e_0_energy">   -310.71633600 </i>
   </energy>
  </scstep>
  <scstep>
   <time name="dav">   49.91   49.98</time>
   <time name="total">   50.58   50.66</time>
   <energy>
    <i name="e_fr_energy">   -307.91115356 </i>
    <i name="e_wo_entrp">   -307.89327855 </i>
    <i name="e_0_energy">   -307.90519522 </i>
   </energy>
  </scstep>
  <scstep>
   <time name="dav">   48.42   48.55</time>
   <time name="total">   49.04   49.21</time>
   <energy>
    <i name="e_fr_energy">   -307.52196605 </i>
    <i name="e_wo_entrp">   -307.49599070 </i>
    <i name="e_0_energy">   -307.51330760 </i>
   </energy>
  </scstep>
  <scstep>
   <time name="dav">   50.15   50.24</time>
   <time name="total">   50.83   50.92</time>
   <energy>
    <i name="e_fr_energy">   -306.59996979 </i>
    <i name="e_wo_entrp">   -306.56784526 </i>
    <i name="e_0_energy">   -306.58926161 </i>
   </energy>
  </scstep>
  <scstep>
   <time name="dav">   48.48   48.55</time>
   <time name="total">   49.14   49.21</time>
   <energy>
    <i name="e_fr_energy">   -305.24736414 </i>
    <i name="e_wo_entrp">   -305.23286282 </i>
    <i name="e_0_energy">   -305.24253037 </i>
   </energy>
  </scstep>
  <scstep>
   <time name="dav">   47.72   47.79</time>
   <time name="total">   48.38   48.46</time>
   <energy>
    <i name="e_fr_energy">   -304.29432848 </i>
    <i name="e_wo_entrp">   -304.28004490 </i>
    <i name="e_0_energy">   -304.28956728 </i>
   </energy>
  </scstep>
  <scstep>
   <time name="dav">   49.85   49.92</time>
   <time name="total">   50.51   50.58</time>
   <energy>
    <i name="e_fr_energy">   -303.44911090 </i>
    <i name="e_wo_entrp">   -303.43717788 </i>
    <i name="e_0_energy">   -303.44513323 </i>
   </energy>
  </scstep>
  <scstep>
   <time name="dav">   49.94   50.01</time>
   <time name="total">   50.60   50.67</time>
   <energy>
    <i name="e_fr_energy">   -303.30208254 </i>
    <i name="e_wo_entrp">   -303.29218249 </i>
    <i name="e_0_energy">   -303.29878252 </i>
   </energy>
  </scstep>
  <scstep>
   <time name="dav">   49.97   50.03</time>
   <time name="total">   50.61   50.68</time>
   <energy>
    <i name="e_fr_energy">   -303.18547111 </i>
    <i name="e_wo_entrp">   -303.17837545 </i>
    <i name="e_0_energy">   -303.18310589 </i>
   </energy>
  </scstep>
  <scstep>
   <time name="dav">   47.92   47.99</time>
   <time name="total">   48.59   48.67</time>
   <energy>
    <i name="e_fr_energy">   -303.15355432 </i>
    <i name="e_wo_entrp">   -303.14563444 </i>
    <i name="e_0_energy">   -303.15091436 </i>
   </energy>
  </scstep>
  <scstep>
   <time name="dav">   48.41   48.47</time>
   <time name="total">   49.06   49.12</time>
   <energy>
    <i name="e_fr_energy">   -303.01932175 </i>
    <i name="e_wo_entrp">   -303.01019704 </i>
    <i name="e_0_energy">   -303.01628018 </i>
   </energy>
  </scstep>
  <scstep>
   <time name="dav">   48.68   48.74</time>
   <time name="total">   49.33   49.41</time>
   <energy>
    <i name="e_fr_energy">   -302.93858847 </i>
    <i name="e_wo_entrp">   -302.93251164 </i>
    <i name="e_0_energy">   -302.93656286 </i>
   </energy>
  </scstep>
  <scstep>
   <time name="dav">   49.92   49.99</time>
   <time name="total">   50.57   50.64</time>
   <energy>
    <i name="e_fr_energy">   -302.91340114 </i>
    <i name="e_wo_entrp">   -302.90320029 </i>
    <i name="e_0_energy">   -302.91000086 </i>
   </energy>
  </scstep>
  <scstep>
   <time name="dav">   50.20   50.26</time>
   <time name="total">   50.86   50.94</time>
   <energy>
    <i name="e_fr_energy">   -302.87858494 </i>
    <i name="e_wo_entrp">   -302.86793702 </i>
    <i name="e_0_energy">   -302.87503563 </i>
   </energy>
  </scstep>
  <scstep>
   <time name="dav">   51.64   51.71</time>
   <time name="total">   52.29   52.36</time>
   <energy>
    <i name="e_fr_energy">   -302.85222242 </i>
    <i name="e_wo_entrp">   -302.84128955 </i>
    <i name="e_0_energy">   -302.84857813 </i>
   </energy>
  </scstep>
  <scstep>
   <time name="dav">   49.92   49.99</time>
   <time name="total">   50.58   50.65</time>
   <energy>
    <i name="e_fr_energy">   -302.84543534 </i>
    <i name="e_wo_entrp">   -302.83480961 </i>
    <i name="e_0_energy">   -302.84189343 </i>
   </energy>
  </scstep>
  <scstep>
   <time name="dav">   45.55   45.61</time>
   <time name="total">   46.20   46.27</time>
   <energy>
    <i name="e_fr_energy">   -302.83753151 </i>
    <i name="e_wo_entrp">   -302.82632702 </i>
    <i name="e_0_energy">   -302.83379668 </i>
   </energy>
  </scstep>
  <scstep>
   <time name="dav">   49.60   49.66</time>
   <time name="total">   50.26   50.34</time>
   <energy>
    <i name="e_fr_energy">   -302.83143287 </i>
    <i name="e_wo_entrp">   -302.81968911 </i>
    <i name="e_0_energy">   -302.82751828 </i>
   </energy>
  </scstep>
  <scstep>
   <time name="dav">   45.96   46.02</time>
   <time name="total">   46.62   46.68</time>
   <energy>
    <i name="e_fr_energy">   -302.82590533 </i>
    <i name="e_wo_entrp">   -302.81362526 </i>
    <i name="e_0_energy">   -302.82181197 </i>
   </energy>
  </scstep>
  <scstep>
   <time name="dav">   46.77   46.83</time>
   <time name="total">   47.44   47.51</time>
   <energy>
    <i name="e_fr_energy">   -302.82424853 </i>
    <i name="e_wo_entrp">   -302.81191420 </i>
    <i name="e_0_energy">   -302.82013709 </i>
   </energy>
  </scstep>
  <scstep>
   <time name="dav">   46.57   46.63</time>
   <time name="total">   47.22   47.28</time>
   <energy>
    <i name="e_fr_energy">   -302.82319040 </i>
    <i name="e_wo_entrp">   -302.81054614 </i>
    <i name="e_0_energy">   -302.81897565 </i>
   </energy>
  </scstep>
  <scstep>
   <time name="dav">   46.42   46.48</time>
   <time name="total">   47.08   47.15</time>
   <energy>
    <i name="e_fr_energy">   -302.82295570 </i>
    <i name="e_wo_entrp">   -302.81025555 </i>
    <i name="e_0_energy">   -302.81872232 </i>
   </energy>
  </scstep>
  <scstep>
   <time name="dav">   37.83   37.88</time>
   <time name="total">   38.49   38.54</time>
   <energy>
    <i name="e_fr_energy">   -302.82253171 </i>
    <i name="e_wo_entrp">   -302.80969320 </i>
    <i name="e_0_energy">   -302.81825220 </i>
   </energy>
  </scstep>
  <scstep>
   <time name="dav">   27.02   27.06</time>
   <time name="total">   27.69   27.73</time>
   <energy>
    <i name="e_fr_energy">   -302.82231845 </i>
    <i name="e_wo_entrp">   -302.80945422 </i>
    <i name="e_0_energy">   -302.81803038 </i>
   </energy>
  </scstep>
  <scstep>
   <time name="dav">   32.73   32.78</time>
   <time name="total">   32.80   32.84</time>
   <energy>
    <i name="alphaZ">   1153.76813855 </i>
    <i name="ewald"> -11023.73043242 </i>
    <i name="hartreedc">  -3151.33905121 </i>
    <i name="XCdc">   -823.49046451 </i>
    <i name="pawpsdc">  18495.40320031 </i>
    <i name="pawaedc"> -17057.44097239 </i>
    <i name="eentropy">     -0.01288984 </i>
    <i name="bandstr">   -771.15351556 </i>
    <i name="atom">  12875.17371654 </i>
    <i name="e_fr_energy">   -302.82227054 </i>
    <i name="e_wo_entrp">   -302.80938070 </i>
    <i name="e_0_energy">   -302.81797392 </i>
   </energy>
  </scstep>
  <structure>
   <crystal>
    <varray name="basis" >
     <v>      -3.16000000      -3.16000000      -3.16000000 </v>
     <v>       1.58000000       1.58000000      -7.90000000 </v>
     <v>       7.90000000      -7.90000000      -1.58000000 </v>
    </varray>
    <i name="volume">    473.31744000 </i>
    <varray name="rec_basis" >
     <v>      -0.13713080      -0.12658228      -0.05274262 </v>
     <v>       0.04219409       0.06329114      -0.10548523 </v>
     <v>       0.06329114      -0.06329114       0.00000000 </v>
    </varray>
   </crystal>
   <varray name="positions" >
    <v>       0.96666667       0.93333333       0.40000000 </v>
    <v>       0.63333333       0.26666667       0.40000000 </v>
    <v>       0.50000000       0.00000000       0.00000000 </v>
    <v>       0.00000000       0.00000000       0.00000000 </v>
    <v>       0.10000000       0.20000000       0.80000000 </v>
    <v>       0.03333333       0.06666667       0.60000000 </v>
    <v>       0.90000000       0.80000000       0.20000000 </v>
    <v>       0.80000000       0.60000000       0.40000000 </v>
    <v>       0.73333333       0.46666667       0.20000000 </v>
    <v>       0.66666667       0.33333333       0.00000000 </v>
    <v>       0.36666667       0.73333333       0.60000000 </v>
    <v>       0.13333333       0.26666667       0.40000000 </v>
    <v>       0.93333333       0.86666667       0.80000000 </v>
    <v>       0.56666667       0.13333333       0.20000000 </v>
    <v>       0.40000000       0.80000000       0.20000000 </v>
    <v>       0.43333333       0.86666667       0.80000000 </v>
    <v>       0.30000000       0.60000000       0.40000000 </v>
    <v>       0.86666667       0.73333333       0.60000000 </v>
    <v>       0.46666667       0.93333333       0.40000000 </v>
    <v>       0.16666667       0.33333333       0.00000000 </v>
    <v>       0.26666667       0.53333333       0.80000000 </v>
    <v>       0.20000000       0.40000000       0.60000000 </v>
    <v>       0.06666667       0.13333333       0.20000000 </v>
    <v>       0.76666667       0.53333333       0.80000000 </v>
    <v>       0.70000000       0.40000000       0.60000000 </v>
    <v>       0.60000000       0.20000000       0.80000000 </v>
    <v>       0.53333333       0.06666667       0.60000000 </v>
    <v>       0.33333333       0.66666667       0.00000000 </v>
    <v>       0.23333333       0.46666667       0.20000000 </v>
   </varray>
  </structure>
  <varray name="forces" >
   <v>       0.21743364       0.40058558       0.17285264 </v>
   <v>       0.39298467      -0.27291718       0.08568656 </v>
   <v>      -0.59363550      -0.08296986       0.42737318 </v>
   <v>       0.14316251      -0.18924913      -0.18682430 </v>
   <v>       0.16208604       0.51895912      -0.57921755 </v>
   <v>      -0.39699187       0.45920987      -0.31629367 </v>
   <v>      -0.21434250      -0.37554787       0.36347700 </v>
   <v>      -0.60454743      -0.27116415       0.56807231 </v>
   <v>      -0.32682144       0.60952676      -0.09578278 </v>
   <v>       0.42936390       0.62806880      -0.29568452 </v>
   <v>      -0.03673492      -0.55580780       0.28173336 </v>
   <v>       0.18030409       0.21223904      -0.62749842 </v>
   <v>       0.65777822      -0.23486411       0.33057510 </v>
   <v>      -0.29505326       0.58214039      -0.20854745 </v>
   <v>      -0.73871464      -0.09397316       0.96567234 </v>
   <v>      -0.73961547       0.11503103       0.75005192 </v>
   <v>       0.19298458      -0.11165881      -0.20843357 </v>
   <v>       0.23070237       0.13194081       0.47621727 </v>
   <v>       0.41108328      -0.62595210       0.15798041 </v>
   <v>       0.53765926       0.19597135      -1.03468452 </v>
   <v>      -0.92396305      -0.13996705      -0.39804955 </v>
   <v>      -0.08872228      -0.17148753       0.48165329 </v>
   <v>       0.40255214       0.00949594      -0.78247458 </v>
   <v>       0.18210801      -0.17931789       0.66847205 </v>
   <v>       0.58286680       0.05311307      -0.46947780 </v>
   <v>       0.01879064       0.26069301      -0.25148908 </v>
   <v>       0.16696396      -0.44773405      -0.51930998 </v>
   <v>      -0.16178578      -0.39539683       0.46087050 </v>
   <v>       0.21210406      -0.02896725      -0.21692015 </v>
  </varray>
  <varray name="stress" >
   <v>     -22.63008991      -5.43657494       2.81262371 </v>
   <v>      -5.43657489     -20.80454643       3.72188202 </v>
   <v>       2.81262359       3.72188203     -24.72314956 </v>
  </varray>
  <energy>
   <i name="e_fr_energy">   -302.82227054 </i>
   <i name="e_wo_entrp">   -302.81797392 </i>
   <i name="e_0_energy">     -0.01288984 </i>
  </energy>
  <time name="totalsc"> 2183.39 2186.67</time>
 </calculation>
 <calculation>
  <scstep>
   <time name="dav">   33.54   33.59</time>
   <time name="total">   34.20   34.25</time>
   <energy>
    <i name="alphaZ">   1193.31014475 </i>
    <i name="ewald"> -11205.42055298 </i>
    <i name="hartreedc">  -3133.77237355 </i>
    <i name="XCdc">   -819.18679570 </i>
    <i name="pawpsdc">  18495.45634786 </i>
    <i name="pawaedc"> -17057.49635144 </i>
    <i name="eentropy">     -0.01062269 </i>
    <i name="bandstr">   -652.00913309 </i>
    <i name="atom">  12875.17371654 </i>
    <i name="e_fr_energy">   -303.95562031 </i>
    <i name="e_wo_entrp">   -303.94499762 </i>
    <i name="e_0_energy">   -303.95207941 </i>
   </energy>
  </scstep>
  <scstep>
   <time name="dav">   52.96   53.05</time>
   <time name="total">   53.61   53.71</time>
   <energy>
    <i name="e_fr_energy">   -306.24549691 </i>
    <i name="e_wo_entrp">   -306.24658551 </i>
    <i name="e_0_energy">   -306.24585978 </i>
   </energy>
  </scstep>
  <scstep>
   <time name="dav">   51.26   51.33</time>
   <time name="total">   51.93   52.03</time>
   <energy>
    <i name="e_fr_energy">   -304.27382918 </i>
    <i name="e_wo_entrp">   -304.26449640 </i>
    <i name="e_0_energy">   -304.27071826 </i>
   </energy>
  </scstep>
  <scstep>
   <time name="dav">   47.92   47.99</time>
   <time name="total">   48.57   48.64</time>
   <energy>
    <i name="e_fr_energy">   -304.22267849 </i>
    <i name="e_wo_entrp">   -304.21172373 </i>
    <i name="e_0_energy">   -304.21902690 </i>
   </energy>
  </scstep>
  <scstep>
   <time name="dav">   50.27   50.34</time>
   <time name="total">   50.94   51.02</time>
   <energy>
    <i name="e_fr_energy">   -303.62645643 </i>
    <i name="e_wo_entrp">   -303.61571775 </i>
    <i name="e_0_energy">   -303.62287687 </i>
   </energy>
  </scstep>
  <scstep>
   <time name="dav">   51.38   51.45</time>
   <time name="total">   52.04   52.11</time>
   <energy>
    <i name="e_fr_energy">   -303.51557273 </i>
    <i name="e_wo_entrp">   -303.50756169 </i>
    <i name="e_0_energy">   -303.51290238 </i>
   </energy>
  </scstep>
  <scstep>
   <time name="dav">   51.73   51.80</time>
   <time name="total">   52.40   52.48</time>
   <energy>
    <i name="e_fr_energy">   -303.44344609 </i>
    <i name="e_wo_entrp">   -303.43347632 </i>
    <i name="e_0_energy">   -303.44012283 </i>
   </energy>
  </scstep>
  <scstep>
   <time name="dav">   53.62   53.69</time>
   <time name="total">   54.28   54.35</time>
   <energy>
    <i name="e_fr_energy">   -303.41636740 </i>
    <i name="e_wo_entrp">   -303.40241456 </i>
    <i name="e_0_energy">   -303.41171646 </i>
   </energy>
  </scstep>
  <scstep>
   <time name="dav">   52.68   52.89</time>
   <time name="total">   53.36   53.58</time>
   <energy>
    <i name="e_fr_energy">   -303.39344557 </i>
    <i name="e_wo_entrp">   -303.38199434 </i>
    <i name="e_0_energy">   -303.38962849 </i>
   </energy>
  </scstep>
  <scstep>
   <time name="dav">   49.24   49.33</time>
   <time name="total">   49.90   49.99</time>
   <energy>
    <i name="e_fr_energy">   -303.38894920 </i>
    <i name="e_wo_entrp">   -303.37742683 </i>
    <i name="e_0_energy">   -303.38510841 </i>
   </energy>
  </scstep>
  <scstep>
   <time name="dav">   49.04   49.13</time>
   <time name="total">   49.70   49.80</time>
   <energy>
    <i name="e_fr_energy">   -303.38794341 </i>
    <i name="e_wo_entrp">   -303.37611048 </i>
    <i name="e_0_energy">   -303.38399910 </i>
   </energy>
  </scstep>
  <scstep>
   <time name="dav">   52.44   52.54</time>
   <time name="total">   53.10   53.19</time>
   <energy>
    <i name="e_fr_energy">   -303.39165226 </i>
    <i name="e_wo_entrp">   -303.37962639 </i>
    <i name="e_0_energy">   -303.38764364 </i>
   </energy>
  </scstep>
  <scstep>
   <time name="dav">   48.31   48.39</time>
   <time name="total">   48.96   49.05</time>
   <energy>
    <i name="e_fr_energy">   -303.39330622 </i>
    <i name="e_wo_entrp">   -303.38187162 </i>
    <i name="e_0_energy">   -303.38949469 </i>
   </energy>
  </scstep>
  <scstep>
   <time name="dav">   50.53   50.62</time>
   <time name="total">   51.17   51.26</time>
   <energy>
    <i name="e_fr_energy">   -303.39154321 </i>
    <i name="e_wo_entrp">   -303.37964127 </i>
    <i name="e_0_energy">   -303.38757589 </i>
   </energy>
  </scstep>
  <scstep>
   <time name="dav">   48.64   48.72</time>
   <time name="total">   49.30   49.41</time>
   <energy>
    <i name="e_fr_energy">   -303.39134783 </i>
    <i name="e_wo_entrp">   -303.37956172 </i>
    <i name="e_0_energy">   -303.38741912 </i>
   </energy>
  </scstep>
  <scstep>
   <time name="dav">   44.49   44.56</time>
   <time name="total">   45.14   45.22</time>
   <energy>
    <i name="e_fr_energy">   -303.39128239 </i>
    <i name="e_wo_entrp">   -303.37933518 </i>
    <i name="e_0_energy">   -303.38729999 </i>
   </energy>
  </scstep>
  <scstep>
   <time name="dav">   42.49   42.57</time>
   <time name="total">   43.15   43.24</time>
   <energy>
    <i name="e_fr_energy">   -303.39115329 </i>
    <i name="e_wo_entrp">   -303.37930203 </i>
    <i name="e_0_energy">   -303.38720287 </i>
   </energy>
  </scstep>
  <scstep>
   <time name="dav">   28.65   28.70</time>
   <time name="total">   28.72   28.77</time>
   <energy>
    <i name="alphaZ">   1193.31014475 </i>
    <i name="ewald"> -11205.42055298 </i>
    <i name="hartreedc">  -3067.61846867 </i>
    <i name="XCdc">   -821.23773866 </i>
    <i name="pawpsdc">  19235.59167609 </i>
    <i name="pawaedc"> -17798.63676015 </i>
    <i name="eentropy">     -0.01188409 </i>
    <i name="bandstr">   -714.54124066 </i>
    <i name="atom">  12875.17371654 </i>
    <i name="e_fr_energy">   -303.39110784 </i>
    <i name="e_wo_entrp">   -303.37922374 </i>
    <i name="e_0_energy">   -303.38714647 </i>
   </energy>
  </scstep>
  <structure>
   <crystal>
    <varray name="basis" >
     <v>      -3.12078131      -3.12502837      -3.13175364 </v>
     <v>       1.54728692       1.54517430      -7.79894048 </v>
     <v>       7.83106364      -7.84322510      -1.56433300 </v>
    </varray>
    <i name="volume">    457.63340242 </i>
    <varray name="rec_basis" >
     <v>      -0.13894531      -0.12816706      -0.05295959 </v>
     <v>       0.04299176       0.06425865      -0.10696179 </v>
     <v>       0.06383060      -0.06377268       0.00002877 </v>
    </varray>
   </crystal>
   <varray name="positions" >
    <v>       0.96234217       0.93411942       0.39944078 </v>
    <v>       0.63218211       0.26619726       0.40203322 </v>
    <v>       0.50334647      -0.00363657      -0.00155923 </v>
    <v>       0.00068395       0.00066430       0.00101496 </v>
    <v>       0.09723239       0.20486206       0.79891035 </v>
    <v>       0.03396020       0.06887027       0.59738573 </v>
    <v>       0.90278649       0.79656733       0.20049221 </v>
    <v>       0.80420990       0.59505060       0.39898207 </v>
    <v>       0.73201697       0.46834992       0.19714102 </v>
    <v>       0.66074314       0.33762973      -0.00060671 </v>
    <v>       0.36958697       0.73012778       0.60158490 </v>
    <v>       0.13244108       0.27087499       0.39990249 </v>
    <v>       0.92957487       0.86560624       0.80272553 </v>
    <v>       0.56559431       0.13557148       0.19732164 </v>
    <v>       0.40300377       0.79329518       0.19803139 </v>
    <v>       0.43561538       0.86169544       0.79739048 </v>
    <v>       0.29993551       0.60111259       0.40093018 </v>
    <v>       0.86312302       0.73178238       0.60030155 </v>
    <v>       0.46736763       0.93145493       0.40316641 </v>
    <v>       0.16454572       0.34029152       0.00104329 </v>
    <v>       0.27464674       0.53305082       0.79760620 </v>
    <v>       0.20040862       0.39684471       0.60025271 </v>
    <v>       0.06593654       0.13816367       0.20120013 </v>
    <v>       0.76485607       0.52975472       0.80110355 </v>
    <v>       0.69701423       0.40373775       0.60161751 </v>
    <v>       0.59892362       0.20211403       0.79926139 </v>
    <v>       0.53628429       0.06828216       0.60187688 </v>
    <v>       0.33564553       0.66278475       0.00071329 </v>
    <v>       0.23265898       0.46811386       0.20073607 </v>
   </varray>
  </structure>
  <varray name="forces" >
   <v>       0.15419270       0.23320756       0.03777429 </v>
   <v>       0.17084851      -0.11477519       0.09827270 </v>
   <v>      -0.61405332      -0.09430038       0.43550705 </v>
   <v>       0.04081991      -0.10212248      -0.24569765 </v>
   <v>       0.14768549       0.23828343      -0.33466177 </v>
   <v>      -0.09366677       0.11592109      -0.17306151 </v>
   <v>      -0.29964479      -0.12892529       0.34246981 </v>
   <v>      -0.21655300      -0.20303965       0.20630937 </v>
   <v>      -0.39596988       0.39295935      -0.06427967 </v>
   <v>       0.17684846       0.54732875      -0.30191509 </v>
   <v>      -0.10818981      -0.32712465       0.24100569 </v>
   <v>       0.07662026       0.16473309      -0.26249948 </v>
   <v>       0.45682777      -0.18000320       0.31154209 </v>
   <v>      -0.05950209       0.28335244      -0.04416851 </v>
   <v>      -0.40552729      -0.05798029       0.34375164 </v>
   <v>      -0.21837735       0.11343628       0.43368134 </v>
   <v>       0.12107228      -0.19277597      -0.07528704 </v>
   <v>       0.17979037       0.03728570       0.30034682 </v>
   <v>       0.18119498      -0.32240347       0.14541613 </v>
   <v>       0.51611057       0.36735606      -0.97118175 </v>
   <v>      -0.68267017      -0.12949548      -0.16810617 </v>
   <v>      -0.05757961      -0.09170646       0.31833192 </v>
   <v>       0.23373078       0.06596401      -0.51523634 </v>
   <v>       0.12469227      -0.25972467       0.43635434 </v>
   <v>       0.52360025      -0.02484910      -0.28164773 </v>
   <v>      -0.03709083       0.23528726      -0.21870780 </v>
   <v>       0.14817102      -0.40334255      -0.38267240 </v>
   <v>      -0.17361230      -0.23114559       0.51546153 </v>
   <v>       0.11023154       0.06859941      -0.12710182 </v>
  </varray>
  <varray name="stress" >
   <v>      38.96410906      -3.74690119       2.53011656 </v>
   <v>      -3.74690127      38.90861497       4.36548937 </v>
   <v>       2.53011659       4.36548946      36.66533526 </v>
  </varray>
  <energy>
   <i name="e_fr_energy">   -303.39110784 </i>
   <i name="e_wo_entrp">   -303.38714647 </i>
   <i name="e_0_energy">     -0.01188409 </i>
  </energy>
  <time name="totalsc">  889.77  891.45</time>
 </calculation>
 <calculation>
  <scstep>
   <time name="dav">   34.39   34.45</time>
   <time name="total">   35.04   35.10</time>
   <energy>
    <i name="alphaZ">   1199.24297769 </i>
    <i name="ewald"> -11231.68122430 </i>
    <i name="hartreedc">  -3065.56683061 </i>
    <i name="XCdc">   -820.60288921 </i>
    <i name="pawpsdc">  19234.34489286 </i>
    <i name="pawaedc"> -17797.27728911 </i>
    <i name="eentropy">     -0.01150214 </i>
    <i name="bandstr">   -697.03143334 </i>
    <i name="atom">  12875.17371654 </i>
    <i name="e_fr_energy">   -303.40958164 </i>
    <i name="e_wo_entrp">   -303.39807950 </i>
    <i name="e_0_energy">   -303.40574759 </i>
   </energy>
  </scstep>
  <scstep>
   <time name="dav">   52.10   52.19</time>
   <time name="total">   52.75   52.84</time>
   <energy>
    <i name="e_fr_energy">   -303.46141872 </i>
    <i name="e_wo_entrp">   -303.45157711 </i>
    <i name="e_0_energy">   -303.45813819 </i>
   </energy>
  </scstep>
  <scstep>
   <time name="dav">   51.63   51.73</time>
   <time name="total">   52.28   52.39</time>
   <energy>
    <i name="e_fr_energy">   -303.41949790 </i>
    <i name="e_wo_entrp">   -303.40798405 </i>
    <i name="e_0_energy">   -303.41565995 </i>
   </energy>
  </scstep>
  <scstep>
   <time name="dav">   50.03   50.12</time>
   <time name="total">   50.68   50.78</time>
   <energy>
    <i name="e_fr_energy">   -303.41930374 </i>
    <i name="e_wo_entrp">   -303.40739987 </i>
    <i name="e_0_energy">   -303.41533579 </i>
   </energy>
  </scstep>
  <scstep>
   <time name="dav">   50.16   50.24</time>
   <time name="total">   50.84   50.93</time>
   <energy>
    <i name="e_fr_energy">   -303.40477845 </i>
    <i name="e_wo_entrp">   -303.39307414 </i>
    <i name="e_0_energy">   -303.40087702 </i>
   </energy>
  </scstep>
  <scstep>
   <time name="dav">   50.70   50.79</time>
   <time name="total">   51.36   51.45</time>
   <energy>
    <i name="e_fr_energy">   -303.40166131 </i>
    <i name="e_wo_entrp">   -303.39060109 </i>
    <i name="e_0_energy">   -303.39797457 </i>
   </energy>
  </scstep>
  <scstep>
   <time name="dav">   50.80   50.89</time>
   <time name="total">   51.47   51.57</time>
   <energy>
    <i name="e_fr_energy">   -303.40051266 </i>
    <i name="e_wo_entrp">   -303.38917614 </i>
    <i name="e_0_energy">   -303.39673382 </i>
   </energy>
  </scstep>
  <scstep>
   <time name="dav">   49.58   49.66</time>
   <time name="total">   50.24   50.32</time>
   <energy>
    <i name="e_fr_energy">   -303.39992711 </i>
    <i name="e_wo_entrp">   -303.38815863 </i>
    <i name="e_0_energy">   -303.39600428 </i>
   </energy>
  </scstep>
  <scstep>
   <time name="dav">   45.23   45.40</time>
   <time name="total">   45.90   46.08</time>
   <energy>
    <i name="e_fr_energy">   -303.39943212 </i>
    <i name="e_wo_entrp">   -303.38795456 </i>
    <i name="e_0_energy">   -303.39560627 </i>
   </energy>
  </scstep>
  <scstep>
   <time name="dav">   43.88   43.99</time>
   <time name="total">   44.54   44.65</time>
   <energy>
    <i name="e_fr_energy">   -303.39929747 </i>
    <i name="e_wo_entrp">   -303.38782685 </i>
    <i name="e_0_energy">   -303.39547393 </i>
   </energy>
  </scstep>
  <scstep>
   <time name="dav">   41.07   41.18</time>
   <time name="total">   41.74   41.87</time>
   <energy>
    <i name="e_fr_energy">   -303.39930854 </i>
    <i name="e_wo_entrp">   -303.38777697 </i>
    <i name="e_0_energy">   -303.39546468 </i>
   </energy>
  </scstep>
  <scstep>
   <time name="dav">   40.22   40.32</time>
   <time name="total">   40.87   40.98</time>
   <energy>
    <i name="e_fr_energy">   -303.39940314 </i>
    <i name="e_wo_entrp">   -303.38783468 </i>
    <i name="e_0_energy">   -303.39554698 </i>
   </energy>
  </scstep>
  <scstep>
   <time name="dav">   41.43   41.55</time>
   <time name="total">   42.09   42.22</time>
   <energy>
    <i name="e_fr_energy">   -303.39945735 </i>
    <i name="e_wo_entrp">   -303.38801782 </i>
    <i name="e_0_energy">   -303.39564418 </i>
   </energy>
  </scstep>
  <scstep>
   <time name="dav">   37.69   37.79</time>
   <time name="total">   37.76   37.86</time>
   <energy>
    <i name="alphaZ">   1199.24297769 </i>
    <i name="ewald"> -11231.68122430 </i>
    <i name="hartreedc">  -3056.16156398 </i>
    <i name="XCdc">   -820.89557549 </i>
    <i name="pawpsdc">  19348.79880654 </i>
    <i name="pawaedc"> -17911.84930931 </i>
    <i name="eentropy">     -0.01154475 </i>
    <i name="bandstr">   -706.01566349 </i>
    <i name="atom">  12875.17371654 </i>
    <i name="e_fr_energy">   -303.39938054 </i>
    <i name="e_wo_entrp">   -303.38783580 </i>
    <i name="e_0_energy">   -303.39553230 </i>
   </energy>
  </scstep>
  <structure>
   <crystal>
    <varray name="basis" >
     <v>      -3.11504914      -3.11991694      -3.12762517 </v>
     <v>       1.54250561       1.54008421      -7.78416971 </v>
     <v>       7.82098797      -7.83492693      -1.56204313 </v>
    </varray>
    <i name="volume">    455.36942209 </i>
    <varray name="rec_basis" >
     <v>      -0.13921462      -0.12840220      -0.05299082 </v>
     <v>       0.04311065       0.06440257      -0.10718114 </v>
     <v>       0.06391024      -0.06384366       0.00003305 </v>
    </varray>
   </crystal>
   <varray name="positions" >
    <v>       0.96170258       0.93423647       0.39935854 </v>
    <v>       0.63201174       0.26612810       0.40233283 </v>
    <v>       0.50384346      -0.00417644      -0.00178902 </v>
    <v>       0.00078448       0.00076286       0.00116446 </v>
    <v>       0.09682089       0.20558318       0.79874982 </v>
    <v>       0.03405226       0.06919654       0.59700050 </v>
    <v>       0.90320015       0.79605806       0.20056469 </v>
    <v>       0.80483511       0.59431604       0.39883203 </v>
    <v>       0.73182209       0.46859926       0.19671982 </v>
    <v>       0.65986530       0.33826747      -0.00069595 </v>
    <v>       0.37002005       0.72965233       0.60181835 </v>
    <v>       0.13230695       0.27149907       0.39988808 </v>
    <v>       0.92901924       0.86544990       0.80312726 </v>
    <v>       0.56543517       0.13590308       0.19692703 </v>
    <v>       0.40345182       0.79230036       0.19774136 </v>
    <v>       0.43595595       0.86095767       0.79700602 </v>
    <v>       0.29992518       0.60127770       0.40106720 </v>
    <v>       0.86259993       0.73155293       0.60034615 </v>
    <v>       0.46747158       0.93117678       0.40363294 </v>
    <v>       0.16422824       0.34132366       0.00119694 </v>
    <v>       0.27582710       0.53300752       0.79725320 </v>
    <v>       0.20047066       0.39637686       0.60028999 </v>
    <v>       0.06582576       0.13888014       0.20137688 </v>
    <v>       0.76459008       0.52922452       0.80126628 </v>
    <v>       0.69657050       0.40429258       0.60185587 </v>
    <v>       0.59876353       0.20242752       0.79915257 </v>
    <v>       0.53671926       0.06852157       0.60215325 </v>
    <v>       0.33598926       0.66220897       0.00081837 </v>
    <v>       0.23255836       0.46832863       0.20084452 </v>
   </varray>
  </structure>
  <varray name="forces" >
   <v>       0.13629976       0.20839441       0.02518269 </v>
   <v>       0.13969621      -0.08715735       0.09731622 </v>
   <v>      -0.61629957      -0.09718581       0.44003624 </v>
   <v>       0.02595662      -0.09205418      -0.25301963 </v>
   <v>       0.14194149       0.18985805      -0.29334244 </v>
   <v>      -0.04474568       0.05965149      -0.15446892 </v>
   <v>      -0.30835390      -0.08648845       0.33541861 </v>
   <v>      -0.15093931      -0.18673575       0.14490319 </v>
   <v>      -0.40235692       0.35179137      -0.05683082 </v>
   <v>       0.13496999       0.52752677      -0.29565008 </v>
   <v>      -0.11872052      -0.28549801       0.23896443 </v>
   <v>       0.05504123       0.15105170      -0.19776469 </v>
   <v>       0.41729407      -0.17843050       0.31948023 </v>
   <v>      -0.03238289       0.23874051      -0.02325172 </v>
   <v>      -0.33932358      -0.03266363       0.23611231 </v>
   <v>      -0.13040688       0.10429866       0.36325017 </v>
   <v>       0.10799748      -0.20474947      -0.05442204 </v>
   <v>       0.16395407       0.01564700       0.27215505 </v>
   <v>       0.14788466      -0.27208269       0.14421695 </v>
   <v>       0.50798837       0.40395702      -0.96531737 </v>
   <v>      -0.63152455      -0.12819996      -0.12599832 </v>
   <v>      -0.04951649      -0.08295032       0.28917943 </v>
   <v>       0.19869172       0.07706586      -0.47232910 </v>
   <v>       0.11462102      -0.27113717       0.39072507 </v>
   <v>       0.50946418      -0.03636307      -0.24636941 </v>
   <v>      -0.04601734       0.23095809      -0.21168061 </v>
   <v>       0.14905022      -0.39848961      -0.35597034 </v>
   <v>      -0.17452425      -0.19659152       0.51832217 </v>
   <v>       0.09426079       0.07783656      -0.10884729 </v>
  </varray>
  <varray name="stress" >
   <v>      48.23294908      -3.44464978       2.44891602 </v>
   <v>      -3.44464976      47.93989891       4.51830740 </v>
   <v>       2.44891597       4.51830732      45.94990391 </v>
  </varray>
  <energy>
   <i name="e_fr_energy">   -303.39938054 </i>
   <i name="e_wo_entrp">   -303.39553230 </i>
   <i name="e_0_energy">     -0.01154475 </i>
  </energy>
  <time name="totalsc">  667.08  668.62</time>
 </calculation>
 <calculation>
  <scstep>
   <time name="dav">   33.47   33.57</time>
   <time name="total">   34.15   34.25</time>
   <energy>
    <i name="alphaZ">   1187.92468041 </i>
    <i name="ewald"> -11232.36281373 </i>
    <i name="hartreedc">  -3012.26181027 </i>
    <i name="XCdc">   -822.28083174 </i>
    <i name="pawpsdc">  19349.22477993 </i>
    <i name="pawaedc"> -17912.27785185 </i>
    <i name="eentropy">     -0.00955678 </i>
    <i name="bandstr">   -736.80913559 </i>
    <i name="atom">  12875.17371654 </i>
    <i name="e_fr_energy">   -303.67882309 </i>
    <i name="e_wo_entrp">   -303.66926631 </i>
    <i name="e_0_energy">   -303.67563750 </i>
   </energy>
  </scstep>
  <scstep>
   <time name="dav">   50.93   51.07</time>
   <time name="total">   51.60   51.74</time>
   <energy>
    <i name="e_fr_energy">   -304.54269249 </i>
    <i name="e_wo_entrp">   -304.53210361 </i>
    <i name="e_0_energy">   -304.53916286 </i>
   </energy>
  </scstep>
  <scstep>
   <time name="dav">   51.27   51.39</time>
   <time name="total">   51.96   52.10</time>
   <energy>
    <i name="e_fr_energy">   -303.82743641 </i>
    <i name="e_wo_entrp">   -303.81704158 </i>
    <i name="e_0_energy">   -303.82397146 </i>
   </energy>
  </scstep>
  <scstep>
   <time name="dav">   49.67   49.79</time>
   <time name="total">   50.33   50.45</time>
   <energy>
    <i name="e_fr_energy">   -303.86764054 </i>
    <i name="e_wo_entrp">   -303.86099541 </i>
    <i name="e_0_energy">   -303.86542550 </i>
   </energy>
  </scstep>
  <scstep>
   <time name="dav">   48.19   48.31</time>
   <time name="total">   48.87   48.99</time>
   <energy>
    <i name="e_fr_energy">   -303.77603539 </i>
    <i name="e_wo_entrp">   -303.76690073 </i>
    <i name="e_0_energy">   -303.77299050 </i>
   </energy>
  </scstep>
  <scstep>
   <time name="dav">   51.26   51.38</time>
   <time name="total">   51.92   52.04</time>
   <energy>
    <i name="e_fr_energy">   -303.77177731 </i>
    <i name="e_wo_entrp">   -303.76256569 </i>
    <i name="e_0_energy">   -303.76870677 </i>
   </energy>
  </scstep>
  <scstep>
   <time name="dav">   50.66   50.78</time>
   <time name="total">   51.33   51.46</time>
   <energy>
    <i name="e_fr_energy">   -303.76251736 </i>
    <i name="e_wo_entrp">   -303.75283564 </i>
    <i name="e_0_energy">   -303.75929012 </i>
   </energy>
  </scstep>
  <scstep>
   <time name="dav">   51.98   52.05</time>
   <time name="total">   52.64   52.71</time>
   <energy>
    <i name="e_fr_energy">   -303.75638521 </i>
    <i name="e_wo_entrp">   -303.74731631 </i>
    <i name="e_0_energy">   -303.75336224 </i>
   </energy>
  </scstep>
  <scstep>
   <time name="dav">   48.21   48.27</time>
   <time name="total">   48.88   48.97</time>
   <energy>
    <i name="e_fr_energy">   -303.75427916 </i>
    <i name="e_wo_entrp">   -303.74496050 </i>
    <i name="e_0_energy">   -303.75117294 </i>
   </energy>
  </scstep>
  <scstep>
   <time name="dav">   45.55   45.60</time>
   <time name="total">   46.21   46.27</time>
   <energy>
    <i name="e_fr_energy">   -303.75331236 </i>
    <i name="e_wo_entrp">   -303.74394221 </i>
[...]
       <r>    4.7410    1.0000 </r>
       <r>    4.8178    1.0000 </r>
       <r>    4.8666    1.0000 </r>
       <r>    4.9022    1.0000 </r>
       <r>    4.9606    1.0000 </r>
       <r>    5.0201    1.0000 </r>
       <r>    5.1144    1.0000 </r>
       <r>    5.1301    1.0000 </r>
       <r>    5.1969    1.0000 </r>
       <r>    5.2198    1.0000 </r>
       <r>    5.2988    1.0000 </r>
       <r>    5.3507    1.0000 </r>
       <r>    5.4027    1.0000 </r>
       <r>    5.4399    1.0000 </r>
       <r>    5.4779    1.0000 </r>
       <r>    5.5662    1.0000 </r>
       <r>    5.6052    1.0000 </r>
       <r>    5.6692    1.0000 </r>
       <r>    5.7275    1.0000 </r>
       <r>    5.8063    1.0000 </r>
       <r>    5.8283    1.0000 </r>
       <r>    5.8878    1.0000 </r>
       <r>    5.9188    1.0000 </r>
       <r>    6.0146    1.0001 </r>
       <r>    6.0379    1.0002 </r>
       <r>    6.1054    1.0008 </r>
       <r>    6.1462    1.0020 </r>
       <r>    6.2193    1.0078 </r>
       <r>    6.2808    1.0186 </r>
       <r>    6.3122    1.0258 </r>
       <r>    6.3525    1.0337 </r>
       <r>    6.4085    1.0303 </r>
       <r>    6.4594    0.9914 </r>
       <r>    6.4921    0.9380 </r>
       <r>    6.5195    0.8728 </r>
       <r>    6.5991    0.5897 </r>
       <r>    6.6186    0.5080 </r>
       <r>    6.7117    0.1548 </r>
       <r>    6.7775    0.0139 </r>
       <r>    6.8481   -0.0342 </r>
       <r>    6.9235   -0.0270 </r>
       <r>    7.0086   -0.0096 </r>
       <r>    7.0555   -0.0044 </r>
       <r>    7.1227   -0.0011 </r>
       <r>    7.2799   -0.0000 </r>
       <r>    7.2978   -0.0000 </r>
       <r>    7.4334   -0.0000 </r>
       <r>    7.5080   -0.0000 </r>
       <r>    7.6394   -0.0000 </r>
       <r>    7.8160   -0.0000 </r>
       <r>    7.8882   -0.0000 </r>
       <r>    7.9925   -0.0000 </r>
       <r>    8.0794   -0.0000 </r>
       <r>    8.1645   -0.0000 </r>
       <r>    8.2295   -0.0000 </r>
       <r>    8.4054   -0.0000 </r>
       <r>    8.4604   -0.0000 </r>
       <r>    8.6080   -0.0000 </r>
       <r>    8.6647   -0.0000 </r>
       <r>    8.7073   -0.0000 </r>
       <r>    8.7530   -0.0000 </r>
      </set>
     </set>
    </set>
   </array>
  </eigenvalues>
  <separator name="orbital magnetization" >
   <v name="MAGDIPOLOUT">      0.00000000      0.00000000      0.00000000</v>
  </separator>
  <dos>
   <i name="efermi">      6.62048816 </i>
   <total>
    <array>
     <dimension dim="1">gridpoints</dimension>
     <dimension dim="2">spin</dimension>
     <field>energy</field>
     <field>total</field>
     <field>integrated</field>
     <set>
      <set comment="spin 1">
       <r>   -50.3266     0.0000     0.0000 </r>
       <r>   -50.1201     0.0000     0.0000 </r>
       <r>   -49.9135     0.0000     0.0000 </r>
       <r>   -49.7070     0.0000     0.0000 </r>
       <r>   -49.5005     0.0000     0.0000 </r>
       <r>   -49.2939    -0.0000    -0.0000 </r>
       <r>   -49.0874    -0.0000    -0.0000 </r>
       <r>   -48.8809    -0.0000    -0.0000 </r>
       <r>   -48.6743    -0.0000    -0.0000 </r>
       <r>   -48.4678    -0.0000    -0.0000 </r>
       <r>   -48.2612    -0.0000    -0.0000 </r>
       <r>   -48.0547    -0.0031    -0.0006 </r>
       <r>   -47.8482    -0.2295    -0.0480 </r>
       <r>   -47.6416    -0.5101    -0.1534 </r>
       <r>   -47.4351    15.5986     3.0683 </r>
       <r>   -47.2286    31.8578     9.6481 </r>
       <r>   -47.0220    12.1235    12.1520 </r>
       <r>   -46.8155    -0.5581    12.0368 </r>
       <r>   -46.6090    -0.1760    12.0004 </r>
       <r>   -46.4024    -0.0021    12.0000 </r>
       <r>   -46.1959    -0.0000    12.0000 </r>
       <r>   -45.9893    -0.0000    12.0000 </r>
       <r>   -45.7828    -0.0000    12.0000 </r>
       <r>   -45.5763     0.0000    12.0000 </r>
       <r>   -45.3697     0.0000    12.0000 </r>
       <r>   -45.1632     0.0000    12.0000 </r>
       <r>   -44.9567     0.0000    12.0000 </r>
       <r>   -44.7501     0.0000    12.0000 </r>
       <r>   -44.5436     0.0000    12.0000 </r>
       <r>   -44.3371     0.0000    12.0000 </r>
       <r>   -44.1305     0.0000    12.0000 </r>
       <r>   -43.9240     0.0000    12.0000 </r>
       <r>   -43.7174     0.0000    12.0000 </r>
       <r>   -43.5109     0.0000    12.0000 </r>
       <r>   -43.3044     0.0000    12.0000 </r>
       <r>   -43.0978     0.0000    12.0000 </r>
       <r>   -42.8913     0.0000    12.0000 </r>
       <r>   -42.6848     0.0000    12.0000 </r>
       <r>   -42.4782     0.0000    12.0000 </r>
       <r>   -42.2717     0.0000    12.0000 </r>
       <r>   -42.0651     0.0000    12.0000 </r>
       <r>   -41.8586     0.0000    12.0000 </r>
       <r>   -41.6521     0.0000    12.0000 </r>
       <r>   -41.4455     0.0000    12.0000 </r>
       <r>   -41.2390     0.0000    12.0000 </r>
       <r>   -41.0325     0.0000    12.0000 </r>
       <r>   -40.8259     0.0000    12.0000 </r>
       <r>   -40.6194     0.0000    12.0000 </r>
       <r>   -40.4129     0.0000    12.0000 </r>
       <r>   -40.2063     0.0000    12.0000 </r>
       <r>   -39.9998     0.0000    12.0000 </r>
       <r>   -39.7932     0.0000    12.0000 </r>
       <r>   -39.5867     0.0000    12.0000 </r>
       <r>   -39.3802     0.0000    12.0000 </r>
       <r>   -39.1736     0.0000    12.0000 </r>
       <r>   -38.9671     0.0000    12.0000 </r>
       <r>   -38.7606     0.0000    12.0000 </r>
       <r>   -38.5540     0.0000    12.0000 </r>
       <r>   -38.3475     0.0000    12.0000 </r>
       <r>   -38.1410     0.0000    12.0000 </r>
       <r>   -37.9344     0.0000    12.0000 </r>
       <r>   -37.7279     0.0000    12.0000 </r>
       <r>   -37.5213     0.0000    12.0000 </r>
       <r>   -37.3148     0.0000    12.0000 </r>
       <r>   -37.1083     0.0000    12.0000 </r>
       <r>   -36.9017     0.0000    12.0000 </r>
       <r>   -36.6952     0.0000    12.0000 </r>
       <r>   -36.4887     0.0000    12.0000 </r>
       <r>   -36.2821     0.0000    12.0000 </r>
       <r>   -36.0756     0.0000    12.0000 </r>
       <r>   -35.8690     0.0000    12.0000 </r>
       <r>   -35.6625     0.0000    12.0000 </r>
       <r>   -35.4560     0.0000    12.0000 </r>
       <r>   -35.2494     0.0000    12.0000 </r>
       <r>   -35.0429     0.0000    12.0000 </r>
       <r>   -34.8364     0.0000    12.0000 </r>
       <r>   -34.6298     0.0000    12.0000 </r>
       <r>   -34.4233     0.0000    12.0000 </r>
       <r>   -34.2168     0.0000    12.0000 </r>
       <r>   -34.0102     0.0000    12.0000 </r>
       <r>   -33.8037     0.0000    12.0000 </r>
       <r>   -33.5971     0.0000    12.0000 </r>
       <r>   -33.3906     0.0000    12.0000 </r>
       <r>   -33.1841     0.0000    12.0000 </r>
       <r>   -32.9775     0.0000    12.0000 </r>
       <r>   -32.7710     0.0000    12.0000 </r>
       <r>   -32.5645     0.0000    12.0000 </r>
       <r>   -32.3579     0.0000    12.0000 </r>
       <r>   -32.1514     0.0000    12.0000 </r>
       <r>   -31.9449     0.0000    12.0000 </r>
       <r>   -31.7383     0.0000    12.0000 </r>
       <r>   -31.5318     0.0000    12.0000 </r>
       <r>   -31.3252     0.0000    12.0000 </r>
       <r>   -31.1187     0.0000    12.0000 </r>
       <r>   -30.9122     0.0000    12.0000 </r>
       <r>   -30.7056     0.0000    12.0000 </r>
       <r>   -30.4991     0.0000    12.0000 </r>
       <r>   -30.2926     0.0000    12.0000 </r>
       <r>   -30.0860     0.0000    12.0000 </r>
       <r>   -29.8795     0.0000    12.0000 </r>
       <r>   -29.6730     0.0000    12.0000 </r>
       <r>   -29.4664     0.0000    12.0000 </r>
       <r>   -29.2599     0.0000    12.0000 </r>
       <r>   -29.0533     0.0000    12.0000 </r>
       <r>   -28.8468     0.0000    12.0000 </r>
       <r>   -28.6403     0.0000    12.0000 </r>
       <r>   -28.4337     0.0000    12.0000 </r>
       <r>   -28.2272     0.0000    12.0000 </r>
       <r>   -28.0207     0.0000    12.0000 </r>
       <r>   -27.8141     0.0000    12.0000 </r>
       <r>   -27.6076     0.0000    12.0000 </r>
       <r>   -27.4010     0.0000    12.0000 </r>
       <r>   -27.1945     0.0000    12.0000 </r>
       <r>   -26.9880     0.0000    12.0000 </r>
       <r>   -26.7814     0.0000    12.0000 </r>
       <r>   -26.5749     0.0000    12.0000 </r>
       <r>   -26.3684     0.0000    12.0000 </r>
       <r>   -26.1618     0.0000    12.0000 </r>
       <r>   -25.9553    -0.0000    12.0000 </r>
       <r>   -25.7488    -0.0000    12.0000 </r>
       <r>   -25.5422    -0.0000    12.0000 </r>
       <r>   -25.3357    -0.0000    12.0000 </r>
       <r>   -25.1291    -0.0000    12.0000 </r>
       <r>   -24.9226    -0.0000    12.0000 </r>
       <r>   -24.7161    -0.0059    11.9988 </r>
       <r>   -24.5095    -0.1356    11.9708 </r>
       <r>   -24.3030     0.3940    12.0521 </r>
       <r>   -24.0965     5.6428    13.2176 </r>
       <r>   -23.8899    17.0487    16.7388 </r>
       <r>   -23.6834    24.0249    21.7008 </r>
       <r>   -23.4769    52.1143    32.4643 </r>
       <r>   -23.2703    39.6028    40.6437 </r>
       <r>   -23.0638    20.2016    44.8161 </r>
       <r>   -22.8572    15.2763    47.9712 </r>
       <r>   -22.6507     0.4476    48.0637 </r>
       <r>   -22.4442    -0.3016    48.0014 </r>
       <r>   -22.2376    -0.0067    48.0000 </r>
       <r>   -22.0311    -0.0000    48.0000 </r>
       <r>   -21.8246    -0.0000    48.0000 </r>
       <r>   -21.6180    -0.0000    48.0000 </r>
       <r>   -21.4115     0.0000    48.0000 </r>
       <r>   -21.2049     0.0000    48.0000 </r>
       <r>   -20.9984     0.0000    48.0000 </r>
       <r>   -20.7919     0.0000    48.0000 </r>
       <r>   -20.5853     0.0000    48.0000 </r>
       <r>   -20.3788     0.0000    48.0000 </r>
       <r>   -20.1723     0.0000    48.0000 </r>
       <r>   -19.9657     0.0000    48.0000 </r>
       <r>   -19.7592     0.0000    48.0000 </r>
       <r>   -19.5527     0.0000    48.0000 </r>
       <r>   -19.3461     0.0000    48.0000 </r>
       <r>   -19.1396     0.0000    48.0000 </r>
       <r>   -18.9330     0.0000    48.0000 </r>
       <r>   -18.7265     0.0000    48.0000 </r>
       <r>   -18.5200     0.0000    48.0000 </r>
       <r>   -18.3134     0.0000    48.0000 </r>
       <r>   -18.1069     0.0000    48.0000 </r>
       <r>   -17.9004     0.0000    48.0000 </r>
       <r>   -17.6938     0.0000    48.0000 </r>
       <r>   -17.4873     0.0000    48.0000 </r>
       <r>   -17.2808     0.0000    48.0000 </r>
       <r>   -17.0742     0.0000    48.0000 </r>
       <r>   -16.8677     0.0000    48.0000 </r>
       <r>   -16.6611     0.0000    48.0000 </r>
       <r>   -16.4546     0.0000    48.0000 </r>
       <r>   -16.2481     0.0000    48.0000 </r>
       <r>   -16.0415     0.0000    48.0000 </r>
       <r>   -15.8350     0.0000    48.0000 </r>
       <r>   -15.6285     0.0000    48.0000 </r>
       <r>   -15.4219     0.0000    48.0000 </r>
       <r>   -15.2154     0.0000    48.0000 </r>
       <r>   -15.0088     0.0000    48.0000 </r>
       <r>   -14.8023     0.0000    48.0000 </r>
       <r>   -14.5958     0.0000    48.0000 </r>
       <r>   -14.3892     0.0000    48.0000 </r>
       <r>   -14.1827     0.0000    48.0000 </r>
       <r>   -13.9762     0.0000    48.0000 </r>
       <r>   -13.7696     0.0000    48.0000 </r>
       <r>   -13.5631     0.0000    48.0000 </r>
       <r>   -13.3566     0.0000    48.0000 </r>
       <r>   -13.1500     0.0000    48.0000 </r>
       <r>   -12.9435     0.0000    48.0000 </r>
       <r>   -12.7369     0.0000    48.0000 </r>
       <r>   -12.5304     0.0000    48.0000 </r>
       <r>   -12.3239     0.0000    48.0000 </r>
       <r>   -12.1173     0.0000    48.0000 </r>
       <r>   -11.9108     0.0000    48.0000 </r>
       <r>   -11.7043     0.0000    48.0000 </r>
       <r>   -11.4977     0.0000    48.0000 </r>
       <r>   -11.2912     0.0000    48.0000 </r>
       <r>   -11.0847     0.0000    48.0000 </r>
       <r>   -10.8781     0.0000    48.0000 </r>
       <r>   -10.6716     0.0000    48.0000 </r>
       <r>   -10.4650     0.0000    48.0000 </r>
       <r>   -10.2585     0.0000    48.0000 </r>
       <r>   -10.0520     0.0000    48.0000 </r>
       <r>    -9.8454     0.0000    48.0000 </r>
       <r>    -9.6389     0.0000    48.0000 </r>
       <r>    -9.4324     0.0000    48.0000 </r>
       <r>    -9.2258     0.0000    48.0000 </r>
       <r>    -9.0193     0.0000    48.0000 </r>
       <r>    -8.8128     0.0000    48.0000 </r>
       <r>    -8.6062     0.0000    48.0000 </r>
       <r>    -8.3997     0.0000    48.0000 </r>
       <r>    -8.1931     0.0000    48.0000 </r>
       <r>    -7.9866     0.0000    48.0000 </r>
       <r>    -7.7801     0.0000    48.0000 </r>
       <r>    -7.5735     0.0000    48.0000 </r>
       <r>    -7.3670     0.0000    48.0000 </r>
       <r>    -7.1605     0.0000    48.0000 </r>
       <r>    -6.9539     0.0000    48.0000 </r>
       <r>    -6.7474     0.0000    48.0000 </r>
       <r>    -6.5408     0.0000    48.0000 </r>
       <r>    -6.3343     0.0000    48.0000 </r>
       <r>    -6.1278     0.0000    48.0000 </r>
       <r>    -5.9212     0.0000    48.0000 </r>
       <r>    -5.7147     0.0000    48.0000 </r>
       <r>    -5.5082     0.0000    48.0000 </r>
       <r>    -5.3016     0.0000    48.0000 </r>
       <r>    -5.0951     0.0000    48.0000 </r>
       <r>    -4.8886     0.0000    48.0000 </r>
       <r>    -4.6820     0.0000    48.0000 </r>
       <r>    -4.4755     0.0000    48.0000 </r>
       <r>    -4.2689     0.0000    48.0000 </r>
       <r>    -4.0624     0.0000    48.0000 </r>
       <r>    -3.8559     0.0000    48.0000 </r>
       <r>    -3.6493     0.0000    48.0000 </r>
       <r>    -3.4428     0.0000    48.0000 </r>
       <r>    -3.2363     0.0000    48.0000 </r>
       <r>    -3.0297     0.0000    48.0000 </r>
       <r>    -2.8232     0.0000    48.0000 </r>
       <r>    -2.6167     0.0000    48.0000 </r>
       <r>    -2.4101     0.0000    48.0000 </r>
       <r>    -2.2036     0.0000    48.0000 </r>
       <r>    -1.9970     0.0000    48.0000 </r>
       <r>    -1.7905    -0.0000    48.0000 </r>
       <r>    -1.5840    -0.0000    48.0000 </r>
       <r>    -1.3774    -0.0000    48.0000 </r>
       <r>    -1.1709    -0.0000    48.0000 </r>
       <r>    -0.9644    -0.0000    48.0000 </r>
       <r>    -0.7578    -0.0000    48.0000 </r>
       <r>    -0.5513    -0.0003    47.9999 </r>
       <r>    -0.3447    -0.0095    47.9980 </r>
       <r>    -0.1382     0.0151    48.0011 </r>
       <r>     0.0683     0.4729    48.0987 </r>
       <r>     0.2749     1.1096    48.3279 </r>
       <r>     0.4814     1.4080    48.6187 </r>
       <r>     0.6879     2.1002    49.0525 </r>
       <r>     0.8945     2.0941    49.4850 </r>
       <r>     1.1010     2.6270    50.0276 </r>
       <r>     1.3075     3.2079    50.6901 </r>
       <r>     1.5141     3.1656    51.3439 </r>
       <r>     1.7206     3.4478    52.0560 </r>
       <r>     1.9272     3.8331    52.8477 </r>
       <r>     2.1337     4.9480    53.8696 </r>
       <r>     2.3402     6.0866    55.1267 </r>
       <r>     2.5468     8.7517    56.9343 </r>
       <r>     2.7533    15.0107    60.0345 </r>
       <r>     2.9598    21.1980    64.4127 </r>
       <r>     3.1664    24.9510    69.5660 </r>
       <r>     3.3729    28.4506    75.4421 </r>
       <r>     3.5794    30.6229    81.7668 </r>
       <r>     3.7860    31.8327    88.3414 </r>
       <r>     3.9925    31.9367    94.9375 </r>
       <r>     4.1991    31.2332   101.3883 </r>
       <r>     4.4056    27.6254   107.0940 </r>
       <r>     4.6121    26.8306   112.6355 </r>
       <r>     4.8187    31.5788   119.1577 </r>
       <r>     5.0252    36.8834   126.7755 </r>
       <r>     5.2317    41.0186   135.2473 </r>
       <r>     5.4383    42.2217   143.9676 </r>
       <r>     5.6448    40.6296   152.3591 </r>
       <r>     5.8513    40.1739   160.6565 </r>
       <r>     6.0579    42.5826   169.4514 </r>
       <r>     6.2644    43.8997   178.5182 </r>
       <r>     6.4710    42.2437   187.2431 </r>
       <r>     6.6775    37.7415   195.0381 </r>
       <r>     6.8840    32.7053   201.7930 </r>
       <r>     7.0906    28.4471   207.6683 </r>
       <r>     7.2971    23.3409   212.4891 </r>
       <r>     7.5036    19.7738   216.5731 </r>
       <r>     7.7102    18.2716   220.3468 </r>
       <r>     7.9167    19.9291   224.4629 </r>
       <r>     8.1233    24.1191   229.4444 </r>
       <r>     8.3298    24.9618   234.5999 </r>
       <r>     8.5363    17.8592   238.2885 </r>
       <r>     8.7429     7.5941   239.8570 </r>
       <r>     8.9494     0.8641   240.0354 </r>
       <r>     9.1559    -0.1576   240.0029 </r>
       <r>     9.3625    -0.0139   240.0000 </r>
       <r>     9.5690    -0.0001   240.0000 </r>
       <r>     9.7755    -0.0000   240.0000 </r>
       <r>     9.9821    -0.0000   240.0000 </r>
       <r>    10.1886    -0.0000   240.0000 </r>
       <r>    10.3952     0.0000   240.0000 </r>
       <r>    10.6017     0.0000   240.0000 </r>
       <r>    10.8082     0.0000   240.0000 </r>
       <r>    11.0148     0.0000   240.0000 </r>
       <r>    11.2213     0.0000   240.0000 </r>
       <r>    11.4278     0.0000   240.0000 </r>
       <r>    11.6344     0.0000   240.0000 </r>
      </set>
     </set>
    </array>
   </total>
  </dos>
 </calculation>
 <structure name="finalpos" >
  <crystal>
   <varray name="basis" >
    <v>      -3.15850730      -3.15840558      -3.19045681 </v>
    <v>       1.52768455       1.45688007      -7.80278924 </v>
    <v>       7.93360193      -7.90153344      -1.62645886 </v>
   </varray>
   <i name="volume">    465.27821571 </i>
   <varray name="rec_basis" >
    <v>      -0.13760274      -0.12770748      -0.05078544 </v>
    <v>       0.04314082       0.06544256      -0.10749393 </v>
    <v>       0.06295693      -0.06344414       0.00048032 </v>
   </varray>
  </crystal>
  <varray name="positions" >
   <v>       0.95903692       0.93472305       0.39814187 </v>
   <v>       0.63322751       0.26250104       0.40303728 </v>
   <v>       0.51398385      -0.00396719      -0.00755894 </v>
   <v>       0.00618472       0.01002378       0.00209954 </v>
   <v>       0.09533618       0.20782268       0.80089195 </v>
   <v>       0.03687273       0.06148432       0.60042422 </v>
   <v>       0.90847160       0.79512354       0.19648418 </v>
   <v>       0.81007160       0.59000564       0.39892766 </v>
   <v>       0.72879355       0.47554640       0.19416765 </v>
   <v>       0.64831458       0.34965561      -0.00460885 </v>
   <v>       0.37365773       0.72062827       0.60233119 </v>
   <v>       0.13003179       0.27292621       0.39859643 </v>
   <v>       0.92741713       0.84405690       0.81704131 </v>
   <v>       0.56473887       0.13764104       0.19342799 </v>
   <v>       0.40427530       0.79598551       0.19618079 </v>
   <v>       0.43025000       0.85487188       0.79722752 </v>
   <v>       0.30237689       0.60024451       0.40223083 </v>
   <v>       0.86037035       0.72333960       0.60369542 </v>
   <v>       0.46845520       0.92581355       0.40881268 </v>
   <v>       0.12136945       0.39835725      -0.00165181 </v>
   <v>       0.29098489       0.52346539       0.78846817 </v>
   <v>       0.20406547       0.37988623       0.59672180 </v>
   <v>       0.05634501       0.15959677       0.19960311 </v>
   <v>       0.76714032       0.52091619       0.80570050 </v>
   <v>       0.69222236       0.40080834       0.60614100 </v>
   <v>       0.60514637       0.19847756       0.79338146 </v>
   <v>       0.54987560       0.06302127       0.61076561 </v>
   <v>       0.34735322       0.65475575      -0.00195723 </v>
   <v>       0.23029748       0.47562227       0.20127668 </v>
  </varray>
 </structure>
</modeling>
