Nb - Mo - Ta - Ti - V SQS               
           1
    -3.160000   -3.160000   -3.160000
     1.580000    1.580000   -7.900000
     7.900000   -7.900000   -1.580000
   Nb   Mo   Ta   Ti   V 
   6   6   5   6   6
Direct configuration=     1
   0.96666667  0.93333333  0.40000000
   0.63333333  0.26666667  0.40000000
   0.50000000  0.00000000  0.00000000
   0.00000000  0.00000000  0.00000000
   0.10000000  0.20000000  0.80000000
   0.03333333  0.06666667  0.60000000
   0.90000000  0.80000000  0.20000000
   0.80000000  0.60000000  0.40000000
   0.73333333  0.46666667  0.20000000
   0.66666667  0.33333333  0.00000000
   0.36666667  0.73333333  0.60000000
   0.13333333  0.26666667  0.40000000
   0.93333333  0.86666667  0.80000000
   0.56666667  0.13333333  0.20000000
   0.40000000  0.80000000  0.20000000
   0.43333333  0.86666667  0.80000000
   0.30000000  0.60000000  0.40000000
   0.86666667  0.73333333  0.60000000
   0.46666667  0.93333333  0.40000000
   0.16666667  0.33333333  0.00000000
   0.26666667  0.53333333  0.80000000
   0.20000000  0.40000000  0.60000000
   0.06666667  0.13333333  0.20000000
   0.76666667  0.53333333  0.80000000
   0.70000000  0.40000000  0.60000000
   0.60000000  0.20000000  0.80000000
   0.53333333  0.06666667  0.60000000
   0.33333333  0.66666667  0.00000000
   0.23333333  0.46666667  0.20000000
Nb - Mo - Ta - Ti - V SQS               
           1
    -3.120781   -3.125028   -3.131754
     1.547287    1.545174   -7.798940
     7.831064   -7.843225   -1.564333
   Nb   Mo   Ta   Ti   V 
   6   6   5   6   6
Direct configuration=     2
   0.96234217  0.93411942  0.39944078
   0.63218211  0.26619726  0.40203322
   0.50334647 -0.00363657 -0.00155923
   0.00068395  0.00066430  0.00101496
   0.09723239  0.20486206  0.79891035
   0.03396020  0.06887027  0.59738573
   0.90278649  0.79656733  0.20049221
   0.80420990  0.59505060  0.39898207
   0.73201697  0.46834992  0.19714102
   0.66074314  0.33762973 -0.00060671
   0.36958697  0.73012778  0.60158490
   0.13244108  0.27087499  0.39990249
   0.92957487  0.86560624  0.80272553
   0.56559431  0.13557148  0.19732164
   0.40300377  0.79329518  0.19803139
   0.43561538  0.86169544  0.79739048
   0.29993551  0.60111259  0.40093018
   0.86312302  0.73178238  0.60030155
   0.46736763  0.93145493  0.40316641
   0.16454572  0.34029152  0.00104329
   0.27464674  0.53305082  0.79760620
   0.20040862  0.39684471  0.60025271
   0.06593654  0.13816367  0.20120013
   0.76485607  0.52975472  0.80110355
   0.69701423  0.40373775  0.60161751
   0.59892362  0.20211403  0.79926139
   0.53628429  0.06828216  0.60187688
   0.33564553  0.66278475  0.00071329
   0.23265898  0.46811386  0.20073607
Nb - Mo - Ta - Ti - V SQS               
           1
    -3.115049   -3.119917   -3.127625
     1.542506    1.540084   -7.784170
     7.820988   -7.834927   -1.562043
   Nb   Mo   Ta   Ti   V 
   6   6   5   6   6
Direct configuration=     3
   0.96170258  0.93423647  0.39935854
   0.63201174  0.26612810  0.40233283
   0.50384346 -0.00417644 -0.00178902
   0.00078448  0.00076286  0.00116446
   0.09682089  0.20558318  0.79874982
   0.03405226  0.06919654  0.59700050
   0.90320015  0.79605806  0.20056469
   0.80483511  0.59431604  0.39883203
   0.73182209  0.46859926  0.19671982
   0.65986530  0.33826747 -0.00069595
   0.37002005  0.72965233  0.60181835
   0.13230695  0.27149907  0.39988808
   0.92901924  0.86544990  0.80312726
   0.56543517  0.13590308  0.19692703
   0.40345182  0.79230036  0.19774136
   0.43595595  0.86095767  0.79700602
   0.29992518  0.60127770  0.40106720
   0.86259993  0.73155293  0.60034615
   0.46747158  0.93117678  0.40363294
   0.16422824  0.34132366  0.00119694
   0.27582710  0.53300752  0.79725320
   0.20047066  0.39637686  0.60028999
   0.06582576  0.13888014  0.20137688
   0.76459008  0.52922452  0.80126628
   0.69657050  0.40429258  0.60185587
   0.59876353  0.20242752  0.79915257
   0.53671926  0.06852157  0.60215325
   0.33598926  0.66220897  0.00081837
   0.23255836  0.46832863  0.20084452
Nb - Mo - Ta - Ti - V SQS               
           1
    -3.123062   -3.130862   -3.143757
     1.536532    1.530228   -7.799196
     7.859813   -7.880826   -1.570365
   Nb   Mo   Ta   Ti   V 
   6   6   5   6   6
Direct configuration=     4
   0.95884144  0.93490336  0.39901701
   0.63123387  0.26573060  0.40353743
   0.50675467 -0.00731309 -0.00310756
   0.00148836  0.00147336  0.00177075
   0.09500928  0.20875128  0.79818870
   0.03446340  0.07055707  0.59566582
   0.90515544  0.79346885  0.20053959
   0.80747746  0.59138666  0.39839950
   0.73145488  0.46959050  0.19452889
   0.65582553  0.34156081 -0.00142596
   0.37211281  0.72727192  0.60274533
   0.13158587  0.27406560  0.39973283
   0.92633291  0.86446013  0.80507600
   0.56448667  0.13724482  0.19537238
   0.40556440  0.78840651  0.19647581
   0.43677303  0.85795062  0.79552513
   0.30014528  0.60175081  0.40185691
   0.86024677  0.73045116  0.60065675
   0.46791982  0.92982253  0.40558473
   0.16194583  0.34729222  0.00180053
   0.28154038  0.53247679  0.79556357
   0.20070697  0.39421104  0.60044592
   0.06525061  0.14229074  0.20207334
   0.76371835  0.52657696  0.80222086
   0.69421677  0.40686856  0.60323196
   0.59804247  0.20405416  0.79849263
   0.53897349  0.06961599  0.60365063
   0.33747007  0.65903526  0.00117513
   0.23192984  0.46937812  0.20120542
Nb - Mo - Ta - Ti - V SQS               
           1
    -3.132075   -3.143174   -3.161903
     1.529812    1.519140   -7.816098
     7.903487   -7.932459   -1.579726
   Nb   Mo   Ta   Ti   V 
   6   6   5   6   6
Direct configuration=     5
   0.95563194  0.93565504  0.39863529
   0.63036183  0.26528489  0.40488546
   0.51003004 -0.01084178 -0.00458256
   0.00227456  0.00227177  0.00244876
   0.09296857  0.21231367  0.79756038
   0.03492133  0.07208554  0.59417206
   0.90735598  0.79055683  0.20051183
   0.81044981  0.58809156  0.39791582
   0.73104225  0.47070407  0.19207738
   0.65128654  0.34526559 -0.00224280
   0.37446580  0.72459491  0.60378269
   0.13076928  0.27695110  0.39955856
   0.92332240  0.86335042  0.80725718
   0.56342056  0.13875311  0.19363279
   0.40794679  0.78402729  0.19506048
   0.43770036  0.85456913  0.79386889
   0.30038969  0.60228281  0.40274029
   0.85761185  0.72921459  0.60100506
   0.46842471  0.92830073  0.40776876
   0.15936699  0.35400348  0.00247469
   0.28794913  0.53187511  0.79367208
   0.20097876  0.39177633  0.60062093
   0.06459401  0.14612533  0.20285176
   0.76274862  0.52360193  0.80328979
   0.69156817  0.40976660  0.60477137
   0.59722948  0.20588291  0.79775395
   0.54149565  0.07084517  0.60532520
   0.33914014  0.65546672  0.00157486
   0.23122142  0.47055848  0.20160905
Nb - Mo - Ta - Ti - V SQS               
           1
    -3.132877   -3.144270   -3.163518
     1.529214    1.518153   -7.817603
     7.907374   -7.937054   -1.580559
   Nb   Mo   Ta   Ti   V 
   6   6   5   6   6
Direct configuration=     6
   0.95534718  0.93572209  0.39860156
   0.63028451  0.26524536  0.40500474
   0.51032161 -0.01115587 -0.00471302
   0.00234398  0.00234274  0.00250871
   0.09278666  0.21263059  0.79750475
   0.03496163  0.07222138  0.59403987
   0.90755193  0.79029771  0.20050940
   0.81071435  0.58779830  0.39787306
   0.73100557  0.47080303  0.19186048
   0.65088310  0.34559534 -0.00231507
   0.37467511  0.72435673  0.60387448
   0.13069607  0.27720776  0.39954309
   0.92305559  0.86325202  0.80745022
   0.56332576  0.13888724  0.19347888
   0.40815942  0.78363763  0.19493533
   0.43778371  0.85426828  0.79372244
   0.30041113  0.60233014  0.40281842
   0.85737854  0.72910481  0.60103595
   0.46846972  0.92816545  0.40796201
   0.15913634  0.35460051  0.00253421
   0.28851772  0.53182110  0.79350464
   0.20100354  0.39155980  0.60063647
   0.06453462  0.14646642  0.20292054
   0.76266339  0.52333746  0.80338444
   0.69133235  0.41002456  0.60490753
   0.59715694  0.20604557  0.79768857
   0.54171878  0.07095438  0.60547327
   0.33928921  0.65514927  0.00161028
   0.23115823  0.47066352  0.20164474
Nb - Mo - Ta - Ti - V SQS               
           1
    -3.138517   -3.148999   -3.170108
     1.531414    1.515814   -7.828746
     7.921594   -7.946372   -1.586439
   Nb   Mo   Ta   Ti   V 
   6   6   5   6   6
Direct configuration=     7
   0.95582148  0.93566455  0.39846092
   0.63048219  0.26536254  0.40451970
   0.51137186 -0.01193207 -0.00514060
   0.00273543  0.00309296  0.00247751
   0.09311857  0.21192020  0.79806019
   0.03513975  0.07169258  0.59498727
   0.90754869  0.79040247  0.20024900
   0.81008386  0.58904907  0.39805496
   0.73177007  0.47008464  0.19209443
   0.65139394  0.34544960 -0.00270188
   0.37417489  0.72448612  0.60331427
   0.13067856  0.27632399  0.39934145
   0.92300696  0.86305240  0.80753373
   0.56377279  0.13808593  0.19366468
   0.40778087  0.78511910  0.19526431
   0.43556630  0.85538700  0.79410007
   0.30081726  0.60197310  0.40294793
   0.85760455  0.72922658  0.60123142
   0.46819246  0.92798439  0.40767350
   0.15762842  0.35667312  0.00219551
   0.28848610  0.53129969  0.79337888
   0.20123095  0.39134379  0.60038699
   0.06380663  0.14686263  0.20262895
   0.76350081  0.52312878  0.80372924
   0.69094240  0.40984571  0.60523191
   0.59756543  0.20584276  0.79741652
   0.54244138  0.07074053  0.60591517
   0.33882849  0.65455787  0.00125376
   0.23117557  0.47061330  0.20173017
Nb - Mo - Ta - Ti - V SQS               
           1
    -3.149456   -3.158170   -3.182889
     1.535680    1.511279   -7.850356
     7.949171   -7.964441   -1.597843
   Nb   Mo   Ta   Ti   V 
   6   6   5   6   6
Direct configuration=     8
   0.95673964  0.93555314  0.39818867
   0.63086431  0.26559007  0.40358043
   0.51340557 -0.01343543 -0.00596804
   0.00349240  0.00454611  0.00241673
   0.09376242  0.21054331  0.79913619
   0.03548603  0.07066703  0.59682216
   0.90754206  0.79060572  0.19974470
   0.80886204  0.59147188  0.39840646
   0.73325112  0.46869253  0.19254794
   0.65238272  0.34516762 -0.00345078
   0.37320585  0.72473761  0.60222935
   0.13064545  0.27461231  0.39895148
   0.92291313  0.86266563  0.80769554
   0.56463927  0.13653335  0.19402496
   0.40704670  0.78798855  0.19590049
   0.43127261  0.85755425  0.79483047
   0.30160403  0.60128119  0.40319896
   0.85804213  0.72946214  0.60160990
   0.46765564  0.92763410  0.40711490
   0.15470654  0.36068882  0.00153834
   0.28842536  0.53028984  0.79313564
   0.20167120  0.39092562  0.59990405
   0.06239659  0.14763072  0.20206401
   0.76512257  0.52272386  0.80439713
   0.69018797  0.40949897  0.60586010
   0.59835622  0.20545012  0.79688987
   0.54384095  0.07032551  0.60677106
   0.33793688  0.65341284  0.00056367
   0.23120928  0.47051592  0.20189562
Nb - Mo - Ta - Ti - V SQS               
           1
    -3.146295   -3.154298   -3.180621
     1.533141    1.504400   -7.838789
     7.942559   -7.953618   -1.599107
   Nb   Mo   Ta   Ti   V 
   6   6   5   6   6
Direct configuration=     9
   0.95708832  0.93553277  0.39808815
   0.63116613  0.26556794  0.40322838
   0.51446299 -0.01404475 -0.00627243
   0.00388409  0.00512121  0.00240027
   0.09404311  0.21007119  0.79960485
   0.03563577  0.07020146  0.59751714
   0.90758656  0.79074966  0.19955167
   0.80858329  0.59223745  0.39851171
   0.73364982  0.46835285  0.19273237
   0.65264643  0.34511352 -0.00371518
   0.37276509  0.72485977  0.60190156
   0.13050453  0.27410551  0.39882237
   0.92260942  0.86241227  0.80785647
   0.56504308  0.13576231  0.19404550
   0.40681218  0.78890211  0.19619674
   0.42961362  0.85827274  0.79505201
   0.30188141  0.60108573  0.40319177
   0.85812307  0.72958028  0.60179035
   0.46745262  0.92749110  0.40691671
   0.15313821  0.36285519  0.00122369
   0.28860875  0.52983729  0.79288354
   0.20187525  0.39051981  0.59967247
   0.06172116  0.14815637  0.20182866
   0.76579783  0.52254831  0.80476456
   0.68984260  0.40936890  0.60614041
   0.59881146  0.20520179  0.79662739
   0.54454512  0.07015446  0.60717714
   0.33749302  0.65285134  0.00026385
   0.23128175  0.47046476  0.20199788
Nb - Mo - Ta - Ti - V SQS               
           1
    -3.138775   -3.145086   -3.175227
     1.527101    1.488036   -7.811274
     7.926829   -7.927870   -1.602113
   Nb   Mo   Ta   Ti   V 
   6   6   5   6   6
Direct configuration=    10
   0.95791859  0.93548426  0.39784883
   0.63188455  0.26551557  0.40239003
   0.51698171 -0.01549680 -0.00699684
   0.00481596  0.00649163  0.00236074
   0.09471269  0.20894536  0.80072130
   0.03599372  0.06909101  0.59917254
   0.90769214  0.79109292  0.19909188
   0.80791844  0.59406184  0.39876184
   0.73459997  0.46754298  0.19317183
   0.65327424  0.34498483 -0.00434477
   0.37171498  0.72515149  0.60112082
   0.13016957  0.27289797  0.39851523
   0.92188672  0.86180838  0.80823984
   0.56600589  0.13392466  0.19409497
   0.40625261  0.79107892  0.19690161
   0.42566210  0.85998526  0.79557896
   0.30254224  0.60061984  0.40317483
   0.85831581  0.72986155  0.60222001
   0.46696918  0.92715063  0.40644480
   0.14939990  0.36801886  0.00047277
   0.28904591  0.52875910  0.79228349
   0.20236155  0.38955294  0.59912128
   0.06011171  0.14940958  0.20126777
   0.76740649  0.52212922  0.80563977
   0.68902061  0.40905867  0.60680799
   0.59989567  0.20461017  0.79600249
   0.54622266  0.06974603  0.60814439
   0.33643658  0.65151378 -0.00044985
   0.23145449  0.47034268  0.20224144
Nb - Mo - Ta - Ti - V SQS               
           1
    -3.139869   -3.146426   -3.176012
     1.527980    1.490417   -7.815278
     7.929118   -7.931616   -1.601675
   Nb   Mo   Ta   Ti   V 
   6   6   5   6   6
Direct configuration=    11
   0.95779750  0.93549134  0.39788373
   0.63177986  0.26552310  0.40251232
   0.51661410 -0.01528464 -0.00689134
   0.00468034  0.00629142  0.00236662
   0.09461462  0.20911012  0.80055831
   0.03594103  0.06925361  0.59893094
   0.90767688  0.79104268  0.19915899
   0.80801579  0.59379527  0.39872553
   0.73446114  0.46766145  0.19310762
   0.65318272  0.34500355 -0.00425295
   0.37186833  0.72510866  0.60123476
   0.13021821  0.27307434  0.39855992
   0.92199195  0.86189666  0.80818387
   0.56586504  0.13419324  0.19408756
   0.40633461  0.79076095  0.19679900
   0.42623879  0.85973492  0.79550231
   0.30244575  0.60068795  0.40317725
   0.85828770  0.72982054  0.60215735
   0.46703969  0.92720026  0.40651362
   0.14994643  0.36726400  0.00058287
   0.28898199  0.52891655  0.79237092
   0.20229048  0.38969414  0.59920159
   0.06034683  0.14922627  0.20134974
   0.76717163  0.52219071  0.80551202
   0.68914034  0.40910409  0.60671059
   0.59973748  0.20469656  0.79609358
   0.54597774  0.06980598  0.60800322
   0.33659048  0.65170904 -0.00034585
   0.23142923  0.47036058  0.20220590
Nb - Mo - Ta - Ti - V SQS               
           1
    -3.140192   -3.146802   -3.176381
     1.527098    1.487392   -7.811986
     7.931279   -7.932782   -1.602976
   Nb   Mo   Ta   Ti   V 
   6   6   5   6   6
Direct configuration=    12
   0.95776484  0.93559920  0.39792897
   0.63207766  0.26523864  0.40259155
   0.51724915 -0.01540401 -0.00682893
   0.00498617  0.00628140  0.00239846
   0.09469645  0.20936278  0.80064351
   0.03592314  0.06915503  0.59888460
   0.90780086  0.79114749  0.19903131
   0.80830233  0.59347791  0.39873213
   0.73419976  0.46811798  0.19305840
   0.65289975  0.34512775 -0.00421507
   0.37176046  0.72513904  0.60143416
   0.13009798  0.27329717  0.39859380
   0.92147459  0.86142712  0.80844058
   0.56589237  0.13384424  0.19385286
   0.40641281  0.79052008  0.19686569
   0.42639232  0.85933740  0.79546977
   0.30246220  0.60072949  0.40298795
   0.85816904  0.72981480  0.60225537
   0.46708178  0.92722070  0.40657965
   0.14869250  0.36886652  0.00041898
   0.28924868  0.52872363  0.79203176
   0.20229566  0.38921169  0.59914190
   0.06013785  0.14970967  0.20125248
   0.76736227  0.52226836  0.80577129
   0.68912661  0.40897986  0.60677971
   0.60007933  0.20447410  0.79596163
   0.54626833  0.06978795  0.60817672
   0.33626390  0.65154587 -0.00044722
   0.23154788  0.47033146  0.20220797
Nb - Mo - Ta - Ti - V SQS               
           1
    -3.141160   -3.147931   -3.177490
     1.524452    1.478316   -7.802112
     7.937763   -7.936280   -1.606879
   Nb   Mo   Ta   Ti   V 
   6   6   5   6   6
Direct configuration=    13
   0.95766675  0.93592295  0.39806464
   0.63297128  0.26438474  0.40282932
   0.51915424 -0.01576236 -0.00664172
   0.00590355  0.00625132  0.00249395
   0.09494166  0.21012116  0.80089894
   0.03586958  0.06885913  0.59874564
   0.90817262  0.79146218  0.19864832
   0.80916218  0.59252528  0.39875206
   0.73341524  0.46948838  0.19291059
   0.65205080  0.34550058 -0.00410152
   0.37143692  0.72523015  0.60203222
   0.12973713  0.27396604  0.39869533
   0.91992325  0.86001755  0.80921076
   0.56597465  0.13279673  0.19314905
   0.40664766  0.78979701  0.19706580
   0.42685327  0.85814412  0.79537234
   0.30251145  0.60085428  0.40242018
   0.85781315  0.72979750  0.60254938
   0.46720804  0.92728202  0.40677770
   0.14492945  0.37367696 -0.00007324
   0.29004878  0.52814470  0.79101456
   0.20231166  0.38776354  0.59896307
   0.05951045  0.15116078  0.20096056
   0.76793412  0.52250134  0.80654890
   0.68908554  0.40860693  0.60698710
   0.60110498  0.20380639  0.79556595
   0.54714008  0.06973373  0.60869711
   0.33528438  0.65105613 -0.00075119
   0.23190381  0.47024405  0.20221421
Nb - Mo - Ta - Ti - V SQS               
           1
    -3.143097   -3.150187   -3.179707
     1.519161    1.460163   -7.782363
     7.950730   -7.943277   -1.614684
   Nb   Mo   Ta   Ti   V 
   6   6   5   6   6
Direct configuration=    14
   0.95747006  0.93657146  0.39833553
   0.63475978  0.26267369  0.40330524
   0.52296395 -0.01648052 -0.00626728
   0.00773780  0.00619096  0.00268481
   0.09543049  0.21164035  0.80140886
   0.03576301  0.06826643  0.59846815
   0.90891507  0.79209304  0.19788255
   0.81088328  0.59061662  0.39879264
   0.73184385  0.47223416  0.19261404
   0.65035277  0.34624744 -0.00387484
   0.37079017  0.72541212  0.60322753
   0.12901436  0.27530604  0.39889771
   0.91682486  0.85719273  0.81075134
   0.56614093  0.13069866  0.19174317
   0.40711877  0.78834813  0.19746636
   0.42777725  0.85575345  0.79517855
   0.30260938  0.60110483  0.40128524
   0.85710177  0.72976258  0.60313704
   0.46746045  0.92740468  0.40717351
   0.13739581  0.38331534 -0.00106093
   0.29164911  0.52698575  0.78898190
   0.20234653  0.38486229  0.59860682
   0.05825298  0.15406841  0.20037590
   0.76907733  0.52296739  0.80810294
   0.68900430  0.40785955  0.60740193
   0.60315675  0.20246899  0.79477563
   0.54888336  0.06962460  0.60973727
   0.33332687  0.65007521 -0.00135834
   0.23261562  0.47006893  0.20222675
Nb - Mo - Ta - Ti - V SQS               
           1
    -3.142286   -3.149242   -3.178778
     1.521377    1.467768   -7.790636
     7.945298   -7.940346   -1.611415
   Nb   Mo   Ta   Ti   V 
   6   6   5   6   6
Direct configuration=    15
   0.95755290  0.93629893  0.39822241
   0.63400949  0.26339320  0.40310555
   0.52136840 -0.01617845 -0.00642415
   0.00696984  0.00621642  0.00260495
   0.09522705  0.21100190  0.80119604
   0.03580717  0.06851549  0.59858405
   0.90860496  0.79182753  0.19820316
   0.81016113  0.59141904  0.39877502
   0.73250410  0.47107973  0.19273905
   0.65106421  0.34593355 -0.00396944
   0.37106083  0.72533610  0.60272749
   0.12931804  0.27474279  0.39881349
   0.91811919  0.85838087  0.81010578
   0.56606981  0.13158012  0.19233065
   0.40692022  0.78895739  0.19729828
   0.42738843  0.85675840  0.79525881
   0.30256884  0.60099905  0.40176017
   0.85739942  0.72977749  0.60289115
   0.46735481  0.92735327  0.40700795
   0.14055809  0.37926300 -0.00064444
   0.29097859  0.52747216  0.78983195
   0.20232952  0.38608182  0.59875487
   0.05878201  0.15284582  0.20062150
   0.76859882  0.52277208  0.80745292
   0.68903758  0.40817391  0.60722812
   0.60229683  0.20303092  0.79510585
   0.54815326  0.06967089  0.60930206
   0.33414563  0.65048733 -0.00110467
   0.23231748  0.47014256  0.20222145
Nb - Mo - Ta - Ti - V SQS               
           1
    -3.149436   -3.155162   -3.186696
     1.521138    1.466154   -7.802049
     7.958181   -7.950879   -1.614644
   Nb   Mo   Ta   Ti   V 
   6   6   5   6   6
Direct configuration=    16
   0.95778896  0.93623762  0.39817512
   0.63369796  0.26331304  0.40296624
   0.52163117 -0.01645139 -0.00649741
   0.00773914  0.00617561  0.00251324
   0.09548176  0.21110997  0.80129455
   0.03579738  0.06843291  0.59874922
   0.90903431  0.79173507  0.19811371
   0.81019392  0.59109257  0.39883819
   0.73219857  0.47127599  0.19270730
   0.65045728  0.34621818 -0.00389064
   0.37150801  0.72500059  0.60261391
   0.12972636  0.27475127  0.39875513
   0.91891423  0.85698164  0.81052198
   0.56621944  0.13187260  0.19237726
   0.40653323  0.78927422  0.19698849
   0.42702673  0.85637163  0.79557542
   0.30276973  0.60071347  0.40211721
   0.85731061  0.72943575  0.60301857
   0.46746734  0.92728967  0.40733330
   0.13806506  0.38180203 -0.00080646
   0.29106200  0.52726701  0.78945906
   0.20234794  0.38552549  0.59848729
   0.05822800  0.15378992  0.20042032
   0.76839195  0.52329876  0.80771750
   0.68948641  0.40757882  0.60713559
   0.60295498  0.20261282  0.79494079
   0.54848120  0.06945238  0.60951100
   0.33374408  0.65086108 -0.00117436
   0.23240894  0.47031463  0.20203849
Nb - Mo - Ta - Ti - V SQS               
           1
    -3.155080   -3.159834   -3.192944
     1.520949    1.464881   -7.811056
     7.968349   -7.959193   -1.617193
   Nb   Mo   Ta   Ti   V 
   6   6   5   6   6
Direct configuration=    17
   0.95797490  0.93618926  0.39813788
   0.63345263  0.26324990  0.40285644
   0.52183827 -0.01666659 -0.00655511
   0.00834501  0.00614336  0.00244102
   0.09568230  0.21119512  0.80137219
   0.03578976  0.06836779  0.59887939
   0.90937248  0.79166213  0.19804324
   0.81021997  0.59083517  0.39888801
   0.73195782  0.47143075  0.19268225
   0.64997911  0.34644264 -0.00382859
   0.37186038  0.72473604  0.60252445
   0.13004791  0.27475793  0.39870916
   0.91954137  0.85587835  0.81085012
   0.56633710  0.13210316  0.19241399
   0.40622818  0.78952410  0.19674431
   0.42674219  0.85606669  0.79582494
   0.30292821  0.60048823  0.40239862
   0.85724091  0.72916632  0.60311900
   0.46755607  0.92723947  0.40758970
   0.13609998  0.38380405 -0.00093446
   0.29112774  0.52710532  0.78916520
   0.20236275  0.38508693  0.59827644
   0.05779104  0.15453431  0.20026167
   0.76822874  0.52371396  0.80792596
   0.68984025  0.40710964  0.60706273
   0.60347354  0.20228315  0.79481078
   0.54873966  0.06928004  0.60967570
   0.33342759  0.65115579 -0.00122933
   0.23248082  0.47045031  0.20189430
Nb - Mo - Ta - Ti - V SQS               
           1
    -3.151641   -3.156987   -3.189137
     1.521064    1.465657   -7.805567
     7.962153   -7.954127   -1.615640
   Nb   Mo   Ta   Ti   V 
   6   6   5   6   6
Direct configuration=    18
   0.95786177  0.93621871  0.39816054
   0.63360186  0.26328831  0.40292327
   0.52171220 -0.01653556 -0.00652001
   0.00797643  0.00616303  0.00248495
   0.09556033  0.21114330  0.80132493
   0.03579436  0.06840745  0.59880016
   0.90916674  0.79170655  0.19808612
   0.81020402  0.59099189  0.39885768
   0.73210434  0.47133651  0.19269751
   0.65027008  0.34630596 -0.00386633
   0.37164593  0.72489712  0.60257887
   0.12985231  0.27475390  0.39873713
   0.91915938  0.85655015  0.81065032
   0.56626561  0.13196280  0.19239164
   0.40641388  0.78937192  0.19689295
   0.42691514  0.85625235  0.79567307
   0.30283168  0.60062540  0.40222732
   0.85728319  0.72933037  0.60305787
   0.46750204  0.92727007  0.40743363
   0.13729622  0.38258499 -0.00085640
   0.29108772  0.52720373  0.78934405
   0.20235360  0.38535392  0.59840476
   0.05805717  0.15408105  0.20035828
   0.76832816  0.52346118  0.80779910
   0.68962482  0.40739531  0.60710704
   0.60315797  0.20248389  0.79488988
   0.54858234  0.06938501  0.60957544
   0.33362025  0.65097633 -0.00119585
   0.23243716  0.47036770  0.20198207
Nb - Mo - Ta - Ti - V SQS               
           1
    -3.152458   -3.156273   -3.190429
     1.518564    1.462973   -7.803543
     7.958122   -7.947587   -1.614963
   Nb   Mo   Ta   Ti   V 
   6   6   5   6   6
Direct configuration=    19
   0.95814681  0.93609347  0.39808230
   0.63330654  0.26331683  0.40274243
   0.52176329 -0.01666031 -0.00663147
   0.00845611  0.00620666  0.00237882
   0.09574579  0.21110289  0.80140444
   0.03581815  0.06828500  0.59900480
   0.90949545  0.79161638  0.19808524
   0.81017719  0.59080995  0.39888314
   0.73184027  0.47133743  0.19273192
   0.64977354  0.34652174 -0.00382453
   0.37212667  0.72454752  0.60239146
   0.13017478  0.27466214  0.39863059
   0.92017300  0.85537768  0.81097380
   0.56641085  0.13241755  0.19250347
   0.40602152  0.78979577  0.19667195
   0.42653509  0.85606727  0.79596478
   0.30299664  0.60038361  0.40256745
   0.85725271  0.72897630  0.60313045
   0.46760451  0.92716226  0.40773211
   0.13522079  0.38446920 -0.00094108
   0.29114183  0.52701064  0.78912114
   0.20243210  0.38493499  0.59814110
   0.05756653  0.15485968  0.20018516
   0.76799982  0.52391774  0.80795392
   0.69008833  0.40680255  0.60696237
   0.60372667  0.20208553  0.79478598
   0.54882812  0.06914587  0.60974607
   0.33342346  0.65147746 -0.00122498
   0.23242012  0.47060955  0.20184716
Nb - Mo - Ta - Ti - V SQS               
           1
    -3.154293   -3.154667   -3.193334
     1.512947    1.456943   -7.798995
     7.949065   -7.932893   -1.613442
   Nb   Mo   Ta   Ti   V 
   6   6   5   6   6
Direct configuration=    20
   0.95878732  0.93581185  0.39790645
   0.63264288  0.26338113  0.40233575
   0.52187815 -0.01694074 -0.00688207
   0.00953367  0.00630461  0.00214031
   0.09616257  0.21101195  0.80158325
   0.03587190  0.06800963  0.59946493
   0.91023409  0.79141355  0.19808335
   0.81011719  0.59040094  0.39894039
   0.73124703  0.47133958  0.19280921
   0.64865771  0.34700698 -0.00373067
   0.37320706  0.72376154  0.60197022
   0.13089931  0.27445580  0.39839112
   0.92245202  0.85274149  0.81170135
   0.56673664  0.13343973  0.19275493
   0.40513932  0.79074881  0.19617496
   0.42568171  0.85565120  0.79662058
   0.30336781  0.59983988  0.40333224
   0.85718473  0.72818033  0.60329365
   0.46783509  0.92691975  0.40840322
   0.13055546  0.38870564 -0.00113199
   0.29126349  0.52657664  0.78861998
   0.20260885  0.38399334  0.59754832
   0.05646306  0.15661027  0.19979581
   0.76726164  0.52494413  0.80830192
   0.69113036  0.40546992  0.60663720
   0.60500482  0.20118988  0.79455251
   0.54938072  0.06860813  0.61012978
   0.33298066  0.65260407 -0.00129053
   0.23238141  0.47115330  0.20154383
Nb - Mo - Ta - Ti - V SQS               
           1
    -3.154392   -3.153565   -3.192143
     1.512438    1.456905   -7.796001
     7.944770   -7.926456   -1.611973
   Nb   Mo   Ta   Ti   V 
   6   6   5   6   6
Direct configuration=    21
   0.95892657  0.93573849  0.39792123
   0.63315830  0.26322350  0.40239021
   0.52205138 -0.01658113 -0.00685708
   0.00908132  0.00657430  0.00214222
   0.09604632  0.21098081  0.80161573
   0.03597806  0.06768258  0.59952555
   0.91004808  0.79155541  0.19804954
   0.81016899  0.59046248  0.39892989
   0.73093600  0.47155499  0.19286987
   0.64841695  0.34708710 -0.00384073
   0.37328800  0.72363323  0.60202799
   0.13068608  0.27422397  0.39830400
   0.92270425  0.85219137  0.81193907
   0.56651449  0.13360552  0.19269039
   0.40507820  0.79097098  0.19643842
   0.42623270  0.85556726  0.79658847
   0.30325876  0.60003096  0.40307175
   0.85743512  0.72788941  0.60326760
   0.46801953  0.92680303  0.40848583
   0.12931948  0.38960257 -0.00119357
   0.29135433  0.52625502  0.78860311
   0.20282989  0.38367026  0.59749303
   0.05654466  0.15682534  0.19966298
   0.76706792  0.52502511  0.80832581
   0.69145296  0.40503365  0.60647290
   0.60529900  0.20083338  0.79456322
   0.54943628  0.06834402  0.61022306
   0.33318860  0.65309702 -0.00133234
   0.23214445  0.47145269  0.20162186
Nb - Mo - Ta - Ti - V SQS               
           1
    -3.154592   -3.151330   -3.189728
     1.511405    1.456828   -7.789930
     7.936062   -7.913405   -1.608994
   Nb   Mo   Ta   Ti   V 
   6   6   5   6   6
Direct configuration=    22
   0.95920897  0.93558970  0.39795125
   0.63420356  0.26290384  0.40250077
   0.52240274 -0.01585174 -0.00680632
   0.00816402  0.00712126  0.00214605
   0.09581059  0.21091763  0.80168163
   0.03619333  0.06701925  0.59964853
   0.90967085  0.79184313  0.19798093
   0.81027406  0.59058730  0.39890860
   0.73030531  0.47199184  0.19299289
   0.64792863  0.34724961 -0.00406407
   0.37345216  0.72337297  0.60214521
   0.13025358  0.27375372  0.39812719
   0.92321581  0.85107558  0.81242140
   0.56606396  0.13394177  0.19255942
   0.40495447  0.79142158  0.19697297
   0.42735005  0.85539708  0.79652339
   0.30303747  0.60041854  0.40254322
   0.85794282  0.72729939  0.60321475
   0.46839360  0.92656631  0.40865347
   0.12681306  0.39142167 -0.00131864
   0.29153849  0.52560270  0.78856886
   0.20327806  0.38301500  0.59738087
   0.05671011  0.15726159  0.19939350
   0.76667511  0.52518932  0.80837425
   0.69210701  0.40414885  0.60613955
   0.60589553  0.20011033  0.79458497
   0.54954898  0.06780832  0.61041233
   0.33361034  0.65409690 -0.00141712
   0.23166401  0.47205989  0.20178016
Nb - Mo - Ta - Ti - V SQS               
           1
    -3.157616   -3.153733   -3.191479
     1.512650    1.458173   -7.794237
     7.939937   -7.916056   -1.609529
   Nb   Mo   Ta   Ti   V 
   6   6   5   6   6
Direct configuration=    23
   0.95929005  0.93554508  0.39797683
   0.63448110  0.26277298  0.40254215
   0.52229950 -0.01538432 -0.00674117
   0.00778770  0.00739862  0.00216357