  29  29   0   0
  0.1679057E+02  0.5525242E-09  0.8287863E-09  0.1139058E-08  0.5000000E-15
  1.000000000000000E-004
  CAR 
 SQS with 1 vacancy for VFE and VRV      
     12.16594590    -50.12385118  301      6.88475575      1.00000000
    -50.124  0.0000E+00  0.0000E+00
    -49.916  0.0000E+00  0.0000E+00
    -49.709  0.0000E+00  0.0000E+00
    -49.501  0.0000E+00  0.0000E+00
    -49.293  0.0000E+00  0.0000E+00
    -49.086 -0.5608E-35 -0.1164E-35
    -48.878 -0.2074E-27 -0.4307E-28
    -48.670 -0.8738E-21 -0.1814E-21
    -48.463 -0.4077E-15 -0.8465E-16
    -48.255 -0.2172E-10 -0.4510E-11
    -48.048 -0.1290E-06 -0.2679E-07
    -47.840 -0.8285E-04 -0.1723E-04
    -47.632 -0.5166E-02 -0.1090E-02
    -47.425 -0.1764E-02 -0.1456E-02
    -47.217  0.3130E+00  0.6354E-01
    -47.009  0.5434E+00  0.1764E+00
    -46.802  0.2641E+00  0.2312E+00
    -46.594  0.5042E-01  0.2417E+00
    -46.386 -0.7595E-02  0.2401E+00
    -46.179 -0.4893E-03  0.2400E+00
    -45.971 -0.2150E-05  0.2400E+00
    -45.764 -0.9419E-09  0.2400E+00
    -45.556 -0.4448E-13  0.2400E+00
    -45.348  0.0000E+00  0.2400E+00
    -45.141  0.0000E+00  0.2400E+00
    -44.933  0.0000E+00  0.2400E+00
    -44.725  0.0000E+00  0.2400E+00
    -44.518  0.0000E+00  0.2400E+00
    -44.310  0.0000E+00  0.2400E+00
    -44.103  0.0000E+00  0.2400E+00
    -43.895  0.0000E+00  0.2400E+00
    -43.687  0.0000E+00  0.2400E+00
    -43.480  0.0000E+00  0.2400E+00
    -43.272  0.0000E+00  0.2400E+00
    -43.064  0.0000E+00  0.2400E+00
    -42.857  0.0000E+00  0.2400E+00
    -42.649  0.0000E+00  0.2400E+00
    -42.441  0.0000E+00  0.2400E+00
    -42.234  0.0000E+00  0.2400E+00
    -42.026  0.0000E+00  0.2400E+00
    -41.819  0.0000E+00  0.2400E+00
    -41.611  0.0000E+00  0.2400E+00
    -41.403  0.0000E+00  0.2400E+00
    -41.196  0.0000E+00  0.2400E+00
    -40.988  0.0000E+00  0.2400E+00
    -40.780  0.0000E+00  0.2400E+00
    -40.573  0.0000E+00  0.2400E+00
    -40.365  0.0000E+00  0.2400E+00
    -40.157  0.0000E+00  0.2400E+00
    -39.950  0.0000E+00  0.2400E+00
    -39.742  0.0000E+00  0.2400E+00
    -39.535  0.0000E+00  0.2400E+00
    -39.327  0.0000E+00  0.2400E+00
    -39.119  0.0000E+00  0.2400E+00
    -38.912  0.0000E+00  0.2400E+00
    -38.704  0.0000E+00  0.2400E+00
    -38.496  0.0000E+00  0.2400E+00
    -38.289  0.0000E+00  0.2400E+00
    -38.081  0.0000E+00  0.2400E+00
    -37.874  0.0000E+00  0.2400E+00
    -37.666  0.0000E+00  0.2400E+00
    -37.458  0.0000E+00  0.2400E+00
    -37.251  0.0000E+00  0.2400E+00
    -37.043  0.0000E+00  0.2400E+00
    -36.835  0.0000E+00  0.2400E+00
    -36.628  0.0000E+00  0.2400E+00
    -36.420  0.0000E+00  0.2400E+00
    -36.212  0.0000E+00  0.2400E+00
    -36.005  0.0000E+00  0.2400E+00
    -35.797  0.0000E+00  0.2400E+00
    -35.590  0.0000E+00  0.2400E+00
    -35.382  0.0000E+00  0.2400E+00
    -35.174  0.0000E+00  0.2400E+00
    -34.967  0.0000E+00  0.2400E+00
    -34.759  0.0000E+00  0.2400E+00
    -34.551  0.0000E+00  0.2400E+00
    -34.344  0.0000E+00  0.2400E+00
    -34.136  0.0000E+00  0.2400E+00
    -33.929  0.0000E+00  0.2400E+00
    -33.721  0.0000E+00  0.2400E+00
    -33.513  0.0000E+00  0.2400E+00
    -33.306  0.0000E+00  0.2400E+00
    -33.098  0.0000E+00  0.2400E+00
    -32.890  0.0000E+00  0.2400E+00
    -32.683  0.0000E+00  0.2400E+00
    -32.475  0.0000E+00  0.2400E+00
    -32.267  0.0000E+00  0.2400E+00
    -32.060  0.0000E+00  0.2400E+00
    -31.852  0.0000E+00  0.2400E+00
    -31.645  0.0000E+00  0.2400E+00
    -31.437  0.0000E+00  0.2400E+00
    -31.229  0.0000E+00  0.2400E+00
    -31.022  0.0000E+00  0.2400E+00
    -30.814  0.0000E+00  0.2400E+00
    -30.606  0.0000E+00  0.2400E+00
    -30.399  0.0000E+00  0.2400E+00
    -30.191  0.0000E+00  0.2400E+00
    -29.983  0.0000E+00  0.2400E+00
    -29.776  0.0000E+00  0.2400E+00
    -29.568  0.0000E+00  0.2400E+00
    -29.361  0.0000E+00  0.2400E+00
    -29.153  0.0000E+00  0.2400E+00
    -28.945  0.0000E+00  0.2400E+00
    -28.738  0.0000E+00  0.2400E+00
    -28.530  0.0000E+00  0.2400E+00
    -28.322  0.0000E+00  0.2400E+00
    -28.115  0.0000E+00  0.2400E+00
    -27.907  0.0000E+00  0.2400E+00
    -27.700  0.0000E+00  0.2400E+00
    -27.492  0.0000E+00  0.2400E+00
    -27.284  0.0000E+00  0.2400E+00
    -27.077  0.0000E+00  0.2400E+00
    -26.869  0.0000E+00  0.2400E+00
    -26.661  0.0000E+00  0.2400E+00
    -26.454  0.0000E+00  0.2400E+00
    -26.246  0.0000E+00  0.2400E+00
    -26.038  0.0000E+00  0.2400E+00
    -25.831  0.0000E+00  0.2400E+00
    -25.623 -0.1202E-33  0.2400E+00
    -25.416 -0.3032E-26  0.2400E+00
    -25.208 -0.8773E-20  0.2400E+00
    -25.000 -0.2808E-14  0.2400E+00
    -24.793 -0.1032E-09  0.2400E+00
    -24.585 -0.4171E-06  0.2400E+00
    -24.377 -0.1750E-03  0.2400E+00
    -24.170 -0.6032E-02  0.2387E+00
    -23.962  0.2493E-01  0.2439E+00
    -23.755  0.2139E+00  0.2883E+00
    -23.547  0.3682E+00  0.3647E+00
    -23.339  0.8500E+00  0.5412E+00
    -23.132  0.9814E+00  0.7450E+00
    -22.924  0.6784E+00  0.8859E+00
    -22.716  0.2338E+00  0.9344E+00
    -22.509  0.1242E+00  0.9602E+00
    -22.301  0.1453E-02  0.9605E+00
    -22.093 -0.2284E-02  0.9600E+00
    -21.886 -0.6316E-04  0.9600E+00
    -21.678 -0.1844E-06  0.9600E+00
    -21.471 -0.5835E-10  0.9600E+00
    -21.263 -0.2023E-14  0.9600E+00
    -21.055  0.0000E+00  0.9600E+00
    -20.848  0.0000E+00  0.9600E+00
    -20.640  0.0000E+00  0.9600E+00
    -20.432  0.0000E+00  0.9600E+00
    -20.225  0.0000E+00  0.9600E+00
    -20.017  0.0000E+00  0.9600E+00
    -19.809  0.0000E+00  0.9600E+00
    -19.602  0.0000E+00  0.9600E+00
    -19.394  0.0000E+00  0.9600E+00
    -19.187  0.0000E+00  0.9600E+00
    -18.979  0.0000E+00  0.9600E+00
    -18.771  0.0000E+00  0.9600E+00
    -18.564  0.0000E+00  0.9600E+00
    -18.356  0.0000E+00  0.9600E+00
    -18.148  0.0000E+00  0.9600E+00
    -17.941  0.0000E+00  0.9600E+00
    -17.733  0.0000E+00  0.9600E+00
    -17.526  0.0000E+00  0.9600E+00
    -17.318  0.0000E+00  0.9600E+00
    -17.110  0.0000E+00  0.9600E+00
    -16.903  0.0000E+00  0.9600E+00
    -16.695  0.0000E+00  0.9600E+00
    -16.487  0.0000E+00  0.9600E+00
    -16.280  0.0000E+00  0.9600E+00
    -16.072  0.0000E+00  0.9600E+00
    -15.864  0.0000E+00  0.9600E+00
    -15.657  0.0000E+00  0.9600E+00
    -15.449  0.0000E+00  0.9600E+00
    -15.242  0.0000E+00  0.9600E+00
    -15.034  0.0000E+00  0.9600E+00
    -14.826  0.0000E+00  0.9600E+00
    -14.619  0.0000E+00  0.9600E+00
    -14.411  0.0000E+00  0.9600E+00
    -14.203  0.0000E+00  0.9600E+00
    -13.996  0.0000E+00  0.9600E+00
    -13.788  0.0000E+00  0.9600E+00
    -13.581  0.0000E+00  0.9600E+00
    -13.373  0.0000E+00  0.9600E+00
    -13.165  0.0000E+00  0.9600E+00
    -12.958  0.0000E+00  0.9600E+00
    -12.750  0.0000E+00  0.9600E+00
    -12.542  0.0000E+00  0.9600E+00
    -12.335  0.0000E+00  0.9600E+00
    -12.127  0.0000E+00  0.9600E+00
    -11.919  0.0000E+00  0.9600E+00
    -11.712  0.0000E+00  0.9600E+00
    -11.504  0.0000E+00  0.9600E+00
    -11.297  0.0000E+00  0.9600E+00
    -11.089  0.0000E+00  0.9600E+00
    -10.881  0.0000E+00  0.9600E+00
    -10.674  0.0000E+00  0.9600E+00
    -10.466  0.0000E+00  0.9600E+00
    -10.258  0.0000E+00  0.9600E+00
    -10.051  0.0000E+00  0.9600E+00
     -9.843  0.0000E+00  0.9600E+00
     -9.635  0.0000E+00  0.9600E+00
     -9.428  0.0000E+00  0.9600E+00
     -9.220  0.0000E+00  0.9600E+00
     -9.013  0.0000E+00  0.9600E+00
     -8.805  0.0000E+00  0.9600E+00
     -8.597  0.0000E+00  0.9600E+00
     -8.390  0.0000E+00  0.9600E+00
     -8.182  0.0000E+00  0.9600E+00
     -7.974  0.0000E+00  0.9600E+00
     -7.767  0.0000E+00  0.9600E+00
     -7.559  0.0000E+00  0.9600E+00
     -7.352  0.0000E+00  0.9600E+00
     -7.144  0.0000E+00  0.9600E+00
     -6.936  0.0000E+00  0.9600E+00
     -6.729  0.0000E+00  0.9600E+00
     -6.521  0.0000E+00  0.9600E+00
     -6.313  0.0000E+00  0.9600E+00
     -6.106  0.0000E+00  0.9600E+00
     -5.898  0.0000E+00  0.9600E+00
     -5.690  0.0000E+00  0.9600E+00
     -5.483  0.0000E+00  0.9600E+00
     -5.275  0.0000E+00  0.9600E+00
     -5.068  0.0000E+00  0.9600E+00
     -4.860  0.0000E+00  0.9600E+00
     -4.652  0.0000E+00  0.9600E+00
     -4.445  0.0000E+00  0.9600E+00
     -4.237  0.0000E+00  0.9600E+00
     -4.029  0.0000E+00  0.9600E+00
     -3.822  0.0000E+00  0.9600E+00
     -3.614  0.0000E+00  0.9600E+00
     -3.407  0.0000E+00  0.9600E+00
     -3.199  0.0000E+00  0.9600E+00
     -2.991  0.0000E+00  0.9600E+00
     -2.784  0.0000E+00  0.9600E+00
     -2.576  0.0000E+00  0.9600E+00
     -2.368  0.0000E+00  0.9600E+00
     -2.161 -0.1576E-31  0.9600E+00
     -1.953 -0.1228E-24  0.9600E+00
     -1.745 -0.1094E-18  0.9600E+00
     -1.538 -0.1074E-13  0.9600E+00
     -1.330 -0.1230E-09  0.9600E+00
     -1.123 -0.1591E-06  0.9600E+00
     -0.915 -0.2252E-04  0.9600E+00
     -0.707 -0.2640E-03  0.9599E+00
     -0.500  0.1688E-02  0.9603E+00
     -0.292  0.1163E-01  0.9627E+00
     -0.084  0.2496E-01  0.9679E+00
      0.123  0.3647E-01  0.9755E+00
      0.331  0.3041E-01  0.9818E+00
      0.539  0.3549E-01  0.9891E+00
      0.746  0.6295E-01  0.1002E+01
      0.954  0.6262E-01  0.1015E+01
      1.161  0.5609E-01  0.1027E+01
      1.369  0.6423E-01  0.1040E+01
      1.577  0.9198E-01  0.1059E+01
      1.784  0.7536E-01  0.1075E+01
      1.992  0.1015E+00  0.1096E+01
      2.200  0.1547E+00  0.1128E+01
      2.407  0.2247E+00  0.1175E+01
      2.615  0.3246E+00  0.1242E+01
      2.822  0.3893E+00  0.1323E+01
      3.030  0.4679E+00  0.1420E+01
      3.238  0.5625E+00  0.1537E+01
      3.445  0.5714E+00  0.1656E+01
      3.653  0.5666E+00  0.1773E+01
      3.861  0.5895E+00  0.1896E+01
      4.068  0.6074E+00  0.2022E+01
      4.276  0.5574E+00  0.2138E+01
      4.484  0.4919E+00  0.2240E+01
      4.691  0.5844E+00  0.2361E+01
      4.899  0.7471E+00  0.2516E+01
      5.106  0.8117E+00  0.2685E+01
      5.314  0.7888E+00  0.2848E+01
      5.522  0.7230E+00  0.2999E+01
      5.729  0.7004E+00  0.3144E+01
      5.937  0.7216E+00  0.3294E+01
      6.145  0.7881E+00  0.3457E+01
      6.352  0.7952E+00  0.3623E+01
      6.560  0.7656E+00  0.3782E+01
      6.767  0.6986E+00  0.3927E+01
      6.975  0.6078E+00  0.4053E+01
      7.183  0.5041E+00  0.4157E+01
      7.390  0.4122E+00  0.4243E+01
      7.598  0.3475E+00  0.4315E+01
      7.806  0.3168E+00  0.4381E+01
      8.013  0.3320E+00  0.4450E+01
      8.221  0.3620E+00  0.4525E+01
      8.429  0.3971E+00  0.4607E+01
      8.636  0.3922E+00  0.4689E+01
      8.844  0.2850E+00  0.4748E+01
      9.051  0.1682E+00  0.4783E+01
      9.259  0.7274E-01  0.4798E+01
      9.467  0.1066E-01  0.4800E+01
      9.674 -0.1373E-02  0.4800E+01
      9.882 -0.1748E-03  0.4800E+01
     10.090 -0.2007E-05  0.4800E+01
     10.297 -0.2668E-08  0.4800E+01
     10.505 -0.4124E-12  0.4800E+01
     10.713 -0.7529E-17  0.4800E+01
     10.920  0.0000E+00  0.4800E+01
     11.128  0.0000E+00  0.4800E+01
     11.335  0.0000E+00  0.4800E+01
     11.543  0.0000E+00  0.4800E+01
     11.751  0.0000E+00  0.4800E+01
     11.958  0.0000E+00  0.4800E+01
     12.166  0.0000E+00  0.4800E+01
