   29   29   50    1
  0.1679057E+02  0.5525242E-09  0.8287863E-09  0.1139058E-08  0.5000000E-15
  1.000000000000000E-004
  CAR 
 SQS with 1 vacancy for VFE and VRV      
    200     63    120
 
  0.0000000E+00  0.0000000E+00  0.0000000E+00  0.8000000E-02
    1      -47.292497   1.000000
    2      -47.227747   1.000000
    3      -47.140353   1.000000
    4      -47.114423   1.000000
    5      -47.012714   1.000000
    6      -46.842534   1.000000
    7      -23.875178   1.000000
    8      -23.828397   1.000000
    9      -23.638166   1.000000
   10      -23.549332   1.000000
   11      -23.460944   1.000000
   12      -23.386774   1.000000
   13      -23.365301   1.000000
   14      -23.350639   1.000000
   15      -23.313419   1.000000
   16      -23.279402   1.000000
   17      -23.234294   1.000000
   18      -23.172302   1.000000
   19      -23.084813   1.000000
   20      -23.075095   1.000000
   21      -23.036036   1.000000
   22      -23.017602   1.000000
   23      -22.761960   1.000000
   24      -22.584013   1.000000
   25       -0.516283   1.000000
   26        0.868293   1.000000
   27        1.199280   1.000000
   28        2.062240   1.000000
   29        2.125918   1.000000
   30        2.185511   1.000000
   31        2.328131   1.000000
   32        2.419093   1.000000
   33        2.591386   1.000000
   34        2.622569   1.000000
   35        2.694125   1.000000
   36        2.744288   1.000000
   37        2.856111   1.000000
   38        2.897721   1.000000
   39        2.995468   1.000000
   40        3.041995   1.000000
   41        3.209662   1.000000
   42        3.226590   1.000000
   43        3.307730   1.000000
   44        3.398517   1.000000
   45        3.465960   1.000000
   46        3.520662   1.000000
   47        3.595988   1.000000
   48        3.684914   1.000000
   49        3.735927   1.000000
   50        3.839193   1.000000
   51        3.911209   1.000000
   52        3.935070   1.000000
   53        4.037832   1.000000
   54        4.068561   1.000000
   55        4.122148   1.000000
   56        4.221276   1.000000
   57        4.353030   1.000000
   58        4.428509   1.000000
   59        4.512664   1.000000
   60        4.622654   1.000000
   61        4.695301   1.000000
   62        4.731883   1.000000
   63        4.752950   1.000000
   64        4.858854   1.000000
   65        4.866804   1.000000
   66        4.940027   1.000000
   67        4.971979   1.000000
   68        5.026960   1.000000
   69        5.083742   1.000000
   70        5.101844   1.000000
   71        5.141666   1.000000
   72        5.302654   1.000000
   73        5.351318   1.000000
   74        5.374993   1.000000
   75        5.410550   1.000000
   76        5.509688   1.000000
   77        5.562935   1.000000
   78        5.630094   1.000000
   79        5.693341   1.000000
   80        5.770515   1.000000
   81        5.829400   1.000000
   82        5.933544   1.000000
   83        5.966533   1.000000
   84        6.090260   1.000000
   85        6.143260   1.000001
   86        6.227866   1.000017
   87        6.249982   1.000034
   88        6.305330   1.000164
   89        6.320763   1.000247
   90        6.476259   1.006952
   91        6.498479   1.009916
   92        6.614985   1.033465
   93        6.724927   0.989828
   94        6.817864   0.766257
   95        6.853248   0.631504
   96        6.938188   0.282609
   97        6.971209   0.169338
   98        7.067596  -0.013780
   99        7.078736  -0.021715
  100        7.107626  -0.033286
  101        7.190687  -0.026312
  102        7.281813  -0.008381
  103        7.347195  -0.002571
  104        7.529102  -0.000026
  105        7.663484  -0.000000
  106        7.790211  -0.000000
  107        7.911793  -0.000000
  108        7.972325  -0.000000
  109        8.061534  -0.000000
  110        8.189123  -0.000000
  111        8.480276  -0.000000
  112        8.605531  -0.000000
  113        8.752106  -0.000000
  114        8.798305  -0.000000
  115        8.882904  -0.000000
  116        8.934195  -0.000000
  117        9.060152  -0.000000
  118        9.107727  -0.000000
  119        9.202940  -0.000000
  120        9.214208  -0.000000
 
  0.2000000E+00 -0.1387779E-16  0.0000000E+00  0.1600000E-01
    1      -47.292027   1.000000
    2      -47.222865   1.000000
    3      -47.140220   1.000000
    4      -47.113876   1.000000
    5      -47.012374   1.000000
    6      -46.847940   1.000000
    7      -23.859661   1.000000
    8      -23.746201   1.000000
    9      -23.632672   1.000000
   10      -23.543514   1.000000
   11      -23.463596   1.000000
   12      -23.385241   1.000000
   13      -23.368040   1.000000
   14      -23.349269   1.000000
   15      -23.318115   1.000000
   16      -23.285060   1.000000
   17      -23.237212   1.000000
   18      -23.176882   1.000000
   19      -23.089559   1.000000
   20      -23.077878   1.000000
   21      -23.041624   1.000000
   22      -23.023299   1.000000
   23      -22.764155   1.000000
   24      -22.699223   1.000000
   25       -0.198499   1.000000
   26        1.130298   1.000000
   27        1.465852   1.000000
   28        2.152976   1.000000
   29        2.321147   1.000000
   30        2.415680   1.000000
   31        2.515220   1.000000
   32        2.629946   1.000000
   33        2.708983   1.000000
   34        2.772924   1.000000
   35        2.873608   1.000000
   36        2.974517   1.000000
   37        3.027399   1.000000
   38        3.102418   1.000000
   39        3.153874   1.000000
   40        3.187625   1.000000
   41        3.287041   1.000000
   42        3.350770   1.000000
   43        3.412917   1.000000
   44        3.442768   1.000000
   45        3.551403   1.000000
   46        3.666672   1.000000
   47        3.775872   1.000000
   48        3.804096   1.000000
   49        3.885642   1.000000
   50        3.963169   1.000000
   51        3.984850   1.000000
   52        4.101532   1.000000
   53        4.127911   1.000000
   54        4.203526   1.000000
   55        4.252835   1.000000
   56        4.309575   1.000000
   57        4.395656   1.000000
   58        4.497486   1.000000
   59        4.547756   1.000000
   60        4.665265   1.000000
   61        4.757277   1.000000
   62        4.819913   1.000000
   63        4.869583   1.000000
   64        4.914671   1.000000
   65        4.962428   1.000000
   66        5.010826   1.000000
   67        5.055028   1.000000
   68        5.117130   1.000000
   69        5.132503   1.000000
   70        5.214503   1.000000
   71        5.300844   1.000000
   72        5.324476   1.000000
   73        5.363122   1.000000
   74        5.370839   1.000000
   75        5.461060   1.000000
   76        5.510425   1.000000
   77        5.571619   1.000000
   78        5.633645   1.000000
   79        5.696810   1.000000
   80        5.732939   1.000000
   81        5.805570   1.000000
   82        5.849768   1.000000
   83        5.987103   1.000000
   84        6.054410   1.000000
   85        6.090930   1.000000
   86        6.131430   1.000001
   87        6.213229   1.000011
   88        6.283809   1.000091
   89        6.369231   1.000813
   90        6.391708   1.001351
   91        6.425816   1.002757
   92        6.461622   1.005405
   93        6.493200   1.009141
   94        6.530827   1.015625
   95        6.615265   1.033505
   96        6.671492   1.030711
   97        6.786533   0.865179
   98        6.916698   0.366733
   99        6.936593   0.288615
  100        6.996493   0.099387
  101        7.050043   0.003495
  102        7.128759  -0.035454
  103        7.174930  -0.029776
  104        7.215714  -0.020556
  105        7.321029  -0.004261
  106        7.457894  -0.000194
  107        7.579515  -0.000005
  108        7.687616  -0.000000
  109        7.800895  -0.000000
  110        7.939311  -0.000000
  111        8.049829  -0.000000
  112        8.127198  -0.000000
  113        8.201995  -0.000000
  114        8.283520  -0.000000
  115        8.382863  -0.000000
  116        8.480283  -0.000000
  117        8.554880  -0.000000
  118        8.641929  -0.000000
  119        8.685761  -0.000000
  120        8.776643  -0.000000
 
  0.4000000E+00 -0.2775558E-16  0.0000000E+00  0.1600000E-01
    1      -47.291267   1.000000
    2      -47.214664   1.000000
    3      -47.140004   1.000000
    4      -47.112965   1.000000
    5      -47.011833   1.000000
    6      -46.856998   1.000000
    7      -23.858192   1.000000
    8      -23.628644   1.000000
    9      -23.573039   1.000000
   10      -23.469855   1.000000
   11      -23.457472   1.000000
   12      -23.384341   1.000000
   13      -23.372802   1.000000
   14      -23.345141   1.000000
   15      -23.325496   1.000000
   16      -23.292915   1.000000
   17      -23.242978   1.000000
   18      -23.183291   1.000000
   19      -23.101222   1.000000
   20      -23.080390   1.000000
   21      -23.052185   1.000000
   22      -23.039890   1.000000
   23      -22.969857   1.000000
   24      -22.760176   1.000000
   25        0.623976   1.000000
   26        1.567412   1.000000
   27        2.058866   1.000000
   28        2.209120   1.000000
   29        2.452553   1.000000
   30        2.629111   1.000000
   31        2.751229   1.000000
   32        2.872251   1.000000
   33        3.028336   1.000000
   34        3.100593   1.000000
   35        3.158211   1.000000
   36        3.248711   1.000000
   37        3.313881   1.000000
   38        3.372287   1.000000
   39        3.425093   1.000000
   40        3.502443   1.000000
   41        3.543694   1.000000
   42        3.624887   1.000000
   43        3.655200   1.000000
   44        3.758668   1.000000
   45        3.810628   1.000000
   46        3.910751   1.000000
   47        3.973118   1.000000
   48        4.016394   1.000000
   49        4.127828   1.000000
   50        4.147632   1.000000
   51        4.246659   1.000000
   52        4.306501   1.000000
   53        4.348113   1.000000
   54        4.425697   1.000000
   55        4.512717   1.000000
   56        4.535187   1.000000
   57        4.606303   1.000000
   58        4.682581   1.000000
   59        4.706779   1.000000
   60        4.752796   1.000000
   61        4.800436   1.000000
   62        4.828947   1.000000
   63        4.899899   1.000000
   64        4.944911   1.000000
   65        4.975913   1.000000
   66        5.049861   1.000000
   67        5.100829   1.000000
   68        5.173376   1.000000
   69        5.202787   1.000000
   70        5.224490   1.000000
   71        5.361703   1.000000
   72        5.372315   1.000000
   73        5.406174   1.000000
   74        5.463719   1.000000
   75        5.497800   1.000000
   76        5.569876   1.000000
   77        5.612528   1.000000
   78        5.667876   1.000000
   79        5.716540   1.000000
   80        5.761431   1.000000
   81        5.780150   1.000000
   82        5.880149   1.000000
   83        5.957113   1.000000
   84        5.985514   1.000000
   85        6.033914   1.000000
   86        6.060750   1.000000
   87        6.093019   1.000000
   88        6.145622   1.000001
   89        6.201942   1.000008
   90        6.275902   1.000073
   91        6.330966   1.000321
   92        6.351830   1.000538
   93        6.402596   1.001709
   94        6.439100   1.003572
   95        6.487445   1.008348
   96        6.542190   1.017992
   97        6.581757   1.026978
   98        6.623119   1.034502
   99        6.657156   1.034157
  100        6.729340   0.983949
  101        6.804885   0.809935
  102        6.867030   0.574678
  103        6.896484   0.450467
  104        6.979289   0.145284
  105        7.028197   0.034263
  106        7.058147  -0.005250
  107        7.108567  -0.033479
  108        7.196096  -0.025069
  109        7.333598  -0.003361
  110        7.395643  -0.000905
  111        7.601499  -0.000002
  112        7.662172  -0.000000
  113        7.783431  -0.000000
  114        7.836841  -0.000000
  115        7.929793  -0.000000
  116        8.044910  -0.000000
  117        8.121901  -0.000000
  118        8.294699  -0.000000
  119        8.407884  -0.000000
  120        8.490925  -0.000000
 
  0.0000000E+00  0.2000000E+00  0.1387779E-16  0.1600000E-01
    1      -47.292270   1.000000
    2      -47.227741   1.000000
    3      -47.140585   1.000000
    4      -47.114421   1.000000
    5      -47.012708   1.000000
    6      -46.842531   1.000000
    7      -23.874799   1.000000
    8      -23.827843   1.000000
    9      -23.632674   1.000000
   10      -23.549317   1.000000
   11      -23.460974   1.000000
   12      -23.386949   1.000000
   13      -23.365254   1.000000
   14      -23.350735   1.000000
   15      -23.313245   1.000000
   16      -23.279511   1.000000
   17      -23.234275   1.000000
   18      -23.172336   1.000000
   19      -23.089616   1.000000
   20      -23.077762   1.000000
   21      -23.036107   1.000000
   22      -23.017669   1.000000
   23      -22.762050   1.000000
   24      -22.584021   1.000000
   25       -0.375020   1.000000
   26        0.920983   1.000000
   27        1.258952   1.000000
   28        1.712479   1.000000
   29        2.046751   1.000000
   30        2.274948   1.000000
   31        2.319901   1.000000
   32        2.493761   1.000000
   33        2.580937   1.000000
   34        2.642144   1.000000
   35        2.727271   1.000000
   36        2.785601   1.000000
   37        2.822892   1.000000
   38        2.934952   1.000000
   39        2.971070   1.000000
   40        3.029016   1.000000
   41        3.086096   1.000000
   42        3.132179   1.000000
   43        3.271454   1.000000
   44        3.389678   1.000000
   45        3.468696   1.000000
   46        3.571901   1.000000
   47        3.637686   1.000000
   48        3.752464   1.000000
   49        3.808717   1.000000
   50        3.854863   1.000000
   51        3.922695   1.000000
   52        3.981083   1.000000
   53        4.031510   1.000000
   54        4.056188   1.000000
   55        4.180280   1.000000
   56        4.293396   1.000000
   57        4.349204   1.000000
   58        4.460654   1.000000
   59        4.536723   1.000000
   60        4.634024   1.000000
   61        4.688712   1.000000
   62        4.782072   1.000000
   63        4.822643   1.000000
   64        4.875126   1.000000
   65        4.950847   1.000000
   66        5.009659   1.000000
   67        5.033173   1.000000
   68        5.089923   1.000000
   69        5.119673   1.000000
   70        5.191457   1.000000
   71        5.216140   1.000000
   72        5.255746   1.000000
   73        5.338237   1.000000
   74        5.398035   1.000000
   75        5.470923   1.000000
   76        5.521777   1.000000
   77        5.584193   1.000000
   78        5.702494   1.000000
   79        5.736483   1.000000
   80        5.796275   1.000000
   81        5.880479   1.000000
   82        5.916634   1.000000
   83        5.993968   1.000000
   84        6.042599   1.000000
   85        6.100949   1.000000
   86        6.149969   1.000001
   87        6.178850   1.000004
   88        6.273496   1.000068
   89        6.314145   1.000207
   90        6.355670   1.000590
   91        6.390321   1.001310
   92        6.461262   1.005371
   93        6.526155   1.014702
   94        6.637484   1.035437
   95        6.736819   0.972968
   96        6.860060   0.603619
   97        6.896631   0.449850
   98        6.974557   0.159180
   99        7.079352  -0.022091
  100        7.185361  -0.027516
  101        7.357849  -0.002068
  102        7.363699  -0.001830
  103        7.421569  -0.000489
  104        7.540832  -0.000018
  105        7.674172  -0.000000
  106        7.741771  -0.000000
  107        7.843929  -0.000000
  108        7.980854  -0.000000
  109        7.999324  -0.000000
  110        8.143146  -0.000000
  111        8.156821  -0.000000
  112        8.384430  -0.000000
  113        8.452930  -0.000000
  114        8.624516  -0.000000
  115        8.647443  -0.000000
  116        8.832702  -0.000000
  117        8.914075  -0.000000
  118        8.937686  -0.000000
  119        9.013670  -0.000000
  120        9.082186  -0.000000
 
  0.2000000E+00  0.2000000E+00 -0.4857226E-16  0.1600000E-01
    1      -47.292240   1.000000
    2      -47.222870   1.000000
    3      -47.140002   1.000000
    4      -47.113875   1.000000
    5      -47.012381   1.000000
    6      -46.847943   1.000000
    7      -23.860432   1.000000
    8      -23.746369   1.000000
    9      -23.637956   1.000000
   10      -23.543513   1.000000
   11      -23.463675   1.000000
   12      -23.385188   1.000000
   13      -23.368034   1.000000
   14      -23.349224   1.000000
   15      -23.318067   1.000000
   16      -23.284908   1.000000
   17      -23.237209   1.000000
   18      -23.176816   1.000000
   19      -23.084417   1.000000
   20      -23.075922   1.000000
   21      -23.041547   1.000000
   22      -23.023194   1.000000
   23      -22.764079   1.000000
   24      -22.699204   1.000000
   25       -0.191832   1.000000
   26        1.086991   1.000000
   27        1.475415   1.000000
   28        2.072056   1.000000
   29        2.270276   1.000000
   30        2.395110   1.000000
   31        2.477436   1.000000
   32        2.536793   1.000000
   33        2.663431   1.000000
   34        2.808301   1.000000
   35        2.851176   1.000000
   36        2.933642   1.000000
   37        2.992333   1.000000
   38        3.089384   1.000000
   39        3.151849   1.000000
   40        3.184828   1.000000
   41        3.276143   1.000000
   42        3.322353   1.000000
   43        3.425061   1.000000
   44        3.477050   1.000000
   45        3.611975   1.000000
   46        3.663103   1.000000
   47        3.760000   1.000000
   48        3.827926   1.000000
   49        3.895903   1.000000
   50        3.954049   1.000000
   51        4.015174   1.000000
   52        4.079707   1.000000
   53        4.155197   1.000000
   54        4.192067   1.000000
   55        4.253673   1.000000
   56        4.355002   1.000000
   57        4.393626   1.000000
   58        4.517393   1.000000
   59        4.589339   1.000000
   60        4.682851   1.000000
   61        4.715498   1.000000
   62        4.755684   1.000000
   63        4.842072   1.000000
   64        4.897593   1.000000
   65        4.941651   1.000000
   66        4.975591   1.000000
   67        5.053163   1.000000
   68        5.120402   1.000000
   69        5.147645   1.000000
   70        5.169949   1.000000
   71        5.228840   1.000000
   72        5.261689   1.000000
   73        5.335525   1.000000
   74        5.420466   1.000000
   75        5.453702   1.000000
   76        5.497020   1.000000
   77        5.561670   1.000000
   78        5.629408   1.000000
   79        5.674343   1.000000
   80        5.747929   1.000000
   81        5.799896   1.000000
   82        5.826498   1.000000
   83        5.922486   1.000000
   84        5.983324   1.000000
   85        6.032290   1.000000
   86        6.112753   1.000000
   87        6.181768   1.000004
   88        6.259191   1.000045
   89        6.336926   1.000373
   90        6.370240   1.000832
   91        6.415078   1.002219
   92        6.483837   1.007877
   93        6.551876   1.020124
   94        6.646328   1.035287
   95        6.701326   1.014256
   96        6.813343   0.781877
   97        6.876409   0.535283
   98        6.919397   0.355830
   99        6.980027   0.143164
  100        7.005995   0.077225
  101        7.083204  -0.024303
  102        7.186147  -0.027340
  103        7.223265  -0.018874
  104        7.256182  -0.012334
  105        7.319497  -0.004384
  106        7.416995  -0.000547
  107        7.571084  -0.000007
  108        7.614016  -0.000002
  109        7.837091  -0.000000
  110        7.871615  -0.000000
  111        8.038194  -0.000000
  112        8.122033  -0.000000
  113        8.426743  -0.000000
  114        8.552047  -0.000000
  115        8.679451  -0.000000
  116        8.759881  -0.000000
  117        8.915202  -0.000000
  118        8.992402  -0.000000
  119        9.022485  -0.000000
  120        9.083635  -0.000000
 
  0.4000000E+00  0.2000000E+00 -0.5551115E-16  0.1600000E-01
    1      -47.291618   1.000000
    2      -47.214673   1.000000
    3      -47.139646   1.000000
    4      -47.112965   1.000000
    5      -47.011844   1.000000
    6      -46.857003   1.000000
    7      -23.859490   1.000000
    8      -23.637515   1.000000
    9      -23.573372   1.000000
   10      -23.469905   1.000000
   11      -23.457412   1.000000
   12      -23.384242   1.000000
   13      -23.372842   1.000000
   14      -23.345041   1.000000
   15      -23.325514   1.000000
   16      -23.292666   1.000000
   17      -23.242996   1.000000
   18      -23.183200   1.000000
   19      -23.089679   1.000000
   20      -23.080083   1.000000
   21      -23.052044   1.000000
   22      -23.039699   1.000000
   23      -22.969768   1.000000
   24      -22.760056   1.000000
   25        0.537523   1.000000
   26        1.522287   1.000000
   27        1.924682   1.000000
   28        2.160256   1.000000
   29        2.285724   1.000000
   30        2.482598   1.000000
   31        2.730134   1.000000
   32        2.995654   1.000000
   33        3.074902   1.000000
   34        3.172467   1.000000
   35        3.237920   1.000000
   36        3.298138   1.000000
   37        3.325079   1.000000
   38        3.432378   1.000000
   39        3.505248   1.000000
   40        3.541405   1.000000
   41        3.590517   1.000000
   42        3.628548   1.000000
   43        3.692008   1.000000
   44        3.719573   1.000000
   45        3.756017   1.000000
   46        3.815021   1.000000
   47        3.947904   1.000000
   48        4.015810   1.000000
   49        4.045572   1.000000
   50        4.120848   1.000000
   51        4.178397   1.000000
   52        4.240774   1.000000
   53        4.291685   1.000000
   54        4.335025   1.000000
   55        4.402322   1.000000
   56        4.442994   1.000000
   57        4.572917   1.000000
   58        4.638524   1.000000
   59        4.692068   1.000000
   60        4.729225   1.000000
   61        4.811946   1.000000
   62        4.867777   1.000000
   63        4.918474   1.000000
   64        4.986688   1.000000
   65        5.028154   1.000000
   66        5.060684   1.000000
   67        5.096146   1.000000
   68        5.131027   1.000000
   69        5.203251   1.000000
   70        5.238694   1.000000
   71        5.292629   1.000000
   72        5.358620   1.000000
   73        5.409365   1.000000
   74        5.495949   1.000000
   75        5.525183   1.000000
   76        5.558055   1.000000
   77        5.621724   1.000000
   78        5.632684   1.000000
   79        5.681957   1.000000
   80        5.777167   1.000000
   81        5.834516   1.000000
   82        5.887678   1.000000
   83        5.920645   1.000000
   84        5.987444   1.000000
   85        6.024501   1.000000
   86        6.075432   1.000000
   87        6.095254   1.000000
   88        6.137394   1.000001
   89        6.189925   1.000005
   90        6.240135   1.000025
   91        6.291291   1.000112
   92        6.325873   1.000281
   93        6.367426   1.000779
   94        6.405850   1.001831
   95        6.445762   1.004051
   96        6.471558   1.006422
   97        6.514332   1.012510
   98        6.588428   1.028462
   99        6.631880   1.035229
  100        6.695770   1.018428
  101        6.724455   0.990431
  102        6.799326   0.827505
  103        6.907279   0.405363
  104        6.980868   0.140764
  105        7.125974  -0.035403
  106        7.167189  -0.031319
  107        7.250955  -0.013269
  108        7.316594  -0.004623
  109        7.474758  -0.000123
  110        7.675241  -0.000000
  111        7.731299  -0.000000
  112        7.874676  -0.000000
  113        8.035137  -0.000000
  114        8.153344  -0.000000
  115        8.212058  -0.000000
  116        8.346790  -0.000000
  117        8.425983  -0.000000
  118        8.474886  -0.000000
  119        8.557594  -0.000000
  120        8.623979  -0.000000
 
 -0.4000000E+00  0.2000000E+00 -0.3908332E-16  0.1600000E-01
    1      -47.291261   1.000000
    2      -47.214664   1.000000
    3      -47.140011   1.000000
    4      -47.112964   1.000000
    5      -47.011833   1.000000
    6      -46.856998   1.000000
    7      -23.858170   1.000000
    8      -23.628570   1.000000
    9      -23.573040   1.000000
   10      -23.469910   1.000000
   11      -23.457492   1.000000
   12      -23.384407   1.000000
   13      -23.372765   1.000000
   14      -23.345143   1.000000
   15      -23.325377   1.000000
   16      -23.292908   1.000000
   17      -23.242972   1.000000
   18      -23.183279   1.000000
   19      -23.101390   1.000000
   20      -23.080388   1.000000
   21      -23.052187   1.000000
   22      -23.039892   1.000000
   23      -22.969856   1.000000
   24      -22.760184   1.000000
   25        0.880785   1.000000
   26        1.515414   1.000000
   27        1.793664   1.000000
   28        2.260795   1.000000
   29        2.292909   1.000000
   30        2.570853   1.000000
   31        2.713957   1.000000
   32        2.915956   1.000000
   33        3.023036   1.000000
   34        3.118253   1.000000
   35        3.156580   1.000000
   36        3.224650   1.000000
   37        3.290192   1.000000
   38        3.379418   1.000000
   39        3.454453   1.000000
   40        3.481593   1.000000
   41        3.540737   1.000000
   42        3.599410   1.000000
   43        3.681063   1.000000
   44        3.737533   1.000000
   45        3.818059   1.000000
   46        3.892717   1.000000
   47        3.957302   1.000000
   48        4.097948   1.000000
   49        4.128879   1.000000
   50        4.207910   1.000000
   51        4.245293   1.000000
   52        4.318417   1.000000
   53        4.455045   1.000000
   54        4.474922   1.000000
   55        4.521479   1.000000
   56        4.572732   1.000000
   57        4.620245   1.000000
   58        4.649086   1.000000
   59        4.713930   1.000000
   60        4.772998   1.000000
   61        4.801432   1.000000
   62        4.871523   1.000000
   63        4.921040   1.000000
   64        4.961282   1.000000
   65        4.997903   1.000000
   66        5.058250   1.000000
   67        5.072801   1.000000
   68        5.123241   1.000000
   69        5.154952   1.000000
   70        5.240118   1.000000
   71        5.260099   1.000000
   72        5.305506   1.000000
   73        5.341977   1.000000
   74        5.446246   1.000000
   75        5.492731   1.000000
   76        5.524351   1.000000
   77        5.605950   1.000000
   78        5.669825   1.000000
   79        5.738605   1.000000
   80        5.772960   1.000000
   81        5.820151   1.000000
   82        5.886569   1.000000
   83        5.916555   1.000000
   84        5.972540   1.000000
   85        6.039661   1.000000
   86        6.061809   1.000000
   87        6.110258   1.000000
   88        6.166909   1.000002
   89        6.192894   1.000006
   90        6.249511   1.000034
   91        6.272102   1.000065
   92        6.319132   1.000236
   93        6.419190   1.002413
   94        6.445472   1.004029
   95        6.477374   1.007083
   96        6.537805   1.017060
   97        6.572369   1.024828
   98        6.640086   1.035458
   99        6.720162   0.995692
  100        6.754942   0.940819
  101        6.815794   0.773462
  102        6.859075   0.607677
  103        6.914363   0.376230
  104        6.934718   0.295728
  105        7.009786   0.069018
  106        7.093930  -0.029256
  107        7.189517  -0.026578
  108        7.273368  -0.009567
  109        7.338361  -0.003063
  110        7.407628  -0.000684
  111        7.469488  -0.000142
  112        7.565729  -0.000008
  113        7.857392  -0.000000
  114        7.884289  -0.000000
  115        8.063256  -0.000000
  116        8.179264  -0.000000
  117        8.346125  -0.000000
  118        8.383959  -0.000000
  119        8.412789  -0.000000
  120        8.497279  -0.000000
 
 -0.2000000E+00  0.2000000E+00  0.1006140E-15  0.1600000E-01
    1      -47.291663   1.000000
    2      -47.222855   1.000000
    3      -47.140592   1.000000
    4      -47.113873   1.000000
    5      -47.012363   1.000000
    6      -46.847934   1.000000
    7      -23.858410   1.000000
    8      -23.745937   1.000000
    9      -23.623534   1.000000
   10      -23.543499   1.000000
   11      -23.463612   1.000000
   12      -23.385479   1.000000
   13      -23.367972   1.000000
   14      -23.349378   1.000000
   15      -23.317882   1.000000
   16      -23.285267   1.000000
   17      -23.237188   1.000000
   18      -23.176932   1.000000
   19      -23.100832   1.000000
   20      -23.078936   1.000000
   21      -23.041762   1.000000
   22      -23.023446   1.000000
   23      -22.764296   1.000000
   24      -22.699240   1.000000
   25        0.055889   1.000000
   26        1.161875   1.000000
   27        1.506739   1.000000
   28        1.842012   1.000000
   29        2.192802   1.000000
   30        2.506300   1.000000
   31        2.568518   1.000000
   32        2.725644   1.000000
   33        2.789246   1.000000
   34        2.860440   1.000000
   35        2.890604   1.000000
   36        2.930240   1.000000
   37        3.002352   1.000000
   38        3.070362   1.000000
   39        3.138409   1.000000
   40        3.174352   1.000000
   41        3.217412   1.000000
   42        3.242311   1.000000
   43        3.376230   1.000000
   44        3.436030   1.000000
   45        3.516829   1.000000
   46        3.622713   1.000000
   47        3.777816   1.000000