 running on   32 total cores
 distrk:  each k-point on   32 cores,    1 groups
 distr:  one band on    4 cores,    8 groups
 using from now: INCAR     
 vasp.5.4.4.18Apr17-6-g9f103f2a35 (build Aug 09 2018 16:20:53) complex          
  
 POSCAR found :  5 types and      29 ions
 scaLAPACK will be used

 ----------------------------------------------------------------------------- 
|                                                                             |
|  ADVICE TO THIS USER RUNNING 'VASP/VAMP'   (HEAR YOUR MASTER'S VOICE ...):  |
|                                                                             |
|      You enforced a specific xc-type in the INCAR file,                     |
|      a different type was found on the POTCAR file                          |
|          I HOPE YOU KNOW, WHAT YOU ARE  DOING                               |
|                                                                             |
 ----------------------------------------------------------------------------- 

 LDA part: xc-table for Pade appr. of Perdew
 POSCAR found :  5 types and      29 ions
 found WAVECAR, reading the header
 POSCAR, INCAR and KPOINTS ok, starting setup
 FFT: planning ...
 reading WAVECAR
 the WAVECAR file was read successfully
 entering main loop
       N       E                     dE             d eps       ncg     rms          rms(c)
DAV:   1    -0.350513982748E+03   -0.35051E+03   -0.82700E+02 15152   0.962E+01    0.786E+01
DAV:   2    -0.344595464530E+03    0.59185E+01   -0.13400E+02 21440   0.420E+01    0.365E+01
DAV:   3    -0.361823985743E+03   -0.17229E+02   -0.39831E+02 21600   0.841E+01    0.254E+01
DAV:   4    -0.347104817125E+03    0.14719E+02   -0.70831E+01 22424   0.284E+01    0.180E+01
DAV:   5    -0.338025650551E+03    0.90792E+01   -0.18177E+01 21232   0.136E+01    0.121E+01
DAV:   6    -0.335163199733E+03    0.28625E+01   -0.10762E+01 23072   0.902E+00    0.833E+00
DAV:   7    -0.334171624541E+03    0.99158E+00   -0.56915E+00 21816   0.625E+00    0.391E+00
DAV:   8    -0.334134991547E+03    0.36633E-01   -0.25536E+00 23832   0.471E+00    0.275E+00
DAV:   9    -0.334106079754E+03    0.28912E-01   -0.15142E+00 21304   0.390E+00    0.220E+00
DAV:  10    -0.334034581960E+03    0.71498E-01   -0.67462E-01 22840   0.240E+00    0.112E+00
DAV:  11    -0.334019596924E+03    0.14985E-01   -0.22629E-01 22496   0.147E+00    0.757E-01
DAV:  12    -0.334019518284E+03    0.78640E-04   -0.30840E-02 23776   0.636E-01    0.633E-01
DAV:  13    -0.334015673376E+03    0.38449E-02   -0.30553E-02 21984   0.533E-01    0.313E-01
DAV:  14    -0.334014505301E+03    0.11681E-02   -0.11312E-02 22176   0.354E-01    0.161E-01
DAV:  15    -0.334014759359E+03   -0.25406E-03   -0.81380E-03 21048   0.262E-01    0.183E-01
DAV:  16    -0.334014263096E+03    0.49626E-03   -0.21193E-03 19600   0.141E-01    0.607E-02
DAV:  17    -0.334014221710E+03    0.41386E-04   -0.59459E-04 16152   0.788E-02
   1 F= -.33401422E+03 E0= -.33401074E+03  d E =-.334014E+03
 curvature:   0.00 expect dE= 0.000E+00 dE for cont linesearch  0.000E+00
 trial: gam= 0.00000 g(F)=  0.618E+00 g(S)=  0.308E+00 ort = 0.000E+00 (trialstep = 0.100E+01)
 search vector abs. value=  0.926E+00
 bond charge predicted
       N       E                     dE             d eps       ncg     rms          rms(c)
DAV:   1    -0.335250222329E+03   -0.12360E+01   -0.12708E+02 17504   0.466E+01    0.118E+01
DAV:   2    -0.335739322285E+03   -0.48910E+00   -0.22645E+01 22592   0.205E+01    0.822E+00
DAV:   3    -0.334928369760E+03    0.81095E+00   -0.13244E+01 22376   0.108E+01    0.645E+00
DAV:   4    -0.334616818835E+03    0.31155E+00   -0.71692E+00 23320   0.885E+00    0.429E+00
DAV:   5    -0.334362995293E+03    0.25382E+00   -0.30720E+00 22336   0.575E+00    0.233E+00
DAV:   6    -0.334272670481E+03    0.90325E-01   -0.76473E-01 24808   0.272E+00    0.140E+00
DAV:   7    -0.334281195879E+03   -0.85254E-02   -0.30073E-01 23984   0.162E+00    0.118E+00
DAV:   8    -0.334274426670E+03    0.67692E-02   -0.13649E-01 24208   0.111E+00    0.813E-01
DAV:   9    -0.334275441816E+03   -0.10151E-02   -0.49666E-02 22440   0.642E-01    0.533E-01
DAV:  10    -0.334278982128E+03   -0.35403E-02   -0.27541E-02 23704   0.521E-01    0.384E-01
DAV:  11    -0.334280390554E+03   -0.14084E-02   -0.22081E-02 23176   0.441E-01    0.272E-01
DAV:  12    -0.334279974562E+03    0.41599E-03   -0.10680E-02 22672   0.291E-01    0.125E-01
DAV:  13    -0.334280107475E+03   -0.13291E-03   -0.23472E-03 22432   0.138E-01    0.675E-02
DAV:  14    -0.334280121130E+03   -0.13655E-04   -0.62706E-04 16424   0.868E-02
   2 F= -.33428012E+03 E0= -.33427736E+03  d E =-.265899E+00
 trial-energy change:   -0.265899  1 .order   -0.251783   -0.926493    0.422926
 step:   0.6998(harm=  0.6866)  dis= 0.03107  next Energy=  -334.343226 (dE=-0.329E+00)
 bond charge predicted
       N       E                     dE             d eps       ncg     rms          rms(c)
DAV:   1    -0.334427109615E+03   -0.14700E+00   -0.11592E+01 17768   0.141E+01    0.361E+00
DAV:   2    -0.334473074120E+03   -0.45965E-01   -0.19614E+00 24504   0.592E+00    0.286E+00
DAV:   3    -0.334426580262E+03    0.46494E-01   -0.16921E+00 22336   0.410E+00    0.214E+00
DAV:   4    -0.334376904270E+03    0.49676E-01   -0.57380E-01 23784   0.245E+00    0.124E+00
DAV:   5    -0.334348111467E+03    0.28793E-01   -0.25735E-01 22232   0.165E+00    0.637E-01
DAV:   6    -0.334342903858E+03    0.52076E-02   -0.78469E-02 23304   0.893E-01    0.449E-01
DAV:   7    -0.334342861346E+03    0.42511E-04   -0.31090E-02 24672   0.514E-01    0.352E-01
DAV:   8    -0.334342229445E+03    0.63190E-03   -0.12314E-02 21672   0.339E-01    0.246E-01
DAV:   9    -0.334342258864E+03   -0.29419E-04   -0.47656E-03 21240   0.194E-01    0.168E-01
DAV:  10    -0.334342593216E+03   -0.33435E-03   -0.29683E-03 20840   0.168E-01    0.130E-01
DAV:  11    -0.334342659625E+03   -0.66408E-04   -0.25666E-03 21432   0.151E-01    0.858E-02
DAV:  12    -0.334342606280E+03    0.53344E-04   -0.99642E-04 18776   0.967E-02
   3 F= -.33434261E+03 E0= -.33433991E+03  d E =-.328385E+00
 curvature:  -0.34 expect dE=-0.271E+00 dE for cont linesearch -0.106E-04
 trial: gam= 0.84936 g(F)=  0.276E+00 g(S)=  0.516E+00 ort = 0.535E-02 (trialstep = 0.593E+00)
 search vector abs. value=  0.147E+01
 bond charge predicted
       N       E                     dE             d eps       ncg     rms          rms(c)
DAV:   1    -0.334441169152E+03   -0.98510E-01   -0.65813E+01 15120   0.278E+01    0.356E+00
DAV:   2    -0.334761868612E+03   -0.32070E+00   -0.51233E+00 21400   0.897E+00    0.295E+00
DAV:   3    -0.334745915969E+03    0.15953E-01   -0.18677E+00 22616   0.456E+00    0.237E+00
DAV:   4    -0.334671543354E+03    0.74373E-01   -0.53042E-01 22600   0.240E+00    0.135E+00
DAV:   5    -0.334653258309E+03    0.18285E-01   -0.21243E-01 22192   0.146E+00    0.866E-01
DAV:   6    -0.334652488896E+03    0.76941E-03   -0.14150E-01 23520   0.117E+00    0.659E-01
DAV:   7    -0.334645949172E+03    0.65397E-02   -0.57507E-02 24856   0.799E-01    0.373E-01
DAV:   8    -0.334645185831E+03    0.76334E-03   -0.19006E-02 22816   0.412E-01    0.289E-01
DAV:   9    -0.334644890934E+03    0.29490E-03   -0.65518E-03 21824   0.224E-01    0.212E-01
DAV:  10    -0.334644982488E+03   -0.91554E-04   -0.20156E-03 19776   0.141E-01    0.155E-01
DAV:  11    -0.334645212742E+03   -0.23025E-03   -0.26759E-03 19568   0.164E-01    0.116E-01
DAV:  12    -0.334645073203E+03    0.13954E-03   -0.17493E-03 19360   0.137E-01    0.444E-02
DAV:  13    -0.334645025741E+03    0.47462E-04   -0.23624E-04 10592   0.726E-02
   4 F= -.33464503E+03 E0= -.33464221E+03  d E =-.302419E+00
 trial-energy change:   -0.302419  1 .order   -0.303687   -0.472135   -0.135239
 step:   0.8382(harm=  0.8304)  dis= 0.05564  next Energy=  -334.672975 (dE=-0.330E+00)
 bond charge predicted
       N       E                     dE             d eps       ncg     rms          rms(c)
DAV:   1    -0.334642925668E+03    0.21475E-02   -0.11302E+01 15592   0.115E+01    0.141E+00
DAV:   2    -0.334693800896E+03   -0.50875E-01   -0.84090E-01 22000   0.365E+00    0.119E+00
DAV:   3    -0.334689341280E+03    0.44596E-02   -0.28626E-01 22104   0.173E+00    0.943E-01
DAV:   4    -0.334678234990E+03    0.11106E-01   -0.91846E-02 22832   0.971E-01    0.544E-01
DAV:   5    -0.334675541594E+03    0.26934E-02   -0.37230E-02 22296   0.607E-01    0.357E-01
DAV:   6    -0.334675175437E+03    0.36616E-03   -0.22838E-02 23784   0.469E-01    0.258E-01
DAV:   7    -0.334674208001E+03    0.96744E-03   -0.88314E-03 24832   0.314E-01    0.152E-01
DAV:   8    -0.334674076354E+03    0.13165E-03   -0.30706E-03 20648   0.164E-01    0.117E-01
DAV:   9    -0.334674030602E+03    0.45752E-04   -0.10081E-03 18192   0.911E-02    0.852E-02
DAV:  10    -0.334674049480E+03   -0.18878E-04   -0.32496E-04 12704   0.703E-02
   5 F= -.33467405E+03 E0= -.33467093E+03  d E =-.331443E+00
 curvature:  -0.76 expect dE=-0.857E-01 dE for cont linesearch -0.465E-04
 trial: gam= 0.05474 g(F)=  0.108E+00 g(S)=  0.402E-02 ort = 0.945E-02 (trialstep = 0.642E+00)
 search vector abs. value=  0.117E+00
 bond charge predicted
       N       E                     dE             d eps       ncg     rms          rms(c)
DAV:   1    -0.334708912200E+03   -0.34882E-01   -0.59316E+00 15280   0.861E+00    0.110E+00
DAV:   2    -0.334745623951E+03   -0.36712E-01   -0.50435E-01 22256   0.279E+00    0.100E+00
DAV:   3    -0.334739296067E+03    0.63279E-02   -0.18931E-01 22728   0.136E+00    0.710E-01
DAV:   4    -0.334733732762E+03    0.55633E-02   -0.50050E-02 22912   0.752E-01    0.409E-01
DAV:   5    -0.334732330428E+03    0.14023E-02   -0.30111E-02 22256   0.531E-01    0.276E-01
DAV:   6    -0.334731561645E+03    0.76878E-03   -0.12361E-02 23944   0.346E-01    0.178E-01
DAV:   7    -0.334731222579E+03    0.33907E-03   -0.52730E-03 22816   0.222E-01    0.107E-01
DAV:   8    -0.334731070524E+03    0.15206E-03   -0.10583E-03 18224   0.102E-01    0.622E-02
DAV:   9    -0.334731077301E+03   -0.67778E-05   -0.14990E-04  9992   0.559E-02
   6 F= -.33473108E+03 E0= -.33472825E+03  d E =-.570278E-01
 trial-energy change:   -0.057028  1 .order   -0.057447   -0.072222   -0.042672
 step:   1.8748(harm=  1.5683)  dis= 0.04065  next Energy=  -334.769104 (dE=-0.951E-01)
 bond charge predicted
       N       E                     dE             d eps       ncg     rms          rms(c)
DAV:   1    -0.334677115900E+03    0.53955E-01   -0.21927E+01 15216   0.166E+01    0.210E+00
DAV:   2    -0.334810152667E+03   -0.13304E+00   -0.18367E+00 21904   0.529E+00    0.189E+00
DAV:   3    -0.334791776081E+03    0.18377E-01   -0.71522E-01 23160   0.268E+00    0.137E+00
DAV:   4    -0.334769908227E+03    0.21868E-01   -0.18030E-01 22616   0.142E+00    0.782E-01
DAV:   5    -0.334764346783E+03    0.55614E-02   -0.10670E-01 22224   0.993E-01    0.508E-01
DAV:   6    -0.334761543504E+03    0.28033E-02   -0.43001E-02 23920   0.642E-01    0.319E-01
DAV:   7    -0.334760681634E+03    0.86187E-03   -0.18361E-02 24336   0.408E-01    0.211E-01
DAV:   8    -0.334760072383E+03    0.60925E-03   -0.43426E-03 20648   0.195E-01    0.120E-01
DAV:   9    -0.334760126223E+03   -0.53840E-04   -0.81955E-04 17472   0.873E-02
   7 F= -.33476013E+03 E0= -.33475795E+03  d E =-.860767E-01
 curvature:  -0.73 expect dE=-0.154E+00 dE for cont linesearch -0.213E-02
 trial: gam= 2.05471 g(F)=  0.282E-01 g(S)=  0.183E+00 ort =-0.185E-01 (trialstep = 0.165E+00)
 search vector abs. value=  0.631E+00
 bond charge predicted
       N       E                     dE             d eps       ncg     rms          rms(c)
DAV:   1    -0.334781889493E+03   -0.21817E-01   -0.20132E+00 15120   0.538E+00    0.983E-01
DAV:   2    -0.334789267834E+03   -0.73783E-02   -0.21177E-01 21744   0.178E+00    0.600E-01
DAV:   3    -0.334791209769E+03   -0.19419E-02   -0.10278E-01 21448   0.104E+00    0.641E-01
DAV:   4    -0.334785394494E+03    0.58153E-02   -0.48427E-02 21808   0.698E-01    0.319E-01
DAV:   5    -0.334783963985E+03    0.14305E-02   -0.18175E-02 22288   0.417E-01    0.184E-01
DAV:   6    -0.334783433023E+03    0.53096E-03   -0.61597E-03 22904   0.242E-01    0.847E-02
DAV:   7    -0.334783405598E+03    0.27426E-04   -0.14831E-03 21152   0.122E-01    0.615E-02
DAV:   8    -0.334783396691E+03    0.89071E-05   -0.30713E-04 11392   0.664E-02
   8 F= -.33478340E+03 E0= -.33478140E+03  d E =-.232705E-01
 trial-energy change:   -0.023270  1 .order   -0.023193   -0.028633   -0.017753
 step:   0.4352(harm=  0.4352)  dis= 0.02235  next Energy=  -334.797805 (dE=-0.377E-01)
 bond charge predicted
       N       E                     dE             d eps       ncg     rms          rms(c)
DAV:   1    -0.334790572736E+03   -0.71671E-02   -0.53544E+00 15120   0.877E+00    0.158E+00
DAV:   2    -0.334810920931E+03   -0.20348E-01   -0.55860E-01 21624   0.292E+00    0.955E-01
DAV:   3    -0.334814907635E+03   -0.39867E-02   -0.26539E-01 21448   0.168E+00    0.100E+00
DAV:   4    -0.334800790436E+03    0.14117E-01   -0.12603E-01 21688   0.114E+00    0.496E-01
DAV:   5    -0.334797487436E+03    0.33030E-02   -0.46244E-02 22320   0.663E-01    0.292E-01
DAV:   6    -0.334796199534E+03    0.12879E-02   -0.15011E-02 24168   0.376E-01    0.143E-01
DAV:   7    -0.334796218927E+03   -0.19393E-04   -0.38703E-03 23384   0.191E-01    0.115E-01
DAV:   8    -0.334796221161E+03   -0.22345E-05   -0.12083E-03 18760   0.104E-01    0.870E-02
DAV:   9    -0.334796272239E+03   -0.51078E-04   -0.48530E-04 14792   0.737E-02
   9 F= -.33479627E+03 E0= -.33479454E+03  d E =-.361460E-01
 curvature:  -0.79 expect dE=-0.485E-01 dE for cont linesearch -0.408E-04
 trial: gam= 0.00319 g(F)=  0.568E-01 g(S)=  0.445E-02 ort =-0.570E-02 (trialstep = 0.219E+00)
 search vector abs. value=  0.612E-01
 bond charge predicted
       N       E                     dE             d eps       ncg     rms          rms(c)
DAV:   1    -0.334807397619E+03   -0.11176E-01   -0.41451E-01 15464   0.221E+00    0.324E-01
DAV:   2    -0.334810166716E+03   -0.27691E-02   -0.40452E-02 21808   0.779E-01    0.338E-01
DAV:   3    -0.334808660737E+03    0.15060E-02   -0.18974E-02 21960   0.418E-01    0.179E-01
DAV:   4    -0.334808394403E+03    0.26633E-03   -0.40262E-03 19832   0.215E-01    0.111E-01
DAV:   5    -0.334808250823E+03    0.14358E-03   -0.23781E-03 20320   0.159E-01    0.640E-02
DAV:   6    -0.334808204170E+03    0.46653E-04   -0.79682E-04 17072   0.921E-02
  10 F= -.33480820E+03 E0= -.33480646E+03  d E =-.119319E-01
 ZBRENT: can't locate minimum, use default step
 trial-energy change:   -0.011932  1 .order   -0.011958   -0.013419   -0.010498
 step:   0.8773(harm=  1.0076)  dis= 0.00968  next Energy=  -334.827097 (dE=-0.308E-01)
 bond charge predicted
       N       E                     dE             d eps       ncg     rms          rms(c)
DAV:   1    -0.334820083885E+03   -0.11833E-01   -0.37207E+00 15568   0.661E+00    0.951E-01
DAV:   2    -0.334839163462E+03   -0.19080E-01   -0.31348E-01 22200   0.215E+00    0.854E-01
DAV:   3    -0.334832420459E+03    0.67430E-02   -0.13562E-01 22320   0.110E+00    0.568E-01
DAV:   4    -0.334829534851E+03    0.28856E-02   -0.39150E-02 22912   0.644E-01    0.351E-01
DAV:   5    -0.334828136532E+03    0.13983E-02   -0.22312E-02 22176   0.480E-01    0.201E-01
DAV:   6    -0.334827511839E+03    0.62469E-03   -0.74667E-03 23368   0.273E-01    0.117E-01
DAV:   7    -0.334827490995E+03    0.20844E-04   -0.24681E-03 20432   0.148E-01    0.923E-02
DAV:   8    -0.334827435372E+03    0.55623E-04   -0.75938E-04 16504   0.891E-02
  11 F= -.33482744E+03 E0= -.33482562E+03  d E =-.311631E-01
 curvature:  -0.49 expect dE=-0.146E-01 dE for cont linesearch -0.879E-03
 trial: gam= 0.31607 g(F)=  0.118E-01 g(S)=  0.181E-01 ort = 0.105E-01 (trialstep = 0.351E+00)
 search vector abs. value=  0.426E-01
 bond charge predicted
       N       E                     dE             d eps       ncg     rms          rms(c)
DAV:   1    -0.334840086259E+03   -0.12595E-01   -0.68287E-01 15920   0.336E+00    0.877E-01
DAV:   2    -0.334840142146E+03   -0.55887E-04   -0.89738E-02 23552   0.123E+00    0.526E-01
DAV:   3    -0.334841244354E+03   -0.11022E-02   -0.79508E-02 22344   0.860E-01    0.529E-01
DAV:   4    -0.334836640637E+03    0.46037E-02   -0.33756E-02 22664   0.579E-01    0.226E-01
DAV:   5    -0.334836085299E+03    0.55534E-03   -0.11676E-02 22400   0.333E-01    0.162E-01
DAV:   6    -0.334835648227E+03    0.43707E-03   -0.35053E-03 20952   0.191E-01    0.749E-02
DAV:   7    -0.334835674797E+03   -0.26570E-04   -0.10510E-03 18608   0.103E-01    0.664E-02
DAV:   8    -0.334835636977E+03    0.37820E-04   -0.40694E-04 13152   0.719E-02
  12 F= -.33483564E+03 E0= -.33483387E+03  d E =-.820161E-02
 trial-energy change:   -0.008202  1 .order   -0.008273   -0.011640   -0.004905
 step:   0.6065(harm=  0.6065)  dis= 0.00576  next Energy=  -334.837494 (dE=-0.101E-01)
 bond charge predicted
       N       E                     dE             d eps       ncg     rms          rms(c)
DAV:   1    -0.334839242002E+03   -0.35672E-02   -0.36233E-01 15952   0.245E+00    0.614E-01
DAV:   2    -0.334839108491E+03    0.13351E-03   -0.43512E-02 23264   0.879E-01    0.351E-01
DAV:   3    -0.334839852189E+03   -0.74370E-03   -0.37551E-02 22304   0.597E-01    0.366E-01
DAV:   4    -0.334837617428E+03    0.22348E-02   -0.17084E-02 22600   0.413E-01    0.163E-01
DAV:   5    -0.334837336358E+03    0.28107E-03   -0.59825E-03 21216   0.235E-01    0.117E-01
DAV:   6    -0.334837141602E+03    0.19476E-03   -0.16419E-03 19696   0.126E-01    0.581E-02
DAV:   7    -0.334837159999E+03   -0.18397E-04   -0.44275E-04 14168   0.721E-02
  13 F= -.33483716E+03 E0= -.33483540E+03  d E =-.972463E-02
 curvature:  -0.39 expect dE=-0.580E-02 dE for cont linesearch -0.253E-05
 trial: gam= 0.64032 g(F)=  0.697E-02 g(S)=  0.793E-02 ort =-0.526E-03 (trialstep = 0.402E+00)
 search vector abs. value=  0.317E-01
 bond charge predicted
       N       E                     dE             d eps       ncg     rms          rms(c)
DAV:   1    -0.334840403782E+03   -0.32622E-02   -0.56967E-01 16128   0.240E+00    0.223E-01
DAV:   2    -0.334843129679E+03   -0.27259E-02   -0.33626E-02 24208   0.730E-01    0.236E-01
DAV:   3    -0.334842749032E+03    0.38065E-03   -0.84669E-03 23752   0.270E-01    0.168E-01
DAV:   4    -0.334842548929E+03    0.20010E-03   -0.15933E-03 19944   0.129E-01    0.117E-01
DAV:   5    -0.334842535385E+03    0.13544E-04   -0.90221E-04 16616   0.958E-02
  14 F= -.33484254E+03 E0= -.33484088E+03  d E =-.537539E-02
 ZBRENT: can't locate minimum, use default step
 trial-energy change:   -0.005375  1 .order   -0.005346   -0.005856   -0.004836
 step:   1.6081(harm=  2.3092)  dis= 0.01756  next Energy=  -334.853978 (dE=-0.168E-01)
 bond charge predicted
       N       E                     dE             d eps       ncg     rms          rms(c)
DAV:   1    -0.334832712285E+03    0.98366E-02   -0.51133E+00 16256   0.718E+00    0.669E-01
DAV:   2    -0.334856387927E+03   -0.23676E-01   -0.28749E-01 24224   0.214E+00    0.666E-01
DAV:   3    -0.334853210456E+03    0.31775E-02   -0.74450E-02 23768   0.798E-01    0.463E-01
DAV:   4    -0.334851375481E+03    0.18350E-02   -0.15467E-02 23560   0.401E-01    0.297E-01
DAV:   5    -0.334851273549E+03    0.10193E-03   -0.85098E-03 21824   0.279E-01    0.237E-01
DAV:   6    -0.334850620660E+03    0.65289E-03   -0.50483E-03 22648   0.243E-01    0.105E-01
DAV:   7    -0.334850466420E+03    0.15424E-03   -0.15115E-03 22000   0.134E-01    0.576E-02
DAV:   8    -0.334850463483E+03    0.29376E-05   -0.59334E-04 15368   0.756E-02
  15 F= -.33485046E+03 E0= -.33484890E+03  d E =-.133035E-01
 curvature:  -2.17 expect dE=-0.263E-01 dE for cont linesearch -0.201E-03
 trial: gam= 0.37174 g(F)=  0.114E-01 g(S)=  0.707E-03 ort = 0.171E-02 (trialstep = 0.643E+00)
 search vector abs. value=  0.178E-01
 bond charge predicted
       N       E                     dE             d eps       ncg     rms          rms(c)
DAV:   1    -0.334853387120E+03   -0.29207E-02   -0.97879E-01 15624   0.349E+00    0.401E-01
DAV:   2    -0.334857959440E+03   -0.45723E-02   -0.72585E-02 20872   0.104E+00    0.260E-01
DAV:   3    -0.334858056135E+03   -0.96696E-04   -0.18786E-02 22160   0.472E-01    0.249E-01
DAV:   4    -0.334857188914E+03    0.86722E-03   -0.70399E-03 21152   0.253E-01    0.108E-01
DAV:   5    -0.334857192900E+03   -0.39860E-05   -0.24432E-03 21472   0.156E-01    0.914E-02
DAV:   6    -0.334857100629E+03    0.92271E-04   -0.15868E-03 19688   0.119E-01    0.488E-02
DAV:   7    -0.334857067074E+03    0.33555E-04   -0.28916E-04 11368   0.761E-02
  16 F= -.33485707E+03 E0= -.33485562E+03  d E =-.660359E-02
 trial-energy change:   -0.006604  1 .order   -0.006586   -0.008208   -0.004965
 step:   1.6279(harm=  1.6279)  dis= 0.01286  next Energy=  -334.860850 (dE=-0.104E-01)
 bond charge predicted
       N       E                     dE             d eps       ncg     rms          rms(c)
DAV:   1    -0.334852065207E+03    0.50354E-02   -0.22910E+00 15624   0.534E+00    0.617E-01
DAV:   2    -0.334862613937E+03   -0.10549E-01   -0.16780E-01 20872   0.158E+00    0.394E-01
DAV:   3    -0.334863080941E+03   -0.46700E-03   -0.43757E-02 22136   0.722E-01    0.390E-01
DAV:   4    -0.334860992337E+03    0.20886E-02   -0.17001E-02 22512   0.397E-01    0.172E-01
DAV:   5    -0.334861053586E+03   -0.61249E-04   -0.59470E-03 22264   0.247E-01    0.157E-01
DAV:   6    -0.334860744679E+03    0.30891E-03   -0.40804E-03 22200   0.195E-01    0.848E-02
DAV:   7    -0.334860673547E+03    0.71132E-04   -0.12860E-03 19344   0.118E-01    0.570E-02
DAV:   8    -0.334860647007E+03    0.26540E-04   -0.31362E-04 12248   0.645E-02
  17 F= -.33486065E+03 E0= -.33485937E+03  d E =-.101835E-01
 curvature:  -1.13 expect dE=-0.184E-01 dE for cont linesearch -0.172E-05
 trial: gam= 1.44412 g(F)=  0.225E-02 g(S)=  0.140E-01 ort =-0.164E-03 (trialstep = 0.283E+00)
 search vector abs. value=  0.528E-01
 bond charge predicted
       N       E                     dE             d eps       ncg     rms          rms(c)
DAV:   1    -0.334862988553E+03   -0.23150E-02   -0.54921E-01 15120   0.275E+00    0.473E-01
DAV:   2    -0.334865646064E+03   -0.26575E-02   -0.55998E-02 22440   0.912E-01    0.324E-01
DAV:   3    -0.334865683773E+03   -0.37709E-04   -0.25787E-02 21840   0.495E-01    0.293E-01
DAV:   4    -0.334864443749E+03    0.12400E-02   -0.98550E-03 22024   0.326E-01    0.149E-01
DAV:   5    -0.334864175483E+03    0.26827E-03   -0.45465E-03 21648   0.211E-01    0.905E-02
DAV:   6    -0.334864010866E+03    0.16462E-03   -0.11926E-03 18248   0.113E-01    0.353E-02
DAV:   7    -0.334864005041E+03    0.58247E-05   -0.20082E-04 10152   0.627E-02
  18 F= -.33486401E+03 E0= -.33486283E+03  d E =-.335803E-02
 trial-energy change:   -0.003358  1 .order   -0.003276   -0.004515   -0.002036
 step:   0.5153(harm=  0.5153)  dis= 0.00740  next Energy=  -334.864759 (dE=-0.411E-02)
 bond charge predicted
       N       E                     dE             d eps       ncg     rms          rms(c)
DAV:   1    -0.334863936879E+03    0.73987E-04   -0.37035E-01 15120   0.226E+00    0.375E-01
DAV:   2    -0.334865705640E+03   -0.17688E-02   -0.35909E-02 21704   0.737E-01    0.248E-01
DAV:   3    -0.334865809036E+03   -0.10340E-03   -0.16194E-02 21744   0.395E-01    0.228E-01
DAV:   4    -0.334865012226E+03    0.79681E-03   -0.61813E-03 20856   0.257E-01    0.111E-01
DAV:   5    -0.334864863882E+03    0.14834E-03   -0.27029E-03 19936   0.163E-01    0.726E-02
DAV:   6    -0.334864776462E+03    0.87420E-04   -0.81561E-04 16856   0.931E-02
  19 F= -.33486478E+03 E0= -.33486369E+03  d E =-.412946E-02
 curvature:  -0.85 expect dE=-0.369E-02 dE for cont linesearch -0.359E-05
 trial: gam= 0.24165 g(F)=  0.410E-02 g(S)=  0.229E-03 ort =-0.472E-03 (trialstep = 0.329E+00)
 search vector abs. value=  0.719E-02
 bond charge predicted
       N       E                     dE             d eps       ncg     rms          rms(c)
DAV:   1    -0.334865687008E+03   -0.82313E-03   -0.95531E-02 16160   0.101E+00    0.875E-02
DAV:   2    -0.334866205273E+03   -0.51826E-03   -0.54865E-03 24448   0.317E-01    0.102E-01
DAV:   3    -0.334866098499E+03    0.10677E-03   -0.16474E-03 18184   0.123E-01    0.577E-02
DAV:   4    -0.334866058013E+03    0.40486E-04   -0.18053E-04 10808   0.568E-02
  20 F= -.33486606E+03 E0= -.33486500E+03  d E =-.128155E-02
 ZBRENT: can't locate minimum, use default step
 trial-energy change:   -0.001282  1 .order   -0.001303   -0.001390   -0.001217
 step:   1.3175(harm=  2.6493)  dis= 0.00720  next Energy=  -334.870365 (dE=-0.559E-02)
 bond charge predicted
       N       E                     dE             d eps       ncg     rms          rms(c)
DAV:   1    -0.334865206460E+03    0.89204E-03   -0.85597E-01 16128   0.302E+00    0.235E-01
DAV:   2    -0.334868824862E+03   -0.36184E-02   -0.42708E-02 24296   0.883E-01    0.209E-01
DAV:   3    -0.334868798449E+03    0.26413E-04   -0.59818E-03 23832   0.233E-01    0.155E-01
DAV:   4    -0.334868583430E+03    0.21502E-03   -0.17856E-03 19432   0.128E-01    0.115E-01
DAV:   5    -0.334868586655E+03   -0.32249E-05   -0.77574E-04 16400   0.892E-02
  21 F= -.33486859E+03 E0= -.33486762E+03  d E =-.381019E-02
 curvature:  -1.51 expect dE=-0.259E-02 dE for cont linesearch -0.539E-03
 trial: gam= 0.02828 g(F)=  0.873E-03 g(S)=  0.841E-03 ort = 0.160E-02 (trialstep = 0.527E+00)
 search vector abs. value=  0.181E-02
 bond charge predicted
       N       E                     dE             d eps       ncg     rms          rms(c)
DAV:   1    -0.334869873151E+03   -0.12897E-02   -0.70292E-02 19464   0.115E+00    0.326E-01
DAV:   2    -0.334870071315E+03   -0.19816E-03   -0.15607E-02 24440   0.502E-01    0.248E-01
DAV:   3    -0.334869550094E+03    0.52122E-03   -0.13129E-02 20328   0.333E-01    0.183E-01
DAV:   4    -0.334869228466E+03    0.32163E-03   -0.44223E-03 21064   0.209E-01    0.123E-01
DAV:   5    -0.334869043839E+03    0.18463E-03   -0.25552E-03 19344   0.153E-01    0.703E-02
DAV:   6    -0.334868959425E+03    0.84415E-04   -0.50132E-04 13360   0.875E-02
  22 F= -.33486896E+03 E0= -.33486800E+03  d E =-.372769E-03
 trial-energy change:   -0.000373  1 .order   -0.000528   -0.000927   -0.000128
 step:   0.6118(harm=  0.6118)  dis= 0.00108  next Energy=  -334.869125 (dE=-0.538E-03)
 bond charge predicted
       N       E                     dE             d eps       ncg     rms          rms(c)
DAV:   1    -0.334868994914E+03    0.48925E-04   -0.19419E-03 19632   0.197E-01    0.539E-02
DAV:   2    -0.334869086545E+03   -0.91631E-04   -0.93750E-04 16568   0.110E-01
  23 F= -.33486909E+03 E0= -.33486817E+03  d E =-.499890E-03
 curvature:  -0.31 expect dE=-0.216E-03 dE for cont linesearch -0.144E-05
 trial: gam= 0.36759 g(F)=  0.413E-03 g(S)=  0.272E-03 ort = 0.911E-04 (trialstep = 0.544E+00)
 search vector abs. value=  0.997E-03
 reached required accuracy - stopping structural energy minimisation
 writing wavefunctions
VASP is done!
