<?xml version="1.0" encoding="ISO-8859-1"?>
<modeling>
 <generator>
  <i name="program" type="string">vasp </i>
  <i name="version" type="string">5.4.4.18Apr17-6-g9f103f2a35  </i>
  <i name="subversion" type="string">(build Aug 09 2018 16:20:53) complex            parallel </i>
  <i name="platform" type="string">LinuxIFC </i>
  <i name="date" type="string">2020 04 12 </i>
  <i name="time" type="string">22:06:00 </i>
 </generator>
 <incar>
  <i type="string" name="SYSTEM"> SQS with 1 vacancy for VFE and VRV</i>
  <i type="string" name="PREC">normal</i>
  <i type="int" name="IALGO">    38</i>
  <i type="int" name="ICHARG">     2</i>
  <i type="int" name="IBRION">     2</i>
  <i type="int" name="NSW">    50</i>
  <i type="int" name="ISIF">     3</i>
  <i type="int" name="ISYM">     0</i>
  <i name="ENCUT">    600.00000000</i>
  <i type="string" name="LREAL"> Auto</i>
  <i type="int" name="ISMEAR">     1</i>
  <i name="SIGMA">      0.20000000</i>
  <v type="int" name="KPOINT_BSE">    -1     0     0     0</v>
  <i type="string" name="GGA"> PS</i>
 </incar>
 <structure name="primitive_cell" >
  <crystal>
   <varray name="basis" >
    <v>      -3.19000000      -3.19000000      -3.19000000 </v>
    <v>       1.59500000       1.59500000      -7.97500000 </v>
    <v>       7.97500000      -7.97500000      -1.59500000 </v>
   </varray>
   <i name="volume">    486.92638500 </i>
   <varray name="rec_basis" >
    <v>      -0.13584117      -0.12539185      -0.05224660 </v>
    <v>       0.04179728       0.06269592      -0.10449321 </v>
    <v>       0.06269592      -0.06269592       0.00000000 </v>
   </varray>
  </crystal>
  <varray name="positions" >
   <v>      -0.03333333      -0.06666667       0.40000000 </v>
   <v>       0.30000000      -0.40000000       0.40000000 </v>
   <v>      -0.10000000      -0.20000000       0.20000000 </v>
   <v>       0.06666667       0.13333333       0.20000000 </v>
   <v>       0.46666667      -0.06666667       0.40000000 </v>
   <v>       0.03333333       0.06666667      -0.40000000 </v>
   <v>      -0.36666667       0.26666667       0.40000000 </v>
   <v>       0.40000000      -0.20000000       0.20000000 </v>
   <v>      -0.20000000      -0.40000000       0.40000000 </v>
   <v>      -0.43333333       0.13333333       0.20000000 </v>
   <v>       0.36666667      -0.26666667      -0.40000000 </v>
   <v>       0.13333333       0.26666667       0.40000000 </v>
   <v>      -0.46666667       0.06666667      -0.40000000 </v>
   <v>       0.23333333       0.46666667       0.20000000 </v>
   <v>       0.20000000       0.40000000      -0.40000000 </v>
   <v>       0.00000000       0.00000000       0.00000000 </v>
   <v>      -0.06666667      -0.13333333      -0.20000000 </v>
   <v>      -0.30000000       0.40000000      -0.40000000 </v>
   <v>      -0.26666667       0.46666667       0.20000000 </v>
   <v>       0.33333333      -0.33333333       0.00000000 </v>
   <v>       0.43333333      -0.13333333      -0.20000000 </v>
   <v>      -0.50000000       0.00000000       0.00000000 </v>
   <v>       0.26666667      -0.46666667      -0.20000000 </v>
   <v>      -0.33333333       0.33333333       0.00000000 </v>
   <v>      -0.40000000       0.20000000      -0.20000000 </v>
   <v>      -0.16666667      -0.33333333       0.00000000 </v>
   <v>      -0.23333333      -0.46666667      -0.20000000 </v>
   <v>       0.16666667       0.33333333       0.00000000 </v>
   <v>       0.10000000       0.20000000      -0.20000000 </v>
  </varray>
 </structure>
 <varray name="primitive_index" >
  <v type="int" >        1 </v>
  <v type="int" >       18 </v>
  <v type="int" >        7 </v>
  <v type="int" >       23 </v>
  <v type="int" >       19 </v>
  <v type="int" >        6 </v>
  <v type="int" >        2 </v>
  <v type="int" >       16 </v>
  <v type="int" >        8 </v>
  <v type="int" >       15 </v>
  <v type="int" >       11 </v>
  <v type="int" >       12 </v>
  <v type="int" >       27 </v>
  <v type="int" >       29 </v>
  <v type="int" >       22 </v>
  <v type="int" >        4 </v>
  <v type="int" >       14 </v>
  <v type="int" >       25 </v>
  <v type="int" >        9 </v>
  <v type="int" >       28 </v>
  <v type="int" >       17 </v>
  <v type="int" >        3 </v>
  <v type="int" >       21 </v>
  <v type="int" >       10 </v>
  <v type="int" >       26 </v>
  <v type="int" >       13 </v>
  <v type="int" >       24 </v>
  <v type="int" >       20 </v>
  <v type="int" >        5 </v>
 </varray>
 <kpoints>
  <generation param="Gamma">
   <v type="int" name="divisions">       5        5        5 </v>
   <v name="usershift">      0.00000000       0.00000000       0.00000000 </v>
   <v name="genvec1">      0.20000000      -0.00000000      -0.00000000 </v>
   <v name="genvec2">      0.00000000       0.20000000       0.00000000 </v>
   <v name="genvec3">      0.00000000       0.00000000       0.20000000 </v>
   <v name="shift">      0.00000000       0.00000000       0.00000000 </v>
  </generation>
  <varray name="kpointlist" >
   <v>       0.00000000       0.00000000       0.00000000 </v>
   <v>       0.20000000      -0.00000000       0.00000000 </v>
   <v>       0.40000000      -0.00000000       0.00000000 </v>
   <v>       0.00000000       0.20000000       0.00000000 </v>
   <v>       0.20000000       0.20000000      -0.00000000 </v>
   <v>       0.40000000       0.20000000      -0.00000000 </v>
   <v>      -0.40000000       0.20000000      -0.00000000 </v>
   <v>      -0.20000000       0.20000000       0.00000000 </v>
   <v>       0.00000000       0.40000000       0.00000000 </v>
   <v>       0.20000000       0.40000000       0.00000000 </v>
   <v>       0.40000000       0.40000000      -0.00000000 </v>
   <v>      -0.40000000       0.40000000       0.00000000 </v>
   <v>      -0.20000000       0.40000000       0.00000000 </v>
   <v>       0.00000000       0.00000000       0.20000000 </v>
   <v>       0.20000000      -0.00000000       0.20000000 </v>
   <v>       0.40000000       0.00000000       0.20000000 </v>
   <v>      -0.40000000       0.00000000       0.20000000 </v>
   <v>      -0.20000000       0.00000000       0.20000000 </v>
   <v>       0.00000000       0.20000000       0.20000000 </v>
   <v>       0.20000000       0.20000000       0.20000000 </v>
   <v>       0.40000000       0.20000000       0.20000000 </v>
   <v>      -0.40000000       0.20000000       0.20000000 </v>
   <v>      -0.20000000       0.20000000       0.20000000 </v>
   <v>       0.00000000       0.40000000       0.20000000 </v>
   <v>       0.20000000       0.40000000       0.20000000 </v>
   <v>       0.40000000       0.40000000       0.20000000 </v>
   <v>      -0.40000000       0.40000000       0.20000000 </v>
   <v>      -0.20000000       0.40000000       0.20000000 </v>
   <v>       0.00000000      -0.40000000       0.20000000 </v>
   <v>       0.20000000      -0.40000000       0.20000000 </v>
   <v>       0.40000000      -0.40000000       0.20000000 </v>
   <v>      -0.40000000      -0.40000000       0.20000000 </v>
   <v>      -0.20000000      -0.40000000       0.20000000 </v>
   <v>       0.00000000      -0.20000000       0.20000000 </v>
   <v>       0.20000000      -0.20000000       0.20000000 </v>
   <v>       0.40000000      -0.20000000       0.20000000 </v>
   <v>      -0.40000000      -0.20000000       0.20000000 </v>
   <v>      -0.20000000      -0.20000000       0.20000000 </v>
   <v>       0.00000000       0.00000000       0.40000000 </v>
   <v>       0.20000000      -0.00000000       0.40000000 </v>
   <v>       0.40000000      -0.00000000       0.40000000 </v>
   <v>      -0.40000000       0.00000000       0.40000000 </v>
   <v>      -0.20000000       0.00000000       0.40000000 </v>
   <v>      -0.00000000       0.20000000       0.40000000 </v>
   <v>       0.20000000       0.20000000       0.40000000 </v>
   <v>       0.40000000       0.20000000       0.40000000 </v>
   <v>      -0.40000000       0.20000000       0.40000000 </v>
   <v>      -0.20000000       0.20000000       0.40000000 </v>
   <v>       0.00000000       0.40000000       0.40000000 </v>
   <v>       0.20000000       0.40000000       0.40000000 </v>
   <v>       0.40000000       0.40000000       0.40000000 </v>
   <v>      -0.40000000       0.40000000       0.40000000 </v>
   <v>      -0.20000000       0.40000000       0.40000000 </v>
   <v>       0.00000000      -0.40000000       0.40000000 </v>
   <v>       0.20000000      -0.40000000       0.40000000 </v>
   <v>       0.40000000      -0.40000000       0.40000000 </v>
   <v>      -0.40000000      -0.40000000       0.40000000 </v>
   <v>      -0.20000000      -0.40000000       0.40000000 </v>
   <v>       0.00000000      -0.20000000       0.40000000 </v>
   <v>       0.20000000      -0.20000000       0.40000000 </v>
   <v>       0.40000000      -0.20000000       0.40000000 </v>
   <v>      -0.40000000      -0.20000000       0.40000000 </v>
   <v>      -0.20000000      -0.20000000       0.40000000 </v>
  </varray>
  <varray name="weights" >
   <v>       0.00800000 </v>
   <v>       0.01600000 </v>
   <v>       0.01600000 </v>
   <v>       0.01600000 </v>
   <v>       0.01600000 </v>
   <v>       0.01600000 </v>
   <v>       0.01600000 </v>
   <v>       0.01600000 </v>
   <v>       0.01600000 </v>
   <v>       0.01600000 </v>
   <v>       0.01600000 </v>
   <v>       0.01600000 </v>
   <v>       0.01600000 </v>
   <v>       0.01600000 </v>
   <v>       0.01600000 </v>
   <v>       0.01600000 </v>
   <v>       0.01600000 </v>
   <v>       0.01600000 </v>
   <v>       0.01600000 </v>
   <v>       0.01600000 </v>
   <v>       0.01600000 </v>
   <v>       0.01600000 </v>
   <v>       0.01600000 </v>
   <v>       0.01600000 </v>
   <v>       0.01600000 </v>
   <v>       0.01600000 </v>
   <v>       0.01600000 </v>
   <v>       0.01600000 </v>
   <v>       0.01600000 </v>
   <v>       0.01600000 </v>
   <v>       0.01600000 </v>
   <v>       0.01600000 </v>
   <v>       0.01600000 </v>
   <v>       0.01600000 </v>
   <v>       0.01600000 </v>
   <v>       0.01600000 </v>
   <v>       0.01600000 </v>
   <v>       0.01600000 </v>
   <v>       0.01600000 </v>
   <v>       0.01600000 </v>
   <v>       0.01600000 </v>
   <v>       0.01600000 </v>
   <v>       0.01600000 </v>
   <v>       0.01600000 </v>
   <v>       0.01600000 </v>
   <v>       0.01600000 </v>
   <v>       0.01600000 </v>
   <v>       0.01600000 </v>
   <v>       0.01600000 </v>
   <v>       0.01600000 </v>
   <v>       0.01600000 </v>
   <v>       0.01600000 </v>
   <v>       0.01600000 </v>
   <v>       0.01600000 </v>
   <v>       0.01600000 </v>
   <v>       0.01600000 </v>
   <v>       0.01600000 </v>
   <v>       0.01600000 </v>
   <v>       0.01600000 </v>
   <v>       0.01600000 </v>
   <v>       0.01600000 </v>
   <v>       0.01600000 </v>
   <v>       0.01600000 </v>
  </varray>
 </kpoints>
 <parameters>
  <separator name="general" >
   <i type="string" name="SYSTEM">SQS with 1 vacancy for VFE and VRV</i>
   <i type="logical" name="LCOMPAT"> F  </i>
  </separator>
  <separator name="electronic" >
   <i type="string" name="PREC">normal</i>
   <i name="ENMAX">    600.00000000</i>
   <i name="ENAUG">    455.65900000</i>
   <i name="EDIFF">      0.00010000</i>
   <i type="int" name="IALGO">    38</i>
   <i type="int" name="IWAVPR">    11</i>
   <i type="int" name="NBANDS">   120</i>
   <i name="NELECT">    200.00000000</i>
   <i type="int" name="TURBO">     0</i>
   <i type="int" name="IRESTART">     0</i>
   <i type="int" name="NREBOOT">     0</i>
   <i type="int" name="NMIN">     0</i>
   <i name="EREF">      0.00000000</i>
   <separator name="electronic smearing" >
    <i type="int" name="ISMEAR">     1</i>
    <i name="SIGMA">      0.20000000</i>
    <i name="KSPACING">      0.50000000</i>
    <i type="logical" name="KGAMMA"> T  </i>
   </separator>
   <separator name="electronic projectors" >
    <i type="logical" name="LREAL"> T  </i>
    <v name="ROPT">     -0.00050000     -0.00050000     -0.00050000     -0.00050000     -0.00050000</v>
    <i type="int" name="LMAXPAW">  -100</i>
    <i type="int" name="LMAXMIX">     2</i>
    <i type="logical" name="NLSPLINE"> F  </i>
   </separator>
   <separator name="electronic startup" >
    <i type="int" name="ISTART">     1</i>
    <i type="int" name="ICHARG">     2</i>
    <i type="int" name="INIWAV">     1</i>
   </separator>
   <separator name="electronic spin" >
    <i type="int" name="ISPIN">     1</i>
    <i type="logical" name="LNONCOLLINEAR"> F  </i>
    <v name="MAGMOM">      1.00000000      1.00000000      1.00000000      1.00000000      1.00000000      1.00000000      1.00000000      1.00000000      1.00000000      1.00000000      1.00000000      1.00000000      1.00000000      1.00000000      1.00000000      1.00000000      1.00000000      1.00000000      1.00000000      1.00000000
      1.00000000      1.00000000      1.00000000      1.00000000      1.00000000      1.00000000      1.00000000      1.00000000      1.00000000</v>
    <i name="NUPDOWN">     -1.00000000</i>
    <i type="logical" name="LSORBIT"> F  </i>
    <v name="SAXIS">      0.00000000      0.00000000      1.00000000</v>
    <i type="logical" name="LSPIRAL"> F  </i>
    <v name="QSPIRAL">      0.00000000      0.00000000      0.00000000</v>
    <i type="logical" name="LZEROZ"> F  </i>
   </separator>
   <separator name="electronic exchange-correlation" >
    <i type="logical" name="LASPH"> F  </i>
    <i type="logical" name="LMETAGGA"> F  </i>
   </separator>
   <separator name="electronic convergence" >
    <i type="int" name="NELM">    60</i>
    <i type="int" name="NELMDL">     0</i>
    <i type="int" name="NELMIN">     2</i>
    <i name="ENINI">    600.00000000</i>
    <separator name="electronic convergence detail" >
     <i type="logical" name="LDIAG"> T  </i>
     <i type="logical" name="LSUBROT"> F  </i>
     <i name="WEIMIN">      0.00100000</i>
     <i name="EBREAK">      0.00000021</i>
     <i name="DEPER">      0.30000000</i>
     <i type="int" name="NRMM">     4</i>
     <i name="TIME">      0.40000000</i>
    </separator>
   </separator>
   <separator name="electronic mixer" >
    <i name="AMIX">      0.40000000</i>
    <i name="BMIX">      1.00000000</i>
    <i name="AMIN">      0.10000000</i>
    <i name="AMIX_MAG">      1.60000000</i>
    <i name="BMIX_MAG">      1.00000000</i>
    <separator name="electronic mixer details" >
     <i type="int" name="IMIX">     4</i>
     <i type="logical" name="MIXFIRST"> F  </i>
     <i type="int" name="MAXMIX">   -45</i>
     <i name="WC">    100.00000000</i>
     <i type="int" name="INIMIX">     1</i>
     <i type="int" name="MIXPRE">     1</i>
     <i type="int" name="MREMOVE">     5</i>
    </separator>
   </separator>
   <separator name="electronic dipolcorrection" >
    <i type="logical" name="LDIPOL"> F  </i>
    <i type="logical" name="LMONO"> F  </i>
    <i type="int" name="IDIPOL">     0</i>
    <i name="EPSILON">      1.00000000</i>
    <v name="DIPOL">   -100.00000000   -100.00000000   -100.00000000</v>
    <i name="EFIELD">      0.00000000</i>
   </separator>
  </separator>
  <separator name="grids" >
   <i type="int" name="NGX">    36</i>
   <i type="int" name="NGY">    50</i>
   <i type="int" name="NGZ">    70</i>
   <i type="int" name="NGXF">    72</i>
   <i type="int" name="NGYF">   100</i>
   <i type="int" name="NGZF">   140</i>
   <i type="logical" name="ADDGRID"> F  </i>
  </separator>
  <separator name="ionic" >
   <i type="int" name="NSW">    50</i>
   <i type="int" name="IBRION">     2</i>
   <i type="int" name="MDALGO">     0</i>
   <i type="int" name="ISIF">     3</i>
   <i name="PSTRESS">      0.00000000</i>
   <i name="EDIFFG">      0.00100000</i>
   <i type="int" name="NFREE">     1</i>
   <i name="POTIM">      0.50000000</i>
   <i name="SMASS">     -3.00000000</i>
   <i name="SCALEE">      1.00000000</i>
  </separator>
  <separator name="ionic md" >
   <i name="TEBEG">      0.00010000</i>
   <i name="TEEND">      0.00010000</i>
   <i type="int" name="NBLOCK">     1</i>
   <i type="int" name="KBLOCK">    50</i>
   <i type="int" name="NPACO">   256</i>
   <i name="APACO">     16.00000000</i>
  </separator>
  <separator name="symmetry" >
   <i type="int" name="ISYM">     0</i>
   <i name="SYMPREC">      0.00001000</i>
  </separator>
  <separator name="dos" >
   <i type="int" name="LORBIT">     0</i>
   <v name="RWIGS">     -1.00000000     -1.00000000     -1.00000000     -1.00000000     -1.00000000</v>
   <i type="int" name="NEDOS">   301</i>
   <i name="EMIN">     10.00000000</i>
   <i name="EMAX">    -10.00000000</i>
   <i name="EFERMI">      0.00000000</i>
  </separator>
  <separator name="writing" >
   <i type="int" name="NWRITE">     2</i>
   <i type="logical" name="LWAVE"> T  </i>
   <i type="logical" name="LDOWNSAMPLE"> F  </i>
   <i type="logical" name="LCHARG"> T  </i>
   <i type="logical" name="LPARD"> F  </i>
   <i type="logical" name="LVTOT"> F  </i>
   <i type="logical" name="LVHAR"> F  </i>
   <i type="logical" name="LELF"> F  </i>
   <i type="logical" name="LOPTICS"> F  </i>
   <v name="STM">      0.00000000      0.00000000      0.00000000      0.00000000      0.00000000      0.00000000      0.00000000</v>
  </separator>
  <separator name="performance" >
   <i type="int" name="NPAR">     8</i>
   <i type="int" name="NSIM">     4</i>
   <i type="int" name="NBLK">    -1</i>
   <i type="logical" name="LPLANE"> T  </i>
   <i type="logical" name="LSCALAPACK"> T  </i>
   <i type="logical" name="LSCAAWARE"> F  </i>
   <i type="logical" name="LSCALU"> F  </i>
   <i type="logical" name="LASYNC"> F  </i>
   <i type="logical" name="LORBITALREAL"> F  </i>
  </separator>
  <separator name="miscellaneous" >
   <i type="int" name="IDIOT">     3</i>
   <i type="int" name="ISPECIAL">     0</i>
   <i type="logical" name="LMUSIC"> F  </i>
   <v name="POMASS">     92.91000000     95.94000000    180.94800000     47.88000000    183.85000000</v>
   <v name="DARWINR">      0.00000000      0.00000000      0.00000000      0.00000000      0.00000000</v>
   <v name="DARWINV">      1.00000000      1.00000000      1.00000000      1.00000000      1.00000000</v>
   <i type="logical" name="LCORR"> T  </i>
  </separator>
  <i type="logical" name="GGA_COMPAT"> T  </i>
  <i type="logical" name="LBERRY"> F  </i>
  <i type="int" name="ICORELEVEL">     0</i>
  <i type="logical" name="LDAU"> F  </i>
  <i type="int" name="I_CONSTRAINED_M">     0</i>
  <separator name="electronic exchange-correlation" >
   <i type="string" name="GGA">PS</i>
   <i type="int" name="VOSKOWN">     0</i>
   <i type="logical" name="LHFCALC"> F  </i>
   <i type="string" name="PRECFOCK"></i>
   <i type="logical" name="LSYMGRAD"> F  </i>
   <i type="logical" name="LHFONE"> F  </i>
   <i type="logical" name="LRHFCALC"> F  </i>
   <i type="logical" name="LTHOMAS"> F  </i>
   <i type="logical" name="LMODELHF"> F  </i>
   <i name="ENCUT4O">     -1.00000000</i>
   <i type="int" name="EXXOEP">     0</i>
   <i type="int" name="FOURORBIT">     0</i>
   <i name="AEXX">      0.00000000</i>
   <i name="HFALPHA">      0.00000000</i>
   <i name="MCALPHA">      0.00000000</i>
   <i name="ALDAX">      1.00000000</i>
   <i name="AGGAX">      1.00000000</i>
   <i name="ALDAC">      1.00000000</i>
   <i name="AGGAC">      1.00000000</i>
   <i type="int" name="NKREDX">     1</i>
   <i type="int" name="NKREDY">     1</i>
   <i type="int" name="NKREDZ">     1</i>
   <i type="logical" name="SHIFTRED"> F  </i>
   <i type="logical" name="ODDONLY"> F  </i>
   <i type="logical" name="EVENONLY"> F  </i>
   <i type="int" name="LMAXFOCK">     0</i>
   <i type="int" name="NMAXFOCKAE">     0</i>
   <i type="logical" name="LFOCKAEDFT"> F  </i>
   <i name="HFSCREEN">      0.00000000</i>
   <i name="HFSCREENC">      0.00000000</i>
   <i type="int" name="NBANDSGWLOW">     0</i>
  </separator>
  <separator name="vdW DFT" >
   <i type="logical" name="LUSE_VDW"> F  </i>
   <i name="Zab_VDW">     -0.84910000</i>
   <i name="PARAM1">      0.12340000</i>
   <i name="PARAM2">      1.00000000</i>
   <i name="PARAM3">      0.00000000</i>
  </separator>
  <separator name="model GW" >
   <i type="int" name="MODEL_GW">     0</i>
   <i name="MODEL_EPS0">     10.07433900</i>
   <i name="MODEL_ALPHA">      1.00000000</i>
  </separator>
  <separator name="linear response parameters" >
   <i type="logical" name="LEPSILON"> F  </i>
   <i type="logical" name="LRPA"> F  </i>
   <i type="logical" name="LNABLA"> F  </i>
   <i type="logical" name="LVEL"> F  </i>
   <i type="int" name="KINTER">     0</i>
   <i name="CSHIFT">      0.10000000</i>
   <i name="OMEGAMAX">     -1.00000000</i>
   <i name="DEG_THRESHOLD">      0.00200000</i>
   <i name="RTIME">     -0.10000000</i>
   <i name="WPLASMAI">      0.00000000</i>
   <v name="DFIELD">      0.00000000      0.00000000      0.00000000</v>
   <v name="WPLASMA">      0.00000000      0.00000000      0.00000000      0.00000000      0.00000000      0.00000000      0.00000000      0.00000000      0.00000000</v>
  </separator>
  <separator name="orbital magnetization" >
   <i type="logical" name="NUCIND"> F  </i>
   <v name="MAGPOS">      0.00000000      0.00000000      0.00000000</v>
   <i type="logical" name="LNICSALL"> T  </i>
   <i type="logical" name="ORBITALMAG"> F  </i>
   <i type="logical" name="LMAGBLOCH"> F  </i>
   <i type="logical" name="LCHIMAG"> F  </i>
   <i type="logical" name="LGAUGE"> T  </i>
   <i type="int" name="MAGATOM">     0</i>
   <v name="MAGDIPOL">      0.00000000      0.00000000      0.00000000</v>
   <v name="AVECCONST">      0.00000000      0.00000000      0.00000000</v>
  </separator>
  <separator name="response functions" >
   <i type="logical" name="LADDER"> F  </i>
   <i type="logical" name="LRPAFORCE"> F  </i>
   <i type="logical" name="LFXC"> F  </i>
   <i type="logical" name="LHARTREE"> T  </i>
   <i type="int" name="IBSE">     0</i>
   <v type="int" name="KPOINT">    -1     0     0     0</v>
   <i type="logical" name="LTCTE"> F  </i>
   <i type="logical" name="LTETE"> F  </i>
   <i type="logical" name="LTRIPLET"> F  </i>
   <i type="logical" name="LFXCEPS"> F  </i>
   <i type="logical" name="LFXHEG"> F  </i>
   <i type="int" name="NATURALO">     2</i>
   <i type="logical" name="L2ORDER"> F  </i>
   <i type="logical" name="LMP2LT"> F  </i>
   <i type="logical" name="LUSEW"> F  </i>
   <i name="ENCUTGW">     -2.00000000</i>
   <i name="ENCUTGWSOFT">     -2.00000000</i>
   <i name="ENCUTLF">     -1.00000000</i>
   <i type="int" name="LMAXMP2">    -1</i>
   <i name="SCISSOR">      0.00000000</i>
   <i type="int" name="NOMEGA">     0</i>
   <i type="int" name="NOMEGAR">     0</i>
   <i type="int" name="NBANDSGW">    -1</i>
   <i type="int" name="NBANDSO">    -1</i>
   <i type="int" name="NBANDSV">    -1</i>
   <i type="int" name="NELM">     1</i>
   <i type="int" name="NELMHF">     1</i>
   <i type="int" name="DIM">     3</i>
   <i type="int" name="ANTIRES">     0</i>
   <i name="OMEGAMAX">    -30.00000000</i>
   <i name="OMEGAMIN">    -30.00000000</i>
   <i name="OMEGATL">   -200.00000000</i>
   <i type="int" name="OMEGAGRID">   140</i>
   <i name="CSHIFT">     -0.10000000</i>
   <i type="logical" name="SELFENERGY"> F  </i>
   <i type="logical" name="LSPECTRAL"> F  </i>
   <i type="logical" name="LSPECTRALGW"> F  </i>
   <i type="logical" name="LSINGLES"> F  </i>
   <i type="logical" name="LFERMIGW"> F  </i>
   <i type="logical" name="ODDONLYGW"> F  </i>
   <i type="logical" name="EVENONLYGW"> F  </i>
   <i type="int" name="NKREDLFX">     1</i>
   <i type="int" name="NKREDLFY">     1</i>
   <i type="int" name="NKREDLFZ">     1</i>
   <i type="int" name="MAXMEM">  2800</i>
   <i type="int" name="TELESCOPE">     0</i>
   <i type="int" name="TAUPAR">     1</i>
   <i type="int" name="OMEGAPAR">    -1</i>
   <i name="LAMBDA">      1.00000000</i>
  </separator>
  <separator name="External order field" >
   <i name="OFIELD_KAPPA">      0.00000000</i>
   <v name="OFIELD_K">      0.00000000      0.00000000      0.00000000</v>
   <i name="OFIELD_Q6_NEAR">      0.00000000</i>
   <i name="OFIELD_Q6_FAR">      0.00000000</i>
   <i name="OFIELD_A">      0.00000000</i>
  </separator>
  <separator name="solvation model" >
   <i type="logical" name="LSOL"> F  </i>
  </separator>
 </parameters>
 <atominfo>
  <atoms>      29 </atoms>
  <types>       5 </types>
  <array name="atoms" >
   <dimension dim="1">ion</dimension>
   <field type="string">element</field>
   <field type="int">atomtype</field>
   <set>
    <rc><c>Nb</c><c>   1</c></rc>
    <rc><c>Nb</c><c>   1</c></rc>
    <rc><c>Nb</c><c>   1</c></rc>
    <rc><c>Nb</c><c>   1</c></rc>
    <rc><c>Nb</c><c>   1</c></rc>
    <rc><c>Nb</c><c>   1</c></rc>
    <rc><c>Mo</c><c>   2</c></rc>
    <rc><c>Mo</c><c>   2</c></rc>
    <rc><c>Mo</c><c>   2</c></rc>
    <rc><c>Mo</c><c>   2</c></rc>
    <rc><c>Mo</c><c>   2</c></rc>
    <rc><c>Mo</c><c>   2</c></rc>
    <rc><c>Ta</c><c>   3</c></rc>
    <rc><c>Ta</c><c>   3</c></rc>
    <rc><c>Ta</c><c>   3</c></rc>
    <rc><c>Ta</c><c>   3</c></rc>
    <rc><c>Ta</c><c>   3</c></rc>
    <rc><c>Ta</c><c>   3</c></rc>
    <rc><c>Ti</c><c>   4</c></rc>
    <rc><c>Ti</c><c>   4</c></rc>
    <rc><c>Ti</c><c>   4</c></rc>
    <rc><c>Ti</c><c>   4</c></rc>
    <rc><c>Ti</c><c>   4</c></rc>
    <rc><c>W </c><c>   5</c></rc>
    <rc><c>W </c><c>   5</c></rc>
    <rc><c>W </c><c>   5</c></rc>
    <rc><c>W </c><c>   5</c></rc>
    <rc><c>W </c><c>   5</c></rc>
    <rc><c>W </c><c>   5</c></rc>
   </set>
  </array>
  <array name="atomtypes" >
   <dimension dim="1">type</dimension>
   <field type="int">atomspertype</field>
   <field type="string">element</field>
   <field>mass</field>
   <field>valence</field>
   <field type="string">pseudopotential</field>
   <set>
    <rc><c>   6</c><c>Nb</c><c>     92.91000000</c><c>     13.00000000</c><c>  PAW_PBE Nb_sv 25May2007               </c></rc>
    <rc><c>   6</c><c>Mo</c><c>     95.94000000</c><c>      6.00000000</c><c>  PAW_PBE Mo 08Apr2002                  </c></rc>
    <rc><c>   6</c><c>Ta</c><c>    180.94800000</c><c>      5.00000000</c><c>  PAW_PBE Ta 17Jan2003                  </c></rc>
    <rc><c>   5</c><c>Ti</c><c>     47.88000000</c><c>      4.00000000</c><c>  PAW_PBE Ti 08Apr2002                  </c></rc>
    <rc><c>   6</c><c>W </c><c>    183.85000000</c><c>      6.00000000</c><c>  PAW_PBE W 08Apr2002                   </c></rc>
   </set>
  </array>
 </atominfo>
 <structure name="initialpos" >
  <crystal>
   <varray name="basis" >
    <v>      -3.19000000      -3.19000000      -3.19000000 </v>
    <v>       1.59500000       1.59500000      -7.97500000 </v>
    <v>       7.97500000      -7.97500000      -1.59500000 </v>
   </varray>
   <i name="volume">    486.92638500 </i>
   <varray name="rec_basis" >
    <v>      -0.13584117      -0.12539185      -0.05224660 </v>
    <v>       0.04179728       0.06269592      -0.10449321 </v>
    <v>       0.06269592      -0.06269592       0.00000000 </v>
   </varray>
  </crystal>
  <varray name="positions" >
   <v>       0.96666667       0.93333333       0.40000000 </v>
   <v>       0.63333333       0.26666667       0.40000000 </v>
   <v>       0.50000000       0.00000000       0.00000000 </v>
   <v>       0.00000000       0.00000000       0.00000000 </v>
   <v>       0.10000000       0.20000000       0.80000000 </v>
   <v>       0.03333333       0.06666667       0.60000000 </v>
   <v>       0.90000000       0.80000000       0.20000000 </v>
   <v>       0.80000000       0.60000000       0.40000000 </v>
   <v>       0.73333333       0.46666667       0.20000000 </v>
   <v>       0.66666667       0.33333333       0.00000000 </v>
   <v>       0.36666667       0.73333333       0.60000000 </v>
   <v>       0.13333333       0.26666667       0.40000000 </v>
   <v>       0.83333333       0.66666667       0.00000000 </v>
   <v>       0.93333333       0.86666667       0.80000000 </v>
   <v>       0.56666667       0.13333333       0.20000000 </v>
   <v>       0.40000000       0.80000000       0.20000000 </v>
   <v>       0.43333333       0.86666667       0.80000000 </v>
   <v>       0.30000000       0.60000000       0.40000000 </v>
   <v>       0.46666667       0.93333333       0.40000000 </v>
   <v>       0.16666667       0.33333333       0.00000000 </v>
   <v>       0.26666667       0.53333333       0.80000000 </v>
   <v>       0.20000000       0.40000000       0.60000000 </v>
   <v>       0.06666667       0.13333333       0.20000000 </v>
   <v>       0.76666667       0.53333333       0.80000000 </v>
   <v>       0.70000000       0.40000000       0.60000000 </v>
   <v>       0.60000000       0.20000000       0.80000000 </v>
   <v>       0.53333333       0.06666667       0.60000000 </v>
   <v>       0.33333333       0.66666667       0.00000000 </v>
   <v>       0.23333333       0.46666667       0.20000000 </v>
  </varray>
 </structure>
 <calculation>
  <scstep>
   <time name="dav">   18.56   18.62</time>
   <time name="total">   19.18   19.25</time>
   <energy>
    <i name="alphaZ">   1318.14636210 </i>
    <i name="ewald"> -11669.16409934 </i>
    <i name="hartreedc">  -3178.34340053 </i>
    <i name="XCdc">   -868.08197299 </i>
    <i name="pawpsdc">  12179.31920212 </i>
    <i name="pawaedc"> -10655.17440453 </i>
    <i name="eentropy">      0.00368072 </i>
    <i name="bandstr">   -593.64810413 </i>
    <i name="atom">  13116.42875384 </i>
    <i name="e_fr_energy">   -350.51398275 </i>
    <i name="e_wo_entrp">   -350.51766347 </i>
    <i name="e_0_energy">   -350.51520965 </i>
   </energy>
  </scstep>
  <scstep>
   <time name="dav">   24.06   24.12</time>
   <time name="total">   24.70   24.77</time>
   <energy>
    <i name="e_fr_energy">   -344.59546453 </i>
    <i name="e_wo_entrp">   -344.59669767 </i>
    <i name="e_0_energy">   -344.59587558 </i>
   </energy>
  </scstep>
  <scstep>
   <time name="dav">   24.12   24.18</time>
   <time name="total">   24.74   24.80</time>
   <energy>
    <i name="e_fr_energy">   -361.82398574 </i>
    <i name="e_wo_entrp">   -361.82088178 </i>
    <i name="e_0_energy">   -361.82295109 </i>
   </energy>
  </scstep>
  <scstep>
   <time name="dav">   25.09   25.12</time>
   <time name="total">   25.72   25.75</time>
   <energy>
    <i name="e_fr_energy">   -347.10481712 </i>
    <i name="e_wo_entrp">   -347.11558894 </i>
    <i name="e_0_energy">   -347.10840773 </i>
   </energy>
  </scstep>
  <scstep>
   <time name="dav">   23.83   23.89</time>
   <time name="total">   24.45   24.52</time>
   <energy>
    <i name="e_fr_energy">   -338.02565055 </i>
    <i name="e_wo_entrp">   -338.02279831 </i>
    <i name="e_0_energy">   -338.02469980 </i>
   </energy>
  </scstep>
  <scstep>
   <time name="dav">   25.50   25.56</time>
   <time name="total">   26.12   26.18</time>
   <energy>
    <i name="e_fr_energy">   -335.16319973 </i>
    <i name="e_wo_entrp">   -335.16096329 </i>
    <i name="e_0_energy">   -335.16245425 </i>
   </energy>
  </scstep>
  <scstep>
   <time name="dav">   24.42   24.49</time>
   <time name="total">   25.04   25.11</time>
   <energy>
    <i name="e_fr_energy">   -334.17162454 </i>
    <i name="e_wo_entrp">   -334.16380711 </i>
    <i name="e_0_energy">   -334.16901873 </i>
   </energy>
  </scstep>
  <scstep>
   <time name="dav">   26.31   26.33</time>
   <time name="total">   26.93   26.96</time>
   <energy>
    <i name="e_fr_energy">   -334.13499155 </i>
    <i name="e_wo_entrp">   -334.12343669 </i>
    <i name="e_0_energy">   -334.13113993 </i>
   </energy>
  </scstep>
  <scstep>
   <time name="dav">   23.91   23.93</time>
   <time name="total">   24.53   24.55</time>
   <energy>
    <i name="e_fr_energy">   -334.10607975 </i>
    <i name="e_wo_entrp">   -334.09883856 </i>
    <i name="e_0_energy">   -334.10366602 </i>
   </energy>
  </scstep>
  <scstep>
   <time name="dav">   25.43   25.46</time>
   <time name="total">   26.05   26.08</time>
   <energy>
    <i name="e_fr_energy">   -334.03458196 </i>
    <i name="e_wo_entrp">   -334.02522422 </i>
    <i name="e_0_energy">   -334.03146271 </i>
   </energy>
  </scstep>
  <scstep>
   <time name="dav">   25.04   25.07</time>
   <time name="total">   25.66   25.69</time>
   <energy>
    <i name="e_fr_energy">   -334.01959692 </i>
    <i name="e_wo_entrp">   -334.00849100 </i>
    <i name="e_0_energy">   -334.01589495 </i>
   </energy>
  </scstep>
  <scstep>
   <time name="dav">   26.24   26.27</time>
   <time name="total">   26.86   26.89</time>
   <energy>
    <i name="e_fr_energy">   -334.01951828 </i>
    <i name="e_wo_entrp">   -334.00851066 </i>
    <i name="e_0_energy">   -334.01584908 </i>
   </energy>
  </scstep>
  <scstep>
   <time name="dav">   24.52   24.54</time>
   <time name="total">   25.13   25.16</time>
   <energy>
    <i name="e_fr_energy">   -334.01567338 </i>
    <i name="e_wo_entrp">   -334.00513960 </i>
    <i name="e_0_energy">   -334.01216212 </i>
   </energy>
  </scstep>
  <scstep>
   <time name="dav">   24.68   24.75</time>
   <time name="total">   25.31   25.59</time>
   <energy>
    <i name="e_fr_energy">   -334.01450530 </i>
    <i name="e_wo_entrp">   -334.00402652 </i>
    <i name="e_0_energy">   -334.01101237 </i>
   </energy>
  </scstep>
  <scstep>
   <time name="dav">   23.63   23.69</time>
   <time name="total">   24.24   24.30</time>
   <energy>
    <i name="e_fr_energy">   -334.01475936 </i>
    <i name="e_wo_entrp">   -334.00459620 </i>
    <i name="e_0_energy">   -334.01137164 </i>
   </energy>
  </scstep>
  <scstep>
   <time name="dav">   22.35   22.37</time>
   <time name="total">   22.96   23.01</time>
   <energy>
    <i name="e_fr_energy">   -334.01426310 </i>
    <i name="e_wo_entrp">   -334.00390714 </i>
    <i name="e_0_energy">   -334.01081111 </i>
   </energy>
  </scstep>
  <scstep>
   <time name="dav">   19.25   19.27</time>
   <time name="total">   19.28   19.31</time>
   <energy>
    <i name="alphaZ">   1318.14636210 </i>
    <i name="ewald"> -11669.16409934 </i>
    <i name="hartreedc">  -3035.59140663 </i>
    <i name="XCdc">   -862.42821377 </i>
    <i name="pawpsdc">  21069.30935573 </i>
    <i name="pawaedc"> -19547.01404070 </i>
    <i name="eentropy">     -0.01043288 </i>
    <i name="bandstr">   -723.69050007 </i>
    <i name="atom">  13116.42875384 </i>
    <i name="e_fr_energy">   -334.01422171 </i>
    <i name="e_wo_entrp">   -334.00378883 </i>
    <i name="e_0_energy">   -334.01074408 </i>
   </energy>
  </scstep>
  <structure>
   <crystal>
    <varray name="basis" >
     <v>      -3.19000000      -3.19000000      -3.19000000 </v>
     <v>       1.59500000       1.59500000      -7.97500000 </v>
     <v>       7.97500000      -7.97500000      -1.59500000 </v>
    </varray>
    <i name="volume">    486.92638500 </i>
    <varray name="rec_basis" >
     <v>      -0.13584117      -0.12539185      -0.05224660 </v>
     <v>       0.04179728       0.06269592      -0.10449321 </v>
     <v>       0.06269592      -0.06269592       0.00000000 </v>
    </varray>
   </crystal>
   <varray name="positions" >
    <v>       0.96666667       0.93333333       0.40000000 </v>
    <v>       0.63333333       0.26666667       0.40000000 </v>
    <v>       0.50000000       0.00000000       0.00000000 </v>
    <v>       0.00000000       0.00000000       0.00000000 </v>
    <v>       0.10000000       0.20000000       0.80000000 </v>
    <v>       0.03333333       0.06666667       0.60000000 </v>
    <v>       0.90000000       0.80000000       0.20000000 </v>
    <v>       0.80000000       0.60000000       0.40000000 </v>
    <v>       0.73333333       0.46666667       0.20000000 </v>
    <v>       0.66666667       0.33333333       0.00000000 </v>
    <v>       0.36666667       0.73333333       0.60000000 </v>
    <v>       0.13333333       0.26666667       0.40000000 </v>
    <v>       0.83333333       0.66666667       0.00000000 </v>
    <v>       0.93333333       0.86666667       0.80000000 </v>
    <v>       0.56666667       0.13333333       0.20000000 </v>
    <v>       0.40000000       0.80000000       0.20000000 </v>
    <v>       0.43333333       0.86666667       0.80000000 </v>
    <v>       0.30000000       0.60000000       0.40000000 </v>
    <v>       0.46666667       0.93333333       0.40000000 </v>
    <v>       0.16666667       0.33333333       0.00000000 </v>
    <v>       0.26666667       0.53333333       0.80000000 </v>
    <v>       0.20000000       0.40000000       0.60000000 </v>
    <v>       0.06666667       0.13333333       0.20000000 </v>
    <v>       0.76666667       0.53333333       0.80000000 </v>
    <v>       0.70000000       0.40000000       0.60000000 </v>
    <v>       0.60000000       0.20000000       0.80000000 </v>
    <v>       0.53333333       0.06666667       0.60000000 </v>
    <v>       0.33333333       0.66666667       0.00000000 </v>
    <v>       0.23333333       0.46666667       0.20000000 </v>
   </varray>
  </structure>
  <varray name="forces" >
   <v>       0.40220450      -0.27976317       0.78117265 </v>
   <v>       0.22520240      -0.15337563       0.07808784 </v>
   <v>      -0.05191554       0.17092108      -0.31736335 </v>
   <v>       0.54497164      -0.25836558      -0.17466418 </v>
   <v>       0.07829726       0.59907544      -0.51921735 </v>
   <v>      -0.57303779       0.09327461      -0.46224195 </v>
   <v>       0.27408850      -0.51117107       0.04086972 </v>
   <v>      -0.20944369      -0.30766907       0.37703760 </v>
   <v>      -0.15061521       0.12539892       0.02613161 </v>
   <v>       0.16758263       0.27108481      -0.51201504 </v>
   <v>      -0.31890792      -0.38419693       0.13911287 </v>
   <v>       0.11744173       0.21206602      -0.44665003 </v>
   <v>       0.07998257      -0.39749703       0.33174749 </v>
   <v>      -0.53316254       0.85922151       0.36401231 </v>
   <v>      -0.42259610       0.29798767       0.04700058 </v>
   <v>      -0.45623699      -0.30497094       0.57707007 </v>
   <v>      -0.67689337       0.03729151       0.82852503 </v>
   <v>       0.03505188      -0.28133934      -0.29687995 </v>
   <v>       0.61943270      -0.20919489       0.21609208 </v>
   <v>       0.00873562      -0.23551253      -0.29104015 </v>
   <v>      -0.33108162      -0.40612142      -0.29028880 </v>
   <v>       0.09417271       0.50721122      -0.23506895 </v>
   <v>       0.47118238       0.02216913      -0.74645865 </v>
   <v>      -0.25866873       0.21125670       0.41799260 </v>
   <v>       0.92029703       0.27756222      -0.43861217 </v>
   <v>      -0.16734796       0.51770192      -0.08820895 </v>
   <v>       0.01083611      -0.53190401      -0.07273340 </v>
   <v>      -0.15390851      -0.26478419       0.79206959 </v>
   <v>       0.25433632       0.32364304      -0.12547912 </v>
  </varray>
  <varray name="stress" >
   <v>     -26.83294001       0.58706595       5.79654178 </v>
   <v>       0.58706593     -24.05458261       0.75774337 </v>
   <v>       5.79654178       0.75774326     -25.27264456 </v>
  </varray>
  <energy>
   <i name="e_fr_energy">   -334.01422171 </i>
   <i name="e_wo_entrp">   -334.01074408 </i>
   <i name="e_0_energy">     -0.01043288 </i>
  </energy>
  <time name="totalsc">  435.44  437.04</time>
 </calculation>
 <calculation>
  <scstep>
   <time name="dav">   20.68   20.70</time>
   <time name="total">   21.30   21.46</time>
   <energy>
    <i name="alphaZ">   1370.24559405 </i>
    <i name="ewald"> -11881.53298549 </i>
    <i name="hartreedc">  -3017.23675369 </i>
    <i name="XCdc">   -857.64556520 </i>
    <i name="pawpsdc">  21069.72868975 </i>
    <i name="pawaedc"> -19547.38353729 </i>
    <i name="eentropy">     -0.00801400 </i>
    <i name="bandstr">   -587.84640430 </i>
    <i name="atom">  13116.42875384 </i>
    <i name="e_fr_energy">   -335.25022233 </i>
    <i name="e_wo_entrp">   -335.24220833 </i>
    <i name="e_0_energy">   -335.24755100 </i>
   </energy>
  </scstep>
  <scstep>
   <time name="dav">   25.51   25.55</time>
   <time name="total">   26.13   26.18</time>
   <energy>
    <i name="e_fr_energy">   -335.73932228 </i>
    <i name="e_wo_entrp">   -335.74350854 </i>
    <i name="e_0_energy">   -335.74071770 </i>
   </energy>
  </scstep>
  <scstep>
   <time name="dav">   25.26   25.30</time>
   <time name="total">   25.88   25.91</time>
   <energy>
    <i name="e_fr_energy">   -334.92836976 </i>
    <i name="e_wo_entrp">   -334.92327117 </i>
    <i name="e_0_energy">   -334.92667023 </i>
   </energy>
  </scstep>
  <scstep>
   <time name="dav">   26.40   26.44</time>
   <time name="total">   27.04   27.08</time>
   <energy>
    <i name="e_fr_energy">   -334.61681884 </i>
    <i name="e_wo_entrp">   -334.60673690 </i>
    <i name="e_0_energy">   -334.61345819 </i>
   </energy>
  </scstep>
  <scstep>
   <time name="dav">   25.49   25.55</time>
   <time name="total">   26.11   26.20</time>
   <energy>
    <i name="e_fr_energy">   -334.36299529 </i>
    <i name="e_wo_entrp">   -334.35999847 </i>
    <i name="e_0_energy">   -334.36199635 </i>
   </energy>
  </scstep>
  <scstep>
   <time name="dav">   27.56   27.62</time>
   <time name="total">   28.18   28.24</time>
   <energy>
    <i name="e_fr_energy">   -334.27267048 </i>
    <i name="e_wo_entrp">   -334.26404438 </i>
    <i name="e_0_energy">   -334.26979511 </i>
   </energy>
  </scstep>
  <scstep>
   <time name="dav">   26.75   26.78</time>
   <time name="total">   27.38   27.41</time>
   <energy>
    <i name="e_fr_energy">   -334.28119588 </i>
    <i name="e_wo_entrp">   -334.27439374 </i>
    <i name="e_0_energy">   -334.27892850 </i>
   </energy>
  </scstep>
  <scstep>
   <time name="dav">   26.96   26.98</time>
   <time name="total">   27.58   27.64</time>
   <energy>
    <i name="e_fr_energy">   -334.27442667 </i>
    <i name="e_wo_entrp">   -334.26646138 </i>
    <i name="e_0_energy">   -334.27177157 </i>
   </energy>
  </scstep>
  <scstep>
   <time name="dav">   25.31   25.33</time>
   <time name="total">   25.93   25.95</time>
   <energy>
    <i name="e_fr_energy">   -334.27544182 </i>
    <i name="e_wo_entrp">   -334.26706081 </i>
    <i name="e_0_energy">   -334.27264815 </i>
   </energy>
  </scstep>
  <scstep>
   <time name="dav">   26.45   26.49</time>
   <time name="total">   27.07   27.11</time>
   <energy>
    <i name="e_fr_energy">   -334.27898213 </i>
    <i name="e_wo_entrp">   -334.27110834 </i>
    <i name="e_0_energy">   -334.27635753 </i>
   </energy>
  </scstep>
  <scstep>
   <time name="dav">   25.97   26.00</time>
   <time name="total">   26.59   26.62</time>
   <energy>
    <i name="e_fr_energy">   -334.28039055 </i>
    <i name="e_wo_entrp">   -334.27174858 </i>
    <i name="e_0_energy">   -334.27750990 </i>
   </energy>
  </scstep>
  <scstep>
   <time name="dav">   25.48   25.51</time>
   <time name="total">   26.10   26.13</time>
   <energy>
    <i name="e_fr_energy">   -334.27997456 </i>
    <i name="e_wo_entrp">   -334.27177127 </i>
    <i name="e_0_energy">   -334.27724013 </i>
   </energy>
  </scstep>
  <scstep>
   <time name="dav">   25.28   25.32</time>
   <time name="total">   25.90   25.95</time>
   <energy>
    <i name="e_fr_energy">   -334.28010748 </i>
    <i name="e_wo_entrp">   -334.27182182 </i>
    <i name="e_0_energy">   -334.27734559 </i>
   </energy>
  </scstep>
  <scstep>
   <time name="dav">   19.69   19.72</time>
   <time name="total">   19.73   19.96</time>
   <energy>
    <i name="alphaZ">   1370.24559405 </i>
    <i name="ewald"> -11881.53298549 </i>
    <i name="hartreedc">  -2945.78666807 </i>
    <i name="XCdc">   -859.65685630 </i>
    <i name="pawpsdc">  22336.31818728 </i>
    <i name="pawaedc"> -20814.77145323 </i>
    <i name="eentropy">     -0.00827664 </i>
    <i name="bandstr">   -655.51641657 </i>
    <i name="atom">  13116.42875384 </i>
    <i name="e_fr_energy">   -334.28012113 </i>
    <i name="e_wo_entrp">   -334.27184449 </i>
    <i name="e_0_energy">   -334.27736225 </i>
   </energy>
  </scstep>
  <structure>
   <crystal>
    <varray name="basis" >
     <v>      -3.15701961      -3.15337401      -3.15981130 </v>
     <v>       1.55046407       1.57302077      -7.86781629 </v>
     <v>       7.85976924      -7.87625681      -1.55430407 </v>
    </varray>
    <i name="volume">    468.41255742 </i>
    <varray name="rec_basis" >
     <v>      -0.13751530      -0.12687390      -0.05246536 </v>
     <v>       0.04266791       0.06349607      -0.10599692 </v>
     <v>       0.06357775      -0.06348682      -0.00016410 </v>
    </varray>
   </crystal>
   <varray name="positions" >
    <v>       0.96375428       0.92936025       0.40206269 </v>
    <v>       0.63258849       0.26626323       0.40114505 </v>
    <v>       0.50010620       0.00201213      -0.00067400 </v>
    <v>      -0.00156823       0.00119792       0.00242979 </v>
    <v>       0.09717164       0.20458724       0.79842485 </v>
    <v>       0.03768949       0.06812349       0.59798466 </v>
    <v>       0.90119299       0.79880055       0.20237511 </v>
    <v>       0.80228339       0.59674644       0.40029709 </v>
    <v>       0.73349593       0.46661052       0.19916516 </v>
    <v>       0.66521913       0.33707226      -0.00031305 </v>
    <v>       0.37073004       0.73082696       0.60019747 </v>
    <v>       0.13240665       0.26979648       0.39971380 </v>
    <v>       0.83437756       0.66395332       0.00144419 </v>
    <v>       0.93071219       0.86635541       0.79578857 </v>
    <v>       0.56751502       0.13314557       0.19782051 </v>
    <v>       0.40338020       0.79524859       0.19954248 </v>
    <v>       0.43545535       0.86123795       0.79783986 </v>
    <v>       0.30222047       0.60071632       0.40095696 </v>
    <v>       0.46332812       0.93286030       0.40250628 </v>
    <v>       0.16876766       0.33410575       0.00073876 </v>
    <v>       0.27202476       0.53290073       0.80022697 </v>
    <v>       0.19690711       0.40290900       0.59875072 </v>
    <v>       0.06532621       0.13811340       0.20135809 </v>
    <v>       0.76603032       0.53134360       0.79857866 </v>
    <v>       0.69339547       0.40490627       0.60194403 </v>
    <v>       0.59818732       0.20167307       0.79792799 </v>
    <v>       0.53666326       0.06544636       0.60164158 </v>
    <v>       0.33394726       0.66156261       0.00033536 </v>
    <v>       0.23002506       0.46879096       0.19979037 </v>
   </varray>
  </structure>
  <varray name="forces" >
   <v>       0.45770620      -0.25908586       0.51561103 </v>
   <v>       0.01850884      -0.00772276       0.13900237 </v>
   <v>      -0.15825784       0.17785498       0.03306995 </v>
   <v>       0.08019538      -0.03588485      -0.11532497 </v>
   <v>      -0.05273486       0.18882326      -0.10996460 </v>
   <v>      -0.25555865       0.07446068      -0.33351483 </v>
   <v>       0.17694018      -0.20042564       0.00680230 </v>
   <v>       0.03973989      -0.28831621      -0.02508260 </v>
   <v>      -0.05956791      -0.07923704       0.18022793 </v>
   <v>       0.00956767       0.07091614      -0.14555700 </v>
   <v>      -0.20273868      -0.18138807       0.04470788 </v>
   <v>       0.12188247       0.06077504      -0.11696187 </v>
   <v>      -0.03650816      -0.00901313      -0.05566706 </v>
   <v>      -0.54167442       0.54375972       0.37691588 </v>
   <v>      -0.02410085      -0.01411524       0.06424860 </v>
   <v>      -0.05518030      -0.14948999       0.02639791 </v>
   <v>      -0.13199292       0.09684060       0.30585816 </v>
   <v>       0.12561257      -0.27739374      -0.04405900 </v>
   <v>       0.28966529      -0.10187305       0.12631286 </v>
   <v>      -0.07351359      -0.12622223      -0.10945837 </v>
   <v>      -0.15394753      -0.09221148       0.01536226 </v>
   <v>       0.29779982       0.55928748      -0.37559004 </v>
   <v>       0.41825655      -0.09082125      -0.45246643 </v>
   <v>      -0.30133439       0.05145098      -0.08273163 </v>
   <v>       0.27837257       0.20035070      -0.23422088 </v>
   <v>      -0.05312939       0.20270453       0.01810900 </v>
   <v>      -0.19692835      -0.40821059       0.01775398 </v>
   <v>      -0.10367807       0.06257832       0.26921219 </v>
   <v>       0.08659848       0.03160872       0.06100696 </v>
  </varray>
  <varray name="stress" >
   <v>      61.17018155       0.83566496       3.14954734 </v>
   <v>       0.83566507      62.58493035       0.41609480 </v>
   <v>       3.14954743       0.41609490      61.77754314 </v>
  </varray>
  <energy>
   <i name="e_fr_energy">   -334.28012113 </i>
   <i name="e_wo_entrp">   -334.27736225 </i>
   <i name="e_0_energy">     -0.00827664 </i>
  </energy>
  <time name="totalsc">  378.84  380.16</time>
 </calculation>
 <calculation>
  <scstep>
   <time name="dav">   20.90   20.92</time>
   <time name="total">   21.53   21.64</time>
   <energy>
    <i name="alphaZ">   1354.31719077 </i>
    <i name="ewald"> -11817.80634403 </i>
    <i name="hartreedc">  -2951.21043643 </i>
    <i name="XCdc">   -861.08488427 </i>
    <i name="pawpsdc">  22336.23347130 </i>
    <i name="pawaedc"> -20814.64731599 </i>
    <i name="eentropy">     -0.00634045 </i>
    <i name="bandstr">   -696.65120435 </i>
    <i name="atom">  13116.42875384 </i>
    <i name="e_fr_energy">   -334.42710962 </i>
    <i name="e_wo_entrp">   -334.42076917 </i>
    <i name="e_0_energy">   -334.42499613 </i>
   </energy>
  </scstep>
  <scstep>
   <time name="dav">   27.19   27.22</time>
   <time name="total">   27.80   27.83</time>
   <energy>
    <i name="e_fr_energy">   -334.47307412 </i>
    <i name="e_wo_entrp">   -334.46240615 </i>
    <i name="e_0_energy">   -334.46951813 </i>
   </energy>
  </scstep>
  <scstep>
   <time name="dav">   25.08   25.10</time>
   <time name="total">   25.69   25.72</time>
   <energy>
    <i name="e_fr_energy">   -334.42658026 </i>
    <i name="e_wo_entrp">   -334.41983550 </i>
    <i name="e_0_energy">   -334.42433201 </i>
   </energy>
  </scstep>
  <scstep>
   <time name="dav">   26.48   26.51</time>
   <time name="total">   27.09   27.12</time>
   <energy>
    <i name="e_fr_energy">   -334.37690427 </i>
    <i name="e_wo_entrp">   -334.37139053 </i>
    <i name="e_0_energy">   -334.37506636 </i>
   </energy>
  </scstep>
  <scstep>
   <time name="dav">   24.98   25.01</time>
   <time name="total">   25.59   25.62</time>
   <energy>
    <i name="e_fr_energy">   -334.34811147 </i>
    <i name="e_wo_entrp">   -334.33884604 </i>
    <i name="e_0_energy">   -334.34502299 </i>
   </energy>
  </scstep>
  <scstep>
   <time name="dav">   26.00   26.02</time>
   <time name="total">   26.60   26.64</time>
   <energy>
    <i name="e_fr_energy">   -334.34290386 </i>
    <i name="e_wo_entrp">   -334.33540929 </i>
    <i name="e_0_energy">   -334.34040567 </i>
   </energy>
  </scstep>
  <scstep>
   <time name="dav">   27.34   27.37</time>
   <time name="total">   27.97   28.00</time>
   <energy>
    <i name="e_fr_energy">   -334.34286135 </i>
    <i name="e_wo_entrp">   -334.33444676 </i>
    <i name="e_0_energy">   -334.34005648 </i>
   </energy>
  </scstep>
  <scstep>
   <time name="dav">   24.47   24.49</time>
   <time name="total">   25.08   25.10</time>
   <energy>
    <i name="e_fr_energy">   -334.34222944 </i>
    <i name="e_wo_entrp">   -334.33402861 </i>
    <i name="e_0_energy">   -334.33949583 </i>
   </energy>
  </scstep>
  <scstep>
   <time name="dav">   24.13   24.16</time>
   <time name="total">   24.76   24.79</time>
   <energy>
    <i name="e_fr_energy">   -334.34225886 </i>
    <i name="e_wo_entrp">   -334.33423520 </i>
    <i name="e_0_energy">   -334.33958431 </i>
   </energy>
  </scstep>
  <scstep>
   <time name="dav">   23.68   23.71</time>
   <time name="total">   24.29   24.32</time>
   <energy>
    <i name="e_fr_energy">   -334.34259322 </i>
    <i name="e_wo_entrp">   -334.33435247 </i>
    <i name="e_0_energy">   -334.33984630 </i>
   </energy>
  </scstep>
  <scstep>
   <time name="dav">   24.23   24.27</time>
   <time name="total">   24.84   24.88</time>
   <energy>
    <i name="e_fr_energy">   -334.34265962 </i>
    <i name="e_wo_entrp">   -334.33468425 </i>
    <i name="e_0_energy">   -334.34000117 </i>
   </energy>
  </scstep>
  <scstep>
   <time name="dav">   21.84   21.87</time>
   <time name="total">   21.88   21.91</time>
   <energy>
    <i name="alphaZ">   1354.31719077 </i>
    <i name="ewald"> -11817.80634403 </i>
    <i name="hartreedc">  -2972.61140958 </i>
    <i name="XCdc">   -860.47837327 </i>
    <i name="pawpsdc">  21933.04612136 </i>
    <i name="pawaedc"> -20410.98272328 </i>
    <i name="eentropy">     -0.00810043 </i>
    <i name="bandstr">   -676.24772165 </i>
    <i name="atom">  13116.42875384 </i>
    <i name="e_fr_energy">   -334.34260628 </i>
    <i name="e_wo_entrp">   -334.33450585 </i>
    <i name="e_0_energy">   -334.33990614 </i>
   </energy>
  </scstep>
  <structure>
   <crystal>
    <varray name="basis" >
     <v>      -3.16692122      -3.16437012      -3.16887477 </v>
     <v>       1.56383496       1.57961953      -7.89999574 </v>
     <v>       7.89436463      -7.90590218      -1.56652209 </v>
    </varray>
    <i name="volume">    473.92165393 </i>
    <varray name="rec_basis" >
     <v>      -0.13700809      -0.12642525      -0.05240026 </v>
     <v>       0.04240312       0.06325371      -0.10554078 </v>
     <v>       0.06331031      -0.06324729      -0.00011390 </v>
    </varray>
   </crystal>
   <varray name="positions" >
    <v>       0.96463488       0.93056826       0.40143693 </v>
    <v>       0.63281452       0.26638499       0.40079683 </v>
    <v>       0.50007572       0.00139979      -0.00046978 </v>
    <v>      -0.00109029       0.00083059       0.00168996 </v>
    <v>       0.09803390       0.20319079       0.79890238 </v>
    <v>       0.03636829       0.06768219       0.59859701 </v>
    <v>       0.90083062       0.79916402       0.20165278 </v>
    <v>       0.80158737       0.59773766       0.40020795 </v>
    <v>       0.73344624       0.46662839       0.19941923 </v>
    <v>       0.66566198       0.33593332      -0.00021932 </v>
    <v>       0.36949457       0.73159094       0.60013819 </v>
    <v>       0.13269085       0.26884316       0.39979959 </v>
    <v>       0.83405851       0.66477877       0.00100582 </v>
    <v>       0.93150580       0.86645356       0.79707047 </v>
    <v>       0.56725662       0.13320484       0.19848377 </v>
    <v>       0.40234959       0.79669695       0.19968354 </v>
    <v>       0.43480527       0.86289394       0.79849944 </v>
    <v>       0.30154770       0.60049761       0.40066528 </v>
    <v>       0.46434166       0.93300164       0.40174403 </v>
    <v>       0.16813112       0.33387013       0.00051346 </v>
    <v>       0.27039845       0.53303316       0.80015771 </v>
    <v>       0.19784810       0.40202345       0.59912983 </v>
    <v>       0.06573819       0.13665584       0.20094282 </v>
    <v>       0.76622095       0.53195089       0.79901210 </v>
    <v>       0.69540521       0.40340890       0.60135076 </v>
    <v>       0.59873831       0.20116496       0.79855792 </v>
    <v>       0.53565214       0.06581718       0.60114233 </v>
    <v>       0.33375604       0.66311725       0.00023549 </v>
    <v>       0.23103101       0.46814350       0.19985347 </v>
   </varray>
  </structure>
  <varray name="forces" >
   <v>       0.43985713      -0.26698814       0.60710591 </v>
   <v>       0.08862508      -0.05239886       0.11755430 </v>
   <v>      -0.12329374       0.17621188      -0.07970121 </v>
   <v>       0.23145552      -0.10339813      -0.13538487 </v>
   <v>      -0.00626946       0.32294727      -0.23902086 </v>
   <v>      -0.35920796       0.08241160      -0.37559677 </v>
   <v>       0.20902562      -0.30703259       0.01801706 </v>
   <v>      -0.04294213      -0.30521486       0.10859399 </v>
   <v>      -0.09149033      -0.01219306       0.12721447 </v>
   <v>       0.06872758       0.13800203      -0.27364728 </v>
   <v>      -0.24677553      -0.26047109       0.08523629 </v>
   <v>       0.12938085       0.12096392      -0.23036063 </v>
   <v>      -0.00383138      -0.13502273       0.06807074 </v>
   <v>      -0.53904502       0.64609330       0.36519707 </v>
   <v>      -0.16588609       0.09010844       0.04683043 </v>
   <v>      -0.17479411      -0.18699000       0.20828474 </v>
   <v>      -0.31403356       0.07850121       0.48497046 </v>
   <v>       0.10460907      -0.28773666      -0.12016310 </v>
   <v>       0.40238505      -0.14120164       0.15371997 </v>
   <v>      -0.04770930      -0.16968458      -0.16956316 </v>
   <v>      -0.22092988      -0.20164491      -0.08330903 </v>
   <v>       0.23274365       0.55140749      -0.32788905 </v>
   <v>       0.43604579      -0.05365814      -0.55107335 </v>
   <v>      -0.29826859       0.11759237       0.09201237 </v>
   <v>       0.50097541       0.22717024      -0.31664015 </v>
   <v>      -0.10018234       0.31505725      -0.01656900 </v>
   <v>      -0.12902193      -0.46416123      -0.01344269 </v>
   <v>      -0.12240749      -0.05300705       0.45094329 </v>
   <v>       0.14225807       0.13433667      -0.00138993 </v>
  </varray>
  <varray name="stress" >
   <v>      33.35370692       0.68945348       4.15848150 </v>
   <v>       0.68945353      35.08762542       0.59588756 </v>
   <v>       4.15848162       0.59588751      34.17312583 </v>
  </varray>
  <energy>
   <i name="e_fr_energy">   -334.34260628 </i>
   <i name="e_wo_entrp">   -334.33990614 </i>
   <i name="e_0_energy">     -0.00810043 </i>
  </energy>
  <time name="totalsc">  320.93  321.50</time>
 </calculation>
 <calculation>
  <scstep>
   <time name="dav">   18.69   18.73</time>
   <time name="total">   19.30   19.35</time>
   <energy>
    <i name="alphaZ">   1340.15172218 </i>
    <i name="ewald"> -11825.35936594 </i>
    <i name="hartreedc">  -2915.19731461 </i>
    <i name="XCdc">   -861.99261419 </i>
    <i name="pawpsdc">  21933.21050481 </i>
    <i name="pawaedc"> -20411.22478133 </i>
    <i name="eentropy">     -0.00749382 </i>
    <i name="bandstr">   -710.45058008 </i>
    <i name="atom">  13116.42875384 </i>
    <i name="e_fr_energy">   -334.44116915 </i>
    <i name="e_wo_entrp">   -334.43367533 </i>
    <i name="e_0_energy">   -334.43867121 </i>
   </energy>
  </scstep>
  <scstep>
   <time name="dav">   24.37   24.41</time>
   <time name="total">   24.98   25.02</time>
   <energy>
    <i name="e_fr_energy">   -334.76186861 </i>
    <i name="e_wo_entrp">   -334.75024794 </i>
    <i name="e_0_energy">   -334.75799505 </i>
   </energy>
  </scstep>
  <scstep>
   <time name="dav">   25.31   25.33</time>
   <time name="total">   25.92   25.95</time>
   <energy>
    <i name="e_fr_energy">   -334.74591597 </i>
    <i name="e_wo_entrp">   -334.74175563 </i>
    <i name="e_0_energy">   -334.74452919 </i>
   </energy>
  </scstep>
  <scstep>
   <time name="dav">   25.33   25.36</time>
   <time name="total">   25.94   25.98</time>
   <energy>
    <i name="e_fr_energy">   -334.67154335 </i>
    <i name="e_wo_entrp">   -334.66328830 </i>
    <i name="e_0_energy">   -334.66879167 </i>
   </energy>
  </scstep>
  <scstep>
   <time name="dav">   25.18   25.20</time>
   <time name="total">   25.79   25.82</time>
   <energy>
    <i name="e_fr_energy">   -334.65325831 </i>
    <i name="e_wo_entrp">   -334.64398443 </i>
    <i name="e_0_energy">   -334.65016702 </i>
   </energy>
  </scstep>
  <scstep>
   <time name="dav">   26.46   26.48</time>
   <time name="total">   27.07   27.11</time>
   <energy>
    <i name="e_fr_energy">   -334.65248890 </i>
    <i name="e_wo_entrp">   -334.64473527 </i>
    <i name="e_0_energy">   -334.64990435 </i>
   </energy>
  </scstep>
  <scstep>
   <time name="dav">   27.84   27.88</time>
   <time name="total">   28.46   28.50</time>
   <energy>
    <i name="e_fr_energy">   -334.64594917 </i>
    <i name="e_wo_entrp">   -334.63739256 </i>
    <i name="e_0_energy">   -334.64309697 </i>
   </energy>
  </scstep>
  <scstep>
   <time name="dav">   26.43   26.46</time>
   <time name="total">   27.06   27.10</time>
   <energy>
    <i name="e_fr_energy">   -334.64518583 </i>
    <i name="e_wo_entrp">   -334.63634927 </i>
    <i name="e_0_energy">   -334.64224031 </i>
   </energy>
  </scstep>
  <scstep>
   <time name="dav">   24.86   24.90</time>
   <time name="total">   25.48   25.53</time>
   <energy>
    <i name="e_fr_energy">   -334.64489093 </i>
    <i name="e_wo_entrp">   -334.63648154 </i>
    <i name="e_0_energy">   -334.64208780 </i>
   </energy>
  </scstep>
  <scstep>
   <time name="dav">   22.90   22.93</time>
   <time name="total">   23.52   23.55</time>
   <energy>
    <i name="e_fr_energy">   -334.64498249 </i>
    <i name="e_wo_entrp">   -334.63644517 </i>
    <i name="e_0_energy">   -334.64213671 </i>
   </energy>
  </scstep>
  <scstep>
   <time name="dav">   23.10   23.13</time>
   <time name="total">   23.73   23.76</time>
   <energy>
    <i name="e_fr_energy">   -334.64521274 </i>
    <i name="e_wo_entrp">   -334.63677634 </i>
    <i name="e_0_energy">   -334.64240061 </i>
   </energy>
  </scstep>
  <scstep>
   <time name="dav">   23.30   23.33</time>
   <time name="total">   23.94   23.98</time>
   <energy>
    <i name="e_fr_energy">   -334.64507320 </i>
    <i name="e_wo_entrp">   -334.63662037 </i>
    <i name="e_0_energy">   -334.64225559 </i>
   </energy>
  </scstep>
  <scstep>
   <time name="dav">   14.85   14.87</time>
   <time name="total">   14.88   14.90</time>
   <energy>
    <i name="alphaZ">   1340.15172218 </i>
    <i name="ewald"> -11825.35936594 </i>
    <i name="hartreedc">  -2930.57964931 </i>
    <i name="XCdc">   -861.45999988 </i>
    <i name="pawpsdc">  21546.94443071 </i>
    <i name="pawaedc"> -20025.51528295 </i>
    <i name="eentropy">     -0.00843573 </i>
    <i name="bandstr">   -695.24719866 </i>
    <i name="atom">  13116.42875384 </i>
    <i name="e_fr_energy">   -334.64502574 </i>
    <i name="e_wo_entrp">   -334.63659001 </i>
    <i name="e_0_energy">   -334.64221383 </i>
   </energy>
  </scstep>
  <structure>
   <crystal>
    <varray name="basis" >
     <v>      -3.18572200      -3.17964678      -3.18974221 </v>
     <v>       1.54768950       1.58376399      -7.92312800 </v>
     <v>       7.91025839      -7.93620321      -1.55374009 </v>
    </varray>
    <i name="volume">    478.93102876 </i>
    <varray name="rec_basis" >
     <v>      -0.13642948      -0.12584126      -0.05180445 </v>
     <v>       0.04254078       0.06301840      -0.10530611 </v>
     <v>       0.06315011      -0.06301035      -0.00025959 </v>
    </varray>
   </crystal>
   <varray name="positions" >
    <v>       0.96149471       0.92676980       0.40375936 </v>
    <v>       0.63210303       0.26583922       0.40163304 </v>
    <v>       0.50009297       0.00283168      -0.00135262 </v>
    <v>      -0.00221785       0.00194446       0.00353113 </v>
    <v>       0.09581064       0.20681932       0.79750980 </v>
    <v>       0.04024782       0.06926671       0.59677638 </v>
    <v>       0.90169989       0.79820029       0.20379224 </v>
    <v>       0.80385731       0.59515187       0.40083116 </v>
    <v>       0.73374092       0.46608222       0.19885114 </v>
    <v>       0.66456584       0.33899257      -0.00050081 </v>
    <v>       0.37333782       0.72928890       0.60026161 </v>
    <v>       0.13161868       0.27150477       0.39967190 </v>
    <v>       0.83499151       0.66294643       0.00197520 </v>
    <v>       0.92940803       0.86570452       0.79278570 </v>
    <v>       0.56794178       0.13292754       0.19691320 </v>
    <v>       0.40511752       0.79310184       0.19947002 </v>
    <v>       0.43610814       0.85842949       0.79668759 </v>
    <v>       0.30348252       0.60083142       0.40186192 </v>
    <v>       0.46135249       0.93253302       0.40399981 </v>
    <v>       0.17024930       0.33441013       0.00111033 </v>
    <v>       0.27483444       0.53243141       0.80023825 </v>
    <v>       0.19386391       0.40577004       0.59792173 </v>
    <v>       0.06436407       0.14118178       0.20252304 </v>
    <v>       0.76650652       0.53051144       0.79753625 </v>
    <v>       0.68974124       0.40787980       0.60283731 </v>
    <v>       0.59709671       0.20251198       0.79675510 </v>
    <v>       0.53954417       0.06424275       0.60258170 </v>
    <v>       0.33406856       0.65891786       0.00027616 </v>
    <v>       0.22831065       0.46964343       0.19976236 </v>
   </varray>
  </structure>
  <varray name="forces" >
   <v>       0.33931457      -0.15307388       0.29116079 </v>
   <v>      -0.01321426       0.01676350       0.12455684 </v>
   <v>      -0.22008644       0.11846318       0.16523433 </v>
   <v>      -0.11847542       0.05626543       0.03182632 </v>
   <v>      -0.09867801       0.02857798       0.07618595 </v>
   <v>      -0.06660797       0.03433754      -0.31770425 </v>
   <v>       0.06840636      -0.05623325       0.02419946 </v>
   <v>       0.00888627      -0.15525840      -0.03923432 </v>
   <v>       0.04388019      -0.08328204       0.13941566 </v>
   <v>      -0.09168489       0.02336608       0.00614378 </v>
   <v>      -0.11692119      -0.07749794      -0.01845968 </v>
   <v>       0.10730491       0.01610473      -0.02519658 </v>
   <v>      -0.03580405       0.20869829      -0.18798586 </v>
   <v>      -0.32008099       0.34067174       0.20729357 </v>
   <v>       0.09307620      -0.06853378       0.02188728 </v>
   <v>       0.00527101      -0.01834385      -0.06394941 </v>
   <v>       0.14822425       0.08519863       0.07498398 </v>
   <v>      -0.03903778      -0.17351028       0.00774882 </v>
   <v>       0.14319256       0.01602336       0.06946377 </v>
   <v>      -0.07959576      -0.08432307      -0.03305101 </v>
   <v>      -0.04939990      -0.03658256       0.10961459 </v>
   <v>       0.26160903       0.43524013      -0.26443346 </v>
   <v>       0.37538675      -0.16532199      -0.24343464 </v>
   <v>      -0.12996248      -0.13614458      -0.18674056 </v>
   <v>      -0.03013962       0.10140330      -0.01704261 </v>
   <v>      -0.09480328       0.00551474       0.11845017 </v>
   <v>      -0.11270528      -0.25997702      -0.09466193 </v>
   <v>       0.00133417       0.09354051      -0.04299738 </v>
   <v>       0.02131105      -0.11208648       0.06672634 </v>
  </varray>
  <varray name="stress" >
   <v>      10.61532597       1.04410324       1.20150326 </v>
   <v>       1.04410330      10.66671052       0.60164319 </v>
   <v>       1.20150331       0.60164326      10.89267996 </v>
  </varray>
  <energy>
   <i name="e_fr_energy">   -334.64502574 </i>
   <i name="e_wo_entrp">   -334.64221383 </i>
   <i name="e_0_energy">     -0.00843573 </i>
  </energy>
  <time name="totalsc">  334.49  334.98</time>
 </calculation>
 <calculation>
  <scstep>
   <time name="dav">   18.80   18.82</time>
   <time name="total">   19.42   19.44</time>
   <energy>
    <i name="alphaZ">   1334.34178573 </i>
    <i name="ewald"> -11826.69159330 </i>
    <i name="hartreedc">  -2908.31359030 </i>
    <i name="XCdc">   -862.08403665 </i>
    <i name="pawpsdc">  21547.03990545 </i>
    <i name="pawaedc"> -20025.61945242 </i>
    <i name="eentropy">     -0.00907830 </i>
    <i name="bandstr">   -709.73561972 </i>
    <i name="atom">  13116.42875384 </i>
    <i name="e_fr_energy">   -334.64292567 </i>
    <i name="e_wo_entrp">   -334.63384737 </i>
    <i name="e_0_energy">   -334.63989957 </i>
   </energy>
  </scstep>
  <scstep>
   <time name="dav">   24.83   24.86</time>
   <time name="total">   25.46   25.50</time>
   <energy>
    <i name="e_fr_energy">   -334.69380090 </i>
    <i name="e_wo_entrp">   -334.68286358 </i>
    <i name="e_0_energy">   -334.69015512 </i>
   </energy>
  </scstep>
  <scstep>
   <time name="dav">   25.59   25.62</time>
   <time name="total">   26.20   26.24</time>
   <energy>
    <i name="e_fr_energy">   -334.68934128 </i>
    <i name="e_wo_entrp">   -334.68148240 </i>
    <i name="e_0_energy">   -334.68672166 </i>
   </energy>
  </scstep>
  <scstep>
   <time name="dav">   26.15   26.19</time>
   <time name="total">   26.76   26.81</time>
   <energy>
    <i name="e_fr_energy">   -334.67823499 </i>
    <i name="e_wo_entrp">   -334.66882676 </i>
    <i name="e_0_energy">   -334.67509891 </i>
   </energy>
  </scstep>
  <scstep>
   <time name="dav">   25.52   25.56</time>
   <time name="total">   26.21   26.73</time>
   <energy>
    <i name="e_fr_energy">   -334.67554159 </i>
    <i name="e_wo_entrp">   -334.66591965 </i>
    <i name="e_0_energy">   -334.67233428 </i>
   </energy>
  </scstep>
  <scstep>
   <time name="dav">   26.18   26.21</time>
   <time name="total">   26.79   26.83</time>
   <energy>
    <i name="e_fr_energy">   -334.67517544 </i>
    <i name="e_wo_entrp">   -334.66602776 </i>
    <i name="e_0_energy">   -334.67212621 </i>
   </energy>
  </scstep>
  <scstep>
   <time name="dav">   27.22   27.26</time>
   <time name="total">   27.83   27.88</time>
   <energy>
    <i name="e_fr_energy">   -334.67420800 </i>
    <i name="e_wo_entrp">   -334.66488974 </i>
    <i name="e_0_energy">   -334.67110192 </i>
   </energy>
  </scstep>
  <scstep>
   <time name="dav">   23.35   23.38</time>
   <time name="total">   23.96   24.00</time>
   <energy>
    <i name="e_fr_energy">   -334.67407635 </i>
    <i name="e_wo_entrp">   -334.66460288 </i>
    <i name="e_0_energy">   -334.67091853 </i>
   </energy>
  </scstep>
  <scstep>
   <time name="dav">   21.08   21.11</time>
   <time name="total">   21.70   21.73</time>
   <energy>
    <i name="e_fr_energy">   -334.67403060 </i>
    <i name="e_wo_entrp">   -334.66472673 </i>
    <i name="e_0_energy">   -334.67092931 </i>
   </energy>
  </scstep>
  <scstep>
   <time name="dav">   16.11   16.13</time>
   <time name="total">   16.14   16.16</time>
   <energy>
    <i name="alphaZ">   1334.34178573 </i>
    <i name="ewald"> -11826.69159330 </i>
    <i name="hartreedc">  -2915.07003722 </i>
    <i name="XCdc">   -861.85445790 </i>
    <i name="pawpsdc">  21406.27048815 </i>
    <i name="pawaedc"> -19884.83140581 </i>
    <i name="eentropy">     -0.00936163 </i>
    <i name="bandstr">   -703.25822134 </i>
    <i name="atom">  13116.42875384 </i>
    <i name="e_fr_energy">   -334.67404948 </i>
    <i name="e_wo_entrp">   -334.66468785 </i>
    <i name="e_0_energy">   -334.67092894 </i>
   </energy>
  </scstep>
  <structure>
   <crystal>
    <varray name="basis" >
     <v>      -3.19351806      -3.18598149      -3.19839523 </v>
     <v>       1.54099452       1.58548255      -7.93272017 </v>
     <v>       7.91684900      -7.94876802      -1.54843983 </v>
    </varray>
    <i name="volume">    481.01637066 </i>
    <varray name="rec_basis" >
     <v>      -0.13619157      -0.12560074      -0.05155965 </v>
     <v>       0.04259731       0.06292132      -0.10520945 </v>
     <v>       0.06308413      -0.06291261      -0.00031950 </v>
    </varray>
   </crystal>
   <varray name="positions" >
    <v>       0.96020343       0.92520093       0.40471729 </v>
    <v>       0.63180996       0.26561439       0.40197842 </v>
    <v>       0.50009873       0.00342329      -0.00171687 </v>
    <v>      -0.00268489       0.00240759       0.00429286 </v>
    <v>       0.09489009       0.20831984       0.79693573 </v>
    <v>       0.04184642       0.06991978       0.59602482 </v>
    <v>       0.90205862       0.79780360       0.20467639 </v>
    <v>       0.80479617       0.59408204       0.40108767 </v>
    <v>       0.73386332       0.46585553       0.19861599 </v>
    <v>       0.66411029       0.34025849      -0.00061568 </v>
    <v>       0.37492531       0.72833567       0.60031178 </v>
    <v>       0.13117344       0.27260629       0.39962042 </v>
    <v>       0.83537803       0.66218902       0.00237511 </v>
    <v>       0.92854565       0.86539033       0.79101354 </v>
    <v>       0.56822529       0.13281098       0.19626375 </v>
    <v>       0.40626327       0.79161334       0.19938009 </v>
    <v>       0.43665145       0.85657978       0.79593623 </v>
    <v>       0.30427947       0.60097050       0.40235703 </v>
    <v>       0.46011952       0.93234204       0.40493197 </v>
    <v>       0.17112185       0.33463385       0.00135760 </v>
    <v>       0.27666433       0.53218167       0.80027163 </v>
    <v>       0.19221702       0.40731992       0.59742385 </v>
    <v>       0.06379139       0.14305670       0.20317866 </v>
    <v>       0.76662659       0.52991412       0.79692531 </v>
    <v>       0.68739971       0.40973262       0.60345379 </v>
    <v>       0.59641891       0.20306779       0.79601027 </v>
    <v>       0.54115037       0.06359203       0.60317634 </v>
    <v>       0.33420244       0.65718000       0.00029079 </v>
    <v>       0.22718714       0.47026454       0.19972524 </v>
   </varray>
  </structure>
  <varray name="forces" >
   <v>       0.30770127      -0.10580761       0.15991093 </v>
   <v>      -0.06263299       0.03934175       0.12666180 </v>
   <v>      -0.25651509       0.09665901       0.25860263 </v>
   <v>      -0.24709241       0.11584224       0.08723805 </v>
   <v>      -0.14180204      -0.08363378       0.19692396 </v>
   <v>       0.04693629       0.01281030      -0.28883399 </v>
   <v>       0.01139850       0.04060758       0.03116981 </v>
   <v>       0.03287032      -0.08878851      -0.10735079 </v>
   <v>       0.10145759      -0.11419962       0.13921707 </v>
   <v>      -0.16137675      -0.02692163       0.12611149 </v>
   <v>      -0.05560869       0.00472405      -0.06548083 </v>
   <v>       0.09962968      -0.02768047       0.05429498 </v>
   <v>      -0.03941187       0.33257398      -0.28765685 </v>
   <v>      -0.26517782       0.21740880       0.16881852 </v>
   <v>       0.18377474      -0.14560618      -0.01722779 </v>
   <v>       0.09053090       0.04189396      -0.15911178 </v>
   <v>       0.30779431       0.07528563      -0.07139458 </v>
   <v>      -0.08579547      -0.12671275       0.07519346 </v>
   <v>       0.05614829       0.07556183       0.04063411 </v>
   <v>      -0.09491104      -0.04717022       0.01984173 </v>
   <v>       0.01614837       0.03825339       0.19040998 </v>
   <v>       0.27755698       0.39567281      -0.24400750 </v>
   <v>       0.35292283      -0.19342420      -0.13583847 </v>
   <v>      -0.05319677      -0.24092830      -0.30609543 </v>
   <v>      -0.26309185       0.04908271       0.11967760 </v>
   <v>      -0.08390369      -0.11376680       0.16676372 </v>
   <v>      -0.10221217      -0.16061728      -0.12782873 </v>
   <v>       0.05314061       0.14994206      -0.24606492 </v>
   <v>      -0.02528202      -0.21040275       0.09542185 </v>
  </varray>
  <varray name="stress" >
   <v>       3.00105395       1.31066276      -0.28037662 </v>
   <v>       1.31066277       1.90609702       0.54865499 </v>
   <v>      -0.28037662       0.54865502       3.16137264 </v>
  </varray>
  <energy>
   <i name="e_fr_energy">   -334.67404948 </i>
   <i name="e_wo_entrp">   -334.67092894 </i>
   <i name="e_0_energy">     -0.00936163 </i>
  </energy>
  <time name="totalsc">  258.16  259.04</time>
 </calculation>
 <calculation>
  <scstep>
   <time name="dav">   18.36   18.39</time>
   <time name="total">   18.98   19.02</time>
   <energy>
    <i name="alphaZ">   1330.06726483 </i>
    <i name="ewald"> -11810.79548709 </i>
    <i name="hartreedc">  -2915.33425422 </i>
    <i name="XCdc">   -862.26034969 </i>
    <i name="pawpsdc">  21403.62867490 </i>
    <i name="pawaedc"> -19882.34067373 </i>
    <i name="eentropy">     -0.00753556 </i>
    <i name="bandstr">   -714.09530548 </i>
    <i name="atom">  13116.42875384 </i>
    <i name="e_fr_energy">   -334.70891220 </i>
    <i name="e_wo_entrp">   -334.70137664 </i>
    <i name="e_0_energy">   -334.70640035 </i>
   </energy>
  </scstep>
  <scstep>
   <time name="dav">   25.13   25.17</time>
   <time name="total">   25.74   25.78</time>
   <energy>
    <i name="e_fr_energy">   -334.74562395 </i>
    <i name="e_wo_entrp">   -334.73568771 </i>
    <i name="e_0_energy">   -334.74231187 </i>
   </energy>
  </scstep>
  <scstep>
   <time name="dav">   25.34   25.39</time>
   <time name="total">   26.01   26.45</time>
   <energy>
    <i name="e_fr_energy">   -334.73929607 </i>
    <i name="e_wo_entrp">   -334.73157539 </i>
    <i name="e_0_energy">   -334.73672251 </i>
   </energy>
  </scstep>
  <scstep>
   <time name="dav">   25.38   25.42</time>
   <time name="total">   26.01   26.04</time>
   <energy>
    <i name="e_fr_energy">   -334.73373276 </i>
    <i name="e_wo_entrp">   -334.72538278 </i>
    <i name="e_0_energy">   -334.73094943 </i>
   </energy>
  </scstep>
  <scstep>
   <time name="dav">   24.75   24.78</time>
   <time name="total">   25.37   25.40</time>
   <energy>
    <i name="e_fr_energy">   -334.73233043 </i>
    <i name="e_wo_entrp">   -334.72379768 </i>
    <i name="e_0_energy">   -334.72948618 </i>
   </energy>
  </scstep>
  <scstep>
   <time name="dav">   26.27   26.31</time>
   <time name="total">   26.90   26.95</time>
   <energy>
    <i name="e_fr_energy">   -334.73156164 </i>
    <i name="e_wo_entrp">   -334.72283992 </i>
    <i name="e_0_energy">   -334.72865440 </i>
   </energy>
  </scstep>
  <scstep>
   <time name="dav">   25.31   25.34</time>
   <time name="total">   25.93   25.97</time>
   <energy>
    <i name="e_fr_energy">   -334.73122258 </i>
    <i name="e_wo_entrp">   -334.72283863 </i>
    <i name="e_0_energy">   -334.72842793 </i>
   </energy>
  </scstep>
  <scstep>
   <time name="dav">   21.10   21.13</time>
   <time name="total">   21.72   21.75</time>
   <energy>
    <i name="e_fr_energy">   -334.73107052 </i>
    <i name="e_wo_entrp">   -334.72257714 </i>
    <i name="e_0_energy">   -334.72823940 </i>
   </energy>
  </scstep>
  <scstep>
   <time name="dav">   13.69   13.71</time>
   <time name="total">   13.73   13.75</time>
   <energy>
    <i name="alphaZ">   1330.06726483 </i>
    <i name="ewald"> -11810.79548709 </i>
    <i name="hartreedc">  -2921.20804585 </i>
    <i name="XCdc">   -862.08572666 </i>
    <i name="pawpsdc">  21288.32387280 </i>
    <i name="pawaedc"> -19766.84688592 </i>
    <i name="eentropy">     -0.00846922 </i>
    <i name="bandstr">   -708.60635402 </i>
    <i name="atom">  13116.42875384 </i>
    <i name="e_fr_energy">   -334.73107730 </i>
    <i name="e_wo_entrp">   -334.72260808 </i>
    <i name="e_0_energy">   -334.72825423 </i>
   </energy>
  </scstep>
  <structure>
   <crystal>
    <varray name="basis" >
     <v>      -3.19876449      -3.19074346      -3.20315676 </v>
     <v>       1.54288927       1.58594943      -7.94199843 </v>
     <v>       7.92221151      -7.95237624      -1.55135350 </v>
    </varray>
    <i name="volume">    482.56224326 </i>
    <varray name="rec_basis" >
     <v>      -0.13597858      -0.12542346      -0.05146251 </v>
     <v>       0.04252868       0.06286961      -0.10509634 </v>
     <v>       0.06304042      -0.06288660      -0.00031108 </v>
    </varray>
   </crystal>
   <varray name="positions" >
    <v>       0.95887838       0.92465587       0.40565930 </v>
    <v>       0.63167710       0.26516386       0.40182753 </v>
    <v>       0.50039236       0.00251553      -0.00246057 </v>
    <v>      -0.00229954       0.00208956       0.00369266 </v>
    <v>       0.09536728       0.20754286       0.79673789 </v>
    <v>       0.04228766       0.07104044       0.59598715 </v>
    <v>       0.90185411       0.79773968       0.20474547 </v>
    <v>       0.80530822       0.59414928       0.40136240 </v>
    <v>       0.73367490       0.46528105       0.19900156 </v>
    <v>       0.66462886       0.33976333      -0.00089595 </v>
    <v>       0.37547247       0.72834862       0.60020174 </v>
    <v>       0.13071069       0.27266426       0.39986107 </v>
[...]
       <r>    4.6628    1.0000 </r>
       <r>    4.6987    1.0000 </r>
       <r>    4.7892    1.0000 </r>
       <r>    4.8285    1.0000 </r>
       <r>    4.8778    1.0000 </r>
       <r>    4.9552    1.0000 </r>
       <r>    4.9829    1.0000 </r>
       <r>    5.0170    1.0000 </r>
       <r>    5.0614    1.0000 </r>
       <r>    5.1310    1.0000 </r>
       <r>    5.1914    1.0000 </r>
       <r>    5.2553    1.0000 </r>
       <r>    5.3091    1.0000 </r>
       <r>    5.4010    1.0000 </r>
       <r>    5.4383    1.0000 </r>
       <r>    5.4762    1.0000 </r>
       <r>    5.5317    1.0000 </r>
       <r>    5.5828    1.0000 </r>
       <r>    5.6331    1.0000 </r>
       <r>    5.7226    1.0000 </r>
       <r>    5.8131    1.0000 </r>
       <r>    5.8358    1.0000 </r>
       <r>    5.9186    1.0000 </r>
       <r>    5.9445    1.0000 </r>
       <r>    6.0221    1.0000 </r>
       <r>    6.0643    1.0000 </r>
       <r>    6.1462    1.0000 </r>
       <r>    6.1897    1.0000 </r>
       <r>    6.2538    1.0000 </r>
       <r>    6.2766    1.0001 </r>
       <r>    6.3208    1.0002 </r>
       <r>    6.3639    1.0007 </r>
       <r>    6.4213    1.0025 </r>
       <r>    6.4646    1.0057 </r>
       <r>    6.5020    1.0105 </r>
       <r>    6.5497    1.0196 </r>
       <r>    6.6252    1.0347 </r>
       <r>    6.6476    1.0352 </r>
       <r>    6.7230    0.9923 </r>
       <r>    6.8256    0.7386 </r>
       <r>    6.9130    0.3816 </r>
       <r>    6.9639    0.1925 </r>
       <r>    7.0626   -0.0095 </r>
       <r>    7.2004   -0.0241 </r>
       <r>    7.2924   -0.0071 </r>
       <r>    7.3792   -0.0013 </r>
       <r>    7.5059   -0.0001 </r>
       <r>    7.5971   -0.0000 </r>
       <r>    7.8127   -0.0000 </r>
       <r>    7.8574   -0.0000 </r>
       <r>    7.9701   -0.0000 </r>
       <r>    8.0772   -0.0000 </r>
       <r>    8.1734   -0.0000 </r>
       <r>    8.3087   -0.0000 </r>
       <r>    8.6277   -0.0000 </r>
       <r>    8.7650   -0.0000 </r>
       <r>    8.8109   -0.0000 </r>
       <r>    8.9579   -0.0000 </r>
       <r>    8.9965   -0.0000 </r>
       <r>    9.0911   -0.0000 </r>
       <r>    9.1322   -0.0000 </r>
      </set>
     </set>
    </set>
   </array>
  </eigenvalues>
  <separator name="orbital magnetization" >
   <v name="MAGDIPOLOUT">      0.00000000      0.00000000      0.00000000</v>
  </separator>
  <dos>
   <i name="efermi">      6.88475575 </i>
   <total>
    <array>
     <dimension dim="1">gridpoints</dimension>
     <dimension dim="2">spin</dimension>
     <field>energy</field>
     <field>total</field>
     <field>integrated</field>
     <set>
      <set comment="spin 1">
       <r>   -50.1239     0.0000     0.0000 </r>
       <r>   -49.9162     0.0000     0.0000 </r>
       <r>   -49.7086     0.0000     0.0000 </r>
       <r>   -49.5010     0.0000     0.0000 </r>
       <r>   -49.2933     0.0000     0.0000 </r>
       <r>   -49.0857    -0.0000    -0.0000 </r>
       <r>   -48.8781    -0.0000    -0.0000 </r>
       <r>   -48.6704    -0.0000    -0.0000 </r>
       <r>   -48.4628    -0.0000    -0.0000 </r>
       <r>   -48.2552    -0.0000    -0.0000 </r>
       <r>   -48.0475    -0.0000    -0.0000 </r>
       <r>   -47.8399    -0.0041    -0.0009 </r>
       <r>   -47.6323    -0.2583    -0.0545 </r>
       <r>   -47.4246    -0.0882    -0.0728 </r>
       <r>   -47.2170    15.6520     3.1771 </r>
       <r>   -47.0094    27.1714     8.8187 </r>
       <r>   -46.8017    13.2050    11.5605 </r>
       <r>   -46.5941     2.5209    12.0839 </r>
       <r>   -46.3865    -0.3797    12.0051 </r>
       <r>   -46.1788    -0.0245    12.0000 </r>
       <r>   -45.9712    -0.0001    12.0000 </r>
       <r>   -45.7636    -0.0000    12.0000 </r>
       <r>   -45.5559    -0.0000    12.0000 </r>
       <r>   -45.3483     0.0000    12.0000 </r>
       <r>   -45.1407     0.0000    12.0000 </r>
       <r>   -44.9330     0.0000    12.0000 </r>
       <r>   -44.7254     0.0000    12.0000 </r>
       <r>   -44.5178     0.0000    12.0000 </r>
       <r>   -44.3101     0.0000    12.0000 </r>
       <r>   -44.1025     0.0000    12.0000 </r>
       <r>   -43.8949     0.0000    12.0000 </r>
       <r>   -43.6872     0.0000    12.0000 </r>
       <r>   -43.4796     0.0000    12.0000 </r>
       <r>   -43.2720     0.0000    12.0000 </r>
       <r>   -43.0643     0.0000    12.0000 </r>
       <r>   -42.8567     0.0000    12.0000 </r>
       <r>   -42.6491     0.0000    12.0000 </r>
       <r>   -42.4414     0.0000    12.0000 </r>
       <r>   -42.2338     0.0000    12.0000 </r>
       <r>   -42.0262     0.0000    12.0000 </r>
       <r>   -41.8185     0.0000    12.0000 </r>
       <r>   -41.6109     0.0000    12.0000 </r>
       <r>   -41.4033     0.0000    12.0000 </r>
       <r>   -41.1956     0.0000    12.0000 </r>
       <r>   -40.9880     0.0000    12.0000 </r>
       <r>   -40.7804     0.0000    12.0000 </r>
       <r>   -40.5727     0.0000    12.0000 </r>
       <r>   -40.3651     0.0000    12.0000 </r>
       <r>   -40.1575     0.0000    12.0000 </r>
       <r>   -39.9499     0.0000    12.0000 </r>
       <r>   -39.7422     0.0000    12.0000 </r>
       <r>   -39.5346     0.0000    12.0000 </r>
       <r>   -39.3270     0.0000    12.0000 </r>
       <r>   -39.1193     0.0000    12.0000 </r>
       <r>   -38.9117     0.0000    12.0000 </r>
       <r>   -38.7041     0.0000    12.0000 </r>
       <r>   -38.4964     0.0000    12.0000 </r>
       <r>   -38.2888     0.0000    12.0000 </r>
       <r>   -38.0812     0.0000    12.0000 </r>
       <r>   -37.8735     0.0000    12.0000 </r>
       <r>   -37.6659     0.0000    12.0000 </r>
       <r>   -37.4583     0.0000    12.0000 </r>
       <r>   -37.2506     0.0000    12.0000 </r>
       <r>   -37.0430     0.0000    12.0000 </r>
       <r>   -36.8354     0.0000    12.0000 </r>
       <r>   -36.6277     0.0000    12.0000 </r>
       <r>   -36.4201     0.0000    12.0000 </r>
       <r>   -36.2125     0.0000    12.0000 </r>
       <r>   -36.0048     0.0000    12.0000 </r>
       <r>   -35.7972     0.0000    12.0000 </r>
       <r>   -35.5896     0.0000    12.0000 </r>
       <r>   -35.3819     0.0000    12.0000 </r>
       <r>   -35.1743     0.0000    12.0000 </r>
       <r>   -34.9667     0.0000    12.0000 </r>
       <r>   -34.7590     0.0000    12.0000 </r>
       <r>   -34.5514     0.0000    12.0000 </r>
       <r>   -34.3438     0.0000    12.0000 </r>
       <r>   -34.1361     0.0000    12.0000 </r>
       <r>   -33.9285     0.0000    12.0000 </r>
       <r>   -33.7209     0.0000    12.0000 </r>
       <r>   -33.5132     0.0000    12.0000 </r>
       <r>   -33.3056     0.0000    12.0000 </r>
       <r>   -33.0980     0.0000    12.0000 </r>
       <r>   -32.8903     0.0000    12.0000 </r>
       <r>   -32.6827     0.0000    12.0000 </r>
       <r>   -32.4751     0.0000    12.0000 </r>
       <r>   -32.2674     0.0000    12.0000 </r>
       <r>   -32.0598     0.0000    12.0000 </r>
       <r>   -31.8522     0.0000    12.0000 </r>
       <r>   -31.6445     0.0000    12.0000 </r>
       <r>   -31.4369     0.0000    12.0000 </r>
       <r>   -31.2293     0.0000    12.0000 </r>
       <r>   -31.0216     0.0000    12.0000 </r>
       <r>   -30.8140     0.0000    12.0000 </r>
       <r>   -30.6064     0.0000    12.0000 </r>
       <r>   -30.3987     0.0000    12.0000 </r>
       <r>   -30.1911     0.0000    12.0000 </r>
       <r>   -29.9835     0.0000    12.0000 </r>
       <r>   -29.7759     0.0000    12.0000 </r>
       <r>   -29.5682     0.0000    12.0000 </r>
       <r>   -29.3606     0.0000    12.0000 </r>
       <r>   -29.1530     0.0000    12.0000 </r>
       <r>   -28.9453     0.0000    12.0000 </r>
       <r>   -28.7377     0.0000    12.0000 </r>
       <r>   -28.5301     0.0000    12.0000 </r>
       <r>   -28.3224     0.0000    12.0000 </r>
       <r>   -28.1148     0.0000    12.0000 </r>
       <r>   -27.9072     0.0000    12.0000 </r>
       <r>   -27.6995     0.0000    12.0000 </r>
       <r>   -27.4919     0.0000    12.0000 </r>
       <r>   -27.2843     0.0000    12.0000 </r>
       <r>   -27.0766     0.0000    12.0000 </r>
       <r>   -26.8690     0.0000    12.0000 </r>
       <r>   -26.6614     0.0000    12.0000 </r>
       <r>   -26.4537     0.0000    12.0000 </r>
       <r>   -26.2461     0.0000    12.0000 </r>
       <r>   -26.0385     0.0000    12.0000 </r>
       <r>   -25.8308     0.0000    12.0000 </r>
       <r>   -25.6232    -0.0000    12.0000 </r>
       <r>   -25.4156    -0.0000    12.0000 </r>
       <r>   -25.2079    -0.0000    12.0000 </r>
       <r>   -25.0003    -0.0000    12.0000 </r>
       <r>   -24.7927    -0.0000    12.0000 </r>
       <r>   -24.5850    -0.0000    12.0000 </r>
       <r>   -24.3774    -0.0087    11.9982 </r>
       <r>   -24.1698    -0.3016    11.9356 </r>
       <r>   -23.9621     1.2463    12.1943 </r>
       <r>   -23.7545    10.6936    14.4147 </r>
       <r>   -23.5469    18.4098    18.2371 </r>
       <r>   -23.3392    42.4981    27.0611 </r>
       <r>   -23.1316    49.0699    37.2497 </r>
       <r>   -22.9240    33.9198    44.2925 </r>
       <r>   -22.7163    11.6924    46.7202 </r>
       <r>   -22.5087     6.2083    48.0093 </r>
       <r>   -22.3011     0.0726    48.0244 </r>
       <r>   -22.0934    -0.1142    48.0007 </r>
       <r>   -21.8858    -0.0032    48.0000 </r>
       <r>   -21.6782    -0.0000    48.0000 </r>
       <r>   -21.4705    -0.0000    48.0000 </r>
       <r>   -21.2629    -0.0000    48.0000 </r>
       <r>   -21.0553     0.0000    48.0000 </r>
       <r>   -20.8476     0.0000    48.0000 </r>
       <r>   -20.6400     0.0000    48.0000 </r>
       <r>   -20.4324     0.0000    48.0000 </r>
       <r>   -20.2247     0.0000    48.0000 </r>
       <r>   -20.0171     0.0000    48.0000 </r>
       <r>   -19.8095     0.0000    48.0000 </r>
       <r>   -19.6019     0.0000    48.0000 </r>
       <r>   -19.3942     0.0000    48.0000 </r>
       <r>   -19.1866     0.0000    48.0000 </r>
       <r>   -18.9790     0.0000    48.0000 </r>
       <r>   -18.7713     0.0000    48.0000 </r>
       <r>   -18.5637     0.0000    48.0000 </r>
       <r>   -18.3561     0.0000    48.0000 </r>
       <r>   -18.1484     0.0000    48.0000 </r>
       <r>   -17.9408     0.0000    48.0000 </r>
       <r>   -17.7332     0.0000    48.0000 </r>
       <r>   -17.5255     0.0000    48.0000 </r>
       <r>   -17.3179     0.0000    48.0000 </r>
       <r>   -17.1103     0.0000    48.0000 </r>
       <r>   -16.9026     0.0000    48.0000 </r>
       <r>   -16.6950     0.0000    48.0000 </r>
       <r>   -16.4874     0.0000    48.0000 </r>
       <r>   -16.2797     0.0000    48.0000 </r>
       <r>   -16.0721     0.0000    48.0000 </r>
       <r>   -15.8645     0.0000    48.0000 </r>
       <r>   -15.6568     0.0000    48.0000 </r>
       <r>   -15.4492     0.0000    48.0000 </r>
       <r>   -15.2416     0.0000    48.0000 </r>
       <r>   -15.0339     0.0000    48.0000 </r>
       <r>   -14.8263     0.0000    48.0000 </r>
       <r>   -14.6187     0.0000    48.0000 </r>
       <r>   -14.4110     0.0000    48.0000 </r>
       <r>   -14.2034     0.0000    48.0000 </r>
       <r>   -13.9958     0.0000    48.0000 </r>
       <r>   -13.7881     0.0000    48.0000 </r>
       <r>   -13.5805     0.0000    48.0000 </r>
       <r>   -13.3729     0.0000    48.0000 </r>
       <r>   -13.1652     0.0000    48.0000 </r>
       <r>   -12.9576     0.0000    48.0000 </r>
       <r>   -12.7500     0.0000    48.0000 </r>
       <r>   -12.5423     0.0000    48.0000 </r>
       <r>   -12.3347     0.0000    48.0000 </r>
       <r>   -12.1271     0.0000    48.0000 </r>
       <r>   -11.9194     0.0000    48.0000 </r>
       <r>   -11.7118     0.0000    48.0000 </r>
       <r>   -11.5042     0.0000    48.0000 </r>
       <r>   -11.2965     0.0000    48.0000 </r>
       <r>   -11.0889     0.0000    48.0000 </r>
       <r>   -10.8813     0.0000    48.0000 </r>
       <r>   -10.6736     0.0000    48.0000 </r>
       <r>   -10.4660     0.0000    48.0000 </r>
       <r>   -10.2584     0.0000    48.0000 </r>
       <r>   -10.0507     0.0000    48.0000 </r>
       <r>    -9.8431     0.0000    48.0000 </r>
       <r>    -9.6355     0.0000    48.0000 </r>
       <r>    -9.4279     0.0000    48.0000 </r>
       <r>    -9.2202     0.0000    48.0000 </r>
       <r>    -9.0126     0.0000    48.0000 </r>
       <r>    -8.8050     0.0000    48.0000 </r>
       <r>    -8.5973     0.0000    48.0000 </r>
       <r>    -8.3897     0.0000    48.0000 </r>
       <r>    -8.1821     0.0000    48.0000 </r>
       <r>    -7.9744     0.0000    48.0000 </r>
       <r>    -7.7668     0.0000    48.0000 </r>
       <r>    -7.5592     0.0000    48.0000 </r>
       <r>    -7.3515     0.0000    48.0000 </r>
       <r>    -7.1439     0.0000    48.0000 </r>
       <r>    -6.9363     0.0000    48.0000 </r>
       <r>    -6.7286     0.0000    48.0000 </r>
       <r>    -6.5210     0.0000    48.0000 </r>
       <r>    -6.3134     0.0000    48.0000 </r>
       <r>    -6.1057     0.0000    48.0000 </r>
       <r>    -5.8981     0.0000    48.0000 </r>
       <r>    -5.6905     0.0000    48.0000 </r>
       <r>    -5.4828     0.0000    48.0000 </r>
       <r>    -5.2752     0.0000    48.0000 </r>
       <r>    -5.0676     0.0000    48.0000 </r>
       <r>    -4.8599     0.0000    48.0000 </r>
       <r>    -4.6523     0.0000    48.0000 </r>
       <r>    -4.4447     0.0000    48.0000 </r>
       <r>    -4.2370     0.0000    48.0000 </r>
       <r>    -4.0294     0.0000    48.0000 </r>
       <r>    -3.8218     0.0000    48.0000 </r>
       <r>    -3.6141     0.0000    48.0000 </r>
       <r>    -3.4065     0.0000    48.0000 </r>
       <r>    -3.1989     0.0000    48.0000 </r>
       <r>    -2.9912     0.0000    48.0000 </r>
       <r>    -2.7836     0.0000    48.0000 </r>
       <r>    -2.5760     0.0000    48.0000 </r>
       <r>    -2.3683     0.0000    48.0000 </r>
       <r>    -2.1607    -0.0000    48.0000 </r>
       <r>    -1.9531    -0.0000    48.0000 </r>
       <r>    -1.7454    -0.0000    48.0000 </r>
       <r>    -1.5378    -0.0000    48.0000 </r>
       <r>    -1.3302    -0.0000    48.0000 </r>
       <r>    -1.1225    -0.0000    48.0000 </r>
       <r>    -0.9149    -0.0011    47.9998 </r>
       <r>    -0.7073    -0.0132    47.9970 </r>
       <r>    -0.4996     0.0844    48.0145 </r>
       <r>    -0.2920     0.5814    48.1353 </r>
       <r>    -0.0844     1.2479    48.3944 </r>
       <r>     0.1233     1.8237    48.7730 </r>
       <r>     0.3309     1.5205    49.0887 </r>
       <r>     0.5385     1.7746    49.4572 </r>
       <r>     0.7461     3.1476    50.1108 </r>
       <r>     0.9538     3.1309    50.7608 </r>
       <r>     1.1614     2.8046    51.3432 </r>
       <r>     1.3690     3.2114    52.0100 </r>
       <r>     1.5767     4.5992    52.9649 </r>
       <r>     1.7843     3.7682    53.7473 </r>
       <r>     1.9919     5.0743    54.8009 </r>
       <r>     2.1996     7.7373    56.4074 </r>
       <r>     2.4072    11.2361    58.7404 </r>
       <r>     2.6148    16.2315    62.1106 </r>
       <r>     2.8225    19.4647    66.1521 </r>
       <r>     3.0301    23.3930    71.0093 </r>
       <r>     3.2377    28.1243    76.8488 </r>
       <r>     3.4454    28.5688    82.7806 </r>
       <r>     3.6530    28.3315    88.6631 </r>
       <r>     3.8606    29.4773    94.7836 </r>
       <r>     4.0683    30.3684   101.0891 </r>
       <r>     4.2759    27.8677   106.8753 </r>
       <r>     4.4835    24.5955   111.9821 </r>
       <r>     4.6912    29.2209   118.0493 </r>
       <r>     4.8988    37.3574   125.8060 </r>
       <r>     5.1064    40.5844   134.2326 </r>
       <r>     5.3141    39.4376   142.4211 </r>
       <r>     5.5217    36.1492   149.9269 </r>
       <r>     5.7293    35.0204   157.1983 </r>
       <r>     5.9370    36.0820   164.6901 </r>
       <r>     6.1446    39.4065   172.8721 </r>
       <r>     6.3522    39.7614   181.1279 </r>
       <r>     6.5599    38.2782   189.0757 </r>
       <r>     6.7675    34.9293   196.3282 </r>
       <r>     6.9751    30.3878   202.6376 </r>
       <r>     7.1828    25.2058   207.8712 </r>
       <r>     7.3904    20.6092   212.1503 </r>
       <r>     7.5980    17.3738   215.7577 </r>
       <r>     7.8057    15.8415   219.0469 </r>
       <r>     8.0133    16.5994   222.4935 </r>
       <r>     8.2209    18.0980   226.2512 </r>
       <r>     8.4286    19.8551   230.3738 </r>
       <r>     8.6362    19.6080   234.4451 </r>
       <r>     8.8438    14.2504   237.4039 </r>
       <r>     9.0515     8.4106   239.1502 </r>
       <r>     9.2591     3.6370   239.9054 </r>
       <r>     9.4667     0.5331   240.0161 </r>
       <r>     9.6744    -0.0686   240.0018 </r>
       <r>     9.8820    -0.0087   240.0000 </r>
       <r>    10.0896    -0.0001   240.0000 </r>
       <r>    10.2973    -0.0000   240.0000 </r>
       <r>    10.5049    -0.0000   240.0000 </r>
       <r>    10.7125    -0.0000   240.0000 </r>
       <r>    10.9201     0.0000   240.0000 </r>
       <r>    11.1278     0.0000   240.0000 </r>
       <r>    11.3354     0.0000   240.0000 </r>
       <r>    11.5430     0.0000   240.0000 </r>
       <r>    11.7507     0.0000   240.0000 </r>
       <r>    11.9583     0.0000   240.0000 </r>
       <r>    12.1659     0.0000   240.0000 </r>
      </set>
     </set>
    </array>
   </total>
  </dos>
 </calculation>
 <structure name="finalpos" >
  <crystal>
   <varray name="basis" >
    <v>      -3.20323414      -3.19536935      -3.19834304 </v>
    <v>       1.54142573       1.59040741      -7.92862132 </v>
    <v>       7.88286585      -7.91865281      -1.54372665 </v>
   </varray>
   <i name="volume">    480.22073453 </i>
   <varray name="rec_basis" >
    <v>      -0.13585243      -0.12519392      -0.05152419 </v>
    <v>       0.04246754       0.06279826      -0.10527235 </v>
    <v>       0.06334908      -0.06315271      -0.00035197 </v>
   </varray>
  </crystal>
  <varray name="positions" >
   <v>       0.95104980       0.91893967       0.41562215 </v>
   <v>       0.62925423       0.26554406       0.40255121 </v>
   <v>       0.50234314       0.00030697      -0.00412160 </v>
   <v>      -0.00127492      -0.00119705       0.00174355 </v>
   <v>       0.09763862       0.20540484       0.79615698 </v>
   <v>       0.04354558       0.07659194       0.59632229 </v>
   <v>       0.90090516       0.79704809       0.20443150 </v>
   <v>       0.80587870       0.59477127       0.39985618 </v>
   <v>       0.73326169       0.46409414       0.19956838 </v>
   <v>       0.66816647       0.33675853      -0.00091698 </v>
   <v>       0.38691453       0.72921069       0.59954485 </v>
   <v>       0.12891058       0.27344722       0.40149154 </v>
   <v>       0.83634550       0.66467087      -0.00068778 </v>
   <v>       0.92936940       0.85796701       0.77805495 </v>
   <v>       0.56875117       0.13057251       0.19802989 </v>
   <v>       0.40370862       0.79403388       0.19875260 </v>
   <v>       0.43253468       0.85796925       0.79615214 </v>
   <v>       0.30733496       0.60105162       0.40161417 </v>
   <v>       0.45298124       0.93491546       0.40421208 </v>
   <v>       0.17423871       0.33080446       0.00151673 </v>
   <v>       0.27933667       0.52993672       0.80086485 </v>
   <v>       0.17387998       0.42687127       0.59771177 </v>
   <v>       0.06120429       0.14321582       0.21060411 </v>
   <v>       0.77395815       0.52930130       0.79852986 </v>
   <v>       0.68756598       0.40982086       0.60273795 </v>
   <v>       0.59908281       0.20073044       0.79647434 </v>
   <v>       0.54249150       0.06796839       0.60362078 </v>
   <v>       0.33465990       0.65843081      -0.00036149 </v>
   <v>       0.22929619       0.46748559       0.19992303 </v>
  </varray>
 </structure>
</modeling>
