SQS with 1 vacancy for VFE and VRV      
           1
    -3.190000   -3.190000   -3.190000
     1.595000    1.595000   -7.975000
     7.975000   -7.975000   -1.595000
   Nb   Mo   Ta   Ti   W 
   6   6   6   5   6
Direct configuration=     1
   0.96666667  0.93333333  0.40000000
   0.63333333  0.26666667  0.40000000
   0.50000000  0.00000000  0.00000000
   0.00000000  0.00000000  0.00000000
   0.10000000  0.20000000  0.80000000
   0.03333333  0.06666667  0.60000000
   0.90000000  0.80000000  0.20000000
   0.80000000  0.60000000  0.40000000
   0.73333333  0.46666667  0.20000000
   0.66666667  0.33333333  0.00000000
   0.36666667  0.73333333  0.60000000
   0.13333333  0.26666667  0.40000000
   0.83333333  0.66666667  0.00000000
   0.93333333  0.86666667  0.80000000
   0.56666667  0.13333333  0.20000000
   0.40000000  0.80000000  0.20000000
   0.43333333  0.86666667  0.80000000
   0.30000000  0.60000000  0.40000000
   0.46666667  0.93333333  0.40000000
   0.16666667  0.33333333  0.00000000
   0.26666667  0.53333333  0.80000000
   0.20000000  0.40000000  0.60000000
   0.06666667  0.13333333  0.20000000
   0.76666667  0.53333333  0.80000000
   0.70000000  0.40000000  0.60000000
   0.60000000  0.20000000  0.80000000
   0.53333333  0.06666667  0.60000000
   0.33333333  0.66666667  0.00000000
   0.23333333  0.46666667  0.20000000
SQS with 1 vacancy for VFE and VRV      
           1
    -3.157020   -3.153374   -3.159811
     1.550464    1.573021   -7.867816
     7.859769   -7.876257   -1.554304
   Nb   Mo   Ta   Ti   W 
   6   6   6   5   6
Direct configuration=     2
   0.96375428  0.92936025  0.40206269
   0.63258849  0.26626323  0.40114505
   0.50010620  0.00201213 -0.00067400
  -0.00156823  0.00119792  0.00242979
   0.09717164  0.20458724  0.79842485
   0.03768949  0.06812349  0.59798466
   0.90119299  0.79880055  0.20237511
   0.80228339  0.59674644  0.40029709
   0.73349593  0.46661052  0.19916516
   0.66521913  0.33707226 -0.00031305
   0.37073004  0.73082696  0.60019747
   0.13240665  0.26979648  0.39971380
   0.83437756  0.66395332  0.00144419
   0.93071219  0.86635541  0.79578857
   0.56751502  0.13314557  0.19782051
   0.40338020  0.79524859  0.19954248
   0.43545535  0.86123795  0.79783986
   0.30222047  0.60071632  0.40095696
   0.46332812  0.93286030  0.40250628
   0.16876766  0.33410575  0.00073876
   0.27202476  0.53290073  0.80022697
   0.19690711  0.40290900  0.59875072
   0.06532621  0.13811340  0.20135809
   0.76603032  0.53134360  0.79857866
   0.69339547  0.40490627  0.60194403
   0.59818732  0.20167307  0.79792799
   0.53666326  0.06544636  0.60164158
   0.33394726  0.66156261  0.00033536
   0.23002506  0.46879096  0.19979037
SQS with 1 vacancy for VFE and VRV      
           1
    -3.166921   -3.164370   -3.168875
     1.563835    1.579620   -7.899996
     7.894365   -7.905902   -1.566522
   Nb   Mo   Ta   Ti   W 
   6   6   6   5   6
Direct configuration=     3
   0.96463488  0.93056826  0.40143693
   0.63281452  0.26638499  0.40079683
   0.50007572  0.00139979 -0.00046978
  -0.00109029  0.00083059  0.00168996
   0.09803390  0.20319079  0.79890238
   0.03636829  0.06768219  0.59859701
   0.90083062  0.79916402  0.20165278
   0.80158737  0.59773766  0.40020795
   0.73344624  0.46662839  0.19941923
   0.66566198  0.33593332 -0.00021932
   0.36949457  0.73159094  0.60013819
   0.13269085  0.26884316  0.39979959
   0.83405851  0.66477877  0.00100582
   0.93150580  0.86645356  0.79707047
   0.56725662  0.13320484  0.19848377
   0.40234959  0.79669695  0.19968354
   0.43480527  0.86289394  0.79849944
   0.30154770  0.60049761  0.40066528
   0.46434166  0.93300164  0.40174403
   0.16813112  0.33387013  0.00051346
   0.27039845  0.53303316  0.80015771
   0.19784810  0.40202345  0.59912983
   0.06573819  0.13665584  0.20094282
   0.76622095  0.53195089  0.79901210
   0.69540521  0.40340890  0.60135076
   0.59873831  0.20116496  0.79855792
   0.53565214  0.06581718  0.60114233
   0.33375604  0.66311725  0.00023549
   0.23103101  0.46814350  0.19985347
SQS with 1 vacancy for VFE and VRV      
           1
    -3.185722   -3.179647   -3.189742
     1.547690    1.583764   -7.923128
     7.910258   -7.936203   -1.553740
   Nb   Mo   Ta   Ti   W 
   6   6   6   5   6
Direct configuration=     4
   0.96149471  0.92676980  0.40375936
   0.63210303  0.26583922  0.40163304
   0.50009297  0.00283168 -0.00135262
  -0.00221785  0.00194446  0.00353113
   0.09581064  0.20681932  0.79750980
   0.04024782  0.06926671  0.59677638
   0.90169989  0.79820029  0.20379224
   0.80385731  0.59515187  0.40083116
   0.73374092  0.46608222  0.19885114
   0.66456584  0.33899257 -0.00050081
   0.37333782  0.72928890  0.60026161
   0.13161868  0.27150477  0.39967190
   0.83499151  0.66294643  0.00197520
   0.92940803  0.86570452  0.79278570
   0.56794178  0.13292754  0.19691320
   0.40511752  0.79310184  0.19947002
   0.43610814  0.85842949  0.79668759
   0.30348252  0.60083142  0.40186192
   0.46135249  0.93253302  0.40399981
   0.17024930  0.33441013  0.00111033
   0.27483444  0.53243141  0.80023825
   0.19386391  0.40577004  0.59792173
   0.06436407  0.14118178  0.20252304
   0.76650652  0.53051144  0.79753625
   0.68974124  0.40787980  0.60283731
   0.59709671  0.20251198  0.79675510
   0.53954417  0.06424275  0.60258170
   0.33406856  0.65891786  0.00027616
   0.22831065  0.46964343  0.19976236
SQS with 1 vacancy for VFE and VRV      
           1
    -3.193518   -3.185981   -3.198395
     1.540995    1.585483   -7.932720
     7.916849   -7.948768   -1.548440
   Nb   Mo   Ta   Ti   W 
   6   6   6   5   6
Direct configuration=     5
   0.96020343  0.92520093  0.40471729
   0.63180996  0.26561439  0.40197842
   0.50009873  0.00342329 -0.00171687
  -0.00268489  0.00240759  0.00429286
   0.09489009  0.20831984  0.79693573
   0.04184642  0.06991978  0.59602482
   0.90205862  0.79780360  0.20467639
   0.80479617  0.59408204  0.40108767
   0.73386332  0.46585553  0.19861599
   0.66411029  0.34025849 -0.00061568
   0.37492531  0.72833567  0.60031178
   0.13117344  0.27260629  0.39962042
   0.83537803  0.66218902  0.00237511
   0.92854565  0.86539033  0.79101354
   0.56822529  0.13281098  0.19626375
   0.40626327  0.79161334  0.19938009
   0.43665145  0.85657978  0.79593623
   0.30427947  0.60097050  0.40235703
   0.46011952  0.93234204  0.40493197
   0.17112185  0.33463385  0.00135760
   0.27666433  0.53218167  0.80027163
   0.19221702  0.40731992  0.59742385
   0.06379139  0.14305670  0.20317866
   0.76662659  0.52991412  0.79692531
   0.68739971  0.40973262  0.60345379
   0.59641891  0.20306779  0.79601027
   0.54115037  0.06359203  0.60317634
   0.33420244  0.65718000  0.00029079
   0.22718714  0.47026454  0.19972524
SQS with 1 vacancy for VFE and VRV      
           1
    -3.198764   -3.190743   -3.203157
     1.542889    1.585949   -7.941998
     7.922212   -7.952376   -1.551353
   Nb   Mo   Ta   Ti   W 
   6   6   6   5   6
Direct configuration=     6
   0.95887838  0.92465587  0.40565930
   0.63167710  0.26516386  0.40182753
   0.50039236  0.00251553 -0.00246057
  -0.00229954  0.00208956  0.00369266
   0.09536728  0.20754286  0.79673789
   0.04228766  0.07104044  0.59598715
   0.90185411  0.79773968  0.20474547
   0.80530822  0.59414928  0.40136240
   0.73367490  0.46528105  0.19900156
   0.66462886  0.33976333 -0.00089595
   0.37547247  0.72834862  0.60020174
   0.13071069  0.27266426  0.39986107
   0.83476547  0.66361355  0.00171034
   0.92842603  0.86486918  0.78981755
   0.56808462  0.13280906  0.19681364
   0.40613634  0.79211987  0.19946393
   0.43525289  0.85710048  0.79628397
   0.30512744  0.60038558  0.40250623
   0.45934829  0.93240382  0.40502712
   0.17179812  0.33438417  0.00129925
   0.27640464  0.53162162  0.80023155
   0.18966278  0.40947265  0.59712671
   0.06319032  0.14385565  0.20433965
   0.76829343  0.53028619  0.79720639
   0.68779273  0.40935632  0.60293138
   0.59685209  0.20227172  0.79596002
   0.54263897  0.06346783  0.60337568
   0.33380754  0.65809530  0.00010694
   0.22779915  0.46959934  0.20007942
SQS with 1 vacancy for VFE and VRV      
           1
    -3.208847   -3.199894   -3.212307
     1.546530    1.586847   -7.959828
     7.932517   -7.959310   -1.556953
   Nb   Mo   Ta   Ti   W 
   6   6   6   5   6
Direct configuration=     7
   0.95633642  0.92360896  0.40746854
   0.63142231  0.26429910  0.40153781
   0.50095584  0.00077343 -0.00388874
  -0.00156022  0.00147943  0.00253997
   0.09628305  0.20605150  0.79635807
   0.04313391  0.07319171  0.59591462
   0.90146175  0.79761692  0.20487815
   0.80629073  0.59427820  0.40189005
   0.73331367  0.46417805  0.19974218
   0.66562392  0.33881302 -0.00143412
   0.37652227  0.72837357  0.59999043
   0.12982284  0.27277537  0.40032324
   0.83358954  0.66634847  0.00043330
   0.92819639  0.86386949  0.78752062
   0.56781486  0.13280504  0.19786975
   0.40589265  0.79309216  0.19962485
   0.43256940  0.85809976  0.79695167
   0.30675467  0.59926272  0.40279294
   0.45786853  0.93252231  0.40520981
   0.17309573  0.33390494  0.00118728
   0.27590652  0.53054656  0.80015467
   0.18476123  0.41360509  0.59655550
   0.06203707  0.14538860  0.20656925
   0.77149155  0.53100033  0.79774626
   0.68854681  0.40863431  0.60192811
   0.59768347  0.20074364  0.79586367
   0.54549522  0.06322935  0.60375864
   0.33304952  0.65985241 -0.00024635
   0.22897371  0.46832225  0.20075981
SQS with 1 vacancy for VFE and VRV      
           1
    -3.206549   -3.197194   -3.209504
     1.544691    1.584536   -7.951184
     7.922085   -7.947924   -1.555497
   Nb   Mo   Ta   Ti   W 
   6   6   6   5   6
Direct configuration=     8
   0.95555823  0.92321117  0.40812369
   0.63133369  0.26407014  0.40153971
   0.50116296  0.00039552 -0.00420693
  -0.00142068  0.00127704  0.00223544
   0.09652052  0.20570056  0.79623623
   0.04347614  0.07382195  0.59589494
   0.90137478  0.79756936  0.20489989
   0.80653998  0.59428370  0.40201129
   0.73317693  0.46400705  0.19989875
   0.66595839  0.33857986 -0.00159744
   0.37698624  0.72834156  0.59997171
   0.12961740  0.27279880  0.40048302
   0.83337846  0.66696592  0.00010571
   0.92807742  0.86351579  0.78665935
   0.56779997  0.13266903  0.19808907
   0.40574134  0.79333696  0.19965862
   0.43183760  0.85833636  0.79705517
   0.30727503  0.59902009  0.40277669
   0.45731827  0.93257555  0.40526396
   0.17346378  0.33373297  0.00114735
   0.27595554  0.53024112  0.80013982
   0.18313491  0.41499615  0.59641992
   0.06165082  0.14580219  0.20732303
   0.77232509  0.53110595  0.79789541
   0.68869586  0.40846197  0.60172439
   0.59799464  0.20034275  0.79580997
   0.54624854  0.06323495  0.60385917
   0.33290251  0.66024638 -0.00030707
   0.22924895  0.46802584  0.20088915
SQS with 1 vacancy for VFE and VRV      
           1
    -3.202801   -3.192787   -3.204930
     1.541690    1.580764   -7.937077
     7.905062   -7.929344   -1.553121
   Nb   Mo   Ta   Ti   W 
   6   6   6   5   6
Direct configuration=     9
   0.95428747  0.92256114  0.40919426
   0.63118901  0.26369608  0.40154283
   0.50150124 -0.00022181 -0.00472686
  -0.00119280  0.00094645  0.00173780
   0.09690839  0.20512727  0.79603716
   0.04403494  0.07485159  0.59586278
   0.90123276  0.79749167  0.20493542
   0.80694705  0.59429268  0.40220943
   0.73295367  0.46372765  0.20015462
   0.66650465  0.33819899 -0.00186431
   0.37774398  0.72828927  0.59994114
   0.12928189  0.27283704  0.40074410
   0.83303359  0.66797471 -0.00042964
   0.92788308  0.86293811  0.78525195
   0.56777571  0.13244680  0.19844746
   0.40549419  0.79373689  0.19971378
   0.43064245  0.85872284  0.79722424
   0.30812490  0.59862374  0.40275015
   0.45641961  0.93266249  0.40535243
   0.17406488  0.33345204  0.00108213
   0.27603564  0.52974213  0.80011557
   0.18047864  0.41726870  0.59619824
   0.06102006  0.14647771  0.20855475
   0.77368640  0.53127851  0.79813915
   0.68893927  0.40818047  0.60139151
   0.59850290  0.19968783  0.79572224
   0.54747885  0.06324410  0.60402347
   0.33266236  0.66089001 -0.00040633
   0.22969853  0.46754157  0.20110052
SQS with 1 vacancy for VFE and VRV      
           1
    -3.201752   -3.191721   -3.203531
     1.540814    1.580673   -7.933677
     7.902715   -7.927602   -1.551783
   Nb   Mo   Ta   Ti   W 
   6   6   6   5   6
Direct configuration=    10
   0.95429894  0.92239537  0.40939583
   0.63115855  0.26376930  0.40168832
   0.50150720  0.00009173 -0.00450523
  -0.00134034  0.00095876  0.00184971
   0.09684214  0.20533355  0.79603605
   0.04417341  0.07474448  0.59586135
   0.90127253  0.79749365  0.20491684
   0.80680856  0.59429706  0.40214007
   0.73294299  0.46399245  0.20003411
   0.66655183  0.33828716 -0.00183446
   0.37800446  0.72825354  0.60000181
   0.12943803  0.27279891  0.40078207
   0.83336991  0.66750540 -0.00028353
   0.92788829  0.86277194  0.78496225
   0.56791226  0.13221287  0.19828454
   0.40538248  0.79366957  0.19970517
   0.43087716  0.85855851  0.79701989
   0.30804828  0.59886435  0.40259443
   0.45630279  0.93267109  0.40535769
   0.17399408  0.33340614  0.00107372
   0.27634981  0.52981293  0.80012608
   0.18032386  0.41749226  0.59628136
   0.06101134  0.14633740  0.20860627
   0.77340687  0.53110596  0.79807376
   0.68875137  0.40829846  0.60157640
   0.59853742  0.19988186  0.79571398
   0.54719445  0.06334703  0.60394337
   0.33280484  0.66060010 -0.00035120
   0.22951980  0.46771482  0.20094935
SQS with 1 vacancy for VFE and VRV      
           1
    -3.198605   -3.188522   -3.199335
     1.538186    1.580399   -7.923476
     7.895675   -7.922374   -1.547770
   Nb   Mo   Ta   Ti   W 
   6   6   6   5   6
Direct configuration=    11
   0.95433330  0.92189793  0.41000064
   0.63106714  0.26398911  0.40212494
   0.50152511  0.00103281 -0.00384012
  -0.00178313  0.00099575  0.00218551
   0.09664333  0.20595261  0.79603276
   0.04458894  0.07442303  0.59585705
   0.90139190  0.79749959  0.20486110
   0.80639297  0.59431018  0.40193194
   0.73291099  0.46478714  0.19967254
   0.66669343  0.33855180 -0.00174490
   0.37878616  0.72814635  0.60018386
   0.12990661  0.27268450  0.40089603
   0.83437912  0.66609701  0.00015482
   0.92790393  0.86227311  0.78409289
   0.56832204  0.13151074  0.19779562
   0.40504722  0.79346754  0.19967930
   0.43158153  0.85806528  0.79640665
   0.30781837  0.59958639  0.40212716
   0.45595222  0.93269689  0.40537347
   0.17378161  0.33326840  0.00104850
   0.27729266  0.53002543  0.80015763
   0.17985936  0.41816324  0.59653083
   0.06098516  0.14591633  0.20876082
   0.77256797  0.53058805  0.79787753
   0.68818748  0.40865265  0.60213124
   0.59864106  0.20046417  0.79568922
   0.54634099  0.06365588  0.60370303
   0.33323239  0.65973007 -0.00018580
   0.22898346  0.46823467  0.20049575
SQS with 1 vacancy for VFE and VRV      
           1
    -3.201775   -3.191587   -3.201992
     1.539285    1.582739   -7.930450
     7.902682   -7.930149   -1.548078
   Nb   Mo   Ta   Ti   W 
   6   6   6   5   6
Direct configuration=    12
   0.95425860  0.92164789  0.41037205
   0.63100520  0.26410963  0.40221645
   0.50153198  0.00125098 -0.00368026
  -0.00184466  0.00096249  0.00227205
   0.09670856  0.20607908  0.79604484
   0.04464820  0.07436552  0.59589250
   0.90139782  0.79751632  0.20482136
   0.80623423  0.59437770  0.40180291
   0.73294994  0.46496745  0.19958768
   0.66677817  0.33856873 -0.00166866
   0.37921987  0.72813910  0.60021025
   0.13002405  0.27265145  0.40095440
   0.83468703  0.66568671  0.00024037
   0.92796695  0.86192182  0.78360766
   0.56843419  0.13129843  0.19770009
   0.40485805  0.79351026  0.19961715
   0.43188379  0.85795298  0.79629727
   0.30773243  0.59979750  0.40202624
   0.45579404  0.93273618  0.40532781
   0.17370226  0.33313399  0.00105658
   0.27761748  0.53010668  0.80017788
   0.17955078  0.41868669  0.59664942
   0.06098623  0.14567529  0.20885241
   0.77233089  0.53041843  0.79781812
   0.68796617  0.40878183  0.60232684
   0.59867787  0.20066724  0.79573339
   0.54593782  0.06386434  0.60359246
   0.33343153  0.65945125 -0.00016985
   0.22886384  0.46834073  0.20032057
SQS with 1 vacancy for VFE and VRV      
           1
    -3.204084   -3.193819   -3.203928
     1.540085    1.584443   -7.935530
     7.907786   -7.935812   -1.548302
   Nb   Mo   Ta   Ti   W 
   6   6   6   5   6
Direct configuration=    13
   0.95420422  0.92146599  0.41064230
   0.63096014  0.26419734  0.40228303
   0.50153699  0.00140975 -0.00356392
  -0.00188944  0.00093829  0.00233501
   0.09675604  0.20617110  0.79605364
   0.04469131  0.07432368  0.59591830
   0.90140213  0.79752848  0.20479245
   0.80611873  0.59442681  0.40170903
   0.73297830  0.46509865  0.19952594
   0.66683983  0.33858105 -0.00161319
   0.37953546  0.72813385  0.60022946
   0.13010950  0.27262740  0.40099688
   0.83491105  0.66538816  0.00030261
   0.92801280  0.86166615  0.78325457
   0.56851579  0.13114393  0.19763056
   0.40472041  0.79354133  0.19957193
   0.43210372  0.85787126  0.79621768
   0.30766991  0.59995110  0.40195281
   0.45567895  0.93276477  0.40529459
   0.17364451  0.33303617  0.00106245
   0.27785383  0.53016582  0.80019263
   0.17932628  0.41906759  0.59673574
   0.06098700  0.14549991  0.20891904
   0.77215838  0.53029498  0.79777488
   0.68780513  0.40887585  0.60246918
   0.59870467  0.20081502  0.79576555
   0.54564447  0.06401600  0.60351201
   0.33357641  0.65924837 -0.00015826
   0.22877680  0.46841787  0.20019311
SQS with 1 vacancy for VFE and VRV      
           1
    -3.203818   -3.193692   -3.203077
     1.539756    1.585497   -7.934334
     7.904976   -7.934299   -1.546930
   Nb   Mo   Ta   Ti   W 
   6   6   6   5   6
Direct configuration=    14
   0.95400873  0.92114789  0.41116418
   0.63086049  0.26437060  0.40232648
   0.50157492  0.00148570 -0.00350660
  -0.00186771  0.00081207  0.00237774
   0.09691893  0.20621711  0.79606710
   0.04464860  0.07437064  0.59598297
   0.90138034  0.79751513  0.20474074
   0.80599883  0.59448097  0.40149524
   0.73304223  0.46516120  0.19949352
   0.66693691  0.33854036 -0.00150703
   0.38018068  0.72813656  0.60021384
   0.13012697  0.27265821  0.40107033
   0.83513195  0.66512627  0.00029152
   0.92811554  0.86119310  0.78263130
   0.56859891  0.13100952  0.19760813
   0.40447531  0.79365808  0.19943805
   0.43242263  0.85780315  0.79620409
   0.30760201  0.60010696  0.40186925
   0.45544131  0.93287824  0.40520002
   0.17358837  0.33282739  0.00109689
   0.27817240  0.53023648  0.80023319
   0.17885687  0.41984455  0.59687768
   0.06099726  0.14520335  0.20907307
   0.77203359  0.53011334  0.79776707
   0.68758018  0.40900310  0.60265112
   0.59877503  0.20094418  0.79583081
   0.54517472  0.06437768  0.60343420
   0.33381147  0.65900635 -0.00016480
   0.22874587  0.46843851  0.20003990
SQS with 1 vacancy for VFE and VRV      
           1
    -3.203021   -3.193310   -3.200524
     1.538768    1.588658   -7.930745
     7.896546   -7.929758   -1.542814
   Nb   Mo   Ta   Ti   W 
   6   6   6   5   6
Direct configuration=    15
   0.95342188  0.92019373  0.41273017
   0.63056155  0.26489043  0.40245691
   0.50168873  0.00171361 -0.00333457
  -0.00180260  0.00043339  0.00250593
   0.09740765  0.20635520  0.79610748
   0.04452044  0.07451156  0.59617704
   0.90131496  0.79747503  0.20458558
   0.80563920  0.59464332  0.40085373
   0.73323408  0.46534886  0.19939624
   0.66722813  0.33841835 -0.00118847
   0.38211653  0.72814484  0.60016694
   0.13017940  0.27275067  0.40129076
   0.83579461  0.66434056  0.00025819
   0.92842380  0.85977355  0.78076088
   0.56884825  0.13060629  0.19754075
   0.40374005  0.79400824  0.19903632
   0.43337940  0.85759886  0.79616328
   0.30739841  0.60057449  0.40161854
   0.45472840  0.93321860  0.40491629
   0.17341982  0.33220099  0.00120020
   0.27912823  0.53044859  0.80035491
   0.17744882  0.42217556  0.59730383
   0.06102785  0.14431367  0.20953521
   0.77165912  0.52956833  0.79774358
   0.68690524  0.40938490  0.60319712
   0.59898618  0.20133173  0.79602669
   0.54376550  0.06546266  0.60320081
   0.33451659  0.65828032 -0.00018450
   0.22865312  0.46850034  0.19958017
SQS with 1 vacancy for VFE and VRV      
           1
    -3.201971   -3.192608   -3.199136
     1.538818    1.588628   -7.928181
     7.890280   -7.924013   -1.542459
   Nb   Mo   Ta   Ti   W 
   6   6   6   5   6
Direct configuration=    16
   0.95299718  0.91994749  0.41324932
   0.63037382  0.26501750  0.40237863
   0.50184065  0.00133493 -0.00361650
  -0.00161412  0.00012862  0.00230823
   0.09759475  0.20604781  0.79611339
   0.04422888  0.07489498  0.59625184
   0.90119087  0.79740151  0.20454421
   0.80570871  0.59467763  0.40063705
   0.73324010  0.46503682  0.19950635
   0.66736755  0.33807356 -0.00110969
   0.38288628  0.72833331  0.60003307
   0.12989583  0.27287653  0.40135968
   0.83574493  0.66465913 -0.00000639
   0.92872231  0.85937288  0.78029152
   0.56875426  0.13079023  0.19775878
   0.40367407  0.79414483  0.19894298
   0.43306508  0.85778732  0.79631361
   0.30739357  0.60055999  0.40161376
   0.45448534  0.93345039  0.40475896
   0.17355353  0.33194257  0.00125702
   0.27903566  0.53037985  0.80044796
   0.17680308  0.42305715  0.59738072
   0.06107889  0.14410513  0.20976382
   0.77219711  0.52959321  0.79793092
   0.68707975  0.40933600  0.60303203
   0.59906070  0.20110110  0.79614079
   0.54356774  0.06592403  0.60328239
   0.33449979  0.65846006 -0.00026078
   0.22890701  0.46823211  0.19969634
SQS with 1 vacancy for VFE and VRV      
           1
    -3.200363   -3.191533   -3.197013
     1.538894    1.588583   -7.924257
     7.880689   -7.915217   -1.541916
   Nb   Mo   Ta   Ti   W 
   6   6   6   5   6
Direct configuration=    17
   0.95234670  0.91957035  0.41404470
   0.63008640  0.26521207  0.40225872
   0.50207325  0.00075510 -0.00404844
  -0.00132551 -0.00033804  0.00200534
   0.09788119  0.20557713  0.79612244
   0.04378247  0.07548206  0.59636644
   0.90100084  0.79728892  0.20448083
   0.80581519  0.59473021  0.40030509
   0.73324923  0.46455897  0.19967505
   0.66758098  0.33754559 -0.00098899
   0.38406510  0.72862198  0.59982794
   0.12946160  0.27306922  0.40146529
   0.83566897  0.66514696 -0.00041172
   0.92917943  0.85875940  0.77957244
   0.56861035  0.13107188  0.19809281
   0.40357306  0.79435399  0.19879997
   0.43258376  0.85807587  0.79654393
   0.30738616  0.60053777  0.40160644
   0.45411321  0.93380532  0.40451794
   0.17375823  0.33154686  0.00134406
   0.27889387  0.53027457  0.80059052
   0.17581441  0.42440704  0.59749852
   0.06115696  0.14378579  0.21011406
   0.77302093  0.52963135  0.79821790
   0.68734699  0.40926114  0.60277910
   0.59917476  0.20074794  0.79631560
   0.54326499  0.06663050  0.60340737
   0.33447412  0.65873531 -0.00037765
   0.22929572  0.46782139  0.19987430
SQS with 1 vacancy for VFE and VRV      
           1
    -3.202299   -3.193639   -3.198571
     1.540237    1.589808   -7.928707
     7.883005   -7.917705   -1.542943
   Nb   Mo   Ta   Ti   W 
   6   6   6   5   6
Direct configuration=    18
   0.95200084  0.91939011  0.41445497
   0.62990797  0.26529457  0.40225273
   0.50218007  0.00052451 -0.00419924
  -0.00122566 -0.00056730  0.00186421
   0.09793857  0.20538739  0.79613216
   0.04361120  0.07579076  0.59639355
   0.90091043  0.79724369  0.20445367
   0.80585865  0.59476203  0.40016584
   0.73325539  0.46433761  0.19972276
   0.66772270  0.33726504 -0.00094352
   0.38472015  0.72879851  0.59972768
   0.12925467  0.27315534  0.40150666
   0.83573309  0.66529198 -0.00059580
   0.92937189  0.85849506  0.77919404
   0.56855481  0.13111792  0.19820796
   0.40356554  0.79439700  0.19877214
   0.43238125  0.85816940  0.79657503
   0.30736476  0.60057004  0.40161010
   0.45389471  0.93402651  0.40440554
   0.17387466  0.33134323  0.00138415
   0.27884656  0.53018787  0.80066507
   0.17528880  0.42508417  0.59755911
   0.06119306  0.14363073  0.21027740
   0.77343468  0.52963895  0.79834967
   0.68750350  0.40926739  0.60265683
   0.59920323  0.20060960  0.79640063
   0.54310971  0.06697799  0.60347251
   0.33444590  0.65883833 -0.00042002
   0.22943220  0.46763823  0.19995415
SQS with 1 vacancy for VFE and VRV      
           1
    -3.203890   -3.195369   -3.199850
     1.541341    1.590815   -7.932364
     7.884907   -7.919749   -1.543786
   Nb   Mo   Ta   Ti   W 
   6   6   6   5   6
Direct configuration=    19
   0.95171682  0.91924208  0.41479195
   0.62976146  0.26536231  0.40224780
   0.50226777  0.00033518 -0.00432312
  -0.00114368 -0.00075554  0.00174828
   0.09798568  0.20523159  0.79614014
   0.04347058  0.07604423  0.59641582
   0.90083619  0.79720655  0.20443137
   0.80589435  0.59478816  0.40005146
   0.73326042  0.46415584  0.19976195
   0.66783905  0.33703467 -0.00090616
   0.38525806  0.72894350  0.59964532
   0.12908476  0.27322604  0.40154065
   0.83578576  0.66541106 -0.00074699
   0.92952993  0.85827802  0.77888323
   0.56850921  0.13115572  0.19830254
   0.40355937  0.79443232  0.19874928
   0.43221496  0.85824620  0.79660058
   0.30734719  0.60059654  0.40161312
   0.45371531  0.93420813  0.40431322
   0.17397026  0.33117603  0.00141707
   0.27880771  0.53011667  0.80072632
   0.17485726  0.42564016  0.59760889
   0.06122268  0.14350339  0.21041158
   0.77377442  0.52964520  0.79845790
   0.68763201  0.40927253  0.60255640
   0.59922659  0.20049601  0.79647047
   0.54298224  0.06726331  0.60352602
   0.33442275  0.65892292 -0.00045482
   0.22954425  0.46748783  0.20001973
SQS with 1 vacancy for VFE and VRV      
           1
    -3.204170   -3.195665   -3.199901
     1.541383    1.590848   -7.932281
     7.885168   -7.920072   -1.543794
   Nb   Mo   Ta   Ti   W 
   6   6   6   5   6
Direct configuration=    20
   0.95157165  0.91917001  0.41497542
   0.62965016  0.26539535  0.40232216
   0.50229148  0.00034286 -0.00427607
  -0.00117560 -0.00084564  0.00173842
   0.09789449  0.20526017  0.79614830
   0.04348572  0.07616650  0.59639023
   0.90083545  0.79718039  0.20442938
   0.80588248  0.59478273  0.40000611
   0.73326226  0.46414661  0.19971970
   0.66791950  0.33696554 -0.00090603
   0.38562817  0.72900801  0.59962201
   0.12904010  0.27326573  0.40153136
   0.83592524  0.66525480 -0.00074114
   0.92949255  0.85821037  0.77870185
   0.56856472  0.13103208  0.19823684
   0.40359396  0.79433925  0.19875807
   0.43227623  0.85818703  0.79648910
   0.30734811  0.60070044  0.40159831
   0.45356342  0.93434887  0.40429369
   0.17402417  0.33109971  0.00144042
   0.27891853  0.53006646  0.80076621
   0.17461530  0.42591706  0.59763186
   0.06122006  0.14344597  0.21046212
   0.77383366  0.52957902  0.79848022
   0.68763568  0.40938434  0.60258071
   0.59920943  0.20052858  0.79647400
   0.54288184  0.06740946  0.60355160
   0.33445437  0.65883831 -0.00042784
   0.22949021  0.46748667  0.20000300
SQS with 1 vacancy for VFE and VRV      
           1
    -3.205009   -3.196554   -3.200051
     1.541509    1.590945   -7.932031
     7.885950   -7.921039   -1.543816
   Nb   Mo   Ta   Ti   W 
   6   6   6   5   6
Direct configuration=    21
   0.95113619  0.91895377  0.41552580
   0.62931628  0.26549444  0.40254522
   0.50236261  0.00036593 -0.00413493
  -0.00127134 -0.00111595  0.00170882
   0.09762094  0.20534588  0.79617278
   0.04353114  0.07653331  0.59631344
   0.90083323  0.79710192  0.20442341
   0.80584689  0.59476642  0.39987005
   0.73326776  0.46411891  0.19959294
   0.66816084  0.33675816 -0.00090565
   0.38673841  0.72920158  0.59955208
   0.12890614  0.27338481  0.40150349
   0.83634364  0.66478603 -0.00072358
   0.92938041  0.85800739  0.77815775
   0.56873124  0.13066118  0.19803974
   0.40369774  0.79406003  0.19878444
   0.43246002  0.85800952  0.79615467
   0.30735087  0.60101215  0.40155390
   0.45310776  0.93477105  0.40423511
   0.17418590  0.33087078  0.00151048
   0.27925097  0.52991585  0.80088590
   0.17388950  0.42674774  0.59770077
   0.06121219  0.14327370  0.21061373
   0.77401136  0.52938046  0.79854717
   0.68764670  0.40971975  0.60265365
   0.59915794  0.20062630  0.79648462
   0.54258067  0.06784790  0.60362833
   0.33454922  0.65858450 -0.00034692
   0.22932812  0.46748315  0.19995279
SQS with 1 vacancy for VFE and VRV      
           1
    -3.203480   -3.195534   -3.198580
     1.541437    1.590482   -7.929094
     7.883293   -7.918983   -1.543739
   Nb   Mo   Ta   Ti   W 
   6   6   6   5   6
Direct configuration=    22
   0.95106177  0.91894163  0.41560880
   0.62926283  0.26553719  0.40255038
   0.50234584  0.00031514 -0.00412345
  -0.00127442 -0.00118581  0.00173873
   0.09763617  0.20539667  0.79615917
   0.04354358  0.07658382  0.59632106
   0.90089520  0.79705555  0.20443038
   0.80587429  0.59477060  0.39985810
   0.73326253  0.46409757  0.19957178
   0.66816569  0.33675848 -0.00091541
   0.38689012  0.72920943  0.59954585
   0.12890996  0.27343857  0.40149319
   0.83634524  0.66468682 -0.00069274
   0.92937092  0.85797261  0.77806920
   0.56874841  0.13058480  0.19803126
   0.40370711  0.79403750  0.19875701
   0.43252433  0.85797483  0.79615249
   0.30733716  0.60104615  0.40160582
   0.45299877  0.93489546  0.40421527
   0.17423139  0.33081365  0.00151586
   0.27932479  0.52993383  0.80086777
   0.17388130  0.42685415  0.59771025
   0.06120539  0.14322384  0.21060544
   0.77396552  0.52931227  0.79853226
   0.68757716  0.40980686  0.60272627
   0.59909322  0.20071601  0.79647576
   0.54250385  0.06795170  0.60362183
   0.33464457  0.65845210 -0.00035947
   0.22930061  0.46748525  0.19992715
SQS with 1 vacancy for VFE and VRV      
           1
    -3.203234   -3.195369   -3.198343
     1.541426    1.590407   -7.928621
     7.882866   -7.918653   -1.543727
   Nb   Mo   Ta   Ti   W 
   6   6   6   5   6
Direct configuration=    23
   0.95104980  0.91893967  0.41562215
   0.62925423  0.26554406  0.40255121
   0.50234314  0.00030697 -0.00412160
  -0.00127492 -0.00119705  0.00174355