  29  29   0   0
  0.1679057E+02  0.5525242E-09  0.8287863E-09  0.1139058E-08  0.5000000E-15
  1.000000000000000E-004
  CAR 
 SQS with 1 vacancy for VFE and VRV      
     12.03756181    -50.29332099  301      6.72653985      1.00000000
    -50.293  0.0000E+00  0.0000E+00
    -50.086  0.0000E+00  0.0000E+00
    -49.878  0.0000E+00  0.0000E+00
    -49.670  0.0000E+00  0.0000E+00
    -49.462  0.0000E+00  0.0000E+00
    -49.254 -0.2017E-35 -0.4190E-36
    -49.047 -0.8988E-28 -0.1868E-28
    -48.839 -0.4132E-21 -0.8584E-22
    -48.631 -0.2100E-15 -0.4364E-16
    -48.423 -0.1232E-10 -0.2560E-11
    -48.216 -0.8041E-07 -0.1671E-07
    -48.008 -0.5713E-04 -0.1189E-04
    -47.800 -0.4116E-02 -0.8671E-03
    -47.592 -0.9846E-02 -0.2913E-02
    -47.385  0.2839E+00  0.5608E-01
    -47.177  0.6631E+00  0.1938E+00
    -46.969  0.2425E+00  0.2442E+00
    -46.761 -0.1747E-01  0.2406E+00
    -46.553 -0.2802E-02  0.2400E+00
    -46.346 -0.2279E-04  0.2400E+00
    -46.138 -0.1835E-07  0.2400E+00
    -45.930 -0.1595E-11  0.2400E+00
    -45.722  0.0000E+00  0.2400E+00
    -45.515  0.0000E+00  0.2400E+00
    -45.307  0.0000E+00  0.2400E+00
    -45.099  0.0000E+00  0.2400E+00
    -44.891  0.0000E+00  0.2400E+00
    -44.684  0.0000E+00  0.2400E+00
    -44.476  0.0000E+00  0.2400E+00
    -44.268  0.0000E+00  0.2400E+00
    -44.060  0.0000E+00  0.2400E+00
    -43.852  0.0000E+00  0.2400E+00
    -43.645  0.0000E+00  0.2400E+00
    -43.437  0.0000E+00  0.2400E+00
    -43.229  0.0000E+00  0.2400E+00
    -43.021  0.0000E+00  0.2400E+00
    -42.814  0.0000E+00  0.2400E+00
    -42.606  0.0000E+00  0.2400E+00
    -42.398  0.0000E+00  0.2400E+00
    -42.190  0.0000E+00  0.2400E+00
    -41.983  0.0000E+00  0.2400E+00
    -41.775  0.0000E+00  0.2400E+00
    -41.567  0.0000E+00  0.2400E+00
    -41.359  0.0000E+00  0.2400E+00
    -41.151  0.0000E+00  0.2400E+00
    -40.944  0.0000E+00  0.2400E+00
    -40.736  0.0000E+00  0.2400E+00
    -40.528  0.0000E+00  0.2400E+00
    -40.320  0.0000E+00  0.2400E+00
    -40.113  0.0000E+00  0.2400E+00
    -39.905  0.0000E+00  0.2400E+00
    -39.697  0.0000E+00  0.2400E+00
    -39.489  0.0000E+00  0.2400E+00
    -39.282  0.0000E+00  0.2400E+00
    -39.074  0.0000E+00  0.2400E+00
    -38.866  0.0000E+00  0.2400E+00
    -38.658  0.0000E+00  0.2400E+00
    -38.450  0.0000E+00  0.2400E+00
    -38.243  0.0000E+00  0.2400E+00
    -38.035  0.0000E+00  0.2400E+00
    -37.827  0.0000E+00  0.2400E+00
    -37.619  0.0000E+00  0.2400E+00
    -37.412  0.0000E+00  0.2400E+00
    -37.204  0.0000E+00  0.2400E+00
    -36.996  0.0000E+00  0.2400E+00
    -36.788  0.0000E+00  0.2400E+00
    -36.581  0.0000E+00  0.2400E+00
    -36.373  0.0000E+00  0.2400E+00
    -36.165  0.0000E+00  0.2400E+00
    -35.957  0.0000E+00  0.2400E+00
    -35.749  0.0000E+00  0.2400E+00
    -35.542  0.0000E+00  0.2400E+00
    -35.334  0.0000E+00  0.2400E+00
    -35.126  0.0000E+00  0.2400E+00
    -34.918  0.0000E+00  0.2400E+00
    -34.711  0.0000E+00  0.2400E+00
    -34.503  0.0000E+00  0.2400E+00
    -34.295  0.0000E+00  0.2400E+00
    -34.087  0.0000E+00  0.2400E+00
    -33.880  0.0000E+00  0.2400E+00
    -33.672  0.0000E+00  0.2400E+00
    -33.464  0.0000E+00  0.2400E+00
    -33.256  0.0000E+00  0.2400E+00
    -33.048  0.0000E+00  0.2400E+00
    -32.841  0.0000E+00  0.2400E+00
    -32.633  0.0000E+00  0.2400E+00
    -32.425  0.0000E+00  0.2400E+00
    -32.217  0.0000E+00  0.2400E+00
    -32.010  0.0000E+00  0.2400E+00
    -31.802  0.0000E+00  0.2400E+00
    -31.594  0.0000E+00  0.2400E+00
    -31.386  0.0000E+00  0.2400E+00
    -31.179  0.0000E+00  0.2400E+00
    -30.971  0.0000E+00  0.2400E+00
    -30.763  0.0000E+00  0.2400E+00
    -30.555  0.0000E+00  0.2400E+00
    -30.347  0.0000E+00  0.2400E+00
    -30.140  0.0000E+00  0.2400E+00
    -29.932  0.0000E+00  0.2400E+00
    -29.724  0.0000E+00  0.2400E+00
    -29.516  0.0000E+00  0.2400E+00
    -29.309  0.0000E+00  0.2400E+00
    -29.101  0.0000E+00  0.2400E+00
    -28.893  0.0000E+00  0.2400E+00
    -28.685  0.0000E+00  0.2400E+00
    -28.478  0.0000E+00  0.2400E+00
    -28.270  0.0000E+00  0.2400E+00
    -28.062  0.0000E+00  0.2400E+00
    -27.854  0.0000E+00  0.2400E+00
    -27.646  0.0000E+00  0.2400E+00
    -27.439  0.0000E+00  0.2400E+00
    -27.231  0.0000E+00  0.2400E+00
    -27.023  0.0000E+00  0.2400E+00
    -26.815  0.0000E+00  0.2400E+00
    -26.608  0.0000E+00  0.2400E+00
    -26.400  0.0000E+00  0.2400E+00
    -26.192  0.0000E+00  0.2400E+00
    -25.984 -0.1867E-35  0.2400E+00
    -25.777 -0.6553E-28  0.2400E+00
    -25.569 -0.2611E-21  0.2400E+00
    -25.361 -0.1133E-15  0.2400E+00
    -25.153 -0.5686E-11  0.2400E+00
    -24.945 -0.3113E-07  0.2400E+00
    -24.738 -0.1819E-04  0.2400E+00
    -24.530 -0.1023E-02  0.2398E+00
    -24.322 -0.2994E-04  0.2398E+00
    -24.114  0.4711E-01  0.2496E+00
    -23.907  0.1521E+00  0.2812E+00
    -23.699  0.4276E+00  0.3700E+00
    -23.491  0.8797E+00  0.5528E+00
    -23.283  0.1138E+01  0.7893E+00
    -23.076  0.5497E+00  0.9035E+00
    -22.868  0.2292E+00  0.9511E+00
    -22.660  0.4453E-01  0.9604E+00
    -22.452 -0.8134E-03  0.9602E+00
    -22.244 -0.1045E-02  0.9600E+00
    -22.037 -0.2151E-04  0.9600E+00
    -21.829 -0.4141E-07  0.9600E+00
    -21.621 -0.8360E-11  0.9600E+00
    -21.413 -0.1795E-15  0.9600E+00
    -21.206  0.0000E+00  0.9600E+00
    -20.998  0.0000E+00  0.9600E+00
    -20.790  0.0000E+00  0.9600E+00
    -20.582  0.0000E+00  0.9600E+00
    -20.374  0.0000E+00  0.9600E+00
    -20.167  0.0000E+00  0.9600E+00
    -19.959  0.0000E+00  0.9600E+00
    -19.751  0.0000E+00  0.9600E+00
    -19.543  0.0000E+00  0.9600E+00
    -19.336  0.0000E+00  0.9600E+00
    -19.128  0.0000E+00  0.9600E+00
    -18.920  0.0000E+00  0.9600E+00
    -18.712  0.0000E+00  0.9600E+00
    -18.505  0.0000E+00  0.9600E+00
    -18.297  0.0000E+00  0.9600E+00
    -18.089  0.0000E+00  0.9600E+00
    -17.881  0.0000E+00  0.9600E+00
    -17.673  0.0000E+00  0.9600E+00
    -17.466  0.0000E+00  0.9600E+00
    -17.258  0.0000E+00  0.9600E+00
    -17.050  0.0000E+00  0.9600E+00
    -16.842  0.0000E+00  0.9600E+00
    -16.635  0.0000E+00  0.9600E+00
    -16.427  0.0000E+00  0.9600E+00
    -16.219  0.0000E+00  0.9600E+00
    -16.011  0.0000E+00  0.9600E+00
    -15.804  0.0000E+00  0.9600E+00
    -15.596  0.0000E+00  0.9600E+00
    -15.388  0.0000E+00  0.9600E+00
    -15.180  0.0000E+00  0.9600E+00
    -14.972  0.0000E+00  0.9600E+00
    -14.765  0.0000E+00  0.9600E+00
    -14.557  0.0000E+00  0.9600E+00
    -14.349  0.0000E+00  0.9600E+00
    -14.141  0.0000E+00  0.9600E+00
    -13.934  0.0000E+00  0.9600E+00
    -13.726  0.0000E+00  0.9600E+00
    -13.518  0.0000E+00  0.9600E+00
    -13.310  0.0000E+00  0.9600E+00
    -13.103  0.0000E+00  0.9600E+00
    -12.895  0.0000E+00  0.9600E+00
    -12.687  0.0000E+00  0.9600E+00
    -12.479  0.0000E+00  0.9600E+00
    -12.271  0.0000E+00  0.9600E+00
    -12.064  0.0000E+00  0.9600E+00
    -11.856  0.0000E+00  0.9600E+00
    -11.648  0.0000E+00  0.9600E+00
    -11.440  0.0000E+00  0.9600E+00
    -11.233  0.0000E+00  0.9600E+00
    -11.025  0.0000E+00  0.9600E+00
    -10.817  0.0000E+00  0.9600E+00
    -10.609  0.0000E+00  0.9600E+00
    -10.402  0.0000E+00  0.9600E+00
    -10.194  0.0000E+00  0.9600E+00
     -9.986  0.0000E+00  0.9600E+00
     -9.778  0.0000E+00  0.9600E+00
     -9.570  0.0000E+00  0.9600E+00
     -9.363  0.0000E+00  0.9600E+00
     -9.155  0.0000E+00  0.9600E+00
     -8.947  0.0000E+00  0.9600E+00
     -8.739  0.0000E+00  0.9600E+00
     -8.532  0.0000E+00  0.9600E+00
     -8.324  0.0000E+00  0.9600E+00
     -8.116  0.0000E+00  0.9600E+00
     -7.908  0.0000E+00  0.9600E+00
     -7.701  0.0000E+00  0.9600E+00
     -7.493  0.0000E+00  0.9600E+00
     -7.285  0.0000E+00  0.9600E+00
     -7.077  0.0000E+00  0.9600E+00
     -6.869  0.0000E+00  0.9600E+00
     -6.662  0.0000E+00  0.9600E+00
     -6.454  0.0000E+00  0.9600E+00
     -6.246  0.0000E+00  0.9600E+00
     -6.038  0.0000E+00  0.9600E+00
     -5.831  0.0000E+00  0.9600E+00
     -5.623  0.0000E+00  0.9600E+00
     -5.415  0.0000E+00  0.9600E+00
     -5.207  0.0000E+00  0.9600E+00
     -5.000  0.0000E+00  0.9600E+00
     -4.792  0.0000E+00  0.9600E+00
     -4.584  0.0000E+00  0.9600E+00
     -4.376  0.0000E+00  0.9600E+00
     -4.168  0.0000E+00  0.9600E+00
     -3.961  0.0000E+00  0.9600E+00
     -3.753  0.0000E+00  0.9600E+00
     -3.545  0.0000E+00  0.9600E+00
     -3.337  0.0000E+00  0.9600E+00
     -3.130  0.0000E+00  0.9600E+00
     -2.922  0.0000E+00  0.9600E+00
     -2.714  0.0000E+00  0.9600E+00
     -2.506  0.0000E+00  0.9600E+00
     -2.299 -0.1399E-32  0.9600E+00
     -2.091 -0.1496E-25  0.9600E+00
     -1.883 -0.1825E-19  0.9600E+00
     -1.675 -0.2451E-14  0.9600E+00
     -1.467 -0.3830E-10  0.9600E+00
     -1.260 -0.6763E-07  0.9600E+00
     -1.052 -0.1319E-04  0.9600E+00
     -0.844 -0.2335E-03  0.9599E+00
     -0.636  0.1089E-02  0.9602E+00
     -0.429  0.9668E-02  0.9622E+00
     -0.221  0.2278E-01  0.9669E+00
     -0.013  0.3749E-01  0.9747E+00
      0.195  0.3442E-01  0.9819E+00
      0.402  0.3514E-01  0.9892E+00
      0.610  0.5508E-01  0.1001E+01
      0.818  0.6433E-01  0.1014E+01
      1.026  0.6060E-01  0.1027E+01
      1.234  0.6258E-01  0.1040E+01
      1.441  0.9013E-01  0.1058E+01
      1.649  0.7647E-01  0.1074E+01
      1.857  0.9326E-01  0.1094E+01
      2.065  0.1491E+00  0.1125E+01
      2.272  0.2008E+00  0.1166E+01
      2.480  0.2938E+00  0.1227E+01
      2.688  0.3839E+00  0.1307E+01
      2.896  0.4474E+00  0.1400E+01
      3.103  0.5268E+00  0.1509E+01
      3.311  0.6048E+00  0.1635E+01
      3.519  0.5725E+00  0.1754E+01
      3.727  0.5641E+00  0.1871E+01
      3.935  0.5801E+00  0.1992E+01
      4.142  0.5704E+00  0.2110E+01
      4.350  0.4912E+00  0.2212E+01
      4.558  0.5491E+00  0.2326E+01
      4.766  0.7037E+00  0.2473E+01
      4.973  0.7990E+00  0.2639E+01
      5.181  0.8077E+00  0.2806E+01
      5.389  0.7362E+00  0.2959E+01
      5.597  0.7261E+00  0.3110E+01
      5.804  0.7538E+00  0.3267E+01
      6.012  0.7890E+00  0.3431E+01
      6.220  0.8196E+00  0.3601E+01
      6.428  0.7683E+00  0.3761E+01
      6.636  0.6818E+00  0.3902E+01
      6.843  0.6085E+00  0.4029E+01
      7.051  0.4933E+00  0.4131E+01
      7.259  0.3997E+00  0.4214E+01
      7.467  0.3627E+00  0.4290E+01
      7.674  0.3305E+00  0.4358E+01
      7.882  0.3314E+00  0.4427E+01
      8.090  0.3489E+00  0.4500E+01
      8.298  0.4265E+00  0.4588E+01
      8.505  0.4432E+00  0.4680E+01
      8.713  0.3155E+00  0.4746E+01
      8.921  0.1798E+00  0.4783E+01
      9.129  0.7151E-01  0.4798E+01
      9.337  0.9969E-02  0.4800E+01
      9.544 -0.1162E-02  0.4800E+01
      9.752 -0.1876E-03  0.4800E+01
      9.960 -0.2386E-05  0.4800E+01
     10.168 -0.3270E-08  0.4800E+01
     10.375 -0.4988E-12  0.4800E+01
     10.583 -0.8892E-17  0.4800E+01
     10.791  0.0000E+00  0.4800E+01
     10.999  0.0000E+00  0.4800E+01
     11.206  0.0000E+00  0.4800E+01
     11.414  0.0000E+00  0.4800E+01
     11.622  0.0000E+00  0.4800E+01
     11.830  0.0000E+00  0.4800E+01
     12.038  0.0000E+00  0.4800E+01
