   29   29   50    1
  0.1679057E+02  0.5525242E-09  0.8287863E-09  0.1139058E-08  0.5000000E-15
  1.000000000000000E-004
  CAR 
 SQS with 1 vacancy for VFE and VRV      
    198     63    120
 
  0.0000000E+00  0.0000000E+00  0.0000000E+00  0.8000000E-02
    1      -47.460099   1.000000
    2      -47.357105   1.000000
    3      -47.312486   1.000000
    4      -47.283404   1.000000
    5      -47.169476   1.000000
    6      -47.160287   1.000000
    7      -24.196152   1.000000
    8      -23.869658   1.000000
    9      -23.801401   1.000000
   10      -23.713329   1.000000
   11      -23.609620   1.000000
   12      -23.542400   1.000000
   13      -23.518235   1.000000
   14      -23.495426   1.000000
   15      -23.454685   1.000000
   16      -23.447222   1.000000
   17      -23.378397   1.000000
   18      -23.366905   1.000000
   19      -23.337631   1.000000
   20      -23.326732   1.000000
   21      -23.225521   1.000000
   22      -23.117903   1.000000
   23      -23.040601   1.000000
   24      -22.777562   1.000000
   25       -0.624727   1.000000
   26        0.685933   1.000000
   27        1.029699   1.000000
   28        1.951139   1.000000
   29        1.993048   1.000000
   30        2.086991   1.000000
   31        2.145743   1.000000
   32        2.363985   1.000000
   33        2.461227   1.000000
   34        2.536995   1.000000
   35        2.609614   1.000000
   36        2.685597   1.000000
   37        2.732305   1.000000
   38        2.779125   1.000000
   39        2.860212   1.000000
   40        2.936045   1.000000
   41        3.091378   1.000000
   42        3.125141   1.000000
   43        3.202692   1.000000
   44        3.294274   1.000000
   45        3.313976   1.000000
   46        3.421669   1.000000
   47        3.499750   1.000000
   48        3.579414   1.000000
   49        3.586970   1.000000
   50        3.682672   1.000000
   51        3.772339   1.000000
   52        3.915391   1.000000
   53        3.944036   1.000000
   54        3.975073   1.000000
   55        4.063899   1.000000
   56        4.096639   1.000000
   57        4.132776   1.000000
   58        4.323075   1.000000
   59        4.467914   1.000000
   60        4.521729   1.000000
   61        4.572292   1.000000
   62        4.625471   1.000000
   63        4.704111   1.000000
   64        4.740156   1.000000
   65        4.743138   1.000000
   66        4.814272   1.000000
   67        4.871698   1.000000
   68        4.915885   1.000000
   69        4.955161   1.000000
   70        4.991024   1.000000
   71        5.026013   1.000000
   72        5.160348   1.000000
   73        5.222751   1.000000
   74        5.250921   1.000000
   75        5.384571   1.000000
   76        5.443516   1.000000
   77        5.482846   1.000000
   78        5.571433   1.000000
   79        5.671505   1.000000
   80        5.729862   1.000000
   81        5.835351   1.000000
   82        5.871104   1.000000
   83        5.913630   1.000000
   84        6.015073   1.000003
   85        6.045834   1.000008
   86        6.153460   1.000194
   87        6.219902   1.000997
   88        6.237162   1.001463
   89        6.240746   1.001581
   90        6.325254   1.007830
   91        6.398558   1.021232
   92        6.471829   1.035115
   93        6.563851   0.993408
   94        6.644707   0.816216
   95        6.679177   0.694314
   96        6.729946   0.485588
   97        6.851811   0.068510
   98        6.897462  -0.002730
   99        6.958513  -0.034750
  100        7.029620  -0.026960
  101        7.049732  -0.022329
  102        7.171886  -0.003594
  103        7.287626  -0.000266
  104        7.334296  -0.000075
  105        7.430764  -0.000004
  106        7.513625  -0.000000
  107        7.608819  -0.000000
  108        7.785300  -0.000000
  109        8.015881  -0.000000
  110        8.137324  -0.000000
  111        8.295683  -0.000000
  112        8.532671  -0.000000
  113        8.556633  -0.000000
  114        8.738061  -0.000000
  115        8.838899  -0.000000
  116        8.897150  -0.000000
  117        8.970233  -0.000000
  118        9.003446  -0.000000
  119        9.053304  -0.000000
  120        9.073707  -0.000000
 
  0.2000000E+00 -0.1387779E-16  0.0000000E+00  0.1600000E-01
    1      -47.450930   1.000000
    2      -47.355787   1.000000
    3      -47.311545   1.000000
    4      -47.282786   1.000000
    5      -47.180167   1.000000
    6      -47.160244   1.000000
    7      -24.083107   1.000000
    8      -23.864425   1.000000
    9      -23.796679   1.000000
   10      -23.711572   1.000000
   11      -23.599551   1.000000
   12      -23.549788   1.000000
   13      -23.520769   1.000000
   14      -23.501509   1.000000
   15      -23.460567   1.000000
   16      -23.452260   1.000000
   17      -23.383071   1.000000
   18      -23.374874   1.000000
   19      -23.341498   1.000000
   20      -23.332322   1.000000
   21      -23.228490   1.000000
   22      -23.120600   1.000000
   23      -23.045526   1.000000
   24      -22.913288   1.000000
   25       -0.297454   1.000000
   26        0.964159   1.000000
   27        1.309574   1.000000
   28        2.041003   1.000000
   29        2.196318   1.000000
   30        2.331071   1.000000
   31        2.417021   1.000000
   32        2.542608   1.000000
   33        2.609085   1.000000
   34        2.682628   1.000000
   35        2.807104   1.000000
   36        2.838681   1.000000
   37        2.940094   1.000000
   38        3.000340   1.000000
   39        3.065176   1.000000
   40        3.125872   1.000000
   41        3.174113   1.000000
   42        3.261859   1.000000
   43        3.306564   1.000000
   44        3.328467   1.000000
   45        3.477983   1.000000
   46        3.537330   1.000000
   47        3.652014   1.000000
   48        3.719597   1.000000
   49        3.791954   1.000000
   50        3.846436   1.000000
   51        3.917864   1.000000
   52        3.984356   1.000000
   53        4.054794   1.000000
   54        4.087638   1.000000
   55        4.156968   1.000000
   56        4.186669   1.000000
   57        4.314422   1.000000
   58        4.405863   1.000000
   59        4.542057   1.000000
   60        4.577658   1.000000
   61        4.644211   1.000000
   62        4.698933   1.000000
   63        4.765280   1.000000
   64        4.808303   1.000000
   65        4.844983   1.000000
   66        4.882234   1.000000
   67        4.948138   1.000000
   68        5.031635   1.000000
   69        5.083961   1.000000
   70        5.151161   1.000000
   71        5.166206   1.000000
   72        5.248050   1.000000
   73        5.314323   1.000000
   74        5.376406   1.000000
   75        5.393320   1.000000
   76        5.469898   1.000000
   77        5.500442   1.000000
   78        5.527971   1.000000
   79        5.626135   1.000000
   80        5.679756   1.000000
   81        5.775076   1.000000
   82        5.815138   1.000000
   83        5.851112   1.000000
   84        5.946525   1.000000
   85        5.993448   1.000001
   86        6.018740   1.000003
   87        6.109695   1.000058
   88        6.136591   1.000123
   89        6.197327   1.000588
   90        6.273311   1.003086
   91        6.288643   1.004135
   92        6.327587   1.008131
   93        6.390124   1.019335
   94        6.434057   1.029290
   95        6.531184   1.022547
   96        6.598668   0.936896
   97        6.686080   0.667377
   98        6.720782   0.524352
   99        6.816868   0.157606
  100        6.873304   0.028872
  101        6.935524  -0.029183
  102        6.995479  -0.033585
  103        7.051493  -0.021924
  104        7.141981  -0.006180
  105        7.310365  -0.000146
  106        7.329449  -0.000086
  107        7.407901  -0.000008
  108        7.618924  -0.000000
  109        7.687664  -0.000000
  110        7.814037  -0.000000
  111        7.963866  -0.000000
  112        8.087426  -0.000000
  113        8.174445  -0.000000
  114        8.262269  -0.000000
  115        8.305114  -0.000000
  116        8.410379  -0.000000
  117        8.487189  -0.000000
  118        8.551950  -0.000000
  119        8.626001  -0.000000
  120        8.721028  -0.000000
 
  0.4000000E+00 -0.2775558E-16  0.0000000E+00  0.1600000E-01
    1      -47.434754   1.000000
    2      -47.353164   1.000000
    3      -47.309776   1.000000
    4      -47.281770   1.000000
    5      -47.199554   1.000000
    6      -47.160177   1.000000
    7      -23.899211   1.000000
    8      -23.818760   1.000000
    9      -23.715382   1.000000
   10      -23.708105   1.000000
   11      -23.583990   1.000000
   12      -23.558955   1.000000
   13      -23.524359   1.000000
   14      -23.511065   1.000000
   15      -23.469540   1.000000
   16      -23.460021   1.000000
   17      -23.401488   1.000000
   18      -23.379752   1.000000
   19      -23.347607   1.000000
   20      -23.344111   1.000000
   21      -23.281407   1.000000
   22      -23.200712   1.000000
   23      -23.121061   1.000000
   24      -23.051943   1.000000
   25        0.549350   1.000000
   26        1.451001   1.000000
   27        1.947981   1.000000
   28        2.090821   1.000000
   29        2.336720   1.000000
   30        2.537957   1.000000
   31        2.601688   1.000000
   32        2.756519   1.000000
   33        2.892747   1.000000
   34        3.100675   1.000000
   35        3.137622   1.000000
   36        3.196019   1.000000
   37        3.256085   1.000000
   38        3.306490   1.000000
   39        3.349893   1.000000
   40        3.416655   1.000000
   41        3.510318   1.000000
   42        3.546241   1.000000
   43        3.634629   1.000000
   44        3.713449   1.000000
   45        3.774769   1.000000
   46        3.839101   1.000000
   47        3.870130   1.000000
   48        3.948144   1.000000
   49        3.993834   1.000000
   50        4.034590   1.000000
   51        4.104961   1.000000
   52        4.198863   1.000000
   53        4.272570   1.000000
   54        4.335926   1.000000
   55        4.415584   1.000000
   56        4.458911   1.000000
   57        4.526456   1.000000
   58        4.606312   1.000000
   59        4.660904   1.000000
   60        4.744487   1.000000
   61        4.771597   1.000000
   62        4.804619   1.000000
   63        4.845626   1.000000
   64        4.895245   1.000000
   65        4.951403   1.000000
   66        4.979894   1.000000
   67        5.033765   1.000000
   68        5.075169   1.000000
   69        5.127417   1.000000
   70        5.169643   1.000000
   71        5.200795   1.000000
   72        5.249907   1.000000
   73        5.300112   1.000000
   74        5.379424   1.000000
   75        5.425085   1.000000
   76        5.501507   1.000000
   77        5.561107   1.000000
   78        5.585512   1.000000
   79        5.636513   1.000000
   80        5.699183   1.000000
   81        5.752887   1.000000
   82        5.780210   1.000000
   83        5.818759   1.000000
   84        5.872774   1.000000
   85        5.949896   1.000000
   86        6.000120   1.000002
   87        6.033852   1.000006
   88        6.068848   1.000017
   89        6.148590   1.000171
   90        6.184928   1.000435
   91        6.240396   1.001569
   92        6.260066   1.002369
   93        6.318691   1.007028
   94        6.379825   1.017109
   95        6.435724   1.029642
   96        6.474630   1.035280
   97        6.496797   1.034472
   98        6.575003   0.978416
   99        6.638245   0.836280
  100        6.661153   0.760963
  101        6.729271   0.488446
  102        6.756397   0.375210
  103        6.840888   0.093071
  104        6.910859  -0.014961
  105        7.029425  -0.027004
  106        7.105263  -0.011101
  107        7.152524  -0.005138
  108        7.260207  -0.000528
  109        7.391752  -0.000013
  110        7.430037  -0.000004
  111        7.483593  -0.000001
  112        7.595653  -0.000000
  113        7.738540  -0.000000
  114        7.778582  -0.000000
  115        7.877404  -0.000000
  116        7.940975  -0.000000
  117        8.011982  -0.000000
  118        8.146938  -0.000000
  119        8.300411  -0.000000
  120        8.347118  -0.000000
 
  0.0000000E+00  0.2000000E+00  0.1387779E-16  0.1600000E-01
    1      -47.460097   1.000000
    2      -47.357079   1.000000
    3      -47.312401   1.000000
    4      -47.283270   1.000000
    5      -47.169475   1.000000
    6      -47.160530   1.000000
    7      -24.196155   1.000000
    8      -23.868978   1.000000
    9      -23.799945   1.000000
   10      -23.710109   1.000000
   11      -23.609666   1.000000
   12      -23.542450   1.000000
   13      -23.518319   1.000000
   14      -23.495498   1.000000
   15      -23.454879   1.000000
   16      -23.447245   1.000000
   17      -23.378269   1.000000
   18      -23.366945   1.000000
   19      -23.337437   1.000000
   20      -23.326717   1.000000
   21      -23.225545   1.000000
   22      -23.119715   1.000000
   23      -23.045077   1.000000
   24      -22.777559   1.000000
   25       -0.488901   1.000000
   26        0.743109   1.000000
   27        1.088183   1.000000
   28        1.575069   1.000000
   29        1.907725   1.000000
   30        2.131745   1.000000
   31        2.268475   1.000000
   32        2.374504   1.000000
   33        2.475743   1.000000
   34        2.562040   1.000000
   35        2.626005   1.000000
   36        2.663448   1.000000
   37        2.737148   1.000000
   38        2.844371   1.000000
   39        2.867430   1.000000
   40        2.927383   1.000000
   41        2.993114   1.000000
   42        3.075710   1.000000
   43        3.159132   1.000000
   44        3.219873   1.000000
   45        3.319923   1.000000
   46        3.370267   1.000000
   47        3.467739   1.000000
   48        3.610302   1.000000
   49        3.685572   1.000000
   50        3.707450   1.000000
   51        3.789005   1.000000
   52        3.871053   1.000000
   53        3.968317   1.000000
   54        4.062875   1.000000
   55        4.120879   1.000000
   56        4.214875   1.000000
   57        4.295919   1.000000
   58        4.399933   1.000000
   59        4.463000   1.000000
   60        4.529611   1.000000
   61        4.614814   1.000000
   62        4.654205   1.000000
   63        4.722811   1.000000
   64        4.772439   1.000000
   65        4.809598   1.000000
   66        4.867835   1.000000
   67        4.925988   1.000000
   68        4.946864   1.000000
   69        4.972414   1.000000
   70        5.023997   1.000000
   71        5.083676   1.000000
   72        5.125955   1.000000
   73        5.249394   1.000000
   74        5.272109   1.000000
   75        5.327257   1.000000
   76        5.437068   1.000000
   77        5.518616   1.000000
   78        5.623871   1.000000
   79        5.685086   1.000000
   80        5.738888   1.000000
   81        5.750302   1.000000
   82        5.857168   1.000000
   83        5.917858   1.000000
   84        5.967151   1.000001
   85        6.009486   1.000002
   86        6.073527   1.000020
   87        6.118498   1.000074
   88        6.160909   1.000236
   89        6.209364   1.000782
   90        6.253591   1.002074
   91        6.305985   1.005656
   92        6.346184   1.010837
   93        6.414571   1.024924
   94        6.484586   1.035423
   95        6.646199   0.811446
   96        6.676978   0.702745
   97        6.782147   0.274488
   98        6.855746   0.060398
   99        6.994232  -0.033759
  100        7.093630  -0.013106
  101        7.143639  -0.006006
  102        7.191408  -0.002448
  103        7.297169  -0.000207
  104        7.365961  -0.000030
  105        7.437653  -0.000003
  106        7.524806  -0.000000
  107        7.675515  -0.000000
  108        7.799808  -0.000000
  109        7.815890  -0.000000
  110        7.992791  -0.000000
  111        8.139165  -0.000000
  112        8.360924  -0.000000
  113        8.420032  -0.000000
  114        8.608414  -0.000000
  115        8.676244  -0.000000
  116        8.731462  -0.000000
  117        8.807214  -0.000000
  118        8.882724  -0.000000
  119        8.913934  -0.000000
  120        8.990749  -0.000000
 
  0.2000000E+00  0.2000000E+00 -0.4857226E-16  0.1600000E-01
    1      -47.450931   1.000000
    2      -47.355812   1.000000
    3      -47.311625   1.000000
    4      -47.282915   1.000000
    5      -47.180166   1.000000
    6      -47.160012   1.000000
    7      -24.083102   1.000000
    8      -23.865215   1.000000
    9      -23.797933   1.000000
   10      -23.714692   1.000000
   11      -23.599538   1.000000
   12      -23.549729   1.000000
   13      -23.520702   1.000000
   14      -23.501476   1.000000
   15      -23.460610   1.000000
   16      -23.452198   1.000000
   17      -23.383112   1.000000
   18      -23.374948   1.000000
   19      -23.341454   1.000000
   20      -23.332307   1.000000
   21      -23.228465   1.000000
   22      -23.118778   1.000000
   23      -23.041302   1.000000
   24      -22.913290   1.000000
   25       -0.290992   1.000000
   26        0.919961   1.000000
   27        1.331576   1.000000
   28        1.963819   1.000000
   29        2.158435   1.000000
   30        2.319806   1.000000
   31        2.378355   1.000000
   32        2.422823   1.000000
   33        2.613213   1.000000
   34        2.712171   1.000000
   35        2.760020   1.000000
   36        2.841153   1.000000
   37        2.922486   1.000000
   38        2.957108   1.000000
   39        3.066605   1.000000
   40        3.077068   1.000000
   41        3.172791   1.000000
   42        3.212223   1.000000
   43        3.349309   1.000000
   44        3.395551   1.000000
   45        3.466572   1.000000
   46        3.558151   1.000000
   47        3.621462   1.000000
   48        3.725991   1.000000
   49        3.776501   1.000000
   50        3.851633   1.000000
   51        3.918099   1.000000
   52        3.992940   1.000000
   53        4.057038   1.000000
   54        4.162784   1.000000
   55        4.219782   1.000000
   56        4.281666   1.000000
   57        4.311665   1.000000
   58        4.434701   1.000000
   59        4.508021   1.000000
   60        4.558522   1.000000
   61        4.628061   1.000000
   62        4.684015   1.000000
   63        4.732204   1.000000
   64        4.806577   1.000000
   65        4.838076   1.000000
   66        4.892277   1.000000
   67        4.932873   1.000000
   68        5.003651   1.000000
   69        5.054616   1.000000
   70        5.100804   1.000000
   71        5.134468   1.000000
   72        5.179554   1.000000
   73        5.215899   1.000000
   74        5.326572   1.000000
   75        5.378297   1.000000
   76        5.469452   1.000000
   77        5.514541   1.000000
   78        5.572882   1.000000
   79        5.627764   1.000000
   80        5.676522   1.000000
   81        5.761901   1.000000
   82        5.815875   1.000000
   83        5.861688   1.000000
   84        5.914370   1.000000
   85        6.008724   1.000002
   86        6.077829   1.000022
   87        6.133340   1.000113
   88        6.172138   1.000316
   89        6.195448   1.000562
   90        6.243595   1.001681
   91        6.304928   1.005552
   92        6.347841   1.011105
   93        6.406036   1.022949
   94        6.504646   1.033075
   95        6.570265   0.985128
   96        6.634078   0.848698
   97        6.724591   0.508246
   98        6.788059   0.252843
   99        6.831270   0.117190
  100        6.904702  -0.009773
  101        6.954783  -0.034256
  102        7.023871  -0.028242
  103        7.065834  -0.018701
  104        7.112341  -0.009988
  105        7.171989  -0.003587
  106        7.324136  -0.000100
  107        7.357281  -0.000039
  108        7.496151  -0.000000
  109        7.684242  -0.000000
  110        7.861515  -0.000000
  111        8.071708  -0.000000
  112        8.294778  -0.000000
  113        8.376248  -0.000000
  114        8.431638  -0.000000
  115        8.530581  -0.000000
  116        8.582190  -0.000000
  117        8.717345  -0.000000
  118        8.801906  -0.000000
  119        8.875416  -0.000000
  120        8.938813  -0.000000
 
  0.4000000E+00  0.2000000E+00 -0.5551115E-16  0.1600000E-01
    1      -47.434757   1.000000
    2      -47.353206   1.000000
    3      -47.309906   1.000000
    4      -47.281983   1.000000
    5      -47.199554   1.000000
    6      -47.159794   1.000000
    7      -23.899623   1.000000
    8      -23.821217   1.000000
    9      -23.717325   1.000000
   10      -23.711812   1.000000
   11      -23.583886   1.000000
   12      -23.558994   1.000000
   13      -23.524313   1.000000
   14      -23.510978   1.000000
   15      -23.469536   1.000000
   16      -23.459884   1.000000
   17      -23.401501   1.000000
   18      -23.379915   1.000000
   19      -23.347615   1.000000
   20      -23.344119   1.000000
   21      -23.281393   1.000000
   22      -23.200575   1.000000
   23      -23.117446   1.000000
   24      -23.045591   1.000000
   25        0.463897   1.000000
   26        1.399551   1.000000
   27        1.849944   1.000000
   28        2.035420   1.000000
   29        2.201792   1.000000
   30        2.398660   1.000000
   31        2.619880   1.000000
   32        2.872365   1.000000
   33        2.971026   1.000000
   34        3.097665   1.000000
   35        3.170389   1.000000
   36        3.236714   1.000000
   37        3.291191   1.000000
   38        3.346083   1.000000
   39        3.385573   1.000000
   40        3.460002   1.000000
   41        3.536121   1.000000
   42        3.555628   1.000000
   43        3.564836   1.000000
   44        3.715091   1.000000
   45        3.751470   1.000000
   46        3.785119   1.000000
   47        3.862632   1.000000
   48        3.924758   1.000000
   49        4.021726   1.000000
   50        4.042511   1.000000
   51        4.107694   1.000000
   52        4.116832   1.000000
   53        4.186912   1.000000
   54        4.253327   1.000000
   55        4.353977   1.000000
   56        4.422127   1.000000
   57        4.494272   1.000000
   58        4.532159   1.000000
   59        4.628126   1.000000
   60        4.688347   1.000000
   61        4.738117   1.000000
   62        4.813393   1.000000
   63        4.840856   1.000000
   64        4.924104   1.000000
   65        4.971783   1.000000
   66        5.004699   1.000000
   67        5.042902   1.000000
   68        5.106256   1.000000
   69        5.160394   1.000000
   70        5.208390   1.000000
   71        5.266871   1.000000
   72        5.319211   1.000000
   73        5.369307   1.000000
   74        5.408552   1.000000
   75        5.440381   1.000000
   76        5.484399   1.000000
   77        5.537889   1.000000
   78        5.564015   1.000000
   79        5.652864   1.000000
   80        5.699798   1.000000
   81        5.747091   1.000000
   82        5.802682   1.000000
   83        5.834885   1.000000
   84        5.872895   1.000000
   85        5.928264   1.000000
   86        5.969573   1.000001
   87        5.993271   1.000001
   88        6.052823   1.000010
   89        6.119768   1.000077
   90        6.147225   1.000165
   91        6.177228   1.000359
   92        6.238383   1.001502
   93        6.295167   1.004662
   94        6.309747   1.006038
   95        6.350172   1.011490
   96        6.416236   1.025308
   97        6.427852   1.027943
   98        6.514031   1.030460
   99        6.614860   0.900471
  100        6.682628   0.680933
  101        6.724631   0.508077
  102        6.794957   0.228425
  103        6.891343   0.004061
  104        6.926107  -0.024901
  105        7.048767  -0.022552
  106        7.107481  -0.010744
  107        7.212183  -0.001586
  108        7.293806  -0.000226
  109        7.480040  -0.000001
  110        7.575091  -0.000000
  111        7.745150  -0.000000
  112        7.848058  -0.000000
  113        7.960507  -0.000000
  114        8.024246  -0.000000
  115        8.103383  -0.000000
  116        8.150043  -0.000000
  117        8.190016  -0.000000
  118        8.314406  -0.000000
  119        8.400679  -0.000000
  120        8.464271  -0.000000
 
 -0.4000000E+00  0.2000000E+00 -0.3908332E-16  0.1600000E-01
    1      -47.434754   1.000000
    2      -47.353164   1.000000
    3      -47.309774   1.000000
    4      -47.281768   1.000000
    5      -47.199553   1.000000
    6      -47.160182   1.000000
    7      -23.899208   1.000000
    8      -23.818733   1.000000
    9      -23.715388   1.000000
   10      -23.708055   1.000000
   11      -23.584004   1.000000
   12      -23.558945   1.000000
   13      -23.524385   1.000000
   14      -23.511080   1.000000
   15      -23.469643   1.000000
   16      -23.459997   1.000000
   17      -23.401494   1.000000
   18      -23.379736   1.000000
   19      -23.347505   1.000000
   20      -23.344099   1.000000
   21      -23.281418   1.000000
   22      -23.200709   1.000000
   23      -23.121076   1.000000
   24      -23.052065   1.000000
   25        0.806051   1.000000
   26        1.403834   1.000000
   27        1.690044   1.000000
   28        2.130496   1.000000
   29        2.234627   1.000000
   30        2.445310   1.000000
   31        2.560122   1.000000
   32        2.755834   1.000000
   33        2.957418   1.000000
   34        3.071634   1.000000
   35        3.100802   1.000000
   36        3.182117   1.000000
   37        3.284904   1.000000
   38        3.348723   1.000000
   39        3.353473   1.000000
   40        3.427478   1.000000
   41        3.499303   1.000000
   42        3.535920   1.000000
   43        3.606312   1.000000
   44        3.672981   1.000000
   45        3.759337   1.000000
   46        3.853419   1.000000
   47        3.894401   1.000000
   48        3.921057   1.000000
   49        3.990330   1.000000
   50        4.100988   1.000000
   51        4.138207   1.000000
   52        4.260268   1.000000
   53        4.320661   1.000000
   54        4.383912   1.000000
   55        4.423807   1.000000
   56        4.494723   1.000000
   57        4.562105   1.000000
   58        4.613904   1.000000
   59        4.688674   1.000000
   60        4.727059   1.000000
   61        4.772328   1.000000
   62        4.815826   1.000000
   63        4.904950   1.000000
   64        4.924091   1.000000
   65        4.927610   1.000000
   66        4.963354   1.000000
   67        4.992211   1.000000
   68        5.038398   1.000000
   69        5.088901   1.000000
   70        5.129876   1.000000
   71        5.193828   1.000000
   72        5.201316   1.000000
   73        5.297509   1.000000
   74        5.350535   1.000000
   75        5.458310   1.000000
   76        5.514894   1.000000
   77        5.566500   1.000000
   78        5.621252   1.000000
   79        5.655004   1.000000
   80        5.667470   1.000000
   81        5.761063   1.000000
   82        5.792404   1.000000
   83        5.830620   1.000000
   84        5.861370   1.000000
   85        5.908865   1.000000
   86        5.976240   1.000001
   87        6.008388   1.000002
   88        6.043807   1.000008
   89        6.099378   1.000043
   90        6.151577   1.000185
   91        6.185723   1.000444
   92        6.258747   1.002306
   93        6.312701   1.006352
   94        6.392572   1.019880
   95        6.415879   1.025226
   96        6.485777   1.035388
   97        6.536055   1.019460
   98        6.565410   0.991479
   99        6.605317   0.922739
  100        6.695736   0.628642
  101        6.751168   0.396660
  102        6.787316   0.255527
  103        6.870461   0.033468
  104        6.892467   0.002754
  105        7.021360  -0.028790
  106        7.049359  -0.022415
  107        7.097879  -0.012349
  108        7.240809  -0.000837
  109        7.301128  -0.000187
  110        7.542586  -0.000000
  111        7.581861  -0.000000
  112        7.623012  -0.000000
  113        7.724295  -0.000000
  114        7.841537  -0.000000
  115        7.939636  -0.000000
  116        8.056794  -0.000000
  117        8.133378  -0.000000
  118        8.239443  -0.000000
  119        8.287735  -0.000000
  120        8.357039  -0.000000
 
 -0.2000000E+00  0.2000000E+00  0.1006140E-15  0.1600000E-01
    1      -47.450926   1.000000
    2      -47.355746   1.000000
    3      -47.311411   1.000000
    4      -47.282568   1.000000
    5      -47.180166   1.000000
    6      -47.160636   1.000000
    7      -24.083115   1.000000
    8      -23.863189   1.000000
    9      -23.794718   1.000000
   10      -23.705998   1.000000
   11      -23.599633   1.000000
   12      -23.549835   1.000000
   13      -23.520882   1.000000
   14      -23.501619   1.000000
   15      -23.460798   1.000000
   16      -23.452316   1.000000
   17      -23.382970   1.000000
   18      -23.374806   1.000000
   19      -23.341263   1.000000
   20      -23.332308   1.000000
   21      -23.228541   1.000000
   22      -23.124090   1.000000
   23      -23.052361   1.000000
   24      -22.913287   1.000000
   25       -0.051797   1.000000
   26        1.017782   1.000000
   27        1.343047   1.000000
   28        1.702344   1.000000
   29        2.062919   1.000000
   30        2.414974   1.000000
   31        2.459447   1.000000
   32        2.657701   1.000000
   33        2.695670   1.000000
   34        2.723878   1.000000
   35        2.807254   1.000000
   36        2.877476   1.000000
   37        2.920952   1.000000
   38        2.964228   1.000000
   39        3.038240   1.000000
   40        3.102365   1.000000
   41        3.174726   1.000000
   42        3.205543   1.000000
   43        3.254609   1.000000
   44        3.295685   1.000000
   45        3.368222   1.000000
   46        3.537687   1.000000
   47        3.601726   1.000000