       N       E                     dE             d eps       ncg     rms          rms(c)
DAV:   1     0.215417051270E+04    0.21542E+04   -0.91333E+04 15120   0.175E+03
DAV:   2     0.728108275812E+02   -0.20814E+04   -0.20187E+04 15176   0.520E+02
DAV:   3    -0.301156924974E+03   -0.37397E+03   -0.35571E+03 26272   0.183E+02
DAV:   4    -0.347938952578E+03   -0.46782E+02   -0.43229E+02 23392   0.602E+01
DAV:   5    -0.353032631287E+03   -0.50937E+01   -0.49662E+01 28664   0.221E+01    0.753E+01
DAV:   6    -0.346577571852E+03    0.64551E+01   -0.13862E+02 21288   0.314E+01    0.426E+01
DAV:   7    -0.357016893500E+03   -0.10439E+02   -0.62668E+02 22032   0.114E+02    0.281E+01
DAV:   8    -0.352872691661E+03    0.41442E+01   -0.13637E+02 21368   0.381E+01    0.204E+01
DAV:   9    -0.340709088037E+03    0.12164E+02   -0.23330E+01 22576   0.161E+01    0.152E+01
DAV:  10    -0.336370939378E+03    0.43381E+01   -0.66812E+00 22048   0.824E+00    0.127E+01
DAV:  11    -0.333652832865E+03    0.27181E+01   -0.30224E+00 21640   0.512E+00    0.104E+01
DAV:  12    -0.332071768388E+03    0.15811E+01   -0.15128E+00 22504   0.369E+00    0.840E+00
DAV:  13    -0.330649699506E+03    0.14221E+01   -0.46542E+00 21520   0.576E+00    0.367E+00
DAV:  14    -0.330515788264E+03    0.13391E+00   -0.16397E+00 21784   0.357E+00    0.276E+00
DAV:  15    -0.330466417169E+03    0.49371E-01   -0.15048E+00 21648   0.335E+00    0.219E+00
DAV:  16    -0.330422768200E+03    0.43649E-01   -0.62095E-01 22120   0.223E+00    0.963E-01
DAV:  17    -0.330412921642E+03    0.98466E-02   -0.16313E-01 23144   0.115E+00    0.752E-01
DAV:  18    -0.330410699833E+03    0.22218E-02   -0.41764E-02 22520   0.594E-01    0.528E-01
DAV:  19    -0.330408152746E+03    0.25471E-02   -0.30513E-02 22216   0.488E-01    0.241E-01
DAV:  20    -0.330407516011E+03    0.63674E-03   -0.81950E-03 20336   0.273E-01    0.122E-01
DAV:  21    -0.330407359231E+03    0.15678E-03   -0.23773E-03 20000   0.148E-01    0.732E-02
DAV:  22    -0.330407471362E+03   -0.11213E-03   -0.16971E-03 19096   0.115E-01    0.105E-01
DAV:  23    -0.330407320565E+03    0.15080E-03   -0.12957E-03 18008   0.110E-01    0.386E-02
DAV:  24    -0.330407300842E+03    0.19723E-04   -0.18976E-04 11536   0.529E-02
   1 F= -.33040730E+03 E0= -.33040101E+03  d E =-.330407E+03
       N       E                     dE             d eps       ncg     rms          rms(c)
DAV:   1    -0.331316054548E+03   -0.90873E+00   -0.10344E+02 15248   0.399E+01    0.962E+00
DAV:   2    -0.331654082537E+03   -0.33803E+00   -0.14230E+01 22640   0.157E+01    0.685E+00
DAV:   3    -0.331289006705E+03    0.36508E+00   -0.88198E+00 22024   0.898E+00    0.587E+00
DAV:   4    -0.331018102591E+03    0.27090E+00   -0.51225E+00 22992   0.728E+00    0.364E+00
DAV:   5    -0.330796193855E+03    0.22191E+00   -0.19063E+00 22368   0.472E+00    0.174E+00
DAV:   6    -0.330751845073E+03    0.44349E-01   -0.52065E-01 24064   0.234E+00    0.117E+00
DAV:   7    -0.330754332556E+03   -0.24875E-02   -0.21176E-01 24928   0.136E+00    0.948E-01
DAV:   8    -0.330749858316E+03    0.44742E-02   -0.84223E-02 23072   0.883E-01    0.704E-01
DAV:   9    -0.330750145928E+03   -0.28761E-03   -0.30745E-02 22264   0.502E-01    0.475E-01
DAV:  10    -0.330753316667E+03   -0.31707E-02   -0.22436E-02 23328   0.446E-01    0.358E-01
DAV:  11    -0.330753926272E+03   -0.60961E-03   -0.15940E-02 22552   0.374E-01    0.200E-01
DAV:  12    -0.330754019776E+03   -0.93504E-04   -0.56983E-03 22592   0.219E-01    0.974E-02
DAV:  13    -0.330754094569E+03   -0.74793E-04   -0.14746E-03 21480   0.116E-01    0.508E-02
DAV:  14    -0.330754119830E+03   -0.25261E-04   -0.50337E-04 15152   0.815E-02
   2 F= -.33075412E+03 E0= -.33074854E+03  d E =-.346819E+00
       N       E                     dE             d eps       ncg     rms          rms(c)
DAV:   1    -0.330783228703E+03   -0.29134E-01   -0.28199E+00 15296   0.660E+00    0.164E+00
DAV:   2    -0.330791473434E+03   -0.82447E-02   -0.36002E-01 23392   0.249E+00    0.121E+00
DAV:   3    -0.330788898023E+03    0.25754E-02   -0.31011E-01 22728   0.175E+00    0.106E+00
DAV:   4    -0.330776437318E+03    0.12461E-01   -0.13100E-01 23336   0.115E+00    0.588E-01
DAV:   5    -0.330769990063E+03    0.64473E-02   -0.53217E-02 22400   0.784E-01    0.297E-01
DAV:   6    -0.330769150881E+03    0.83918E-03   -0.17586E-02 23224   0.425E-01    0.231E-01
DAV:   7    -0.330768788568E+03    0.36231E-03   -0.74319E-03 21304   0.254E-01    0.154E-01
DAV:   8    -0.330768655755E+03    0.13281E-03   -0.22794E-03 20888   0.149E-01    0.108E-01
DAV:   9    -0.330768664196E+03   -0.84415E-05   -0.91806E-04 17800   0.883E-02
   3 F= -.33076866E+03 E0= -.33076303E+03  d E =-.361363E+00
       N       E                     dE             d eps       ncg     rms          rms(c)
DAV:   1    -0.330953722697E+03   -0.18507E+00   -0.44655E+01 15120   0.225E+01    0.337E+00
DAV:   2    -0.331109822760E+03   -0.15610E+00   -0.33072E+00 21288   0.695E+00    0.226E+00
DAV:   3    -0.331127330000E+03   -0.17507E-01   -0.13253E+00 22680   0.380E+00    0.216E+00
DAV:   4    -0.331064967108E+03    0.62363E-01   -0.49360E-01 22064   0.228E+00    0.123E+00
DAV:   5    -0.331046879266E+03    0.18088E-01   -0.21968E-01 22400   0.143E+00    0.727E-01
DAV:   6    -0.331044092845E+03    0.27864E-02   -0.85953E-02 23496   0.972E-01    0.551E-01
DAV:   7    -0.331041357768E+03    0.27351E-02   -0.47959E-02 23024   0.721E-01    0.407E-01
DAV:   8    -0.331039574019E+03    0.17837E-02   -0.18272E-02 23864   0.387E-01    0.249E-01
DAV:   9    -0.331039553392E+03    0.20627E-04   -0.35446E-03 21072   0.172E-01    0.183E-01
DAV:  10    -0.331039773000E+03   -0.21961E-03   -0.14331E-03 18880   0.127E-01    0.130E-01
DAV:  11    -0.331039978882E+03   -0.20588E-03   -0.23829E-03 20496   0.157E-01    0.101E-01
DAV:  12    -0.331039864274E+03    0.11461E-03   -0.17504E-03 19504   0.131E-01    0.443E-02
DAV:  13    -0.331039824558E+03    0.39716E-04   -0.24511E-04 10880   0.669E-02
   4 F= -.33103982E+03 E0= -.33103383E+03  d E =-.271160E+00
       N       E                     dE             d eps       ncg     rms          rms(c)
DAV:   1    -0.331052533421E+03   -0.12669E-01   -0.14463E+01 15120   0.127E+01    0.187E+00
DAV:   2    -0.331100451534E+03   -0.47918E-01   -0.10541E+00 21424   0.392E+00    0.124E+00
DAV:   3    -0.331104719185E+03   -0.42677E-02   -0.39843E-01 22768   0.206E+00    0.118E+00
DAV:   4    -0.331086426436E+03    0.18293E-01   -0.15383E-01 22096   0.125E+00    0.678E-01
DAV:   5    -0.331081215620E+03    0.52108E-02   -0.70325E-02 22464   0.814E-01    0.413E-01
DAV:   6    -0.331079881639E+03    0.13340E-02   -0.25975E-02 23448   0.530E-01    0.286E-01
DAV:   7    -0.331079272758E+03    0.60888E-03   -0.13695E-02 24336   0.387E-01    0.231E-01
DAV:   8    -0.331078703824E+03    0.56893E-03   -0.55387E-03 20920   0.213E-01    0.138E-01
DAV:   9    -0.331078693660E+03    0.10164E-04   -0.10262E-03 18776   0.963E-02    0.101E-01
DAV:  10    -0.331078755327E+03   -0.61667E-04   -0.40061E-04 13232   0.795E-02
   5 F= -.33107876E+03 E0= -.33107257E+03  d E =-.310091E+00
       N       E                     dE             d eps       ncg     rms          rms(c)
DAV:   1    -0.331100281455E+03   -0.21588E-01   -0.28868E+00 15120   0.594E+00    0.818E-01
DAV:   2    -0.331116969114E+03   -0.16688E-01   -0.23726E-01 21632   0.183E+00    0.702E-01
DAV:   3    -0.331116423229E+03    0.54589E-03   -0.93333E-02 22800   0.970E-01    0.615E-01
DAV:   4    -0.331112341853E+03    0.40814E-02   -0.35305E-02 22656   0.582E-01    0.314E-01
DAV:   5    -0.331111185583E+03    0.11563E-02   -0.16866E-02 22512   0.405E-01    0.178E-01
DAV:   6    -0.331110925009E+03    0.26057E-03   -0.61225E-03 23704   0.247E-01    0.129E-01
DAV:   7    -0.331110704180E+03    0.22083E-03   -0.26220E-03 20264   0.158E-01    0.784E-02
DAV:   8    -0.331110631421E+03    0.72759E-04   -0.58341E-04 15120   0.836E-02
   6 F= -.33111063E+03 E0= -.33110480E+03  d E =-.318761E-01
       N       E                     dE             d eps       ncg     rms          rms(c)
DAV:   1    -0.331107496915E+03    0.32073E-02   -0.55370E+00 15120   0.824E+00    0.113E+00
DAV:   2    -0.331139712121E+03   -0.32215E-01   -0.45190E-01 21552   0.252E+00    0.953E-01
DAV:   3    -0.331139075614E+03    0.63651E-03   -0.17388E-01 22856   0.135E+00    0.844E-01
DAV:   4    -0.331131128085E+03    0.79475E-02   -0.65122E-02 22712   0.794E-01    0.420E-01
DAV:   5    -0.331129145126E+03    0.19830E-02   -0.31731E-02 22456   0.551E-01    0.249E-01
DAV:   6    -0.331128646242E+03    0.49888E-03   -0.12584E-02 24120   0.343E-01    0.177E-01
DAV:   7    -0.331128228113E+03    0.41813E-03   -0.48012E-03 22424   0.215E-01    0.106E-01
DAV:   8    -0.331128107840E+03    0.12027E-03   -0.11823E-03 18856   0.108E-01    0.697E-02
DAV:   9    -0.331128111000E+03   -0.31602E-05   -0.28816E-04 11936   0.615E-02
   7 F= -.33112811E+03 E0= -.33112277E+03  d E =-.493557E-01
       N       E                     dE             d eps       ncg     rms          rms(c)
DAV:   1    -0.331151372942E+03   -0.23265E-01   -0.19422E+00 15120   0.541E+00    0.115E+00
DAV:   2    -0.331157537768E+03   -0.61648E-02   -0.24015E-01 22952   0.189E+00    0.727E-01
DAV:   3    -0.331155556350E+03    0.19814E-02   -0.13144E-01 21328   0.120E+00    0.628E-01
DAV:   4    -0.331150551831E+03    0.50045E-02   -0.55985E-02 22000   0.757E-01    0.373E-01
DAV:   5    -0.331148437257E+03    0.21146E-02   -0.23698E-02 22400   0.490E-01    0.220E-01
DAV:   6    -0.331147685673E+03    0.75158E-03   -0.75123E-03 24336   0.275E-01    0.117E-01
DAV:   7    -0.331147784571E+03   -0.98898E-04   -0.35040E-03 20928   0.171E-01    0.118E-01
DAV:   8    -0.331147663927E+03    0.12064E-03   -0.12373E-03 18520   0.110E-01    0.702E-02
DAV:   9    -0.331147658420E+03    0.55073E-05   -0.35986E-04 12896   0.683E-02
   8 F= -.33114766E+03 E0= -.33114262E+03  d E =-.195474E-01
       N       E                     dE             d eps       ncg     rms          rms(c)
DAV:   1    -0.331157352708E+03   -0.96888E-02   -0.21421E+00 15120   0.568E+00    0.120E+00
DAV:   2    -0.331163665726E+03   -0.63130E-02   -0.25718E-01 22816   0.198E+00    0.739E-01
DAV:   3    -0.331161959738E+03    0.17060E-02   -0.14159E-01 21288   0.125E+00    0.641E-01
DAV:   4    -0.331156540207E+03    0.54195E-02   -0.61150E-02 21904   0.797E-01    0.379E-01
DAV:   5    -0.331154317053E+03    0.22232E-02   -0.25040E-02 22392   0.507E-01    0.219E-01
DAV:   6    -0.331153632018E+03    0.68503E-03   -0.73021E-03 24736   0.271E-01    0.120E-01
DAV:   7    -0.331153761584E+03   -0.12957E-03   -0.29349E-03 21064   0.158E-01    0.120E-01
DAV:   8    -0.331153684600E+03    0.76983E-04   -0.10364E-03 17976   0.102E-01    0.798E-02
DAV:   9    -0.331153705411E+03   -0.20811E-04   -0.34449E-04 12664   0.694E-02
   9 F= -.33115371E+03 E0= -.33114898E+03  d E =-.255944E-01
       N       E                     dE             d eps       ncg     rms          rms(c)
DAV:   1    -0.331160204206E+03   -0.65196E-02   -0.53002E-01 16128   0.228E+00    0.178E-01
DAV:   2    -0.331162717062E+03   -0.25129E-02   -0.29129E-02 24544   0.696E-01    0.212E-01
DAV:   3    -0.331162360023E+03    0.35704E-03   -0.63681E-03 23368   0.256E-01    0.152E-01
DAV:   4    -0.331162158237E+03    0.20179E-03   -0.14235E-03 19640   0.117E-01    0.954E-02
DAV:   5    -0.331162132140E+03    0.26097E-04   -0.51248E-04 14576   0.779E-02
  10 F= -.33116213E+03 E0= -.33115753E+03  d E =-.842673E-02
       N       E                     dE             d eps       ncg     rms          rms(c)
DAV:   1    -0.331164072939E+03   -0.19147E-02   -0.47543E+00 16128   0.684E+00    0.568E-01
DAV:   2    -0.331189496609E+03   -0.25424E-01   -0.28059E-01 24536   0.214E+00    0.716E-01
DAV:   3    -0.331183127952E+03    0.63687E-02   -0.74374E-02 23712   0.864E-01    0.417E-01
DAV:   4    -0.331181696290E+03    0.14317E-02   -0.13605E-02 23264   0.363E-01    0.274E-01
DAV:   5    -0.331181380404E+03    0.31589E-03   -0.67310E-03 21960   0.244E-01    0.230E-01
DAV:   6    -0.331181135523E+03    0.24488E-03   -0.62105E-03 22528   0.235E-01    0.166E-01
DAV:   7    -0.331180723708E+03    0.41182E-03   -0.27063E-03 20904   0.181E-01    0.892E-02
DAV:   8    -0.331180614371E+03    0.10934E-03   -0.12575E-03 19008   0.116E-01    0.489E-02
DAV:   9    -0.331180579599E+03    0.34772E-04   -0.31927E-04 12600   0.632E-02
  11 F= -.33118058E+03 E0= -.33117642E+03  d E =-.268742E-01
       N       E                     dE             d eps       ncg     rms          rms(c)
DAV:   1    -0.331120789041E+03    0.59825E-01   -0.19067E+01 16328   0.137E+01    0.120E+00
DAV:   2    -0.331226703763E+03   -0.10591E+00   -0.11295E+00 24768   0.431E+00    0.150E+00
DAV:   3    -0.331198816966E+03    0.27887E-01   -0.33912E-01 24192   0.189E+00    0.885E-01
DAV:   4    -0.331191344392E+03    0.74726E-02   -0.60525E-02 23104   0.758E-01    0.533E-01
DAV:   5    -0.331190005031E+03    0.13394E-02   -0.18423E-02 22352   0.426E-01    0.432E-01
DAV:   6    -0.331189816981E+03    0.18805E-03   -0.23331E-02 23080   0.453E-01    0.363E-01
DAV:   7    -0.331187751088E+03    0.20659E-02   -0.14168E-02 23760   0.367E-01    0.145E-01
DAV:   8    -0.331187493047E+03    0.25804E-03   -0.28300E-03 22848   0.179E-01    0.870E-02
DAV:   9    -0.331187430816E+03    0.62231E-04   -0.13693E-03 19064   0.108E-01    0.570E-02
DAV:  10    -0.331187397342E+03    0.33474E-04   -0.30974E-04 12632   0.644E-02
  12 F= -.33118740E+03 E0= -.33118438E+03  d E =-.336919E-01
       N       E                     dE             d eps       ncg     rms          rms(c)
DAV:   1    -0.331181901378E+03    0.55294E-02   -0.22365E+00 16128   0.469E+00    0.363E-01
DAV:   2    -0.331192629971E+03   -0.10729E-01   -0.12202E-01 24136   0.141E+00    0.406E-01
DAV:   3    -0.331190881224E+03    0.17487E-02   -0.27541E-02 23760   0.536E-01    0.268E-01
DAV:   4    -0.331190181888E+03    0.69934E-03   -0.64567E-03 22784   0.247E-01    0.162E-01
DAV:   5    -0.331189998178E+03    0.18371E-03   -0.26401E-03 20048   0.157E-01    0.128E-01
DAV:   6    -0.331189922584E+03    0.75594E-04   -0.26612E-03 20552   0.155E-01    0.101E-01
DAV:   7    -0.331189751347E+03    0.17124E-03   -0.11534E-03 18968   0.112E-01    0.452E-02
DAV:   8    -0.331189723341E+03    0.28007E-04   -0.25765E-04 11608   0.657E-02
  13 F= -.33118972E+03 E0= -.33118629E+03  d E =-.360179E-01
       N       E                     dE             d eps       ncg     rms          rms(c)
DAV:   1    -0.331200571199E+03   -0.10820E-01   -0.14956E+00 16360   0.372E+00    0.430E-01
DAV:   2    -0.331206350461E+03   -0.57793E-02   -0.80593E-02 24384   0.110E+00    0.471E-01
DAV:   3    -0.331204547635E+03    0.18028E-02   -0.32357E-02 23856   0.529E-01    0.308E-01
DAV:   4    -0.331203615783E+03    0.93185E-03   -0.66360E-03 22136   0.267E-01    0.185E-01
DAV:   5    -0.331203467519E+03    0.14826E-03   -0.45447E-03 21264   0.201E-01    0.141E-01
DAV:   6    -0.331203266520E+03    0.20100E-03   -0.24577E-03 20400   0.161E-01    0.803E-02
DAV:   7    -0.331203155599E+03    0.11092E-03   -0.96488E-04 17392   0.113E-01    0.517E-02
DAV:   8    -0.331203126209E+03    0.29389E-04   -0.32605E-04 12600   0.686E-02
  14 F= -.33120313E+03 E0= -.33119966E+03  d E =-.134029E-01
       N       E                     dE             d eps       ncg     rms          rms(c)
DAV:   1    -0.331195283430E+03    0.78722E-02   -0.12926E+01 16128   0.109E+01    0.127E+00
DAV:   2    -0.331249685238E+03   -0.54402E-01   -0.72064E-01 24336   0.326E+00    0.145E+00
DAV:   3    -0.331231371551E+03    0.18314E-01   -0.30242E-01 23896   0.167E+00    0.909E-01
DAV:   4    -0.331223165983E+03    0.82056E-02   -0.55698E-02 23512   0.778E-01    0.530E-01
DAV:   5    -0.331222052472E+03    0.11135E-02   -0.38797E-02 22552   0.579E-01    0.414E-01
DAV:   6    -0.331219907159E+03    0.21453E-02   -0.20665E-02 23456   0.451E-01    0.195E-01
DAV:   7    -0.331219290991E+03    0.61617E-03   -0.57168E-03 24376   0.253E-01    0.126E-01
DAV:   8    -0.331219264285E+03    0.26706E-04   -0.25210E-03 20392   0.145E-01    0.104E-01
DAV:   9    -0.331219216647E+03    0.47638E-04   -0.83745E-04 16864   0.882E-02
  15 F= -.33121922E+03 E0= -.33121578E+03  d E =-.294933E-01
       N       E                     dE             d eps       ncg     rms          rms(c)
DAV:   1    -0.331225325632E+03   -0.60613E-02   -0.27290E-01 15144   0.167E+00    0.298E-01
DAV:   2    -0.331226181041E+03   -0.85541E-03   -0.20049E-02 22512   0.528E-01    0.250E-01
DAV:   3    -0.331225865201E+03    0.31584E-03   -0.11094E-02 22200   0.329E-01    0.196E-01
DAV:   4    -0.331225377632E+03    0.48757E-03   -0.32029E-03 20448   0.191E-01    0.101E-01
DAV:   5    -0.331225256262E+03    0.12137E-03   -0.16868E-03 19720   0.145E-01    0.712E-02
DAV:   6    -0.331225211092E+03    0.45169E-04   -0.10557E-03 18264   0.104E-01    0.485E-02
DAV:   7    -0.331225174630E+03    0.36462E-04   -0.27497E-04 12048   0.706E-02
  16 F= -.33122517E+03 E0= -.33122179E+03  d E =-.595798E-02
       N       E                     dE             d eps       ncg     rms          rms(c)
DAV:   1    -0.331238262425E+03   -0.13051E-01   -0.24496E+00 15264   0.500E+00    0.842E-01
DAV:   2    -0.331245810928E+03   -0.75485E-02   -0.17155E-01 22224   0.155E+00    0.686E-01
DAV:   3    -0.331242831526E+03    0.29794E-02   -0.89858E-02 22536   0.952E-01    0.527E-01
DAV:   4    -0.331239839084E+03    0.29924E-02   -0.29298E-02 22480   0.562E-01    0.306E-01
DAV:   5    -0.331238510311E+03    0.13288E-02   -0.16954E-02 22664   0.429E-01    0.184E-01
DAV:   6    -0.331238073841E+03    0.43647E-03   -0.67983E-03 22992   0.244E-01    0.111E-01
DAV:   7    -0.331237985588E+03    0.88252E-04   -0.19470E-03 20600   0.139E-01    0.771E-02
DAV:   8    -0.331237956695E+03    0.28893E-04   -0.39487E-04 12640   0.714E-02
  17 F= -.33123796E+03 E0= -.33123471E+03  d E =-.187400E-01
       N       E                     dE             d eps       ncg     rms          rms(c)
DAV:   1    -0.331240786427E+03   -0.28008E-02   -0.98054E+00 15416   0.100E+01    0.168E+00
DAV:   2    -0.331272002756E+03   -0.31216E-01   -0.69449E-01 22272   0.310E+00    0.140E+00
DAV:   3    -0.331256800924E+03    0.15202E-01   -0.35554E-01 22560   0.192E+00    0.104E+00
DAV:   4    -0.331245671987E+03    0.11129E-01   -0.11078E-01 23056   0.110E+00    0.606E-01
DAV:   5    -0.331240708132E+03    0.49639E-02   -0.69356E-02 22656   0.865E-01    0.368E-01
DAV:   6    -0.331238675812E+03    0.20323E-02   -0.25714E-02 23984   0.474E-01    0.198E-01
DAV:   7    -0.331238487523E+03    0.18829E-03   -0.61843E-03 22384   0.238E-01    0.143E-01
DAV:   8    -0.331238490750E+03   -0.32266E-05   -0.14122E-03 19440   0.111E-01    0.110E-01
DAV:   9    -0.331238552540E+03   -0.61790E-04   -0.54151E-04 15240   0.782E-02
  18 F= -.33123855E+03 E0= -.33123583E+03  d E =-.193359E-01
       N       E                     dE             d eps       ncg     rms          rms(c)
DAV:   1    -0.331242761820E+03   -0.42711E-02   -0.20591E+00 15120   0.460E+00    0.791E-01
DAV:   2    -0.331248606102E+03   -0.58443E-02   -0.14458E-01 22448   0.142E+00    0.606E-01
DAV:   3    -0.331246920768E+03    0.16853E-02   -0.73403E-02 22464   0.882E-01    0.483E-01
DAV:   4    -0.331244462572E+03    0.24582E-02   -0.25595E-02 22464   0.526E-01    0.293E-01
DAV:   5    -0.331243251470E+03    0.12111E-02   -0.14566E-02 22560   0.396E-01    0.172E-01
DAV:   6    -0.331242776777E+03    0.47469E-03   -0.55379E-03 22920   0.227E-01    0.918E-02
DAV:   7    -0.331242706623E+03    0.70154E-04   -0.16438E-03 20400   0.127E-01    0.621E-02
DAV:   8    -0.331242672417E+03    0.34206E-04   -0.36359E-04 12728   0.673E-02
  19 F= -.33124267E+03 E0= -.33123968E+03  d E =-.234558E-01
       N       E                     dE             d eps       ncg     rms          rms(c)
DAV:   1    -0.331252357801E+03   -0.96512E-02   -0.73368E-01 16024   0.241E+00    0.209E-01
DAV:   2    -0.331254569537E+03   -0.22117E-02   -0.26110E-02 25616   0.669E-01    0.277E-01
DAV:   3    -0.331253712207E+03    0.85733E-03   -0.10299E-02 22016   0.303E-01    0.136E-01
DAV:   4    -0.331253509536E+03    0.20267E-03   -0.12889E-03 19336   0.126E-01    0.829E-02
DAV:   5    -0.331253464566E+03    0.44970E-04   -0.77354E-04 16584   0.915E-02
  20 F= -.33125346E+03 E0= -.33125062E+03  d E =-.107921E-01
       N       E                     dE             d eps       ncg     rms          rms(c)
DAV:   1    -0.331274179776E+03   -0.20670E-01   -0.66052E+00 16024   0.723E+00    0.670E-01
DAV:   2    -0.331297352182E+03   -0.23172E-01   -0.26393E-01 25440   0.209E+00    0.986E-01
DAV:   3    -0.331285139718E+03    0.12212E-01   -0.11300E-01 23768   0.102E+00    0.428E-01
DAV:   4    -0.331283565537E+03    0.15742E-02   -0.11813E-02 23392   0.381E-01    0.284E-01
DAV:   5    -0.331283047977E+03    0.51756E-03   -0.86784E-03 21512   0.281E-01    0.230E-01
DAV:   6    -0.331282255228E+03    0.79275E-03   -0.53485E-03 21480   0.230E-01    0.123E-01
DAV:   7    -0.331282054600E+03    0.20063E-03   -0.25708E-03 20008   0.162E-01    0.725E-02
DAV:   8    -0.331281940673E+03    0.11393E-03   -0.59493E-04 14504   0.913E-02    0.326E-02
DAV:   9    -0.331281937028E+03    0.36447E-05   -0.15086E-04 10248   0.560E-02
  21 F= -.33128194E+03 E0= -.33127959E+03  d E =-.392646E-01
       N       E                     dE             d eps       ncg     rms          rms(c)
DAV:   1    -0.331284929509E+03   -0.29888E-02   -0.26292E+01 16024   0.145E+01    0.144E+00
DAV:   2    -0.331390962198E+03   -0.10603E+00   -0.11853E+00 25240   0.438E+00    0.218E+00
DAV:   3    -0.331331902702E+03    0.59059E-01   -0.54390E-01 23800   0.228E+00    0.856E-01
DAV:   4    -0.331325738509E+03    0.61642E-02   -0.45896E-02 23848   0.788E-01    0.577E-01
DAV:   5    -0.331323534691E+03    0.22038E-02   -0.28998E-02 21608   0.530E-01    0.461E-01
DAV:   6    -0.331321224537E+03    0.23102E-02   -0.22045E-02 22624   0.459E-01    0.300E-01
DAV:   7    -0.331319971732E+03    0.12528E-02   -0.13164E-02 23936   0.364E-01    0.170E-01
DAV:   8    -0.331319422117E+03    0.54962E-03   -0.34540E-03 20424   0.194E-01    0.762E-02
DAV:   9    -0.331319390188E+03    0.31928E-04   -0.89427E-04 18552   0.884E-02
  22 F= -.33131939E+03 E0= -.33131773E+03  d E =-.767178E-01
       N       E                     dE             d eps       ncg     rms          rms(c)
DAV:   1    -0.331106366887E+03    0.21306E+00   -0.10329E+02 15824   0.290E+01    0.322E+00
DAV:   2    -0.331675568830E+03   -0.56920E+00   -0.60171E+00 24984   0.936E+00    0.560E+00
DAV:   3    -0.331322927751E+03    0.35264E+00   -0.33679E+00 23600   0.588E+00    0.174E+00
DAV:   4    -0.331303858230E+03    0.19070E-01   -0.21256E-01 23688   0.174E+00    0.122E+00
DAV:   5    -0.331292294469E+03    0.11564E-01   -0.10961E-01 21504   0.106E+00    0.936E-01
DAV:   6    -0.331285422659E+03    0.68718E-02   -0.84875E-02 22320   0.887E-01    0.661E-01
DAV:   7    -0.331280814342E+03    0.46083E-02   -0.57366E-02 24368   0.750E-01    0.463E-01
DAV:   8    -0.331277954066E+03    0.28603E-02   -0.18862E-02 23840   0.420E-01    0.259E-01
DAV:   9    -0.331277217133E+03    0.73693E-03   -0.55609E-03 20920   0.215E-01    0.146E-01
DAV:  10    -0.331276973559E+03    0.24357E-03   -0.21573E-03 20088   0.146E-01    0.819E-02
DAV:  11    -0.331276895524E+03    0.78035E-04   -0.89659E-04 17216   0.944E-02
  23 F= -.33127690E+03 E0= -.33127506E+03  d E =-.342231E-01
       N       E                     dE             d eps       ncg     rms          rms(c)
DAV:   1    -0.331246692078E+03    0.30281E-01   -0.59919E+01 16328   0.220E+01    0.175E+00
DAV:   2    -0.331448033275E+03   -0.20134E+00   -0.24761E+00 24544   0.619E+00    0.278E+00
DAV:   3    -0.331346538596E+03    0.10149E+00   -0.85848E-01 23928   0.290E+00    0.108E+00
DAV:   4    -0.331336091239E+03    0.10447E-01   -0.98089E-02 23464   0.108E+00    0.752E-01
DAV:   5    -0.331333469915E+03    0.26213E-02   -0.90960E-02 23200   0.875E-01    0.662E-01
DAV:   6    -0.331325746768E+03    0.77231E-02   -0.44734E-02 22656   0.675E-01    0.286E-01
DAV:   7    -0.331325035679E+03    0.71109E-03   -0.15249E-02 24064   0.423E-01    0.213E-01
DAV:   8    -0.331324244588E+03    0.79109E-03   -0.67929E-03 20496   0.267E-01    0.112E-01
DAV:   9    -0.331324077702E+03    0.16689E-03   -0.15543E-03 19192   0.130E-01    0.663E-02
DAV:  10    -0.331324064795E+03    0.12906E-04   -0.74678E-04 16784   0.853E-02
  24 F= -.33132406E+03 E0= -.33132247E+03  d E =-.813924E-01
       N       E                     dE             d eps       ncg     rms          rms(c)
DAV:   1    -0.331346692674E+03   -0.22615E-01   -0.22483E+00 15120   0.511E+00    0.877E-01
DAV:   2    -0.331355718013E+03   -0.90253E-02   -0.19047E-01 22944   0.168E+00    0.708E-01
DAV:   3    -0.331352366921E+03    0.33511E-02   -0.97208E-02 21688   0.101E+00    0.503E-01
DAV:   4    -0.331349459138E+03    0.29078E-02   -0.30014E-02 22416   0.591E-01    0.293E-01
DAV:   5    -0.331348028802E+03    0.14303E-02   -0.14639E-02 22504   0.411E-01    0.157E-01
DAV:   6    -0.331347659823E+03    0.36898E-03   -0.49053E-03 23552   0.224E-01    0.978E-02
DAV:   7    -0.331347609214E+03    0.50608E-04   -0.18822E-03 20464   0.137E-01    0.769E-02
DAV:   8    -0.331347553775E+03    0.55439E-04   -0.43881E-04 13440   0.767E-02
  25 F= -.33134755E+03 E0= -.33134575E+03  d E =-.234890E-01
       N       E                     dE             d eps       ncg     rms          rms(c)
DAV:   1    -0.331357903639E+03   -0.10294E-01   -0.47000E+00 15120   0.739E+00    0.125E+00
DAV:   2    -0.331376731032E+03   -0.18827E-01   -0.39284E-01 22768   0.242E+00    0.102E+00
DAV:   3    -0.331370035736E+03    0.66953E-02   -0.20487E-01 21648   0.147E+00    0.718E-01
DAV:   4    -0.331363977742E+03    0.60580E-02   -0.62671E-02 22416   0.851E-01    0.420E-01
DAV:   5    -0.331361032680E+03    0.29451E-02   -0.30076E-02 22552   0.586E-01    0.228E-01
DAV:   6    -0.331360312274E+03    0.72041E-03   -0.10169E-02 24312   0.321E-01    0.146E-01
DAV:   7    -0.331360206087E+03    0.10619E-03   -0.38582E-03 21264   0.195E-01    0.115E-01
DAV:   8    -0.331360126312E+03    0.79775E-04   -0.10358E-03 18688   0.107E-01    0.844E-02
DAV:   9    -0.331360135765E+03   -0.94528E-05   -0.32226E-04 12616   0.694E-02
  26 F= -.33136014E+03 E0= -.33135808E+03  d E =-.360710E-01
       N       E                     dE             d eps       ncg     rms          rms(c)
DAV:   1    -0.331375734848E+03   -0.15609E-01   -0.12247E+00 15720   0.383E+00    0.645E-01
DAV:   2    -0.331378128841E+03   -0.23940E-02   -0.88350E-02 22112   0.110E+00    0.427E-01
DAV:   3    -0.331377961736E+03    0.16711E-03   -0.37853E-02 22720   0.630E-01    0.360E-01
DAV:   4    -0.331376161020E+03    0.18007E-02   -0.16566E-02 22032   0.419E-01    0.169E-01
DAV:   5    -0.331376017622E+03    0.14340E-03   -0.62503E-03 22704   0.278E-01    0.147E-01
DAV:   6    -0.331375670908E+03    0.34671E-03   -0.35661E-03 20568   0.187E-01    0.705E-02
DAV:   7    -0.331375616062E+03    0.54845E-04   -0.60551E-04 15816   0.858E-02
  27 F= -.33137562E+03 E0= -.33137347E+03  d E =-.154803E-01
       N       E                     dE             d eps       ncg     rms          rms(c)
DAV:   1    -0.331389024040E+03   -0.13353E-01   -0.54199E+00 16088   0.805E+00    0.132E+00
DAV:   2    -0.331397821129E+03   -0.87971E-02   -0.35507E-01 22056   0.223E+00    0.878E-01
DAV:   3    -0.331396558144E+03    0.12630E-02   -0.16263E-01 22976   0.128E+00    0.714E-01
DAV:   4    -0.331389201602E+03    0.73565E-02   -0.68936E-02 21872   0.864E-01    0.324E-01
DAV:   5    -0.331388829260E+03    0.37234E-03   -0.24056E-02 23088   0.560E-01    0.292E-01
DAV:   6    -0.331387500745E+03    0.13285E-02   -0.12976E-02 22944   0.355E-01    0.150E-01
DAV:   7    -0.331387385798E+03    0.11495E-03   -0.23185E-03 20664   0.146E-01    0.993E-02
DAV:   8    -0.331387421921E+03   -0.36123E-04   -0.45153E-04 13936   0.743E-02
  28 F= -.33138742E+03 E0= -.33138522E+03  d E =-.272862E-01
       N       E                     dE             d eps       ncg     rms          rms(c)
DAV:   1    -0.331392212186E+03   -0.48264E-02   -0.37540E-01 16448   0.202E+00    0.174E-01
DAV:   2    -0.331393448169E+03   -0.12360E-02   -0.19169E-02 25032   0.606E-01    0.167E-01
DAV:   3    -0.331393382596E+03    0.65573E-04   -0.45671E-03 22960   0.211E-01    0.135E-01
DAV:   4    -0.331393176668E+03    0.20593E-03   -0.11942E-03 17960   0.118E-01    0.821E-02
DAV:   5    -0.331393190679E+03   -0.14011E-04   -0.79096E-04 16824   0.966E-02
  29 F= -.33139319E+03 E0= -.33139086E+03  d E =-.576876E-02
       N       E                     dE             d eps       ncg     rms          rms(c)
DAV:   1    -0.331396037430E+03   -0.28608E-02   -0.33661E+00 16432   0.605E+00    0.495E-01
DAV:   2    -0.331407168922E+03   -0.11131E-01   -0.16646E-01 25000   0.179E+00    0.441E-01
DAV:   3    -0.331406996172E+03    0.17275E-03   -0.35011E-02 24664   0.594E-01    0.348E-01
DAV:   4    -0.331405278281E+03    0.17179E-02   -0.92553E-03 22904   0.322E-01    0.200E-01
DAV:   5    -0.331405283162E+03   -0.48809E-05   -0.51095E-03 21568   0.235E-01    0.184E-01
DAV:   6    -0.331404745653E+03    0.53751E-03   -0.41439E-03 21488   0.206E-01    0.816E-02
DAV:   7    -0.331404668354E+03    0.77299E-04   -0.10313E-03 16576   0.114E-01    0.539E-02
DAV:   8    -0.331404624306E+03    0.44049E-04   -0.44206E-04 13480   0.825E-02
  30 F= -.33140462E+03 E0= -.33140203E+03  d E =-.172024E-01
       N       E                     dE             d eps       ncg     rms          rms(c)
DAV:   1    -0.331370022371E+03    0.34646E-01   -0.13483E+01 16432   0.121E+01    0.101E+00
DAV:   2    -0.331415641038E+03   -0.45619E-01   -0.67745E-01 24936   0.358E+00    0.899E-01
DAV:   3    -0.331415063832E+03    0.57721E-03   -0.14480E-01 24608   0.124E+00    0.708E-01
DAV:   4    -0.331407767910E+03    0.72959E-02   -0.36476E-02 23144   0.649E-01    0.399E-01
DAV:   5    -0.331407758468E+03    0.94414E-05   -0.18878E-02 21496   0.458E-01    0.368E-01
DAV:   6    -0.331405795874E+03    0.19626E-02   -0.16891E-02 23424   0.417E-01    0.181E-01
DAV:   7    -0.331405429923E+03    0.36595E-03   -0.52091E-03 22360   0.238E-01    0.118E-01
DAV:   8    -0.331405227561E+03    0.20236E-03   -0.21550E-03 20032   0.147E-01    0.631E-02
DAV:   9    -0.331405192872E+03    0.34689E-04   -0.35539E-04 13128   0.676E-02
  31 F= -.33140519E+03 E0= -.33140227E+03  d E =-.177710E-01
       N       E                     dE             d eps       ncg     rms          rms(c)
DAV:   1    -0.331400322147E+03    0.49054E-02   -0.33481E+00 16432   0.603E+00    0.475E-01
DAV:   2    -0.331410617367E+03   -0.10295E-01   -0.15961E-01 24800   0.176E+00    0.374E-01
DAV:   3    -0.331410626475E+03   -0.91079E-05   -0.26128E-02 24400   0.528E-01    0.309E-01
DAV:   4    -0.331409311339E+03    0.13151E-02   -0.98212E-03 22032   0.321E-01    0.182E-01
DAV:   5    -0.331409229112E+03    0.82227E-04   -0.41996E-03 21640   0.225E-01    0.156E-01
DAV:   6    -0.331408801177E+03    0.42793E-03   -0.34748E-03 21408   0.188E-01    0.723E-02
DAV:   7    -0.331408732875E+03    0.68302E-04   -0.83073E-04 16448   0.975E-02
  32 F= -.33140873E+03 E0= -.33140595E+03  d E =-.213110E-01
       N       E                     dE             d eps       ncg     rms          rms(c)
DAV:   1    -0.331413537077E+03   -0.47359E-02   -0.74798E-01 15760   0.289E+00    0.390E-01
DAV:   2    -0.331416282465E+03   -0.27454E-02   -0.51859E-02 22304   0.850E-01    0.321E-01
DAV:   3    -0.331415564307E+03    0.71816E-03   -0.20364E-02 22640   0.462E-01    0.228E-01
DAV:   4    -0.331414994033E+03    0.57027E-03   -0.56842E-03 21712   0.252E-01    0.141E-01
DAV:   5    -0.331414784806E+03    0.20923E-03   -0.35728E-03 21040   0.192E-01    0.925E-02
DAV:   6    -0.331414635554E+03    0.14925E-03   -0.14215E-03 19888   0.120E-01    0.391E-02
DAV:   7    -0.331414610256E+03    0.25298E-04   -0.27349E-04 11368   0.708E-02
  33 F= -.33141461E+03 E0= -.33141179E+03  d E =-.587738E-02
       N       E                     dE             d eps       ncg     rms          rms(c)
DAV:   1    -0.331415110045E+03   -0.47449E-03   -0.15889E+00 15704   0.421E+00    0.549E-01
DAV:   2    -0.331420718771E+03   -0.56087E-02   -0.10460E-01 21848   0.121E+00    0.441E-01
DAV:   3    -0.331419682363E+03    0.10364E-02   -0.40482E-02 22368   0.667E-01    0.327E-01
DAV:   4    -0.331418359622E+03    0.13227E-02   -0.11504E-02 22320   0.358E-01    0.184E-01
DAV:   5    -0.331418065839E+03    0.29378E-03   -0.65367E-03 22152   0.263E-01    0.132E-01
DAV:   6    -0.331417789517E+03    0.27632E-03   -0.30164E-03 22136   0.170E-01    0.634E-02
DAV:   7    -0.331417751986E+03    0.37531E-04   -0.77969E-04 17112   0.995E-02
  34 F= -.33141775E+03 E0= -.33141494E+03  d E =-.901911E-02
       N       E                     dE             d eps       ncg     rms          rms(c)
DAV:   1    -0.331420943833E+03   -0.31543E-02   -0.28164E-01 15136   0.185E+00    0.339E-01
DAV:   2    -0.331421770471E+03   -0.82664E-03   -0.24016E-02 22480   0.583E-01    0.224E-01
DAV:   3    -0.331421788140E+03   -0.17669E-04   -0.11436E-02 22464   0.344E-01    0.201E-01
DAV:   4    -0.331421248870E+03    0.53927E-03   -0.48033E-03 20544   0.229E-01    0.114E-01
DAV:   5    -0.331421088440E+03    0.16043E-03   -0.24052E-03 19672   0.159E-01    0.714E-02
DAV:   6    -0.331420995320E+03    0.93120E-04   -0.74742E-04 15872   0.953E-02
  35 F= -.33142100E+03 E0= -.33141822E+03  d E =-.324333E-02
       N       E                     dE             d eps       ncg     rms          rms(c)
DAV:   1    -0.331422537200E+03   -0.14488E-02   -0.11824E+00 15144   0.381E+00    0.651E-01
DAV:   2    -0.331426319883E+03   -0.37827E-02   -0.93747E-02 21800   0.117E+00    0.428E-01
DAV:   3    -0.331426619927E+03   -0.30004E-03   -0.43928E-02 22896   0.678E-01    0.391E-01
DAV:   4    -0.331424404688E+03    0.22152E-02   -0.18555E-02 21968   0.454E-01    0.207E-01
DAV:   5    -0.331423815732E+03    0.58896E-03   -0.84270E-03 22696   0.298E-01    0.123E-01
DAV:   6    -0.331423603948E+03    0.21178E-03   -0.26732E-03 21456   0.160E-01    0.658E-02
DAV:   7    -0.331423587684E+03    0.16264E-04   -0.58518E-04 15888   0.830E-02
  36 F= -.33142359E+03 E0= -.33142092E+03  d E =-.583570E-02
       N       E                     dE             d eps       ncg     rms          rms(c)
DAV:   1    -0.331425678674E+03   -0.20747E-02   -0.16826E-01 16144   0.124E+00    0.917E-02
DAV:   2    -0.331426157751E+03   -0.47908E-03   -0.61960E-03 24840   0.344E-01    0.901E-02
DAV:   3    -0.331426083668E+03    0.74082E-04   -0.12477E-03 17952   0.116E-01    0.622E-02
DAV:   4    -0.331426052760E+03    0.30908E-04   -0.25327E-04 11960   0.632E-02
  37 F= -.33142605E+03 E0= -.33142336E+03  d E =-.246508E-02
       N       E                     dE             d eps       ncg     rms          rms(c)
DAV:   1    -0.331427641029E+03   -0.15574E-02   -0.15101E+00 16128   0.372E+00    0.267E-01
DAV:   2    -0.331431729520E+03   -0.40885E-02   -0.52797E-02 24808   0.102E+00    0.250E-01
DAV:   3    -0.331431444190E+03    0.28533E-03   -0.10976E-02 23824   0.325E-01    0.184E-01
DAV:   4    -0.331431057364E+03    0.38683E-03   -0.28994E-03 20912   0.173E-01    0.120E-01
DAV:   5    -0.331430941658E+03    0.11571E-03   -0.13739E-03 18672   0.125E-01    0.924E-02
DAV:   6    -0.331430864724E+03    0.76934E-04   -0.14879E-03 18840   0.120E-01    0.663E-02
DAV:   7    -0.331430766326E+03    0.98399E-04   -0.48523E-04 13960   0.851E-02
  38 F= -.33143077E+03 E0= -.33142801E+03  d E =-.717864E-02
       N       E                     dE             d eps       ncg     rms          rms(c)
DAV:   1    -0.331417055029E+03    0.13810E-01   -0.60455E+00 16128   0.744E+00    0.563E-01
DAV:   2    -0.331434441488E+03   -0.17386E-01   -0.21637E-01 24912   0.206E+00    0.525E-01
DAV:   3    -0.331433131980E+03    0.13095E-02   -0.52433E-02 24056   0.710E-01    0.374E-01
DAV:   4    -0.331431364018E+03    0.17680E-02   -0.10449E-02 22248   0.348E-01    0.222E-01
DAV:   5    -0.331431002346E+03    0.36167E-03   -0.36409E-03 21304   0.216E-01    0.172E-01
DAV:   6    -0.331430804104E+03    0.19824E-03   -0.49340E-03 21520   0.219E-01    0.134E-01
DAV:   7    -0.331430432943E+03    0.37116E-03   -0.20987E-03 20632   0.155E-01    0.552E-02
DAV:   8    -0.331430390567E+03    0.42376E-04   -0.56965E-04 14992   0.816E-02
  39 F= -.33143039E+03 E0= -.33142758E+03  d E =-.680288E-02
       N       E                     dE             d eps       ncg     rms          rms(c)
DAV:   1    -0.331428517690E+03    0.19153E-02   -0.17454E+00 16128   0.400E+00    0.260E-01
DAV:   2    -0.331433408279E+03   -0.48906E-02   -0.61541E-02 24712   0.109E+00    0.267E-01
DAV:   3    -0.331432815537E+03    0.59274E-03   -0.12606E-02 23800   0.353E-01    0.170E-01
DAV:   4    -0.331432506250E+03    0.30929E-03   -0.26499E-03 21200   0.172E-01    0.114E-01
DAV:   5    -0.331432355811E+03    0.15044E-03   -0.11026E-03 17328   0.124E-01    0.801E-02
DAV:   6    -0.331432305252E+03    0.50559E-04   -0.11807E-03 17624   0.114E-01    0.645E-02
DAV:   7    -0.331432224891E+03    0.80362E-04   -0.48129E-04 13976   0.857E-02
  40 F= -.33143222E+03 E0= -.33142945E+03  d E =-.863721E-02
       N       E                     dE             d eps       ncg     rms          rms(c)
DAV:   1    -0.331434135881E+03   -0.18306E-02   -0.41329E-01 15120   0.216E+00    0.329E-01
DAV:   2    -0.331435447942E+03   -0.13121E-02   -0.29220E-02 21216   0.652E-01    0.223E-01
DAV:   3    -0.331435318005E+03    0.12994E-03   -0.11212E-02 21752   0.360E-01    0.182E-01
DAV:   4    -0.331434801713E+03    0.51629E-03   -0.41340E-03 20240   0.212E-01    0.818E-02
DAV:   5    -0.331434729861E+03    0.71852E-04   -0.12275E-03 18008   0.123E-01    0.559E-02
DAV:   6    -0.331434681992E+03    0.47869E-04   -0.58298E-04 14400   0.932E-02
  41 F= -.33143468E+03 E0= -.33143196E+03  d E =-.245710E-02
       N       E                     dE             d eps       ncg     rms          rms(c)
DAV:   1    -0.331434610616E+03    0.11925E-03   -0.74826E-01 15120   0.292E+00    0.430E-01
DAV:   2    -0.331437088511E+03   -0.24779E-02   -0.51195E-02 20992   0.867E-01    0.296E-01
DAV:   3    -0.331437140610E+03   -0.52099E-04   -0.21033E-02 22248   0.493E-01    0.266E-01
DAV:   4    -0.331436147884E+03    0.99273E-03   -0.82554E-03 21264   0.299E-01    0.135E-01
DAV:   5    -0.331435912638E+03    0.23525E-03   -0.32439E-03 21048   0.193E-01    0.879E-02
DAV:   6    -0.331435805662E+03    0.10698E-03   -0.14463E-03 19416   0.122E-01    0.502E-02
DAV:   7    -0.331435770882E+03    0.34780E-04   -0.40830E-04 13296   0.771E-02
  42 F= -.33143577E+03 E0= -.33143313E+03  d E =-.354599E-02
       N       E                     dE             d eps       ncg     rms          rms(c)
DAV:   1    -0.331436926942E+03   -0.11213E-02   -0.11228E-01 15664   0.111E+00    0.140E-01
DAV:   2    -0.331437337428E+03   -0.41049E-03   -0.77010E-03 24248   0.336E-01    0.125E-01
DAV:   3    -0.331437199768E+03    0.13766E-03   -0.24497E-03 19576   0.157E-01    0.848E-02
DAV:   4    -0.331437123290E+03    0.76478E-04   -0.50144E-04 14256   0.844E-02
  43 F= -.33143712E+03 E0= -.33143456E+03  d E =-.135241E-02
       N       E                     dE             d eps       ncg     rms          rms(c)
DAV:   1    -0.331437624054E+03   -0.42429E-03   -0.10042E+00 15624   0.331E+00    0.395E-01
DAV:   2    -0.331441060490E+03   -0.34364E-02   -0.61202E-02 23352   0.966E-01    0.331E-01
DAV:   3    -0.331440453303E+03    0.60719E-03   -0.19354E-02 22616   0.457E-01    0.251E-01
DAV:   4    -0.331439799756E+03    0.65355E-03   -0.67825E-03 20760   0.270E-01    0.160E-01
DAV:   5    -0.331439617753E+03    0.18200E-03   -0.44380E-03 21800   0.209E-01    0.109E-01
DAV:   6    -0.331439409624E+03    0.20813E-03   -0.18583E-03 20688   0.138E-01    0.422E-02
DAV:   7    -0.331439389557E+03    0.20068E-04   -0.21187E-04 10728   0.645E-02
  44 F= -.33143939E+03 E0= -.33143703E+03  d E =-.361867E-02
       N       E                     dE             d eps       ncg     rms          rms(c)
DAV:   1    -0.331439893124E+03   -0.48350E-03   -0.15376E-02 15680   0.435E-01    0.845E-02
DAV:   2    -0.331439939931E+03   -0.46807E-04   -0.11734E-03 18232   0.140E-01    0.550E-02
DAV:   3    -0.331439938192E+03    0.17393E-05   -0.60321E-04 14600   0.917E-02
  45 F= -.33143994E+03 E0= -.33143758E+03  d E =-.548635E-03
       N       E                     dE             d eps       ncg     rms          rms(c)
DAV:   1    -0.331440848168E+03   -0.90824E-03   -0.13760E-01 15152   0.130E+00    0.275E-01
DAV:   2    -0.331441231387E+03   -0.38322E-03   -0.12996E-02 22168   0.456E-01    0.203E-01
DAV:   3    -0.331441022891E+03    0.20850E-03   -0.81107E-03 20888   0.297E-01    0.157E-01
DAV:   4    -0.331440756077E+03    0.26681E-03   -0.33188E-03 20336   0.195E-01    0.881E-02
DAV:   5    -0.331440628106E+03    0.12797E-03   -0.11945E-03 17352   0.127E-01    0.477E-02
DAV:   6    -0.331440592175E+03    0.35930E-04   -0.39208E-04 12800   0.767E-02
  46 F= -.33144059E+03 E0= -.33143817E+03  d E =-.120262E-02
       N       E                     dE             d eps       ncg     rms          rms(c)
DAV:   1    -0.331441209590E+03   -0.58148E-03   -0.29660E-02 15344   0.646E-01    0.152E-01
DAV:   2    -0.331441288993E+03   -0.79403E-04   -0.38076E-03 22928   0.239E-01    0.107E-01
DAV:   3    -0.331441252058E+03    0.36934E-04   -0.25243E-03 19432   0.159E-01    0.939E-02
DAV:   4    -0.331441145603E+03    0.10646E-03   -0.92033E-04 16256   0.104E-01    0.545E-02
DAV:   5    -0.331441095858E+03    0.49745E-04   -0.43342E-04 13576   0.814E-02
  47 F= -.33144110E+03 E0= -.33143866E+03  d E =-.503683E-03
       N       E                     dE             d eps       ncg     rms          rms(c)
DAV:   1    -0.331441654160E+03   -0.50856E-03   -0.11199E-01 15152   0.126E+00    0.272E-01
DAV:   2    -0.331441799369E+03   -0.14521E-03   -0.11755E-02 21888   0.433E-01    0.168E-01
DAV:   3    -0.331441726775E+03    0.72595E-04   -0.79130E-03 21392   0.286E-01    0.145E-01
DAV:   4    -0.331441335133E+03    0.39164E-03   -0.25832E-03 19944   0.173E-01    0.587E-02
DAV:   5    -0.331441310443E+03    0.24691E-04   -0.75926E-04 16064   0.980E-02
  48 F= -.33144131E+03 E0= -.33143883E+03  d E =-.718267E-03
