<?xml version="1.0" encoding="ISO-8859-1"?>
<modeling>
 <generator>
  <i name="program" type="string">vasp </i>
  <i name="version" type="string">5.4.4.18Apr17-6-g9f103f2a35  </i>
  <i name="subversion" type="string">(build Aug 09 2018 16:20:53) complex            parallel </i>
  <i name="platform" type="string">LinuxIFC </i>
  <i name="date" type="string">2020 04 13 </i>
  <i name="time" type="string">13:23:30 </i>
 </generator>
 <incar>
  <i type="string" name="SYSTEM"> SQS with 1 vacancy for VFE and VRV</i>
  <i type="string" name="PREC">normal</i>
  <i type="int" name="IALGO">    38</i>
  <i type="int" name="ICHARG">     2</i>
  <i type="int" name="IBRION">     2</i>
  <i type="int" name="NSW">    50</i>
  <i type="int" name="ISIF">     3</i>
  <i type="int" name="ISYM">     0</i>
  <i name="ENCUT">    600.00000000</i>
  <i type="string" name="LREAL"> Auto</i>
  <i type="int" name="ISMEAR">     1</i>
  <i name="SIGMA">      0.20000000</i>
  <v type="int" name="KPOINT_BSE">    -1     0     0     0</v>
  <i type="string" name="GGA"> PS</i>
 </incar>
 <structure name="primitive_cell" >
  <crystal>
   <varray name="basis" >
    <v>      -3.19000000      -3.19000000      -3.19000000 </v>
    <v>       1.59500000       1.59500000      -7.97500000 </v>
    <v>       7.97500000      -7.97500000      -1.59500000 </v>
   </varray>
   <i name="volume">    486.92638500 </i>
   <varray name="rec_basis" >
    <v>      -0.13584117      -0.12539185      -0.05224660 </v>
    <v>       0.04179728       0.06269592      -0.10449321 </v>
    <v>       0.06269592      -0.06269592       0.00000000 </v>
   </varray>
  </crystal>
  <varray name="positions" >
   <v>      -0.03333333      -0.06666667       0.40000000 </v>
   <v>       0.30000000      -0.40000000       0.40000000 </v>
   <v>      -0.10000000      -0.20000000       0.20000000 </v>
   <v>       0.06666667       0.13333333       0.20000000 </v>
   <v>       0.46666667      -0.06666667       0.40000000 </v>
   <v>      -0.13333333      -0.26666667      -0.40000000 </v>
   <v>       0.03333333       0.06666667      -0.40000000 </v>
   <v>      -0.36666667       0.26666667       0.40000000 </v>
   <v>       0.40000000      -0.20000000       0.20000000 </v>
   <v>      -0.20000000      -0.40000000       0.40000000 </v>
   <v>      -0.43333333       0.13333333       0.20000000 </v>
   <v>       0.36666667      -0.26666667      -0.40000000 </v>
   <v>       0.13333333       0.26666667       0.40000000 </v>
   <v>      -0.46666667       0.06666667      -0.40000000 </v>
   <v>       0.23333333       0.46666667       0.20000000 </v>
   <v>       0.20000000       0.40000000      -0.40000000 </v>
   <v>       0.00000000       0.00000000       0.00000000 </v>
   <v>      -0.06666667      -0.13333333      -0.20000000 </v>
   <v>      -0.30000000       0.40000000      -0.40000000 </v>
   <v>      -0.26666667       0.46666667       0.20000000 </v>
   <v>       0.33333333      -0.33333333       0.00000000 </v>
   <v>       0.43333333      -0.13333333      -0.20000000 </v>
   <v>      -0.50000000       0.00000000       0.00000000 </v>
   <v>       0.26666667      -0.46666667      -0.20000000 </v>
   <v>      -0.40000000       0.20000000      -0.20000000 </v>
   <v>      -0.16666667      -0.33333333       0.00000000 </v>
   <v>      -0.23333333      -0.46666667      -0.20000000 </v>
   <v>       0.16666667       0.33333333       0.00000000 </v>
   <v>       0.10000000       0.20000000      -0.20000000 </v>
  </varray>
 </structure>
 <varray name="primitive_index" >
  <v type="int" >        1 </v>
  <v type="int" >       17 </v>
  <v type="int" >        7 </v>
  <v type="int" >       23 </v>
  <v type="int" >       19 </v>
  <v type="int" >       18 </v>
  <v type="int" >        6 </v>
  <v type="int" >        2 </v>
  <v type="int" >       15 </v>
  <v type="int" >        8 </v>
  <v type="int" >       14 </v>
  <v type="int" >       10 </v>
  <v type="int" >       11 </v>
  <v type="int" >       27 </v>
  <v type="int" >       29 </v>
  <v type="int" >       22 </v>
  <v type="int" >        4 </v>
  <v type="int" >       13 </v>
  <v type="int" >       25 </v>
  <v type="int" >        9 </v>
  <v type="int" >       28 </v>
  <v type="int" >       16 </v>
  <v type="int" >        3 </v>
  <v type="int" >       21 </v>
  <v type="int" >       26 </v>
  <v type="int" >       12 </v>
  <v type="int" >       24 </v>
  <v type="int" >       20 </v>
  <v type="int" >        5 </v>
 </varray>
 <kpoints>
  <generation param="Gamma">
   <v type="int" name="divisions">       5        5        5 </v>
   <v name="usershift">      0.00000000       0.00000000       0.00000000 </v>
   <v name="genvec1">      0.20000000      -0.00000000      -0.00000000 </v>
   <v name="genvec2">      0.00000000       0.20000000       0.00000000 </v>
   <v name="genvec3">      0.00000000       0.00000000       0.20000000 </v>
   <v name="shift">      0.00000000       0.00000000       0.00000000 </v>
  </generation>
  <varray name="kpointlist" >
   <v>       0.00000000       0.00000000       0.00000000 </v>
   <v>       0.20000000      -0.00000000       0.00000000 </v>
   <v>       0.40000000      -0.00000000       0.00000000 </v>
   <v>       0.00000000       0.20000000       0.00000000 </v>
   <v>       0.20000000       0.20000000      -0.00000000 </v>
   <v>       0.40000000       0.20000000      -0.00000000 </v>
   <v>      -0.40000000       0.20000000      -0.00000000 </v>
   <v>      -0.20000000       0.20000000       0.00000000 </v>
   <v>       0.00000000       0.40000000       0.00000000 </v>
   <v>       0.20000000       0.40000000       0.00000000 </v>
   <v>       0.40000000       0.40000000      -0.00000000 </v>
   <v>      -0.40000000       0.40000000       0.00000000 </v>
   <v>      -0.20000000       0.40000000       0.00000000 </v>
   <v>       0.00000000       0.00000000       0.20000000 </v>
   <v>       0.20000000      -0.00000000       0.20000000 </v>
   <v>       0.40000000       0.00000000       0.20000000 </v>
   <v>      -0.40000000       0.00000000       0.20000000 </v>
   <v>      -0.20000000       0.00000000       0.20000000 </v>
   <v>       0.00000000       0.20000000       0.20000000 </v>
   <v>       0.20000000       0.20000000       0.20000000 </v>
   <v>       0.40000000       0.20000000       0.20000000 </v>
   <v>      -0.40000000       0.20000000       0.20000000 </v>
   <v>      -0.20000000       0.20000000       0.20000000 </v>
   <v>       0.00000000       0.40000000       0.20000000 </v>
   <v>       0.20000000       0.40000000       0.20000000 </v>
   <v>       0.40000000       0.40000000       0.20000000 </v>
   <v>      -0.40000000       0.40000000       0.20000000 </v>
   <v>      -0.20000000       0.40000000       0.20000000 </v>
   <v>       0.00000000      -0.40000000       0.20000000 </v>
   <v>       0.20000000      -0.40000000       0.20000000 </v>
   <v>       0.40000000      -0.40000000       0.20000000 </v>
   <v>      -0.40000000      -0.40000000       0.20000000 </v>
   <v>      -0.20000000      -0.40000000       0.20000000 </v>
   <v>       0.00000000      -0.20000000       0.20000000 </v>
   <v>       0.20000000      -0.20000000       0.20000000 </v>
   <v>       0.40000000      -0.20000000       0.20000000 </v>
   <v>      -0.40000000      -0.20000000       0.20000000 </v>
   <v>      -0.20000000      -0.20000000       0.20000000 </v>
   <v>       0.00000000       0.00000000       0.40000000 </v>
   <v>       0.20000000      -0.00000000       0.40000000 </v>
   <v>       0.40000000      -0.00000000       0.40000000 </v>
   <v>      -0.40000000       0.00000000       0.40000000 </v>
   <v>      -0.20000000       0.00000000       0.40000000 </v>
   <v>      -0.00000000       0.20000000       0.40000000 </v>
   <v>       0.20000000       0.20000000       0.40000000 </v>
   <v>       0.40000000       0.20000000       0.40000000 </v>
   <v>      -0.40000000       0.20000000       0.40000000 </v>
   <v>      -0.20000000       0.20000000       0.40000000 </v>
   <v>       0.00000000       0.40000000       0.40000000 </v>
   <v>       0.20000000       0.40000000       0.40000000 </v>
   <v>       0.40000000       0.40000000       0.40000000 </v>
   <v>      -0.40000000       0.40000000       0.40000000 </v>
   <v>      -0.20000000       0.40000000       0.40000000 </v>
   <v>       0.00000000      -0.40000000       0.40000000 </v>
   <v>       0.20000000      -0.40000000       0.40000000 </v>
   <v>       0.40000000      -0.40000000       0.40000000 </v>
   <v>      -0.40000000      -0.40000000       0.40000000 </v>
   <v>      -0.20000000      -0.40000000       0.40000000 </v>
   <v>       0.00000000      -0.20000000       0.40000000 </v>
   <v>       0.20000000      -0.20000000       0.40000000 </v>
   <v>       0.40000000      -0.20000000       0.40000000 </v>
   <v>      -0.40000000      -0.20000000       0.40000000 </v>
   <v>      -0.20000000      -0.20000000       0.40000000 </v>
  </varray>
  <varray name="weights" >
   <v>       0.00800000 </v>
   <v>       0.01600000 </v>
   <v>       0.01600000 </v>
   <v>       0.01600000 </v>
   <v>       0.01600000 </v>
   <v>       0.01600000 </v>
   <v>       0.01600000 </v>
   <v>       0.01600000 </v>
   <v>       0.01600000 </v>
   <v>       0.01600000 </v>
   <v>       0.01600000 </v>
   <v>       0.01600000 </v>
   <v>       0.01600000 </v>
   <v>       0.01600000 </v>
   <v>       0.01600000 </v>
   <v>       0.01600000 </v>
   <v>       0.01600000 </v>
   <v>       0.01600000 </v>
   <v>       0.01600000 </v>
   <v>       0.01600000 </v>
   <v>       0.01600000 </v>
   <v>       0.01600000 </v>
   <v>       0.01600000 </v>
   <v>       0.01600000 </v>
   <v>       0.01600000 </v>
   <v>       0.01600000 </v>
   <v>       0.01600000 </v>
   <v>       0.01600000 </v>
   <v>       0.01600000 </v>
   <v>       0.01600000 </v>
   <v>       0.01600000 </v>
   <v>       0.01600000 </v>
   <v>       0.01600000 </v>
   <v>       0.01600000 </v>
   <v>       0.01600000 </v>
   <v>       0.01600000 </v>
   <v>       0.01600000 </v>
   <v>       0.01600000 </v>
   <v>       0.01600000 </v>
   <v>       0.01600000 </v>
   <v>       0.01600000 </v>
   <v>       0.01600000 </v>
   <v>       0.01600000 </v>
   <v>       0.01600000 </v>
   <v>       0.01600000 </v>
   <v>       0.01600000 </v>
   <v>       0.01600000 </v>
   <v>       0.01600000 </v>
   <v>       0.01600000 </v>
   <v>       0.01600000 </v>
   <v>       0.01600000 </v>
   <v>       0.01600000 </v>
   <v>       0.01600000 </v>
   <v>       0.01600000 </v>
   <v>       0.01600000 </v>
   <v>       0.01600000 </v>
   <v>       0.01600000 </v>
   <v>       0.01600000 </v>
   <v>       0.01600000 </v>
   <v>       0.01600000 </v>
   <v>       0.01600000 </v>
   <v>       0.01600000 </v>
   <v>       0.01600000 </v>
  </varray>
 </kpoints>
 <parameters>
  <separator name="general" >
   <i type="string" name="SYSTEM">SQS with 1 vacancy for VFE and VRV</i>
   <i type="logical" name="LCOMPAT"> F  </i>
  </separator>
  <separator name="electronic" >
   <i type="string" name="PREC">normal</i>
   <i name="ENMAX">    600.00000000</i>
   <i name="ENAUG">    455.65900000</i>
   <i name="EDIFF">      0.00010000</i>
   <i type="int" name="IALGO">    38</i>
   <i type="int" name="IWAVPR">    11</i>
   <i type="int" name="NBANDS">   120</i>
   <i name="NELECT">    198.00000000</i>
   <i type="int" name="TURBO">     0</i>
   <i type="int" name="IRESTART">     0</i>
   <i type="int" name="NREBOOT">     0</i>
   <i type="int" name="NMIN">     0</i>
   <i name="EREF">      0.00000000</i>
   <separator name="electronic smearing" >
    <i type="int" name="ISMEAR">     1</i>
    <i name="SIGMA">      0.20000000</i>
    <i name="KSPACING">      0.50000000</i>
    <i type="logical" name="KGAMMA"> T  </i>
   </separator>
   <separator name="electronic projectors" >
    <i type="logical" name="LREAL"> T  </i>
    <v name="ROPT">     -0.00050000     -0.00050000     -0.00050000     -0.00050000     -0.00050000</v>
    <i type="int" name="LMAXPAW">  -100</i>
    <i type="int" name="LMAXMIX">     2</i>
    <i type="logical" name="NLSPLINE"> F  </i>
   </separator>
   <separator name="electronic startup" >
    <i type="int" name="ISTART">     0</i>
    <i type="int" name="ICHARG">     2</i>
    <i type="int" name="INIWAV">     1</i>
   </separator>
   <separator name="electronic spin" >
    <i type="int" name="ISPIN">     1</i>
    <i type="logical" name="LNONCOLLINEAR"> F  </i>
    <v name="MAGMOM">      1.00000000      1.00000000      1.00000000      1.00000000      1.00000000      1.00000000      1.00000000      1.00000000      1.00000000      1.00000000      1.00000000      1.00000000      1.00000000      1.00000000      1.00000000      1.00000000      1.00000000      1.00000000      1.00000000      1.00000000
      1.00000000      1.00000000      1.00000000      1.00000000      1.00000000      1.00000000      1.00000000      1.00000000      1.00000000</v>
    <i name="NUPDOWN">     -1.00000000</i>
    <i type="logical" name="LSORBIT"> F  </i>
    <v name="SAXIS">      0.00000000      0.00000000      1.00000000</v>
    <i type="logical" name="LSPIRAL"> F  </i>
    <v name="QSPIRAL">      0.00000000      0.00000000      0.00000000</v>
    <i type="logical" name="LZEROZ"> F  </i>
   </separator>
   <separator name="electronic exchange-correlation" >
    <i type="logical" name="LASPH"> F  </i>
    <i type="logical" name="LMETAGGA"> F  </i>
   </separator>
   <separator name="electronic convergence" >
    <i type="int" name="NELM">    60</i>
    <i type="int" name="NELMDL">    -5</i>
    <i type="int" name="NELMIN">     2</i>
    <i name="ENINI">    600.00000000</i>
    <separator name="electronic convergence detail" >
     <i type="logical" name="LDIAG"> T  </i>
     <i type="logical" name="LSUBROT"> F  </i>
     <i name="WEIMIN">      0.00100000</i>
     <i name="EBREAK">      0.00000021</i>
     <i name="DEPER">      0.30000000</i>
     <i type="int" name="NRMM">     4</i>
     <i name="TIME">      0.40000000</i>
    </separator>
   </separator>
   <separator name="electronic mixer" >
    <i name="AMIX">      0.40000000</i>
    <i name="BMIX">      1.00000000</i>
    <i name="AMIN">      0.10000000</i>
    <i name="AMIX_MAG">      1.60000000</i>
    <i name="BMIX_MAG">      1.00000000</i>
    <separator name="electronic mixer details" >
     <i type="int" name="IMIX">     4</i>
     <i type="logical" name="MIXFIRST"> F  </i>
     <i type="int" name="MAXMIX">   -45</i>
     <i name="WC">    100.00000000</i>
     <i type="int" name="INIMIX">     1</i>
     <i type="int" name="MIXPRE">     1</i>
     <i type="int" name="MREMOVE">     5</i>
    </separator>
   </separator>
   <separator name="electronic dipolcorrection" >
    <i type="logical" name="LDIPOL"> F  </i>
    <i type="logical" name="LMONO"> F  </i>
    <i type="int" name="IDIPOL">     0</i>
    <i name="EPSILON">      1.00000000</i>
    <v name="DIPOL">   -100.00000000   -100.00000000   -100.00000000</v>
    <i name="EFIELD">      0.00000000</i>
   </separator>
  </separator>
  <separator name="grids" >
   <i type="int" name="NGX">    36</i>
   <i type="int" name="NGY">    50</i>
   <i type="int" name="NGZ">    70</i>
   <i type="int" name="NGXF">    72</i>
   <i type="int" name="NGYF">   100</i>
   <i type="int" name="NGZF">   140</i>
   <i type="logical" name="ADDGRID"> F  </i>
  </separator>
  <separator name="ionic" >
   <i type="int" name="NSW">    50</i>
   <i type="int" name="IBRION">     2</i>
   <i type="int" name="MDALGO">     0</i>
   <i type="int" name="ISIF">     3</i>
   <i name="PSTRESS">      0.00000000</i>
   <i name="EDIFFG">      0.00100000</i>
   <i type="int" name="NFREE">     1</i>
   <i name="POTIM">      0.50000000</i>
   <i name="SMASS">     -3.00000000</i>
   <i name="SCALEE">      1.00000000</i>
  </separator>
  <separator name="ionic md" >
   <i name="TEBEG">      0.00010000</i>
   <i name="TEEND">      0.00010000</i>
   <i type="int" name="NBLOCK">     1</i>
   <i type="int" name="KBLOCK">    50</i>
   <i type="int" name="NPACO">   256</i>
   <i name="APACO">     16.00000000</i>
  </separator>
  <separator name="symmetry" >
   <i type="int" name="ISYM">     0</i>
   <i name="SYMPREC">      0.00001000</i>
  </separator>
  <separator name="dos" >
   <i type="int" name="LORBIT">     0</i>
   <v name="RWIGS">     -1.00000000     -1.00000000     -1.00000000     -1.00000000     -1.00000000</v>
   <i type="int" name="NEDOS">   301</i>
   <i name="EMIN">     10.00000000</i>
   <i name="EMAX">    -10.00000000</i>
   <i name="EFERMI">      0.00000000</i>
  </separator>
  <separator name="writing" >
   <i type="int" name="NWRITE">     2</i>
   <i type="logical" name="LWAVE"> T  </i>
   <i type="logical" name="LDOWNSAMPLE"> F  </i>
   <i type="logical" name="LCHARG"> T  </i>
   <i type="logical" name="LPARD"> F  </i>
   <i type="logical" name="LVTOT"> F  </i>
   <i type="logical" name="LVHAR"> F  </i>
   <i type="logical" name="LELF"> F  </i>
   <i type="logical" name="LOPTICS"> F  </i>
   <v name="STM">      0.00000000      0.00000000      0.00000000      0.00000000      0.00000000      0.00000000      0.00000000</v>
  </separator>
  <separator name="performance" >
   <i type="int" name="NPAR">     8</i>
   <i type="int" name="NSIM">     4</i>
   <i type="int" name="NBLK">    -1</i>
   <i type="logical" name="LPLANE"> T  </i>
   <i type="logical" name="LSCALAPACK"> T  </i>
   <i type="logical" name="LSCAAWARE"> F  </i>
   <i type="logical" name="LSCALU"> F  </i>
   <i type="logical" name="LASYNC"> F  </i>
   <i type="logical" name="LORBITALREAL"> F  </i>
  </separator>
  <separator name="miscellaneous" >
   <i type="int" name="IDIOT">     3</i>
   <i type="int" name="ISPECIAL">     0</i>
   <i type="logical" name="LMUSIC"> F  </i>
   <v name="POMASS">     92.91000000     95.94000000    180.94800000     47.88000000    183.85000000</v>
   <v name="DARWINR">      0.00000000      0.00000000      0.00000000      0.00000000      0.00000000</v>
   <v name="DARWINV">      1.00000000      1.00000000      1.00000000      1.00000000      1.00000000</v>
   <i type="logical" name="LCORR"> T  </i>
  </separator>
  <i type="logical" name="GGA_COMPAT"> T  </i>
  <i type="logical" name="LBERRY"> F  </i>
  <i type="int" name="ICORELEVEL">     0</i>
  <i type="logical" name="LDAU"> F  </i>
  <i type="int" name="I_CONSTRAINED_M">     0</i>
  <separator name="electronic exchange-correlation" >
   <i type="string" name="GGA">PS</i>
   <i type="int" name="VOSKOWN">     0</i>
   <i type="logical" name="LHFCALC"> F  </i>
   <i type="string" name="PRECFOCK"></i>
   <i type="logical" name="LSYMGRAD"> F  </i>
   <i type="logical" name="LHFONE"> F  </i>
   <i type="logical" name="LRHFCALC"> F  </i>
   <i type="logical" name="LTHOMAS"> F  </i>
   <i type="logical" name="LMODELHF"> F  </i>
   <i name="ENCUT4O">     -1.00000000</i>
   <i type="int" name="EXXOEP">     0</i>
   <i type="int" name="FOURORBIT">     0</i>
   <i name="AEXX">      0.00000000</i>
   <i name="HFALPHA">      0.00000000</i>
   <i name="MCALPHA">      0.00000000</i>
   <i name="ALDAX">      1.00000000</i>
   <i name="AGGAX">      1.00000000</i>
   <i name="ALDAC">      1.00000000</i>
   <i name="AGGAC">      1.00000000</i>
   <i type="int" name="NKREDX">     1</i>
   <i type="int" name="NKREDY">     1</i>
   <i type="int" name="NKREDZ">     1</i>
   <i type="logical" name="SHIFTRED"> F  </i>
   <i type="logical" name="ODDONLY"> F  </i>
   <i type="logical" name="EVENONLY"> F  </i>
   <i type="int" name="LMAXFOCK">     0</i>
   <i type="int" name="NMAXFOCKAE">     0</i>
   <i type="logical" name="LFOCKAEDFT"> F  </i>
   <i name="HFSCREEN">      0.00000000</i>
   <i name="HFSCREENC">      0.00000000</i>
   <i type="int" name="NBANDSGWLOW">     0</i>
  </separator>
  <separator name="vdW DFT" >
   <i type="logical" name="LUSE_VDW"> F  </i>
   <i name="Zab_VDW">     -0.84910000</i>
   <i name="PARAM1">      0.12340000</i>
   <i name="PARAM2">      1.00000000</i>
   <i name="PARAM3">      0.00000000</i>
  </separator>
  <separator name="model GW" >
   <i type="int" name="MODEL_GW">     0</i>
   <i name="MODEL_EPS0">     10.07433900</i>
   <i name="MODEL_ALPHA">      1.00000000</i>
  </separator>
  <separator name="linear response parameters" >
   <i type="logical" name="LEPSILON"> F  </i>
   <i type="logical" name="LRPA"> F  </i>
   <i type="logical" name="LNABLA"> F  </i>
   <i type="logical" name="LVEL"> F  </i>
   <i type="int" name="KINTER">     0</i>
   <i name="CSHIFT">      0.10000000</i>
   <i name="OMEGAMAX">     -1.00000000</i>
   <i name="DEG_THRESHOLD">      0.00200000</i>
   <i name="RTIME">     -0.10000000</i>
   <i name="WPLASMAI">      0.00000000</i>
   <v name="DFIELD">      0.00000000      0.00000000      0.00000000</v>
   <v name="WPLASMA">      0.00000000      0.00000000      0.00000000      0.00000000      0.00000000      0.00000000      0.00000000      0.00000000      0.00000000</v>
  </separator>
  <separator name="orbital magnetization" >
   <i type="logical" name="NUCIND"> F  </i>
   <v name="MAGPOS">      0.00000000      0.00000000      0.00000000</v>
   <i type="logical" name="LNICSALL"> T  </i>
   <i type="logical" name="ORBITALMAG"> F  </i>
   <i type="logical" name="LMAGBLOCH"> F  </i>
   <i type="logical" name="LCHIMAG"> F  </i>
   <i type="logical" name="LGAUGE"> T  </i>
   <i type="int" name="MAGATOM">     0</i>
   <v name="MAGDIPOL">      0.00000000      0.00000000      0.00000000</v>
   <v name="AVECCONST">      0.00000000      0.00000000      0.00000000</v>
  </separator>
  <separator name="response functions" >
   <i type="logical" name="LADDER"> F  </i>
   <i type="logical" name="LRPAFORCE"> F  </i>
   <i type="logical" name="LFXC"> F  </i>
   <i type="logical" name="LHARTREE"> T  </i>
   <i type="int" name="IBSE">     0</i>
   <v type="int" name="KPOINT">    -1     0     0     0</v>
   <i type="logical" name="LTCTE"> F  </i>
   <i type="logical" name="LTETE"> F  </i>
   <i type="logical" name="LTRIPLET"> F  </i>
   <i type="logical" name="LFXCEPS"> F  </i>
   <i type="logical" name="LFXHEG"> F  </i>
   <i type="int" name="NATURALO">     2</i>
   <i type="logical" name="L2ORDER"> F  </i>
   <i type="logical" name="LMP2LT"> F  </i>
   <i type="logical" name="LUSEW"> F  </i>
   <i name="ENCUTGW">     -2.00000000</i>
   <i name="ENCUTGWSOFT">     -2.00000000</i>
   <i name="ENCUTLF">     -1.00000000</i>
   <i type="int" name="LMAXMP2">    -1</i>
   <i name="SCISSOR">      0.00000000</i>
   <i type="int" name="NOMEGA">     0</i>
   <i type="int" name="NOMEGAR">     0</i>
   <i type="int" name="NBANDSGW">    -1</i>
   <i type="int" name="NBANDSO">    -1</i>
   <i type="int" name="NBANDSV">    -1</i>
   <i type="int" name="NELM">     1</i>
   <i type="int" name="NELMHF">     1</i>
   <i type="int" name="DIM">     3</i>
   <i type="int" name="ANTIRES">     0</i>
   <i name="OMEGAMAX">    -30.00000000</i>
   <i name="OMEGAMIN">    -30.00000000</i>
   <i name="OMEGATL">   -200.00000000</i>
   <i type="int" name="OMEGAGRID">   140</i>
   <i name="CSHIFT">     -0.10000000</i>
   <i type="logical" name="SELFENERGY"> F  </i>
   <i type="logical" name="LSPECTRAL"> F  </i>
   <i type="logical" name="LSPECTRALGW"> F  </i>
   <i type="logical" name="LSINGLES"> F  </i>
   <i type="logical" name="LFERMIGW"> F  </i>
   <i type="logical" name="ODDONLYGW"> F  </i>
   <i type="logical" name="EVENONLYGW"> F  </i>
   <i type="int" name="NKREDLFX">     1</i>
   <i type="int" name="NKREDLFY">     1</i>
   <i type="int" name="NKREDLFZ">     1</i>
   <i type="int" name="MAXMEM">  2800</i>
   <i type="int" name="TELESCOPE">     0</i>
   <i type="int" name="TAUPAR">     1</i>
   <i type="int" name="OMEGAPAR">    -1</i>
   <i name="LAMBDA">      1.00000000</i>
  </separator>
  <separator name="External order field" >
   <i name="OFIELD_KAPPA">      0.00000000</i>
   <v name="OFIELD_K">      0.00000000      0.00000000      0.00000000</v>
   <i name="OFIELD_Q6_NEAR">      0.00000000</i>
   <i name="OFIELD_Q6_FAR">      0.00000000</i>
   <i name="OFIELD_A">      0.00000000</i>
  </separator>
  <separator name="solvation model" >
   <i type="logical" name="LSOL"> F  </i>
  </separator>
 </parameters>
 <atominfo>
  <atoms>      29 </atoms>
  <types>       5 </types>
  <array name="atoms" >
   <dimension dim="1">ion</dimension>
   <field type="string">element</field>
   <field type="int">atomtype</field>
   <set>
    <rc><c>Nb</c><c>   1</c></rc>
    <rc><c>Nb</c><c>   1</c></rc>
    <rc><c>Nb</c><c>   1</c></rc>
    <rc><c>Nb</c><c>   1</c></rc>
    <rc><c>Nb</c><c>   1</c></rc>
    <rc><c>Nb</c><c>   1</c></rc>
    <rc><c>Mo</c><c>   2</c></rc>
    <rc><c>Mo</c><c>   2</c></rc>
    <rc><c>Mo</c><c>   2</c></rc>
    <rc><c>Mo</c><c>   2</c></rc>
    <rc><c>Mo</c><c>   2</c></rc>
    <rc><c>Ta</c><c>   3</c></rc>
    <rc><c>Ta</c><c>   3</c></rc>
    <rc><c>Ta</c><c>   3</c></rc>
    <rc><c>Ta</c><c>   3</c></rc>
    <rc><c>Ta</c><c>   3</c></rc>
    <rc><c>Ta</c><c>   3</c></rc>
    <rc><c>Ti</c><c>   4</c></rc>
    <rc><c>Ti</c><c>   4</c></rc>
    <rc><c>Ti</c><c>   4</c></rc>
    <rc><c>Ti</c><c>   4</c></rc>
    <rc><c>Ti</c><c>   4</c></rc>
    <rc><c>Ti</c><c>   4</c></rc>
    <rc><c>W </c><c>   5</c></rc>
    <rc><c>W </c><c>   5</c></rc>
    <rc><c>W </c><c>   5</c></rc>
    <rc><c>W </c><c>   5</c></rc>
    <rc><c>W </c><c>   5</c></rc>
    <rc><c>W </c><c>   5</c></rc>
   </set>
  </array>
  <array name="atomtypes" >
   <dimension dim="1">type</dimension>
   <field type="int">atomspertype</field>
   <field type="string">element</field>
   <field>mass</field>
   <field>valence</field>
   <field type="string">pseudopotential</field>
   <set>
    <rc><c>   6</c><c>Nb</c><c>     92.91000000</c><c>     13.00000000</c><c>  PAW_PBE Nb_sv 25May2007               </c></rc>
    <rc><c>   5</c><c>Mo</c><c>     95.94000000</c><c>      6.00000000</c><c>  PAW_PBE Mo 08Apr2002                  </c></rc>
    <rc><c>   6</c><c>Ta</c><c>    180.94800000</c><c>      5.00000000</c><c>  PAW_PBE Ta 17Jan2003                  </c></rc>
    <rc><c>   6</c><c>Ti</c><c>     47.88000000</c><c>      4.00000000</c><c>  PAW_PBE Ti 08Apr2002                  </c></rc>
    <rc><c>   6</c><c>W </c><c>    183.85000000</c><c>      6.00000000</c><c>  PAW_PBE W 08Apr2002                   </c></rc>
   </set>
  </array>
 </atominfo>
 <structure name="initialpos" >
  <crystal>
   <varray name="basis" >
    <v>      -3.19000000      -3.19000000      -3.19000000 </v>
    <v>       1.59500000       1.59500000      -7.97500000 </v>
    <v>       7.97500000      -7.97500000      -1.59500000 </v>
   </varray>
   <i name="volume">    486.92638500 </i>
   <varray name="rec_basis" >
    <v>      -0.13584117      -0.12539185      -0.05224660 </v>
    <v>       0.04179728       0.06269592      -0.10449321 </v>
    <v>       0.06269592      -0.06269592       0.00000000 </v>
   </varray>
  </crystal>
  <varray name="positions" >
   <v>       0.96666667       0.93333333       0.40000000 </v>
   <v>       0.63333333       0.26666667       0.40000000 </v>
   <v>       0.50000000       0.00000000       0.00000000 </v>
   <v>       0.00000000       0.00000000       0.00000000 </v>
   <v>       0.10000000       0.20000000       0.80000000 </v>
   <v>       0.03333333       0.06666667       0.60000000 </v>
   <v>       0.90000000       0.80000000       0.20000000 </v>
   <v>       0.80000000       0.60000000       0.40000000 </v>
   <v>       0.73333333       0.46666667       0.20000000 </v>
   <v>       0.36666667       0.73333333       0.60000000 </v>
   <v>       0.13333333       0.26666667       0.40000000 </v>
   <v>       0.83333333       0.66666667       0.00000000 </v>
   <v>       0.93333333       0.86666667       0.80000000 </v>
   <v>       0.56666667       0.13333333       0.20000000 </v>
   <v>       0.40000000       0.80000000       0.20000000 </v>
   <v>       0.43333333       0.86666667       0.80000000 </v>
   <v>       0.30000000       0.60000000       0.40000000 </v>
   <v>       0.86666667       0.73333333       0.60000000 </v>
   <v>       0.46666667       0.93333333       0.40000000 </v>
   <v>       0.16666667       0.33333333       0.00000000 </v>
   <v>       0.26666667       0.53333333       0.80000000 </v>
   <v>       0.20000000       0.40000000       0.60000000 </v>
   <v>       0.06666667       0.13333333       0.20000000 </v>
   <v>       0.76666667       0.53333333       0.80000000 </v>
   <v>       0.70000000       0.40000000       0.60000000 </v>
   <v>       0.60000000       0.20000000       0.80000000 </v>
   <v>       0.53333333       0.06666667       0.60000000 </v>
   <v>       0.33333333       0.66666667       0.00000000 </v>
   <v>       0.23333333       0.46666667       0.20000000 </v>
  </varray>
 </structure>
 <calculation>
  <scstep>
   <time name="dav">   18.52   18.56</time>
   <time name="total">   18.55   18.60</time>
   <energy>
    <i name="alphaZ">   1294.27175739 </i>
    <i name="ewald"> -11465.72285947 </i>
    <i name="hartreedc">  -3201.76845618 </i>
    <i name="XCdc">   -844.30826130 </i>
    <i name="pawpsdc">  12039.63450526 </i>
    <i name="pawaedc"> -10545.81420232 </i>
    <i name="eentropy">      0.00196627 </i>
    <i name="bandstr">   1884.31423414 </i>
    <i name="atom">  12993.56182891 </i>
    <i name="e_fr_energy">   2154.17051270 </i>
    <i name="e_wo_entrp">   2154.16854643 </i>
    <i name="e_0_energy">   2154.16985727 </i>
   </energy>
  </scstep>
  <scstep>
   <time name="dav">   18.41   18.43</time>
   <time name="total">   18.42   18.44</time>
   <energy>
    <i name="e_fr_energy">     72.81082758 </i>
    <i name="e_wo_entrp">     72.81072512 </i>
    <i name="e_0_energy">     72.81079343 </i>
   </energy>
  </scstep>
  <scstep>
   <time name="dav">   28.62   28.65</time>
   <time name="total">   28.62   28.65</time>
   <energy>
    <i name="e_fr_energy">   -301.15692497 </i>
    <i name="e_wo_entrp">   -301.15897326 </i>
    <i name="e_0_energy">   -301.15760774 </i>
   </energy>
  </scstep>
  <scstep>
   <time name="dav">   25.88   25.91</time>
   <time name="total">   25.88   25.92</time>
   <energy>
    <i name="e_fr_energy">   -347.93895258 </i>
    <i name="e_wo_entrp">   -347.95358454 </i>
    <i name="e_0_energy">   -347.94382990 </i>
   </energy>
  </scstep>
  <scstep>
   <time name="dav">   30.97   31.02</time>
   <time name="total">   31.55   31.59</time>
   <energy>
    <i name="e_fr_energy">   -353.03263129 </i>
    <i name="e_wo_entrp">   -353.04691796 </i>
    <i name="e_0_energy">   -353.03739351 </i>
   </energy>
  </scstep>
  <scstep>
   <time name="dav">   23.96   23.99</time>
   <time name="total">   24.56   24.59</time>
   <energy>
    <i name="e_fr_energy">   -346.57757185 </i>
    <i name="e_wo_entrp">   -346.57239884 </i>
    <i name="e_0_energy">   -346.57584752 </i>
   </energy>
  </scstep>
  <scstep>
   <time name="dav">   24.62   24.65</time>
   <time name="total">   25.22   25.27</time>
   <energy>
    <i name="e_fr_energy">   -357.01689350 </i>
    <i name="e_wo_entrp">   -357.01005033 </i>
    <i name="e_0_energy">   -357.01461244 </i>
   </energy>
  </scstep>
  <scstep>
   <time name="dav">   24.00   24.02</time>
   <time name="total">   24.60   24.63</time>
   <energy>
    <i name="e_fr_energy">   -352.87269166 </i>
    <i name="e_wo_entrp">   -352.86494267 </i>
    <i name="e_0_energy">   -352.87010867 </i>
   </energy>
  </scstep>
  <scstep>
   <time name="dav">   25.14   25.17</time>
   <time name="total">   25.75   25.78</time>
   <energy>
    <i name="e_fr_energy">   -340.70908804 </i>
    <i name="e_wo_entrp">   -340.70444013 </i>
    <i name="e_0_energy">   -340.70753873 </i>
   </energy>
  </scstep>
  <scstep>
   <time name="dav">   24.65   24.68</time>
   <time name="total">   25.25   25.29</time>
   <energy>
    <i name="e_fr_energy">   -336.37093938 </i>
    <i name="e_wo_entrp">   -336.36822051 </i>
    <i name="e_0_energy">   -336.37003309 </i>
   </energy>
  </scstep>
  <scstep>
   <time name="dav">   24.30   24.33</time>
   <time name="total">   24.91   24.94</time>
   <energy>
    <i name="e_fr_energy">   -333.65283286 </i>
    <i name="e_wo_entrp">   -333.64856778 </i>
    <i name="e_0_energy">   -333.65141117 </i>
   </energy>
  </scstep>
  <scstep>
   <time name="dav">   25.07   25.09</time>
   <time name="total">   25.67   25.70</time>
   <energy>
    <i name="e_fr_energy">   -332.07176839 </i>
    <i name="e_wo_entrp">   -332.06519611 </i>
    <i name="e_0_energy">   -332.06957763 </i>
   </energy>
  </scstep>
  <scstep>
   <time name="dav">   24.17   24.20</time>
   <time name="total">   24.78   24.82</time>
   <energy>
    <i name="e_fr_energy">   -330.64969951 </i>
    <i name="e_wo_entrp">   -330.63342686 </i>
    <i name="e_0_energy">   -330.64427529 </i>
   </energy>
  </scstep>
  <scstep>
   <time name="dav">   24.44   24.47</time>
   <time name="total">   25.04   25.08</time>
   <energy>
    <i name="e_fr_energy">   -330.51578826 </i>
    <i name="e_wo_entrp">   -330.50027967 </i>
    <i name="e_0_energy">   -330.51061873 </i>
   </energy>
  </scstep>
  <scstep>
   <time name="dav">   24.30   24.33</time>
   <time name="total">   24.90   24.93</time>
   <energy>
    <i name="e_fr_energy">   -330.46641717 </i>
    <i name="e_wo_entrp">   -330.44547759 </i>
    <i name="e_0_energy">   -330.45943731 </i>
   </energy>
  </scstep>
  <scstep>
   <time name="dav">   24.89   24.92</time>
   <time name="total">   25.51   25.55</time>
   <energy>
    <i name="e_fr_energy">   -330.42276820 </i>
    <i name="e_wo_entrp">   -330.40521359 </i>
    <i name="e_0_energy">   -330.41691666 </i>
   </energy>
  </scstep>
  <scstep>
   <time name="dav">   25.68   25.71</time>
   <time name="total">   26.28   26.32</time>
   <energy>
    <i name="e_fr_energy">   -330.41292164 </i>
    <i name="e_wo_entrp">   -330.39323835 </i>
    <i name="e_0_energy">   -330.40636054 </i>
   </energy>
  </scstep>
  <scstep>
   <time name="dav">   25.11   25.14</time>
   <time name="total">   25.71   25.74</time>
   <energy>
    <i name="e_fr_energy">   -330.41069983 </i>
    <i name="e_wo_entrp">   -330.39150188 </i>
    <i name="e_0_energy">   -330.40430052 </i>
   </energy>
  </scstep>
  <scstep>
   <time name="dav">   24.77   24.80</time>
   <time name="total">   25.39   25.43</time>
   <energy>
    <i name="e_fr_energy">   -330.40815275 </i>
    <i name="e_wo_entrp">   -330.38940874 </i>
    <i name="e_0_energy">   -330.40190474 </i>
   </energy>
  </scstep>
  <scstep>
   <time name="dav">   23.12   23.15</time>
   <time name="total">   23.73   23.75</time>
   <energy>
    <i name="e_fr_energy">   -330.40751601 </i>
    <i name="e_wo_entrp">   -330.38863106 </i>
    <i name="e_0_energy">   -330.40122103 </i>
   </energy>
  </scstep>
  <scstep>
   <time name="dav">   22.80   22.83</time>
   <time name="total">   23.41   23.43</time>
   <energy>
    <i name="e_fr_energy">   -330.40735923 </i>
    <i name="e_wo_entrp">   -330.38836183 </i>
    <i name="e_0_energy">   -330.40102676 </i>
   </energy>
  </scstep>
  <scstep>
   <time name="dav">   21.98   22.01</time>
   <time name="total">   22.58   22.62</time>
   <energy>
    <i name="e_fr_energy">   -330.40747136 </i>
    <i name="e_wo_entrp">   -330.38871327 </i>
    <i name="e_0_energy">   -330.40121867 </i>
   </energy>
  </scstep>
  <scstep>
   <time name="dav">   20.99   21.02</time>
   <time name="total">   21.59   21.62</time>
   <energy>
    <i name="e_fr_energy">   -330.40732056 </i>
    <i name="e_wo_entrp">   -330.38833942 </i>
    <i name="e_0_energy">   -330.40099352 </i>
   </energy>
  </scstep>
  <scstep>
   <time name="dav">   15.14   15.15</time>
   <time name="total">   15.17   15.19</time>
   <energy>
    <i name="alphaZ">   1294.27175739 </i>
    <i name="ewald"> -11465.72285947 </i>
    <i name="hartreedc">  -3061.64179212 </i>
    <i name="XCdc">   -838.62891020 </i>
    <i name="pawpsdc">  20955.53458999 </i>
    <i name="pawaedc"> -19461.93506472 </i>
    <i name="eentropy">     -0.01888212 </i>
    <i name="bandstr">   -745.82796849 </i>
    <i name="atom">  12993.56182891 </i>
    <i name="e_fr_energy">   -330.40730084 </i>
    <i name="e_wo_entrp">   -330.38841872 </i>
    <i name="e_0_energy">   -330.40100680 </i>
   </energy>
  </scstep>
  <structure>
   <crystal>
    <varray name="basis" >
     <v>      -3.19000000      -3.19000000      -3.19000000 </v>
     <v>       1.59500000       1.59500000      -7.97500000 </v>
     <v>       7.97500000      -7.97500000      -1.59500000 </v>
    </varray>
    <i name="volume">    486.92638500 </i>
    <varray name="rec_basis" >
     <v>      -0.13584117      -0.12539185      -0.05224660 </v>
     <v>       0.04179728       0.06269592      -0.10449321 </v>
     <v>       0.06269592      -0.06269592       0.00000000 </v>
    </varray>
   </crystal>
   <varray name="positions" >
    <v>       0.96666667       0.93333333       0.40000000 </v>
    <v>       0.63333333       0.26666667       0.40000000 </v>
    <v>       0.50000000       0.00000000       0.00000000 </v>
    <v>       0.00000000       0.00000000       0.00000000 </v>
    <v>       0.10000000       0.20000000       0.80000000 </v>
    <v>       0.03333333       0.06666667       0.60000000 </v>
    <v>       0.90000000       0.80000000       0.20000000 </v>
    <v>       0.80000000       0.60000000       0.40000000 </v>
    <v>       0.73333333       0.46666667       0.20000000 </v>
    <v>       0.36666667       0.73333333       0.60000000 </v>
    <v>       0.13333333       0.26666667       0.40000000 </v>
    <v>       0.83333333       0.66666667       0.00000000 </v>
    <v>       0.93333333       0.86666667       0.80000000 </v>
    <v>       0.56666667       0.13333333       0.20000000 </v>
    <v>       0.40000000       0.80000000       0.20000000 </v>
    <v>       0.43333333       0.86666667       0.80000000 </v>
    <v>       0.30000000       0.60000000       0.40000000 </v>
    <v>       0.86666667       0.73333333       0.60000000 </v>
    <v>       0.46666667       0.93333333       0.40000000 </v>
    <v>       0.16666667       0.33333333       0.00000000 </v>
    <v>       0.26666667       0.53333333       0.80000000 </v>
    <v>       0.20000000       0.40000000       0.60000000 </v>
    <v>       0.06666667       0.13333333       0.20000000 </v>
    <v>       0.76666667       0.53333333       0.80000000 </v>
    <v>       0.70000000       0.40000000       0.60000000 </v>
    <v>       0.60000000       0.20000000       0.80000000 </v>
    <v>       0.53333333       0.06666667       0.60000000 </v>
    <v>       0.33333333       0.66666667       0.00000000 </v>
    <v>       0.23333333       0.46666667       0.20000000 </v>
   </varray>
  </structure>
  <varray name="forces" >
   <v>      -0.08439868       0.65569743       0.22969459 </v>
   <v>       0.09541193      -0.01641591       0.14523006 </v>
   <v>       0.10363546       0.34074049      -0.01235129 </v>
   <v>       0.43762739       0.04275850      -0.25177767 </v>
   <v>       0.16041818       0.38464646      -0.57950138 </v>
   <v>      -0.31347238       0.15796363      -0.24333037 </v>
   <v>       0.27733031      -0.38982617       0.05787638 </v>
   <v>      -0.51995413      -0.22431152       0.55832158 </v>
   <v>      -0.00899489       0.30924255       0.18917760 </v>
   <v>      -0.19108622      -0.33269486       0.39611052 </v>
   <v>      -0.03963287       0.30662876      -0.47909027 </v>
   <v>       0.04780847      -0.52476314       0.17869331 </v>
   <v>       0.29677181       0.21159643      -0.12789362 </v>
   <v>      -0.43191614       0.51893324      -0.29846252 </v>
   <v>      -0.71007186      -0.07577441       0.44844645 </v>
   <v>      -0.74960833      -0.11709301       0.68836775 </v>
   <v>       0.20550604      -0.22222650      -0.28339199 </v>
   <v>       0.02526261       0.45478995       0.19764321 </v>
   <v>       0.60062747      -0.54024529       0.14212790 </v>
   <v>       0.08906362      -0.21400412      -0.46390846 </v>
   <v>      -0.13844318       0.19360096      -0.21777488 </v>
   <v>      -0.14887018      -0.10170992       0.56828291 </v>
   <v>       0.53060494      -0.59660398      -0.86711921 </v>
   <v>      -0.17189568      -0.11491393       0.50520468 </v>
   <v>       0.87211737       0.03349935      -0.78325530 </v>
   <v>      -0.35158453       0.53355329      -0.01954449 </v>
   <v>       0.10593747      -0.43980762      -0.44281696 </v>
   <v>      -0.24764098      -0.57082185       0.90226314 </v>
   <v>       0.25944696       0.33756119      -0.13722166 </v>
  </varray>
  <varray name="stress" >
   <v>     -20.09005679      -4.84005560      -0.74893266 </v>
   <v>      -4.84005561     -19.74683131      -2.59375701 </v>
   <v>      -0.74893263      -2.59375708     -23.97235376 </v>
  </varray>
  <energy>
   <i name="e_fr_energy">   -330.40730084 </i>
   <i name="e_wo_entrp">   -330.40100680 </i>
   <i name="e_0_energy">     -0.01888212 </i>
  </energy>
  <time name="totalsc">  601.77  602.65</time>
 </calculation>
 <calculation>
  <scstep>
   <time name="dav">   18.61   18.66</time>
   <time name="total">   19.21   19.27</time>
   <energy>
    <i name="alphaZ">   1336.95245343 </i>
    <i name="ewald"> -11631.02117590 </i>
    <i name="hartreedc">  -3055.99282676 </i>
    <i name="XCdc">   -834.61571751 </i>
    <i name="pawpsdc">  20955.53358849 </i>
    <i name="pawaedc"> -19461.92679662 </i>
    <i name="eentropy">     -0.01270685 </i>
    <i name="bandstr">   -633.79470174 </i>
    <i name="atom">  12993.56182891 </i>
    <i name="e_fr_energy">   -331.31605455 </i>
    <i name="e_wo_entrp">   -331.30334770 </i>
    <i name="e_0_energy">   -331.31181893 </i>
   </energy>
  </scstep>
  <scstep>
   <time name="dav">   25.55   25.61</time>
   <time name="total">   26.15   26.22</time>
   <energy>
    <i name="e_fr_energy">   -331.65408254 </i>
    <i name="e_wo_entrp">   -331.64496014 </i>
    <i name="e_0_energy">   -331.65104174 </i>
   </energy>
  </scstep>
  <scstep>
   <time name="dav">   24.95   25.01</time>
   <time name="total">   25.55   25.61</time>
   <energy>
    <i name="e_fr_energy">   -331.28900671 </i>
    <i name="e_wo_entrp">   -331.28012991 </i>
    <i name="e_0_energy">   -331.28604777 </i>
   </energy>
  </scstep>
  <scstep>
   <time name="dav">   25.90   25.96</time>
   <time name="total">   26.50   26.57</time>
   <energy>
    <i name="e_fr_energy">   -331.01810259 </i>
    <i name="e_wo_entrp">   -331.01025579 </i>
    <i name="e_0_energy">   -331.01548699 </i>
   </energy>
  </scstep>
  <scstep>
   <time name="dav">   25.27   25.33</time>
   <time name="total">   25.88   25.93</time>
   <energy>
    <i name="e_fr_energy">   -330.79619386 </i>
    <i name="e_wo_entrp">   -330.77781463 </i>
    <i name="e_0_energy">   -330.79006745 </i>
   </energy>
  </scstep>
  <scstep>
   <time name="dav">   26.87   26.93</time>
   <time name="total">   27.47   27.53</time>
   <energy>
    <i name="e_fr_energy">   -330.75184507 </i>
    <i name="e_wo_entrp">   -330.73584943 </i>
    <i name="e_0_energy">   -330.74651319 </i>
   </energy>
  </scstep>
  <scstep>
   <time name="dav">   27.90   27.96</time>
   <time name="total">   28.53   28.60</time>
   <energy>
    <i name="e_fr_energy">   -330.75433256 </i>
    <i name="e_wo_entrp">   -330.73683617 </i>
    <i name="e_0_energy">   -330.74850043 </i>
   </energy>
  </scstep>
  <scstep>
   <time name="dav">   25.92   25.98</time>
   <time name="total">   26.52   26.58</time>
   <energy>
    <i name="e_fr_energy">   -330.74985832 </i>
    <i name="e_wo_entrp">   -330.73366971 </i>
    <i name="e_0_energy">   -330.74446211 </i>
   </energy>
  </scstep>
  <scstep>
   <time name="dav">   25.13   25.19</time>
   <time name="total">   25.73   25.80</time>
   <energy>
    <i name="e_fr_energy">   -330.75014593 </i>
    <i name="e_wo_entrp">   -330.73319512 </i>
    <i name="e_0_energy">   -330.74449566 </i>
   </energy>
  </scstep>
  <scstep>
   <time name="dav">   26.16   26.22</time>
   <time name="total">   26.80   26.86</time>
   <energy>
    <i name="e_fr_energy">   -330.75331667 </i>
    <i name="e_wo_entrp">   -330.73670250 </i>
    <i name="e_0_energy">   -330.74777861 </i>
   </energy>
  </scstep>
  <scstep>
   <time name="dav">   25.34   25.40</time>
   <time name="total">   25.95   26.01</time>
   <energy>
    <i name="e_fr_energy">   -330.75392627 </i>
    <i name="e_wo_entrp">   -330.73711811 </i>
    <i name="e_0_energy">   -330.74832355 </i>
   </energy>
  </scstep>
  <scstep>
   <time name="dav">   25.48   25.54</time>
   <time name="total">   26.08   26.14</time>
   <energy>
    <i name="e_fr_energy">   -330.75401978 </i>
    <i name="e_wo_entrp">   -330.73728328 </i>
    <i name="e_0_energy">   -330.74844094 </i>
   </energy>
  </scstep>
  <scstep>
   <time name="dav">   24.38   24.43</time>
   <time name="total">   24.99   25.05</time>
   <energy>
    <i name="e_fr_energy">   -330.75409457 </i>
    <i name="e_wo_entrp">   -330.73732329 </i>
    <i name="e_0_energy">   -330.74850414 </i>
   </energy>
  </scstep>
  <scstep>
   <time name="dav">   18.57   18.61</time>
   <time name="total">   18.60   18.64</time>
   <energy>
    <i name="alphaZ">   1336.95245343 </i>
    <i name="ewald"> -11631.02117590 </i>
    <i name="hartreedc">  -2996.78538058 </i>
    <i name="XCdc">   -836.31430556 </i>
    <i name="pawpsdc">  22021.79840948 </i>
    <i name="pawaedc"> -20528.81814619 </i>
    <i name="eentropy">     -0.01674078 </i>
    <i name="bandstr">   -690.11106264 </i>
    <i name="atom">  12993.56182891 </i>
    <i name="e_fr_energy">   -330.75411983 </i>
    <i name="e_wo_entrp">   -330.73737905 </i>
    <i name="e_0_energy">   -330.74853957 </i>
   </energy>
  </scstep>
  <structure>
   <crystal>
    <varray name="basis" >
     <v>      -3.14858521      -3.14616345      -3.14594669 </v>
     <v>       1.57791621       1.58563125      -7.88103986 </v>
     <v>       7.91411648      -7.91280483      -1.56823060 </v>
    </varray>
    <i name="volume">    471.38181048 </i>
    <varray name="rec_basis" >
     <v>      -0.13756951      -0.12706670      -0.05310899 </v>
     <v>       0.04234222       0.06329285      -0.10567494 </v>
     <v>       0.06318307      -0.06317207      -0.00005964 </v>
    </varray>
   </crystal>
   <varray name="positions" >
    <v>       0.96267435       0.93398848       0.39776149 </v>
    <v>       0.63244131       0.26607730       0.40033824 </v>
    <v>       0.49729075       0.00130184      -0.00071715 </v>
    <v>      -0.00249197       0.00228098       0.00119433 </v>
    <v>       0.09808255       0.20440816       0.79932180 </v>
    <v>       0.03504538       0.06773900       0.59857409 </v>
    <v>       0.90039483       0.79908838       0.20201789 </v>
    <v>       0.80335709       0.59545859       0.39910579 </v>
    <v>       0.73104477       0.46663022       0.19903745 </v>
    <v>       0.36893307       0.72994494       0.60042831 </v>
    <v>       0.13294574       0.26992930       0.39895269 </v>
    <v>       0.83574404       0.66427507       0.00173181 </v>
    <v>       0.93043084       0.86854980       0.80025762 </v>
    <v>       0.56711029       0.13553654       0.19712404 </v>
    <v>       0.40398140       0.79607838       0.19808149 </v>
    <v>       0.43721905       0.86133091       0.79808688 </v>
    <v>       0.30071184       0.60117082       0.40129373 </v>
    <v>       0.86325182       0.73376351       0.59870084 </v>
    <v>       0.46564039       0.93219394       0.40345070 </v>
    <v>       0.16854686       0.33520421       0.00091666 </v>
    <v>       0.26695170       0.53473755       0.79899569 </v>
    <v>       0.20015850       0.39652745       0.59985736 </v>
    <v>       0.06898402       0.13696992       0.20340938 </v>
    <v>       0.76721493       0.53009240       0.79982765 </v>
    <v>       0.69605628       0.40580828       0.60253650 </v>
    <v>       0.59912573       0.20100338       0.79732280 </v>
    <v>       0.53641571       0.06778229       0.60165067 </v>
    <v>       0.33613507       0.65989247       0.00097750 </v>
    <v>       0.22993697       0.46890255       0.19976373 </v>
   </varray>
  </structure>
  <varray name="forces" >
   <v>      -0.01361008       0.36345028       0.11208079 </v>
   <v>       0.02706534       0.05068006       0.04328722 </v>
   <v>      -0.07527304       0.27212604       0.11658017 </v>
   <v>       0.43860061       0.12327419      -0.41094622 </v>
   <v>       0.06763951       0.05597822      -0.15993893 </v>
   <v>      -0.19400045       0.04238591      -0.16752137 </v>
   <v>       0.05995045      -0.09897527      -0.01305016 </v>
   <v>      -0.13540391      -0.09663711       0.15043251 </v>
   <v>      -0.16676855       0.19033331       0.30828851 </v>
   <v>      -0.07475808      -0.12914675       0.20460384 </v>
   <v>       0.07162610       0.07841888      -0.15686844 </v>
   <v>      -0.07750486      -0.16725085       0.05680951 </v>
   <v>       0.03828506      -0.00785431      -0.10228014 </v>
   <v>      -0.38898279       0.33512622      -0.29982126 </v>
   <v>      -0.12025150      -0.09639837       0.06144066 </v>
   <v>      -0.09777369      -0.04847555       0.38134610 </v>
   <v>       0.11475817      -0.20391634      -0.12443652 </v>
   <v>      -0.07963431       0.25702858       0.05733987 </v>
   <v>       0.26945519      -0.24896496       0.11388705 </v>
   <v>      -0.03236529      -0.21011910      -0.33597973 </v>
   <v>      -0.07216890       0.16201024      -0.01574496 </v>
   <v>      -0.01446159       0.04610647       0.23006520 </v>
   <v>       0.31703251      -0.33205103      -0.51533312 </v>
   <v>       0.06930563      -0.23147728       0.26057624 </v>
   <v>       0.26974460       0.08652993      -0.25143388 </v>
   <v>      -0.01102552       0.20872255      -0.12745235 </v>
   <v>       0.03048706      -0.14474568      -0.13927457 </v>
   <v>      -0.35297101      -0.34919661       0.71790514 </v>
   <v>       0.13300333       0.09303830       0.00543882 </v>
  </varray>
  <varray name="stress" >
   <v>      49.82651130      -2.09647984       0.29499020 </v>
   <v>      -2.09647984      51.11966695      -1.05507149 </v>
   <v>       0.29499021      -1.05507146      48.70041474 </v>
  </varray>
  <energy>
   <i name="e_fr_energy">   -330.75411983 </i>
   <i name="e_wo_entrp">   -330.74853957 </i>
   <i name="e_0_energy">     -0.01674078 </i>
  </energy>
  <time name="totalsc">  371.73  372.63</time>
 </calculation>
 <calculation>
  <scstep>
   <time name="dav">   18.65   18.68</time>
   <time name="total">   19.26   19.43</time>
   <energy>
    <i name="alphaZ">   1329.80392936 </i>
    <i name="ewald"> -11603.93804280 </i>
    <i name="hartreedc">  -2997.63266697 </i>
    <i name="XCdc">   -836.97133163 </i>
    <i name="pawpsdc">  22021.53752529 </i>
    <i name="pawaedc"> -20528.50481802 </i>
    <i name="eentropy">     -0.01705718 </i>
    <i name="bandstr">   -708.62259567 </i>
    <i name="atom">  12993.56182891 </i>
    <i name="e_fr_energy">   -330.78322870 </i>
    <i name="e_wo_entrp">   -330.76617153 </i>
    <i name="e_0_energy">   -330.77754298 </i>
   </energy>
  </scstep>
  <scstep>
   <time name="dav">   26.19   26.22</time>
   <time name="total">   26.80   26.83</time>
   <energy>
    <i name="e_fr_energy">   -330.79147343 </i>
    <i name="e_wo_entrp">   -330.77497381 </i>
    <i name="e_0_energy">   -330.78597356 </i>
   </energy>
  </scstep>
  <scstep>
   <time name="dav">   25.53   25.56</time>
   <time name="total">   26.14   26.17</time>
   <energy>
    <i name="e_fr_energy">   -330.78889802 </i>
    <i name="e_wo_entrp">   -330.77267870 </i>
    <i name="e_0_energy">   -330.78349158 </i>
   </energy>
  </scstep>
  <scstep>
   <time name="dav">   26.11   26.17</time>
   <time name="total">   26.71   26.79</time>
   <energy>
    <i name="e_fr_energy">   -330.77643732 </i>
    <i name="e_wo_entrp">   -330.75864108 </i>
    <i name="e_0_energy">   -330.77050524 </i>
   </energy>
  </scstep>
  <scstep>
   <time name="dav">   25.20   25.26</time>
   <time name="total">   25.81   25.87</time>
   <energy>
    <i name="e_fr_energy">   -330.76999006 </i>
    <i name="e_wo_entrp">   -330.75357989 </i>
    <i name="e_0_energy">   -330.76452001 </i>
   </energy>
  </scstep>
  <scstep>
   <time name="dav">   25.95   26.02</time>
   <time name="total">   26.56   26.62</time>
   <energy>
    <i name="e_fr_energy">   -330.76915088 </i>
    <i name="e_wo_entrp">   -330.75206366 </i>
    <i name="e_0_energy">   -330.76345514 </i>
   </energy>
  </scstep>
  <scstep>
   <time name="dav">   24.24   24.26</time>
   <time name="total">   24.84   24.88</time>
   <energy>
    <i name="e_fr_energy">   -330.76878857 </i>
    <i name="e_wo_entrp">   -330.75205286 </i>
    <i name="e_0_energy">   -330.76321000 </i>
   </energy>
  </scstep>
  <scstep>
   <time name="dav">   23.83   23.86</time>
   <time name="total">   24.44   24.46</time>
   <energy>
    <i name="e_fr_energy">   -330.76865575 </i>
    <i name="e_wo_entrp">   -330.75166734 </i>
    <i name="e_0_energy">   -330.76299295 </i>
   </energy>
  </scstep>
  <scstep>
   <time name="dav">   21.06   21.09</time>
   <time name="total">   21.09   21.12</time>
   <energy>
    <i name="alphaZ">   1329.80392936 </i>
    <i name="ewald"> -11603.93804280 </i>
    <i name="hartreedc">  -3007.77229480 </i>
    <i name="XCdc">   -836.67147032 </i>
    <i name="pawpsdc">  21837.57705140 </i>
    <i name="pawaedc"> -20343.88013985 </i>
    <i name="eentropy">     -0.01689480 </i>
    <i name="bandstr">   -699.43263131 </i>
    <i name="atom">  12993.56182891 </i>
    <i name="e_fr_energy">   -330.76866420 </i>
    <i name="e_wo_entrp">   -330.75176939 </i>
    <i name="e_0_energy">   -330.76303259 </i>
   </energy>
  </scstep>
  <structure>
   <crystal>
    <varray name="basis" >
     <v>      -3.15539618      -3.15337270      -3.15319159 </v>
     <v>       1.58072577       1.58717201      -7.89649232 </v>
     <v>       7.92412924      -7.92303330      -1.57263303 </v>
    </varray>
    <i name="volume">    473.91578120 </i>
    <varray name="rec_basis" >
     <v>      -0.13728222      -0.12678819      -0.05296532 </v>
     <v>       0.04225169       0.06319388      -0.10547875 </v>
     <v>       0.06310244      -0.06309326      -0.00004967 </v>
    </varray>
   </crystal>
   <varray name="positions" >
    <v>       0.96334004       0.93388015       0.39813254 </v>
    <v>       0.63259010       0.26617525       0.40028225 </v>
    <v>       0.49774217       0.00108557      -0.00059833 </v>
    <v>      -0.00207730       0.00190140       0.00099626 </v>
    <v>       0.09840124       0.20367526       0.79943389 </v>
    <v>       0.03475996       0.06756097       0.59881028 </v>
    <v>       0.90032892       0.79923949       0.20168352 </v>
    <v>       0.80279870       0.59621400       0.39925428 </v>
    <v>       0.73142642       0.46663657       0.19919704 </v>
    <v>       0.36855601       0.73050830       0.60035754 </v>
    <v>       0.13300974       0.26938696       0.39912601 </v>
    <v>       0.83534249       0.66467234       0.00144492 </v>
    <v>       0.93091419       0.86823662       0.80021485 </v>
    <v>       0.56703627       0.13517082       0.19760051 </v>
    <v>       0.40331896       0.79673096       0.19839968 </v>
    <v>       0.43657289       0.86221866       0.79840429 </v>
    <v>       0.30059270       0.60097578       0.40107920 </v>
    <v>       0.86382116       0.73369235       0.59891621 </v>
    <v>       0.46581120       0.93238261       0.40287891 </v>
    <v>       0.16823285       0.33489281       0.00076454 </v>
    <v>       0.26690401       0.53450426       0.79916202 </v>
    <v>       0.20013293       0.39710499       0.59988128 </v>
    <v>       0.06859633       0.13636426       0.20284396 </v>
    <v>       0.76712433       0.53063142       0.79985647 </v>
    <v>       0.69671190       0.40484179       0.60211574 </v>
    <v>       0.59927164       0.20083718       0.79776645 </v>
    <v>       0.53590137       0.06759629       0.60137692 </v>
    <v>       0.33566950       0.66101877       0.00081597 </v>
    <v>       0.23050263       0.46853084       0.19980280 </v>
   </varray>
  </structure>
  <varray name="forces" >
   <v>      -0.02410237       0.42200873       0.13959400 </v>
   <v>       0.04190776       0.03814383       0.06537609 </v>
   <v>      -0.04252370       0.28843622       0.09500190 </v>
   <v>       0.44447099       0.10938035      -0.38755987 </v>
   <v>       0.08988913       0.11352045      -0.24041927 </v>
   <v>      -0.21809731       0.06391499      -0.18158370 </v>
   <v>       0.10224169      -0.15534983       0.00439643 </v>
   <v>      -0.20101050      -0.12480646       0.22262128 </v>
   <v>      -0.13591799       0.21928102       0.28574208 </v>
   <v>      -0.10031336      -0.17505454       0.24627222 </v>
   <v>       0.05450094       0.12361228      -0.21473263 </v>
   <v>      -0.05787018      -0.23320274       0.06365636 </v>
   <v>       0.07068952       0.02994917      -0.10298299 </v>
   <v>      -0.39982745       0.36126863      -0.29939738 </v>
   <v>      -0.23090177      -0.09842522       0.13997037 </v>
   <v>      -0.20952502      -0.05421928       0.43710199 </v>
   <v>       0.12914810      -0.21156369      -0.15445821 </v>
   <v>      -0.05800145       0.29850914       0.07645631 </v>
   <v>       0.33008981      -0.30376444       0.11721150 </v>
   <v>      -0.01232269      -0.20830501      -0.36264888 </v>
   <v>      -0.07858527       0.16882389      -0.04839186 </v>
   <v>      -0.03542747       0.02311590       0.28565742 </v>
   <v>       0.35505905      -0.37834557      -0.58465529 </v>
   <v>       0.01801364      -0.20673775       0.31083751 </v>
   <v>       0.38318654       0.07702983      -0.35677107 </v>
   <v>      -0.07284939       0.27097675      -0.10909007 </v>
   <v>       0.03958702      -0.20640370      -0.18929487 </v>
   <v>      -0.33365882      -0.39209610       0.76106530 </v>
   <v>       0.15215054       0.14030316      -0.01897465 </v>
  </varray>
  <varray name="stress" >
   <v>      38.28228098      -2.47299694       0.37312699 </v>
   <v>      -2.47299686      39.37507881      -1.16389202 </v>
   <v>       0.37312708      -1.16389194      36.52432520 </v>
  </varray>
  <energy>
   <i name="e_fr_energy">   -330.76866420 </i>
   <i name="e_wo_entrp">   -330.76303259 </i>
   <i name="e_0_energy">     -0.01689480 </i>
  </energy>
  <time name="totalsc">  239.40  240.14</time>
 </calculation>
 <calculation>
  <scstep>
   <time name="dav">   18.37   18.39</time>
   <time name="total">   18.97   19.00</time>
   <energy>
    <i name="alphaZ">   1315.50353214 </i>
    <i name="ewald"> -11590.84951372 </i>
    <i name="hartreedc">  -2968.93842514 </i>
    <i name="XCdc">   -838.17592990 </i>
    <i name="pawpsdc">  21836.57159921 </i>
    <i name="pawaedc"> -20343.05005153 </i>
    <i name="eentropy">     -0.01759590 </i>
    <i name="bandstr">   -735.55916676 </i>
    <i name="atom">  12993.56182891 </i>
    <i name="e_fr_energy">   -330.95372270 </i>
    <i name="e_wo_entrp">   -330.93612680 </i>
    <i name="e_0_energy">   -330.94785740 </i>
   </energy>
  </scstep>
  <scstep>
   <time name="dav">   24.05   24.08</time>
   <time name="total">   24.65   24.68</time>
   <energy>
    <i name="e_fr_energy">   -331.10982276 </i>
    <i name="e_wo_entrp">   -331.09145365 </i>
    <i name="e_0_energy">   -331.10369972 </i>
   </energy>
  </scstep>
  <scstep>
   <time name="dav">   25.31   25.35</time>
   <time name="total">   25.92   25.96</time>
   <energy>
    <i name="e_fr_energy">   -331.12733000 </i>
    <i name="e_wo_entrp">   -331.11270586 </i>
    <i name="e_0_energy">   -331.12245529 </i>
   </energy>
  </scstep>
  <scstep>
   <time name="dav">   24.74   24.77</time>
   <time name="total">   25.34   25.38</time>
   <energy>
    <i name="e_fr_energy">   -331.06496711 </i>
    <i name="e_wo_entrp">   -331.04620841 </i>
    <i name="e_0_energy">   -331.05871421 </i>
   </energy>
  </scstep>
  <scstep>
   <time name="dav">   25.03   25.07</time>
   <time name="total">   25.64   25.67</time>
   <energy>
    <i name="e_fr_energy">   -331.04687927 </i>
    <i name="e_wo_entrp">   -331.02995574 </i>
    <i name="e_0_energy">   -331.04123809 </i>
   </energy>
  </scstep>
  <scstep>
   <time name="dav">   26.04   26.08</time>
   <time name="total">   26.65   26.70</time>
   <energy>
    <i name="e_fr_energy">   -331.04409284 </i>
    <i name="e_wo_entrp">   -331.02523009 </i>
    <i name="e_0_energy">   -331.03780526 </i>
   </energy>
  </scstep>
  <scstep>
   <time name="dav">   25.67   25.70</time>
   <time name="total">   26.27   26.31</time>
   <energy>
    <i name="e_fr_energy">   -331.04135777 </i>
    <i name="e_wo_entrp">   -331.02371177 </i>
    <i name="e_0_energy">   -331.03547577 </i>
   </energy>
  </scstep>
  <scstep>
   <time name="dav">   26.49   26.53</time>
   <time name="total">   27.09   27.14</time>
   <energy>
    <i name="e_fr_energy">   -331.03957402 </i>
    <i name="e_wo_entrp">   -331.02152883 </i>
    <i name="e_0_energy">   -331.03355896 </i>
   </energy>
  </scstep>
  <scstep>
   <time name="dav">   24.27   24.30</time>
   <time name="total">   24.88   24.92</time>
   <energy>
    <i name="e_fr_energy">   -331.03955339 </i>
    <i name="e_wo_entrp">   -331.02157300 </i>
    <i name="e_0_energy">   -331.03355993 </i>
   </energy>
  </scstep>
  <scstep>
   <time name="dav">   22.09   22.12</time>
   <time name="total">   22.70   22.73</time>
   <energy>
    <i name="e_fr_energy">   -331.03977300 </i>
    <i name="e_wo_entrp">   -331.02179605 </i>
    <i name="e_0_energy">   -331.03378068 </i>
   </energy>
  </scstep>
  <scstep>
   <time name="dav">   23.43   23.46</time>
   <time name="total">   24.03   24.07</time>
   <energy>
    <i name="e_fr_energy">   -331.03997888 </i>
    <i name="e_wo_entrp">   -331.02194784 </i>
    <i name="e_0_energy">   -331.03396853 </i>
   </energy>
  </scstep>
  <scstep>
   <time name="dav">   22.52   22.55</time>
   <time name="total">   23.13   23.16</time>
   <energy>
    <i name="e_fr_energy">   -331.03986427 </i>
    <i name="e_wo_entrp">   -331.02185706 </i>
    <i name="e_0_energy">   -331.03386187 </i>
   </energy>
  </scstep>
  <scstep>
   <time name="dav">   14.64   14.66</time>
   <time name="total">   14.67   14.69</time>
   <energy>
    <i name="alphaZ">   1315.50353214 </i>
    <i name="ewald"> -11590.84951372 </i>
    <i name="hartreedc">  -2986.02861089 </i>
    <i name="XCdc">   -837.60325413 </i>
    <i name="pawpsdc">  21455.93919721 </i>
    <i name="pawaedc"> -19963.01600690 </i>
    <i name="eentropy">     -0.01799428 </i>
    <i name="bandstr">   -718.52900291 </i>
    <i name="atom">  12993.56182891 </i>
    <i name="e_fr_energy">   -331.03982456 </i>
    <i name="e_wo_entrp">   -331.02183028 </i>
    <i name="e_0_energy">   -331.03382647 </i>
   </energy>
  </scstep>
  <structure>
   <crystal>
    <varray name="basis" >
     <v>      -3.16205530      -3.15854858      -3.15826397 </v>
     <v>       1.58495577       1.59830320      -7.91861621 </v>
     <v>       7.96939696      -7.96939202      -1.57037158 </v>
    </varray>
    <i name="volume">    479.06756054 </i>
    <varray name="rec_basis" >
     <v>      -0.13696708      -0.12653252      -0.05295421 </v>
     <v>       0.04218476       0.06290357      -0.10514464 </v>
     <v>       0.06274522      -0.06271519      -0.00009970 </v>
    </varray>
   </crystal>
   <varray name="positions" >
    <v>       0.96010024       0.93444294       0.39641484 </v>
    <v>       0.63183934       0.26582854       0.40045077 </v>
    <v>       0.49561937       0.00186055      -0.00141668 </v>
    <v>      -0.00451356       0.00451144       0.00205181 </v>
    <v>       0.09715644       0.20663134       0.79907362 </v>
    <v>       0.03630190       0.06839558       0.59771985 </v>
    <v>       0.90064347       0.79866435       0.20302544 </v>
    <v>       0.80514000       0.59311272       0.39871269 </v>
    <v>       0.72976654       0.46612048       0.19822512 </v>
    <v>       0.37017233       0.72793434       0.60067019 </v>
    <v>       0.13255685       0.27170734       0.39852243 </v>
    <v>       0.83728344       0.66297483       0.00253108 </v>
    <v>       0.92932467       0.86950466       0.80039771 </v>
    <v>       0.56781545       0.13708433       0.19512675 </v>
    <v>       0.40607934       0.79413551       0.19728329 </v>
    <v>       0.43873738       0.85831340       0.79725735 </v>
    <v>       0.30132979       0.60173314       0.40219043 </v>
    <v>       0.86139649       0.73408849       0.59778009 </v>
    <v>       0.46501969       0.93143458       0.40544925 </v>
    <v>       0.17021607       0.33635500       0.00148768 </v>
    <v>       0.26686080       0.53546537       0.79832444 </v>
    <v>       0.19990955       0.39474090       0.59972790 </v>
    <v>       0.07040688       0.13932048       0.20553822 </v>
    <v>       0.76755293       0.52804228       0.80009272 </v>
    <v>       0.69381949       0.40898324       0.60377894 </v>
    <v>       0.59842700       0.20189911       0.79598320 </v>
    <v>       0.53809398       0.06833213       0.60252568 </v>
    <v>       0.33827355       0.65504502       0.00136940 </v>
    <v>       0.22800393       0.47000458       0.19970584 </v>
   </varray>
  </structure>
  <varray name="forces" >
   <v>      -0.00000855       0.16945403       0.07834113 </v>
   <v>       0.01294960       0.06979695      -0.02820956 </v>
   <v>      -0.18759153       0.19031707       0.24057581 </v>
   <v>       0.31100289       0.07036359      -0.26754674 </v>
   <v>      -0.04496800      -0.07705777       0.06926442 </v>
   <v>      -0.09555096      -0.01069646      -0.10796899 </v>
   <v>      -0.08452183       0.05295856      -0.02677199 </v>
   <v>       0.00756256      -0.00077090      -0.00840440 </v>
   <v>      -0.07389403       0.06722719       0.17422616 </v>
   <v>       0.00370211       0.00260949       0.05948028 </v>
   <v>       0.12334463      -0.02098441      -0.03158105 </v>
   <v>      -0.05714832       0.06236333      -0.04969710 </v>
   <v>       0.03575171      -0.04575493      -0.11070011 </v>
   <v>      -0.27501238       0.11304880      -0.21244069 </v>
   <v>       0.06547525      -0.05944074      -0.01943682 </v>
   <v>       0.11940521      -0.04614186       0.18067081 </v>
   <v>       0.00882668      -0.12801701      -0.05300956 </v>
   <v>      -0.05499070       0.11973682      -0.00253076 </v>
   <v>       0.09422941      -0.07976236       0.06497709 </v>
   <v>      -0.10181436      -0.20521356      -0.27594651 </v>
   <v>      -0.01797264       0.17508294       0.08582607 </v>
   <v>      -0.01583864       0.12174206       0.09039115 </v>
   <v>       0.19551918      -0.25183598      -0.29502828 </v>
   <v>       0.12734357      -0.14415548       0.02435118 </v>
   <v>      -0.00800077       0.05540577       0.04784287 </v>
   <v>      -0.03409713       0.07763431      -0.02188987 </v>
   <v>       0.02216917      -0.06505340      -0.01995449 </v>
   <v>      -0.20826668      -0.15855694       0.38944018 </v>
   <v>       0.13239455      -0.05429911       0.02572974 </v>
  </varray>
  <varray name="stress" >
   <v>      14.38093090      -1.01595190       0.38608614 </v>
   <v>      -1.01595188      14.90327449      -0.08924120 </v>
   <v>       0.38608613      -0.08924114      14.36094668 </v>
  </varray>
  <energy>
   <i name="e_fr_energy">   -331.03982456 </i>
   <i name="e_wo_entrp">   -331.03382647 </i>
   <i name="e_0_energy">     -0.01799428 </i>
  </energy>
  <time name="totalsc">  327.64  328.13</time>
 </calculation>
 <calculation>
  <scstep>
   <time name="dav">   18.37   18.39</time>
   <time name="total">   18.98   19.00</time>
   <energy>
    <i name="alphaZ">   1307.45176396 </i>
    <i name="ewald"> -11581.91035445 </i>
    <i name="hartreedc">  -2965.29983970 </i>
    <i name="XCdc">   -838.45002218 </i>
    <i name="pawpsdc">  21456.19936101 </i>
    <i name="pawaedc"> -19963.28961918 </i>
    <i name="eentropy">     -0.01860298 </i>
    <i name="bandstr">   -739.29704880 </i>
    <i name="atom">  12993.56182891 </i>
    <i name="e_fr_energy">   -331.05253342 </i>
    <i name="e_wo_entrp">   -331.03393044 </i>
    <i name="e_0_energy">   -331.04633243 </i>
   </energy>
  </scstep>
  <scstep>
   <time name="dav">   24.27   24.31</time>
   <time name="total">   24.88   24.93</time>
   <energy>
    <i name="e_fr_energy">   -331.10045153 </i>
    <i name="e_wo_entrp">   -331.08161012 </i>
    <i name="e_0_energy">   -331.09417106 </i>
   </energy>
  </scstep>
  <scstep>
   <time name="dav">   25.48   25.50</time>
   <time name="total">   26.08   26.11</time>
   <energy>
    <i name="e_fr_energy">   -331.10471919 </i>
    <i name="e_wo_entrp">   -331.08731325 </i>
    <i name="e_0_energy">   -331.09891721 </i>
   </energy>
  </scstep>
  <scstep>
   <time name="dav">   24.86   24.88</time>
   <time name="total">   25.46   25.49</time>
   <energy>
    <i name="e_fr_energy">   -331.08642644 </i>
    <i name="e_wo_entrp">   -331.06752206 </i>
    <i name="e_0_energy">   -331.08012498 </i>
   </energy>
  </scstep>
  <scstep>
   <time name="dav">   25.16   25.19</time>
   <time name="total">   25.76   25.80</time>
   <energy>
    <i name="e_fr_energy">   -331.08121562 </i>
    <i name="e_wo_entrp">   -331.06309242 </i>
    <i name="e_0_energy">   -331.07517455 </i>
   </energy>
  </scstep>
  <scstep>
   <time name="dav">   26.04   26.06</time>
   <time name="total">   26.64   26.66</time>
   <energy>
    <i name="e_fr_energy">   -331.07988164 </i>
    <i name="e_wo_entrp">   -331.06087684 </i>
    <i name="e_0_energy">   -331.07354671 </i>
   </energy>
  </scstep>
  <scstep>
   <time name="dav">   27.13   27.17</time>
   <time name="total">   27.73   27.78</time>
   <energy>
    <i name="e_fr_energy">   -331.07927276 </i>
    <i name="e_wo_entrp">   -331.06096665 </i>
    <i name="e_0_energy">   -331.07317072 </i>
   </energy>
  </scstep>
  <scstep>
   <time name="dav">   23.89   23.92</time>
   <time name="total">   24.49   24.53</time>
   <energy>
    <i name="e_fr_energy">   -331.07870382 </i>
    <i name="e_wo_entrp">   -331.06010182 </i>
    <i name="e_0_energy">   -331.07250316 </i>
   </energy>
  </scstep>
  <scstep>
   <time name="dav">   21.91   21.94</time>
   <time name="total">   22.51   22.54</time>
   <energy>
    <i name="e_fr_energy">   -331.07869366 </i>
    <i name="e_wo_entrp">   -331.06016262 </i>
    <i name="e_0_energy">   -331.07251665 </i>
   </energy>
  </scstep>
  <scstep>
   <time name="dav">   16.82   16.84</time>
   <time name="total">   16.85   16.88</time>
   <energy>
    <i name="alphaZ">   1307.45176396 </i>
    <i name="ewald"> -11581.91035445 </i>
    <i name="hartreedc">  -2975.58279515 </i>
    <i name="XCdc">   -838.10881288 </i>
    <i name="pawpsdc">  21263.11442512 </i>
    <i name="pawaedc"> -19770.09507826 </i>
    <i name="eentropy">     -0.01855750 </i>
    <i name="bandstr">   -729.49117506 </i>
    <i name="atom">  12993.56182891 </i>
    <i name="e_fr_energy">   -331.07875533 </i>
    <i name="e_wo_entrp">   -331.06019782 </i>
    <i name="e_0_energy">   -331.07256949 </i>
   </energy>
  </scstep>
  <structure>
   <crystal>
    <varray name="basis" >
     <v>      -3.16584984      -3.16149793      -3.16115434 </v>
     <v>       1.58736613       1.60464604      -7.93122297 </v>
     <v>       7.99519169      -7.99580843      -1.56908294 </v>
    </varray>
    <i name="volume">    482.01783454 </i>
    <varray name="rec_basis" >
     <v>      -0.13678822      -0.12638731      -0.05294768 </v>
     <v>       0.04214643       0.06273941      -0.10495527 </v>
     <v>       0.06254349      -0.06250178      -0.00012782 </v>
    </varray>
   </crystal>
   <varray name="positions" >
    <v>       0.95825732       0.93476124       0.39544164 </v>
    <v>       0.63141221       0.26563169       0.40054612 </v>
    <v>       0.49441211       0.00230007      -0.00188024 </v>
    <v>      -0.00589778       0.00599459       0.00265034 </v>
    <v>       0.09644971       0.20831008       0.79887016 </v>
    <v>       0.03717903       0.06886893       0.59710234 </v>
    <v>       0.90082245       0.79833864       0.20378558 </v>
    <v>       0.80647011       0.59135091       0.39840521 </v>
    <v>       0.72882194       0.46582658       0.19767426 </v>
    <v>       0.37109054       0.72647262       0.60084677 </v>
    <v>       0.13230018       0.27302487       0.39818101 </v>
    <v>       0.83838690       0.66201149       0.00314614 </v>
    <v>       0.92842122       0.87022496       0.80050153 </v>
    <v>       0.56825889       0.13816949       0.19372575 </v>
    <v>       0.40764790       0.79266063       0.19665031 </v>
    <v>       0.43996638       0.85609450       0.79660670 </v>
    <v>       0.30174967       0.60216414       0.40282022 </v>
    <v>       0.86001728       0.73431259       0.59713638 </v>
    <v>       0.46456972       0.93089789       0.40690520 </v>
    <v>       0.17134495       0.33718611       0.00189783 </v>
    <v>       0.26683645       0.53601069       0.79785015 </v>
    <v>       0.19978137       0.39339798       0.59964041 </v>
    <v>       0.07143876       0.14100160       0.20706547 </v>
    <v>       0.76779556       0.52657183       0.80022596 </v>
    <v>       0.69217669       0.41133664       0.60472209 </v>
    <v>       0.59794662       0.20250099       0.79497311 </v>
    <v>       0.53934173       0.06875100       0.60317680 </v>
    <v>       0.33975205       0.65165243       0.00168162 </v>
    <v>       0.22658338       0.47084149       0.19965114 </v>
   </varray>
  </structure>
  <varray name="forces" >
   <v>       0.02453322       0.01856768       0.04175072 </v>
   <v>      -0.01191196       0.08762440      -0.08956126 </v>
   <v>      -0.26665885       0.12498888       0.30856994 </v>
   <v>       0.25446852       0.05510398      -0.20491397 </v>
   <v>      -0.11821489      -0.17957781       0.23654225 </v>
   <v>      -0.02808086      -0.04935329      -0.06676453 </v>
   <v>      -0.19017811       0.16575928      -0.03466419 </v>
   <v>       0.12335292       0.07258366      -0.14816919 </v>
   <v>      -0.03074728      -0.02590587       0.10131047 </v>
   <v>       0.07041105       0.10894589      -0.05641757 </v>
   <v>       0.16194270      -0.10422889       0.06635461 </v>
   <v>      -0.07440026       0.20523176      -0.10969826 </v>
   <v>       0.01016055      -0.09860328      -0.10095490 </v>
   <v>      -0.18916867      -0.01055981      -0.16727701 </v>
   <v>       0.23392349      -0.04322946      -0.09714324 </v>
   <v>       0.28584070      -0.06155279       0.07340822 </v>
   <v>      -0.05698143      -0.05281465      -0.00887061 </v>
   <v>      -0.06457575       0.02833042      -0.04316286 </v>
   <v>      -0.03915011       0.03608704       0.04244009 </v>
   <v>      -0.16230483      -0.19141435      -0.22231123 </v>
   <v>       0.01244555       0.17147819       0.17276994 </v>
   <v>       0.00054222       0.18830151      -0.01724829 </v>
   <v>       0.11383487      -0.16520309      -0.15177158 </v>
   <v>       0.19113880      -0.10975635      -0.14279142 </v>
   <v>      -0.23376443       0.03820230       0.28257907 </v>
   <v>       0.00460171      -0.03050454       0.01702209 </v>
   <v>       0.00106697       0.02162735       0.07382202 </v>
   <v>      -0.14305815      -0.03238115       0.19107302 </v>
   <v>       0.12093235      -0.16774704       0.05407766 </v>
  </varray>
  <varray name="stress" >
   <v>       3.04500075      -0.06440423       0.42128661 </v>
   <v>      -0.06440422       3.08521851       0.69361995 </v>
   <v>       0.42128667       0.69361995       3.64199037 </v>
  </varray>
  <energy>
   <i name="e_fr_energy">   -331.07875533 </i>
   <i name="e_wo_entrp">   -331.07256949 </i>
   <i name="e_0_energy">     -0.01855750 </i>
  </energy>
  <time name="totalsc">  257.84  258.18</time>
 </calculation>
 <calculation>
  <scstep>
   <time name="dav">   18.91   18.93</time>
   <time name="total">   19.53   19.56</time>
   <energy>
    <i name="alphaZ">   1304.01640505 </i>
    <i name="ewald"> -11569.82973063 </i>
    <i name="hartreedc">  -2974.90080946 </i>
    <i name="XCdc">   -838.44878063 </i>
    <i name="pawpsdc">  21259.28649635 </i>
    <i name="pawaedc"> -19766.47687525 </i>
    <i name="eentropy">     -0.01716304 </i>
    <i name="bandstr">   -738.29165275 </i>
    <i name="atom">  12993.56182891 </i>
    <i name="e_fr_energy">   -331.10028145 </i>
    <i name="e_wo_entrp">   -331.08311842 </i>
    <i name="e_0_energy">   -331.09456044 </i>
   </energy>
  </scstep>
  <scstep>
   <time name="dav">   24.99   25.02</time>
   <time name="total">   25.60   25.63</time>
   <energy>
    <i name="e_fr_energy">   -331.11696911 </i>
    <i name="e_wo_entrp">   -331.09858846 </i>
    <i name="e_0_energy">   -331.11084223 </i>
   </energy>
  </scstep>
  <scstep>
   <time name="dav">   26.07   26.11</time>
   <time name="total">   26.68   26.72</time>
   <energy>
    <i name="e_fr_energy">   -331.11642323 </i>
    <i name="e_wo_entrp">   -331.09985783 </i>
    <i name="e_0_energy">   -331.11090143 </i>
   </energy>
  </scstep>
  <scstep>
   <time name="dav">   25.95   25.99</time>
   <time name="total">   26.56   26.60</time>
   <energy>
    <i name="e_fr_energy">   -331.11234185 </i>
    <i name="e_wo_entrp">   -331.09464642 </i>
    <i name="e_0_energy">   -331.10644337 </i>
   </energy>
  </scstep>
  <scstep>
   <time name="dav">   25.82   25.86</time>
   <time name="total">   26.43   26.47</time>
   <energy>
    <i name="e_fr_energy">   -331.11118558 </i>
    <i name="e_wo_entrp">   -331.09379517 </i>
    <i name="e_0_energy">   -331.10538878 </i>
   </energy>
  </scstep>
  <scstep>
   <time name="dav">   26.64   26.68</time>
   <time name="total">   27.26   27.30</time>
   <energy>
    <i name="e_fr_energy">   -331.11092501 </i>
    <i name="e_wo_entrp">   -331.09342244 </i>
    <i name="e_0_energy">   -331.10509082 </i>
   </energy>
  </scstep>
  <scstep>
   <time name="dav">   23.19   23.22</time>
   <time name="total">   23.80   23.83</time>
   <energy>
    <i name="e_fr_energy">   -331.11070418 </i>
    <i name="e_wo_entrp">   -331.09322169 </i>
    <i name="e_0_energy">   -331.10487668 </i>
   </energy>
  </scstep>
  <scstep>
   <time name="dav">   18.45   18.48</time>
   <time name="total">   18.48   18.51</time>
   <energy>
    <i name="alphaZ">   1304.01640505 </i>
    <i name="ewald"> -11569.82973063 </i>
    <i name="hartreedc">  -2979.69216962 </i>
    <i name="XCdc">   -838.30317633 </i>
    <i name="pawpsdc">  21164.53472773 </i>
    <i name="pawaedc"> -19671.52913551 </i>
    <i name="eentropy">     -0.01750432 </i>
    <i name="bandstr">   -733.85187669 </i>
    <i name="atom">  12993.56182891 </i>
    <i name="e_fr_energy">   -331.11063142 </i>
    <i name="e_wo_entrp">   -331.09312710 </i>
    <i name="e_0_energy">   -331.10479665 </i>
   </energy>
  </scstep>
  <structure>
   <crystal>
    <varray name="basis" >
     <v>      -3.16871148      -3.16460300      -3.16511968 </v>
     <v>       1.58776009       1.60455846      -7.93846568 </v>
     <v>       8.00184901      -8.00301538      -1.57112695 </v>
    </varray>
    <i name="volume">    483.28768380 </i>
    <varray name="rec_basis" >
     <v>      -0.13667352      -0.12627640      -0.05285941 </v>
     <v>       0.04212503       0.06270646      -0.10486905 </v>
     <v>       0.06249013      -0.06244760      -0.00012364 </v>
[...]
       <r>    4.6139    1.0000 </r>
       <r>    4.6804    1.0000 </r>
       <r>    4.6875    1.0000 </r>
       <r>    4.7537    1.0000 </r>
       <r>    4.7871    1.0000 </r>
       <r>    4.8582    1.0000 </r>
       <r>    4.9114    1.0000 </r>
       <r>    4.9643    1.0000 </r>
       <r>    5.0062    1.0000 </r>
       <r>    5.0833    1.0000 </r>
       <r>    5.1489    1.0000 </r>
       <r>    5.1758    1.0000 </r>
       <r>    5.2111    1.0000 </r>
       <r>    5.3062    1.0000 </r>
       <r>    5.3183    1.0000 </r>
       <r>    5.3765    1.0000 </r>
       <r>    5.4284    1.0000 </r>
       <r>    5.5241    1.0000 </r>
       <r>    5.5291    1.0000 </r>
       <r>    5.5935    1.0000 </r>
       <r>    5.6047    1.0000 </r>
       <r>    5.7069    1.0000 </r>
       <r>    5.7931    1.0000 </r>
       <r>    5.8712    1.0000 </r>
       <r>    5.9150    1.0000 </r>
       <r>    5.9647    1.0000 </r>
       <r>    6.0000    1.0000 </r>
       <r>    6.0683    1.0000 </r>
       <r>    6.1231    1.0001 </r>
       <r>    6.1608    1.0002 </r>
       <r>    6.2258    1.0011 </r>
       <r>    6.2616    1.0024 </r>
       <r>    6.2922    1.0044 </r>
       <r>    6.3333    1.0089 </r>
       <r>    6.4025    1.0221 </r>
       <r>    6.4667    1.0347 </r>
       <r>    6.5345    1.0205 </r>
       <r>    6.6162    0.8970 </r>
       <r>    6.6737    0.7152 </r>
       <r>    6.7872    0.2559 </r>
       <r>    6.8713    0.0322 </r>
       <r>    6.9132   -0.0168 </r>
       <r>    6.9429   -0.0317 </r>
       <r>    7.0665   -0.0185 </r>
       <r>    7.1801   -0.0031 </r>
       <r>    7.3065   -0.0002 </r>
       <r>    7.3977   -0.0000 </r>
       <r>    7.4715   -0.0000 </r>
       <r>    7.7181   -0.0000 </r>
       <r>    7.7809   -0.0000 </r>
       <r>    7.9209   -0.0000 </r>
       <r>    8.0196   -0.0000 </r>
       <r>    8.1479   -0.0000 </r>
       <r>    8.3385   -0.0000 </r>
       <r>    8.5067   -0.0000 </r>
       <r>    8.6071   -0.0000 </r>
       <r>    8.6744   -0.0000 </r>
       <r>    8.7907   -0.0000 </r>
       <r>    8.8356   -0.0000 </r>
       <r>    8.9312   -0.0000 </r>
       <r>    8.9549   -0.0000 </r>
      </set>
     </set>
    </set>
   </array>
  </eigenvalues>
  <separator name="orbital magnetization" >
   <v name="MAGDIPOLOUT">      0.00000000      0.00000000      0.00000000</v>
  </separator>
  <dos>
   <i name="efermi">      6.72653985 </i>
   <total>
    <array>
     <dimension dim="1">gridpoints</dimension>
     <dimension dim="2">spin</dimension>
     <field>energy</field>
     <field>total</field>
     <field>integrated</field>
     <set>
      <set comment="spin 1">
       <r>   -50.2933     0.0000     0.0000 </r>
       <r>   -50.0856     0.0000     0.0000 </r>
       <r>   -49.8778     0.0000     0.0000 </r>
       <r>   -49.6700     0.0000     0.0000 </r>
       <r>   -49.4622     0.0000     0.0000 </r>
       <r>   -49.2545    -0.0000    -0.0000 </r>
       <r>   -49.0467    -0.0000    -0.0000 </r>
       <r>   -48.8389    -0.0000    -0.0000 </r>
       <r>   -48.6312    -0.0000    -0.0000 </r>
       <r>   -48.4234    -0.0000    -0.0000 </r>
       <r>   -48.2156    -0.0000    -0.0000 </r>
       <r>   -48.0079    -0.0029    -0.0006 </r>
       <r>   -47.8001    -0.2058    -0.0434 </r>
       <r>   -47.5923    -0.4923    -0.1456 </r>
       <r>   -47.3845    14.1959     2.8038 </r>
       <r>   -47.1768    33.1529     9.6920 </r>
       <r>   -46.9690    12.1233    12.2109 </r>
       <r>   -46.7612    -0.8736    12.0293 </r>
       <r>   -46.5535    -0.1401    12.0002 </r>
       <r>   -46.3457    -0.0011    12.0000 </r>
       <r>   -46.1379    -0.0000    12.0000 </r>
       <r>   -45.9302    -0.0000    12.0000 </r>
       <r>   -45.7224     0.0000    12.0000 </r>
       <r>   -45.5146     0.0000    12.0000 </r>
       <r>   -45.3069     0.0000    12.0000 </r>
       <r>   -45.0991     0.0000    12.0000 </r>
       <r>   -44.8913     0.0000    12.0000 </r>
       <r>   -44.6835     0.0000    12.0000 </r>
       <r>   -44.4758     0.0000    12.0000 </r>
       <r>   -44.2680     0.0000    12.0000 </r>
       <r>   -44.0602     0.0000    12.0000 </r>
       <r>   -43.8525     0.0000    12.0000 </r>
       <r>   -43.6447     0.0000    12.0000 </r>
       <r>   -43.4369     0.0000    12.0000 </r>
       <r>   -43.2292     0.0000    12.0000 </r>
       <r>   -43.0214     0.0000    12.0000 </r>
       <r>   -42.8136     0.0000    12.0000 </r>
       <r>   -42.6058     0.0000    12.0000 </r>
       <r>   -42.3981     0.0000    12.0000 </r>
       <r>   -42.1903     0.0000    12.0000 </r>
       <r>   -41.9825     0.0000    12.0000 </r>
       <r>   -41.7748     0.0000    12.0000 </r>
       <r>   -41.5670     0.0000    12.0000 </r>
       <r>   -41.3592     0.0000    12.0000 </r>
       <r>   -41.1515     0.0000    12.0000 </r>
       <r>   -40.9437     0.0000    12.0000 </r>
       <r>   -40.7359     0.0000    12.0000 </r>
       <r>   -40.5281     0.0000    12.0000 </r>
       <r>   -40.3204     0.0000    12.0000 </r>
       <r>   -40.1126     0.0000    12.0000 </r>
       <r>   -39.9048     0.0000    12.0000 </r>
       <r>   -39.6971     0.0000    12.0000 </r>
       <r>   -39.4893     0.0000    12.0000 </r>
       <r>   -39.2815     0.0000    12.0000 </r>
       <r>   -39.0738     0.0000    12.0000 </r>
       <r>   -38.8660     0.0000    12.0000 </r>
       <r>   -38.6582     0.0000    12.0000 </r>
       <r>   -38.4505     0.0000    12.0000 </r>
       <r>   -38.2427     0.0000    12.0000 </r>
       <r>   -38.0349     0.0000    12.0000 </r>
       <r>   -37.8271     0.0000    12.0000 </r>
       <r>   -37.6194     0.0000    12.0000 </r>
       <r>   -37.4116     0.0000    12.0000 </r>
       <r>   -37.2038     0.0000    12.0000 </r>
       <r>   -36.9961     0.0000    12.0000 </r>
       <r>   -36.7883     0.0000    12.0000 </r>
       <r>   -36.5805     0.0000    12.0000 </r>
       <r>   -36.3728     0.0000    12.0000 </r>
       <r>   -36.1650     0.0000    12.0000 </r>
       <r>   -35.9572     0.0000    12.0000 </r>
       <r>   -35.7494     0.0000    12.0000 </r>
       <r>   -35.5417     0.0000    12.0000 </r>
       <r>   -35.3339     0.0000    12.0000 </r>
       <r>   -35.1261     0.0000    12.0000 </r>
       <r>   -34.9184     0.0000    12.0000 </r>
       <r>   -34.7106     0.0000    12.0000 </r>
       <r>   -34.5028     0.0000    12.0000 </r>
       <r>   -34.2951     0.0000    12.0000 </r>
       <r>   -34.0873     0.0000    12.0000 </r>
       <r>   -33.8795     0.0000    12.0000 </r>
       <r>   -33.6718     0.0000    12.0000 </r>
       <r>   -33.4640     0.0000    12.0000 </r>
       <r>   -33.2562     0.0000    12.0000 </r>
       <r>   -33.0484     0.0000    12.0000 </r>
       <r>   -32.8407     0.0000    12.0000 </r>
       <r>   -32.6329     0.0000    12.0000 </r>
       <r>   -32.4251     0.0000    12.0000 </r>
       <r>   -32.2174     0.0000    12.0000 </r>
       <r>   -32.0096     0.0000    12.0000 </r>
       <r>   -31.8018     0.0000    12.0000 </r>
       <r>   -31.5941     0.0000    12.0000 </r>
       <r>   -31.3863     0.0000    12.0000 </r>
       <r>   -31.1785     0.0000    12.0000 </r>
       <r>   -30.9707     0.0000    12.0000 </r>
       <r>   -30.7630     0.0000    12.0000 </r>
       <r>   -30.5552     0.0000    12.0000 </r>
       <r>   -30.3474     0.0000    12.0000 </r>
       <r>   -30.1397     0.0000    12.0000 </r>
       <r>   -29.9319     0.0000    12.0000 </r>
       <r>   -29.7241     0.0000    12.0000 </r>
       <r>   -29.5164     0.0000    12.0000 </r>
       <r>   -29.3086     0.0000    12.0000 </r>
       <r>   -29.1008     0.0000    12.0000 </r>
       <r>   -28.8931     0.0000    12.0000 </r>
       <r>   -28.6853     0.0000    12.0000 </r>
       <r>   -28.4775     0.0000    12.0000 </r>
       <r>   -28.2697     0.0000    12.0000 </r>
       <r>   -28.0620     0.0000    12.0000 </r>
       <r>   -27.8542     0.0000    12.0000 </r>
       <r>   -27.6464     0.0000    12.0000 </r>
       <r>   -27.4387     0.0000    12.0000 </r>
       <r>   -27.2309     0.0000    12.0000 </r>
       <r>   -27.0231     0.0000    12.0000 </r>
       <r>   -26.8154     0.0000    12.0000 </r>
       <r>   -26.6076     0.0000    12.0000 </r>
       <r>   -26.3998     0.0000    12.0000 </r>
       <r>   -26.1920     0.0000    12.0000 </r>
       <r>   -25.9843    -0.0000    12.0000 </r>
       <r>   -25.7765    -0.0000    12.0000 </r>
       <r>   -25.5687    -0.0000    12.0000 </r>
       <r>   -25.3610    -0.0000    12.0000 </r>
       <r>   -25.1532    -0.0000    12.0000 </r>
       <r>   -24.9454    -0.0000    12.0000 </r>
       <r>   -24.7377    -0.0009    11.9998 </r>
       <r>   -24.5299    -0.0511    11.9892 </r>
       <r>   -24.3221    -0.0015    11.9889 </r>
       <r>   -24.1144     2.3555    12.4783 </r>
       <r>   -23.9066     7.6037    14.0581 </r>
       <r>   -23.6988    21.3784    18.4999 </r>
       <r>   -23.4910    43.9874    27.6391 </r>
       <r>   -23.2833    56.9193    39.4652 </r>
       <r>   -23.0755    27.4840    45.1756 </r>
       <r>   -22.8677    11.4616    47.5569 </r>
       <r>   -22.6600     2.2266    48.0195 </r>
       <r>   -22.4522    -0.0407    48.0111 </r>
       <r>   -22.2444    -0.0523    48.0002 </r>
       <r>   -22.0367    -0.0011    48.0000 </r>
       <r>   -21.8289    -0.0000    48.0000 </r>
       <r>   -21.6211    -0.0000    48.0000 </r>
       <r>   -21.4133    -0.0000    48.0000 </r>
       <r>   -21.2056     0.0000    48.0000 </r>
       <r>   -20.9978     0.0000    48.0000 </r>
       <r>   -20.7900     0.0000    48.0000 </r>
       <r>   -20.5823     0.0000    48.0000 </r>
       <r>   -20.3745     0.0000    48.0000 </r>
       <r>   -20.1667     0.0000    48.0000 </r>
       <r>   -19.9590     0.0000    48.0000 </r>
       <r>   -19.7512     0.0000    48.0000 </r>
       <r>   -19.5434     0.0000    48.0000 </r>
       <r>   -19.3356     0.0000    48.0000 </r>
       <r>   -19.1279     0.0000    48.0000 </r>
       <r>   -18.9201     0.0000    48.0000 </r>
       <r>   -18.7123     0.0000    48.0000 </r>
       <r>   -18.5046     0.0000    48.0000 </r>
       <r>   -18.2968     0.0000    48.0000 </r>
       <r>   -18.0890     0.0000    48.0000 </r>
       <r>   -17.8813     0.0000    48.0000 </r>
       <r>   -17.6735     0.0000    48.0000 </r>
       <r>   -17.4657     0.0000    48.0000 </r>
       <r>   -17.2580     0.0000    48.0000 </r>
       <r>   -17.0502     0.0000    48.0000 </r>
       <r>   -16.8424     0.0000    48.0000 </r>
       <r>   -16.6346     0.0000    48.0000 </r>
       <r>   -16.4269     0.0000    48.0000 </r>
       <r>   -16.2191     0.0000    48.0000 </r>
       <r>   -16.0113     0.0000    48.0000 </r>
       <r>   -15.8036     0.0000    48.0000 </r>
       <r>   -15.5958     0.0000    48.0000 </r>
       <r>   -15.3880     0.0000    48.0000 </r>
       <r>   -15.1803     0.0000    48.0000 </r>
       <r>   -14.9725     0.0000    48.0000 </r>
       <r>   -14.7647     0.0000    48.0000 </r>
       <r>   -14.5569     0.0000    48.0000 </r>
       <r>   -14.3492     0.0000    48.0000 </r>
       <r>   -14.1414     0.0000    48.0000 </r>
       <r>   -13.9336     0.0000    48.0000 </r>
       <r>   -13.7259     0.0000    48.0000 </r>
       <r>   -13.5181     0.0000    48.0000 </r>
       <r>   -13.3103     0.0000    48.0000 </r>
       <r>   -13.1026     0.0000    48.0000 </r>
       <r>   -12.8948     0.0000    48.0000 </r>
       <r>   -12.6870     0.0000    48.0000 </r>
       <r>   -12.4793     0.0000    48.0000 </r>
       <r>   -12.2715     0.0000    48.0000 </r>
       <r>   -12.0637     0.0000    48.0000 </r>
       <r>   -11.8559     0.0000    48.0000 </r>
       <r>   -11.6482     0.0000    48.0000 </r>
       <r>   -11.4404     0.0000    48.0000 </r>
       <r>   -11.2326     0.0000    48.0000 </r>
       <r>   -11.0249     0.0000    48.0000 </r>
       <r>   -10.8171     0.0000    48.0000 </r>
       <r>   -10.6093     0.0000    48.0000 </r>
       <r>   -10.4016     0.0000    48.0000 </r>
       <r>   -10.1938     0.0000    48.0000 </r>
       <r>    -9.9860     0.0000    48.0000 </r>
       <r>    -9.7782     0.0000    48.0000 </r>
       <r>    -9.5705     0.0000    48.0000 </r>
       <r>    -9.3627     0.0000    48.0000 </r>
       <r>    -9.1549     0.0000    48.0000 </r>
       <r>    -8.9472     0.0000    48.0000 </r>
       <r>    -8.7394     0.0000    48.0000 </r>
       <r>    -8.5316     0.0000    48.0000 </r>
       <r>    -8.3239     0.0000    48.0000 </r>
       <r>    -8.1161     0.0000    48.0000 </r>
       <r>    -7.9083     0.0000    48.0000 </r>
       <r>    -7.7006     0.0000    48.0000 </r>
       <r>    -7.4928     0.0000    48.0000 </r>
       <r>    -7.2850     0.0000    48.0000 </r>
       <r>    -7.0772     0.0000    48.0000 </r>
       <r>    -6.8695     0.0000    48.0000 </r>
       <r>    -6.6617     0.0000    48.0000 </r>
       <r>    -6.4539     0.0000    48.0000 </r>
       <r>    -6.2462     0.0000    48.0000 </r>
       <r>    -6.0384     0.0000    48.0000 </r>
       <r>    -5.8306     0.0000    48.0000 </r>
       <r>    -5.6229     0.0000    48.0000 </r>
       <r>    -5.4151     0.0000    48.0000 </r>
       <r>    -5.2073     0.0000    48.0000 </r>
       <r>    -4.9995     0.0000    48.0000 </r>
       <r>    -4.7918     0.0000    48.0000 </r>
       <r>    -4.5840     0.0000    48.0000 </r>
       <r>    -4.3762     0.0000    48.0000 </r>
       <r>    -4.1685     0.0000    48.0000 </r>
       <r>    -3.9607     0.0000    48.0000 </r>
       <r>    -3.7529     0.0000    48.0000 </r>
       <r>    -3.5452     0.0000    48.0000 </r>
       <r>    -3.3374     0.0000    48.0000 </r>
       <r>    -3.1296     0.0000    48.0000 </r>
       <r>    -2.9219     0.0000    48.0000 </r>
       <r>    -2.7141     0.0000    48.0000 </r>
       <r>    -2.5063     0.0000    48.0000 </r>
       <r>    -2.2985    -0.0000    48.0000 </r>
       <r>    -2.0908    -0.0000    48.0000 </r>
       <r>    -1.8830    -0.0000    48.0000 </r>
       <r>    -1.6752    -0.0000    48.0000 </r>
       <r>    -1.4675    -0.0000    48.0000 </r>
       <r>    -1.2597    -0.0000    48.0000 </r>
       <r>    -1.0519    -0.0007    47.9999 </r>
       <r>    -0.8442    -0.0117    47.9974 </r>
       <r>    -0.6364     0.0544    48.0087 </r>
       <r>    -0.4286     0.4834    48.1092 </r>
       <r>    -0.2208     1.1388    48.3458 </r>
       <r>    -0.0131     1.8747    48.7353 </r>
       <r>     0.1947     1.7208    49.0928 </r>
       <r>     0.4025     1.7570    49.4579 </r>
       <r>     0.6102     2.7538    50.0300 </r>
       <r>     0.8180     3.2164    50.6983 </r>
       <r>     1.0258     3.0299    51.3278 </r>
       <r>     1.2335     3.1291    51.9779 </r>
       <r>     1.4413     4.5067    52.9143 </r>
       <r>     1.6491     3.8234    53.7087 </r>
       <r>     1.8569     4.6630    54.6775 </r>
       <r>     2.0646     7.4528    56.2260 </r>
       <r>     2.2724    10.0379    58.3116 </r>
       <r>     2.4802    14.6902    61.3637 </r>
       <r>     2.6879    19.1929    65.3514 </r>
       <r>     2.8957    22.3684    69.9989 </r>
       <r>     3.1035    26.3417    75.4719 </r>
       <r>     3.3112    30.2402    81.7549 </r>
       <r>     3.5190    28.6258    87.7025 </r>
       <r>     3.7268    28.2046    93.5625 </r>
       <r>     3.9345    29.0060    99.5891 </r>
       <r>     4.1423    28.5187   105.5144 </r>
       <r>     4.3501    24.5613   110.6175 </r>
       <r>     4.5579    27.4541   116.3217 </r>
       <r>     4.7656    35.1851   123.6321 </r>
       <r>     4.9734    39.9476   131.9320 </r>
       <r>     5.1812    40.3843   140.3226 </r>
       <r>     5.3889    36.8120   147.9710 </r>
       <r>     5.5967    36.3044   155.5139 </r>
       <r>     5.8045    37.6886   163.3445 </r>
       <r>     6.0122    39.4481   171.5406 </r>
       <r>     6.2200    40.9812   180.0553 </r>
       <r>     6.4278    38.4169   188.0371 </r>
       <r>     6.6356    34.0904   195.1201 </r>
       <r>     6.8433    30.4228   201.4410 </r>
       <r>     7.0511    24.6674   206.5661 </r>
       <r>     7.2589    19.9868   210.7188 </r>
       <r>     7.4666    18.1330   214.4863 </r>
       <r>     7.6744    16.5262   217.9199 </r>
       <r>     7.8822    16.5702   221.3627 </r>
       <r>     8.0899    17.4427   224.9868 </r>
       <r>     8.2977    21.3260   229.4176 </r>
       <r>     8.5055    22.1614   234.0221 </r>
       <r>     8.7132    15.7762   237.2999 </r>
       <r>     8.9210     8.9893   239.1676 </r>
       <r>     9.1288     3.5754   239.9105 </r>
       <r>     9.3366     0.4984   240.0140 </r>
       <r>     9.5443    -0.0581   240.0020 </r>
       <r>     9.7521    -0.0094   240.0000 </r>
       <r>     9.9599    -0.0001   240.0000 </r>
       <r>    10.1676    -0.0000   240.0000 </r>
       <r>    10.3754    -0.0000   240.0000 </r>
       <r>    10.5832    -0.0000   240.0000 </r>
       <r>    10.7909     0.0000   240.0000 </r>
       <r>    10.9987     0.0000   240.0000 </r>
       <r>    11.2065     0.0000   240.0000 </r>
       <r>    11.4143     0.0000   240.0000 </r>
       <r>    11.6220     0.0000   240.0000 </r>
       <r>    11.8298     0.0000   240.0000 </r>
       <r>    12.0376     0.0000   240.0000 </r>
      </set>
     </set>
    </array>
   </total>
  </dos>
 </calculation>
 <structure name="finalpos" >
  <crystal>
   <varray name="basis" >
    <v>      -3.13102619      -3.14959567      -3.14713781 </v>
    <v>       1.60633360       1.61825547      -7.95206486 </v>
    <v>       8.02262979      -8.05755956      -1.58544067 </v>
   </varray>
   <i name="volume">    483.15513760 </i>
   <varray name="rec_basis" >
    <v>      -0.13792647      -0.12677031      -0.05365936 </v>
    <v>       0.04214951       0.06253142      -0.10451399 </v>
    <v>       0.06237885      -0.06199557      -0.00001552 </v>
   </varray>
  </crystal>
  <varray name="positions" >
   <v>       0.95441582       0.93575728       0.39405624 </v>
   <v>       0.62760272       0.26777854       0.40096443 </v>
   <v>       0.48944732      -0.00318428      -0.00214918 </v>
   <v>      -0.02136995       0.01068731       0.00290136 </v>
   <v>       0.08863617       0.20801601       0.80479706 </v>
   <v>       0.03106114       0.06837747       0.59720737 </v>
   <v>       0.89966090       0.79906817       0.20135706 </v>
   <v>       0.80212967       0.59373942       0.39962293 </v>
   <v>       0.72375732       0.46616657       0.19794873 </v>
   <v>       0.36050120       0.72855587       0.59968052 </v>
   <v>       0.12646503       0.27278944       0.39927162 </v>
   <v>       0.84455608       0.65028375       0.00184914 </v>
   <v>       0.92220462       0.86877914       0.80257883 </v>
   <v>       0.57795993       0.12986912       0.20127781 </v>
   <v>       0.40541341       0.79426768       0.19849218 </v>
   <v>       0.43038653       0.85651515       0.79716519 </v>
   <v>       0.29745589       0.60297752       0.40386616 </v>
   <v>       0.85379536       0.73379927       0.59800482 </v>
   <v>       0.46149378       0.92857948       0.40803873 </v>
   <v>       0.32972040       0.33847672      -0.00259136 </v>
   <v>       0.24815450       0.53779449       0.79477798 </v>
   <v>       0.19072945       0.39249352       0.59954023 </v>
   <v>       0.07425250       0.15110596       0.19977953 </v>
   <v>       0.74782799       0.52505056       0.80149080 </v>
   <v>       0.68643598       0.40837829       0.60324038 </v>
   <v>       0.59218045       0.19935888       0.79098886 </v>
   <v>       0.53085040       0.06671551       0.60272529 </v>
   <v>       0.33497430       0.66184407       0.00010296 </v>
   <v>       0.22263442       0.47262578       0.20301436 </v>
  </varray>
 </structure>
</modeling>
