SQS with 1 vacancy for VFE and VRV      
           1
    -3.190000   -3.190000   -3.190000
     1.595000    1.595000   -7.975000
     7.975000   -7.975000   -1.595000
   Nb   Mo   Ta   Ti   W 
   6   5   6   6   6
Direct configuration=     1
   0.96666667  0.93333333  0.40000000
   0.63333333  0.26666667  0.40000000
   0.50000000  0.00000000  0.00000000
   0.00000000  0.00000000  0.00000000
   0.10000000  0.20000000  0.80000000
   0.03333333  0.06666667  0.60000000
   0.90000000  0.80000000  0.20000000
   0.80000000  0.60000000  0.40000000
   0.73333333  0.46666667  0.20000000
   0.36666667  0.73333333  0.60000000
   0.13333333  0.26666667  0.40000000
   0.83333333  0.66666667  0.00000000
   0.93333333  0.86666667  0.80000000
   0.56666667  0.13333333  0.20000000
   0.40000000  0.80000000  0.20000000
   0.43333333  0.86666667  0.80000000
   0.30000000  0.60000000  0.40000000
   0.86666667  0.73333333  0.60000000
   0.46666667  0.93333333  0.40000000
   0.16666667  0.33333333  0.00000000
   0.26666667  0.53333333  0.80000000
   0.20000000  0.40000000  0.60000000
   0.06666667  0.13333333  0.20000000
   0.76666667  0.53333333  0.80000000
   0.70000000  0.40000000  0.60000000
   0.60000000  0.20000000  0.80000000
   0.53333333  0.06666667  0.60000000
   0.33333333  0.66666667  0.00000000
   0.23333333  0.46666667  0.20000000
SQS with 1 vacancy for VFE and VRV      
           1
    -3.148585   -3.146163   -3.145947
     1.577916    1.585631   -7.881040
     7.914116   -7.912805   -1.568231
   Nb   Mo   Ta   Ti   W 
   6   5   6   6   6
Direct configuration=     2
   0.96267435  0.93398848  0.39776149
   0.63244131  0.26607730  0.40033824
   0.49729075  0.00130184 -0.00071715
  -0.00249197  0.00228098  0.00119433
   0.09808255  0.20440816  0.79932180
   0.03504538  0.06773900  0.59857409
   0.90039483  0.79908838  0.20201789
   0.80335709  0.59545859  0.39910579
   0.73104477  0.46663022  0.19903745
   0.36893307  0.72994494  0.60042831
   0.13294574  0.26992930  0.39895269
   0.83574404  0.66427507  0.00173181
   0.93043084  0.86854980  0.80025762
   0.56711029  0.13553654  0.19712404
   0.40398140  0.79607838  0.19808149
   0.43721905  0.86133091  0.79808688
   0.30071184  0.60117082  0.40129373
   0.86325182  0.73376351  0.59870084
   0.46564039  0.93219394  0.40345070
   0.16854686  0.33520421  0.00091666
   0.26695170  0.53473755  0.79899569
   0.20015850  0.39652745  0.59985736
   0.06898402  0.13696992  0.20340938
   0.76721493  0.53009240  0.79982765
   0.69605628  0.40580828  0.60253650
   0.59912573  0.20100338  0.79732280
   0.53641571  0.06778229  0.60165067
   0.33613507  0.65989247  0.00097750
   0.22993697  0.46890255  0.19976373
SQS with 1 vacancy for VFE and VRV      
           1
    -3.155396   -3.153373   -3.153192
     1.580726    1.587172   -7.896492
     7.924129   -7.923033   -1.572633
   Nb   Mo   Ta   Ti   W 
   6   5   6   6   6
Direct configuration=     3
   0.96334004  0.93388015  0.39813254
   0.63259010  0.26617525  0.40028225
   0.49774217  0.00108557 -0.00059833
  -0.00207730  0.00190140  0.00099626
   0.09840124  0.20367526  0.79943389
   0.03475996  0.06756097  0.59881028
   0.90032892  0.79923949  0.20168352
   0.80279870  0.59621400  0.39925428
   0.73142642  0.46663657  0.19919704
   0.36855601  0.73050830  0.60035754
   0.13300974  0.26938696  0.39912601
   0.83534249  0.66467234  0.00144492
   0.93091419  0.86823662  0.80021485
   0.56703627  0.13517082  0.19760051
   0.40331896  0.79673096  0.19839968
   0.43657289  0.86221866  0.79840429
   0.30059270  0.60097578  0.40107920
   0.86382116  0.73369235  0.59891621
   0.46581120  0.93238261  0.40287891
   0.16823285  0.33489281  0.00076454
   0.26690401  0.53450426  0.79916202
   0.20013293  0.39710499  0.59988128
   0.06859633  0.13636426  0.20284396
   0.76712433  0.53063142  0.79985647
   0.69671190  0.40484179  0.60211574
   0.59927164  0.20083718  0.79776645
   0.53590137  0.06759629  0.60137692
   0.33566950  0.66101877  0.00081597
   0.23050263  0.46853084  0.19980280
SQS with 1 vacancy for VFE and VRV      
           1
    -3.162055   -3.158549   -3.158264
     1.584956    1.598303   -7.918616
     7.969397   -7.969392   -1.570372
   Nb   Mo   Ta   Ti   W 
   6   5   6   6   6
Direct configuration=     4
   0.96010024  0.93444294  0.39641484
   0.63183934  0.26582854  0.40045077
   0.49561937  0.00186055 -0.00141668
  -0.00451356  0.00451144  0.00205181
   0.09715644  0.20663134  0.79907362
   0.03630190  0.06839558  0.59771985
   0.90064347  0.79866435  0.20302544
   0.80514000  0.59311272  0.39871269
   0.72976654  0.46612048  0.19822512
   0.37017233  0.72793434  0.60067019
   0.13255685  0.27170734  0.39852243
   0.83728344  0.66297483  0.00253108
   0.92932467  0.86950466  0.80039771
   0.56781545  0.13708433  0.19512675
   0.40607934  0.79413551  0.19728329
   0.43873738  0.85831340  0.79725735
   0.30132979  0.60173314  0.40219043
   0.86139649  0.73408849  0.59778009
   0.46501969  0.93143458  0.40544925
   0.17021607  0.33635500  0.00148768
   0.26686080  0.53546537  0.79832444
   0.19990955  0.39474090  0.59972790
   0.07040688  0.13932048  0.20553822
   0.76755293  0.52804228  0.80009272
   0.69381949  0.40898324  0.60377894
   0.59842700  0.20189911  0.79598320
   0.53809398  0.06833213  0.60252568
   0.33827355  0.65504502  0.00136940
   0.22800393  0.47000458  0.19970584
SQS with 1 vacancy for VFE and VRV      
           1
    -3.165850   -3.161498   -3.161154
     1.587366    1.604646   -7.931223
     7.995192   -7.995808   -1.569083
   Nb   Mo   Ta   Ti   W 
   6   5   6   6   6
Direct configuration=     5
   0.95825732  0.93476124  0.39544164
   0.63141221  0.26563169  0.40054612
   0.49441211  0.00230007 -0.00188024
  -0.00589778  0.00599459  0.00265034
   0.09644971  0.20831008  0.79887016
   0.03717903  0.06886893  0.59710234
   0.90082245  0.79833864  0.20378558
   0.80647011  0.59135091  0.39840521
   0.72882194  0.46582658  0.19767426
   0.37109054  0.72647262  0.60084677
   0.13230018  0.27302487  0.39818101
   0.83838690  0.66201149  0.00314614
   0.92842122  0.87022496  0.80050153
   0.56825889  0.13816949  0.19372575
   0.40764790  0.79266063  0.19665031
   0.43996638  0.85609450  0.79660670
   0.30174967  0.60216414  0.40282022
   0.86001728  0.73431259  0.59713638
   0.46456972  0.93089789  0.40690520
   0.17134495  0.33718611  0.00189783
   0.26683645  0.53601069  0.79785015
   0.19978137  0.39339798  0.59964041
   0.07143876  0.14100160  0.20706547
   0.76779556  0.52657183  0.80022596
   0.69217669  0.41133664  0.60472209
   0.59794662  0.20250099  0.79497311
   0.53934173  0.06875100  0.60317680
   0.33975205  0.65165243  0.00168162
   0.22658338  0.47084149  0.19965114
SQS with 1 vacancy for VFE and VRV      
           1
    -3.168711   -3.164603   -3.165120
     1.587760    1.604558   -7.938466
     8.001849   -8.003015   -1.571127
   Nb   Mo   Ta   Ti   W 
   6   5   6   6   6
Direct configuration=     6
   0.95803425  0.93471039  0.39543834
   0.63128828  0.26599154  0.40039101
   0.49450575  0.00140493 -0.00250374
  -0.00669416  0.00691223  0.00297269
   0.09710372  0.20729775  0.79896321
   0.03753311  0.06894371  0.59712803
   0.90099847  0.79848604  0.20323526
   0.80602910  0.59196512  0.39848172
   0.72886297  0.46548155  0.19765916
   0.37058852  0.72684956  0.60078867
   0.13198239  0.27287379  0.39859537
   0.83815062  0.66253409  0.00271437
   0.92882284  0.87035607  0.80067434
   0.56917261  0.13840810  0.19342696
   0.40712969  0.79307813  0.19707878
   0.43909596  0.85607789  0.79714496
   0.30213120  0.60204929  0.40282177
   0.86018918  0.73440576  0.59698195
   0.46452732  0.93079429  0.40680545
   0.17282383  0.33730973  0.00194948
   0.26601739  0.53584529  0.79759325
   0.19920170  0.39372416  0.59934390
   0.07178807  0.14128423  0.20752487
   0.76768004  0.52695954  0.80070178
   0.69246222  0.41043278  0.60430520
   0.59799892  0.20242050  0.79501525
   0.53918700  0.06859666  0.60315263
   0.34011214  0.65090076  0.00151073
   0.22661020  0.47057280  0.20010461
SQS with 1 vacancy for VFE and VRV      
           1
    -3.172672   -3.168901   -3.170608
     1.588305    1.604437   -7.948491
     8.011064   -8.012991   -1.573956
   Nb   Mo   Ta   Ti   W 
   6   5   6   6   6
Direct configuration=     7
   0.95772582  0.93464010  0.39543379
   0.63111677  0.26648927  0.40017649
   0.49463576  0.00016691 -0.00336597
  -0.00779585  0.00818149  0.00341846
   0.09800854  0.20589752  0.79909191
   0.03802268  0.06904708  0.59716353
   0.90124186  0.79868993  0.20247419
   0.80541898  0.59281469  0.39858752
   0.72891987  0.46500435  0.19763830
   0.36989417  0.72737096  0.60070832
   0.13154296  0.27266485  0.39916841
   0.83782371  0.66325694  0.00211724
   0.92937809  0.87053733  0.80091332
   0.57043602  0.13873802  0.19301372
   0.40641287  0.79365562  0.19767131
   0.43789230  0.85605501  0.79788936
   0.30265881  0.60189038  0.40282391
   0.86042687  0.73453460  0.59676838
   0.46446876  0.93065100  0.40666750
   0.17486873  0.33748048  0.00202087
   0.26488494  0.53561666  0.79723800
   0.19840004  0.39417540  0.59893384
   0.07227088  0.14167505  0.20816017
   0.76752005  0.52749576  0.80135980
   0.69285752  0.40918265  0.60372870
   0.59807128  0.20230915  0.79507353
   0.53897313  0.06838323  0.60311921
   0.34061045  0.64986110  0.00127443
   0.22664734  0.47020115  0.20073175
SQS with 1 vacancy for VFE and VRV      
           1
    -3.168238   -3.164819   -3.167629
     1.585820    1.600598   -7.938983
     8.001287   -8.003160   -1.573408
   Nb   Mo   Ta   Ti   W 
   6   5   6   6   6
Direct configuration=     8
   0.95746565  0.93463641  0.39538155
   0.63104724  0.26669989  0.40010745
   0.49465258 -0.00054144 -0.00375404
  -0.00859745  0.00903156  0.00372465
   0.09840642  0.20526074  0.79915480
   0.03820482  0.06902807  0.59717919
   0.90137845  0.79881865  0.20202583
   0.80508722  0.59325753  0.39863343
   0.72890917  0.46489104  0.19765115
   0.36959831  0.72757162  0.60070438
   0.13129378  0.27260185  0.39948276
   0.83776355  0.66353987  0.00184808
   0.92935715  0.87072920  0.80100535
   0.57123973  0.13891481  0.19268076
   0.40611360  0.79386905  0.19789604
   0.43737270  0.85591959  0.79821207
   0.30284133  0.60191167  0.40279372
   0.86041485  0.73463034  0.59668885
   0.46443102  0.93061127  0.40660672
   0.17656731  0.33762386  0.00205631
   0.26416883  0.53547216  0.79695758
   0.19791785  0.39438019  0.59865733
   0.07277236  0.14192946  0.20865798
   0.76733794  0.52763287  0.80169235
   0.69298204  0.40861649  0.60352204
   0.59819516  0.20213418  0.79501380
   0.53897027  0.06824261  0.60314260
   0.34091156  0.64917713  0.00119520
   0.22652986  0.47007600  0.20108207
SQS with 1 vacancy for VFE and VRV      
           1
    -3.163583   -3.160535   -3.164501
     1.583210    1.596567   -7.929002
     7.991023   -7.992839   -1.572833
   Nb   Mo   Ta   Ti   W 
   6   5   6   6   6
Direct configuration=     9
   0.95719219  0.93463259  0.39532664
   0.63097410  0.26692132  0.40003486
   0.49467054 -0.00128600 -0.00416187
  -0.00944036  0.00992521  0.00404641
   0.09882485  0.20459129  0.79922094
   0.03839628  0.06900807  0.59719566
   0.90152200  0.79895402  0.20155456
   0.80473834  0.59372309  0.39868165
   0.72889797  0.46477194  0.19766465
   0.36928726  0.72778260  0.60070023
   0.13103186  0.27253560  0.39981318
   0.83770025  0.66383734  0.00156515
   0.92933508  0.87093088  0.80110206
   0.57208450  0.13910059  0.19233076
   0.40579893  0.79409342  0.19813224
   0.43682656  0.85577725  0.79855129
   0.30303317  0.60193403  0.40276198
   0.86040219  0.73473099  0.59660524
   0.46439136  0.93056952  0.40654284
   0.17835270  0.33777433  0.00209351
   0.26341618  0.53532041  0.79666286
   0.19741095  0.39459559  0.59836669
   0.07329937  0.14219675  0.20918118
   0.76714646  0.52777697  0.80204188
   0.69311314  0.40802136  0.60330488
   0.59832544  0.20195023  0.79495103
   0.53896732  0.06809478  0.60316720
   0.34122831  0.64845810  0.00111198
   0.22640640  0.46994440  0.20145030
SQS with 1 vacancy for VFE and VRV      
           1
    -3.162840   -3.160568   -3.165248
     1.583702    1.595027   -7.930182
     7.992620   -7.994476   -1.575126
   Nb   Mo   Ta   Ti   W 
   6   5   6   6   6
Direct configuration=    10
   0.95695516  0.93471719  0.39525771
   0.63100004  0.26689124  0.40006887
   0.49452281 -0.00149949 -0.00412129
  -0.01012685  0.01062702  0.00423262
   0.09876710  0.20458710  0.79926154
   0.03835191  0.06884697  0.59719422
   0.90153794  0.79906797  0.20135136
   0.80458421  0.59390044  0.39869495
   0.72888940  0.46489584  0.19766679
   0.36926277  0.72777619  0.60074504
   0.13098818  0.27254546  0.39994250
   0.83795042  0.66366661  0.00154829
   0.92889904  0.87105092  0.80108373
   0.57257141  0.13915002  0.19205502
   0.40578509  0.79409791  0.19810050
   0.43679171  0.85555166  0.79853283
   0.30288969  0.60210275  0.40270187
   0.86021456  0.73477503  0.59662620
   0.46435246  0.93063150  0.40650534
   0.18008037  0.33787051  0.00207880
   0.26298151  0.53519925  0.79641446
   0.19715400  0.39462692  0.59819234
   0.07388237  0.14235825  0.20955621
   0.76690658  0.52748756  0.80218524
   0.69300308  0.40799968  0.60336752
   0.59844757  0.20177928  0.79490253
   0.53905211  0.06799501  0.60317209
   0.34147127  0.64796071  0.00111837
   0.22616741  0.47000716  0.20156434
SQS with 1 vacancy for VFE and VRV      
           1
    -3.160611   -3.160668   -3.167488
     1.585180    1.590407   -7.933723
     7.997412   -7.999389   -1.582007
   Nb   Mo   Ta   Ti   W 
   6   5   6   6   6
Direct configuration=    11
   0.95624399  0.93497112  0.39505096
   0.63107789  0.26680097  0.40017090
   0.49407971 -0.00213989 -0.00399947
  -0.01218690  0.01273245  0.00479094
   0.09859382  0.20457452  0.79938332
   0.03821889  0.06836373  0.59719000
   0.90158577  0.79940993  0.20074185
   0.80412169  0.59443252  0.39873477
   0.72886362  0.46526754  0.19767314
   0.36918931  0.72775695  0.60087946
   0.13085708  0.27257495  0.40033038
   0.83870111  0.66315437  0.00149775
   0.92759078  0.87141115  0.80102877
   0.57403230  0.13929835  0.19122789
   0.40574359  0.79411141  0.19800529
   0.43668730  0.85487495  0.79847753
   0.30245913  0.60260897  0.40252154
   0.85965162  0.73490719  0.59668907
   0.46423573  0.93081747  0.40639285
   0.18526364  0.33815849  0.00203436
   0.26167756  0.53483609  0.79566954
   0.19638314  0.39472111  0.59766943
   0.07563126  0.14284228  0.21068090
   0.76618701  0.52661937  0.80261539
   0.69267289  0.40793463  0.60355543
   0.59881409  0.20126643  0.79475711
   0.53930654  0.06769568  0.60318680
   0.34220047  0.64646853  0.00113772
   0.22545033  0.47019542  0.20190640
SQS with 1 vacancy for VFE and VRV      
           1
    -3.156151   -3.160869   -3.171968
     1.588135    1.581167   -7.940804
     8.006996   -8.009214   -1.595769
   Nb   Mo   Ta   Ti   W 
   6   5   6   6   6
Direct configuration=    12
   0.95482124  0.93547962  0.39463773
   0.63123364  0.26662028  0.40037487
   0.49319399 -0.00342037 -0.00375534
  -0.01631050  0.01694336  0.00590590
   0.09824715  0.20454932  0.79962679
   0.03795336  0.06739747  0.59718195
   0.90168144  0.80009448  0.19952329
   0.80319587  0.59549676  0.39881410
   0.72881163  0.46601084  0.19768555
   0.36904228  0.72771835  0.60114816
   0.13059456  0.27263354  0.40110568
   0.84020335  0.66212960  0.00139691
   0.92497343  0.87213242  0.80091902
   0.57695497  0.13959503  0.18957410
   0.40566060  0.79413853  0.19781500
   0.43647924  0.85352185  0.79836756
   0.30159741  0.60362177  0.40216082
   0.85852535  0.73517177  0.59681479
   0.46400210  0.93118957  0.40616789
   0.19563168  0.33873108  0.00194381
   0.25907011  0.53411163  0.79418126
   0.19484138  0.39491060  0.59662438
   0.07912836  0.14380769  0.21292806
   0.76474833  0.52488317  0.80347603
   0.69201234  0.40780454  0.60393116
   0.59954793  0.20024082  0.79446672
   0.53981582  0.06709693  0.60321634
   0.34366080  0.64348411  0.00117731
   0.22401549  0.47057194  0.20259017
SQS with 1 vacancy for VFE and VRV      
           1
    -3.157683   -3.160800   -3.170429
     1.587120    1.584340   -7.938371
     8.003704   -8.005839   -1.591043
   Nb   Mo   Ta   Ti   W 
   6   5   6   6   6
Direct configuration=    13
   0.95531018  0.93530453  0.39477947
   0.63118010  0.26668244  0.40030487
   0.49349786 -0.00298079 -0.00383951
  -0.01489180  0.01549704  0.00552410
   0.09836630  0.20455800  0.79954323
   0.03804421  0.06772919  0.59718443
   0.90164856  0.79985894  0.19994150
   0.80351440  0.59513117  0.39878707
   0.72882978  0.46575561  0.19768148
   0.36909284  0.72773169  0.60105596
   0.13068496  0.27261369  0.40083971
   0.83968678  0.66248176  0.00143139
   0.92587296  0.87188413  0.80095660
   0.57595053  0.13949311  0.19014179
   0.40568908  0.79412912  0.19788027
   0.43655017  0.85398636  0.79840491
   0.30189380  0.60327366  0.40228474
   0.85891245  0.73508072  0.59677162
   0.46408246  0.93106165  0.40624514
   0.19206960  0.33853673  0.00197606
   0.25996537  0.53435918  0.79469136
   0.19537094  0.39484475  0.59698278
   0.07792769  0.14347792  0.21215778
   0.76524215  0.52547936  0.80318020
   0.69223933  0.40784922  0.60380217
   0.59929532  0.20059302  0.79456614
   0.53964061  0.06730265  0.60320610
   0.34315790  0.64450920  0.00116309
   0.22450878  0.47044262  0.20235556
SQS with 1 vacancy for VFE and VRV      
           1
    -3.158088   -3.163018   -3.170339
     1.589289    1.583938   -7.938593
     8.009342   -8.013057   -1.593992
   Nb   Mo   Ta   Ti   W 
   6   5   6   6   6
Direct configuration=    14
   0.95525830  0.93536482  0.39469213
   0.63123445  0.26691122  0.40025207
   0.49298282 -0.00265403 -0.00364442
  -0.01566686  0.01605714  0.00523047
   0.09817863  0.20482101  0.79953300
   0.03792199  0.06758640  0.59724059
   0.90161092  0.79997207  0.20025009
   0.80338141  0.59494645  0.39870938
   0.72879151  0.46623844  0.19791393
   0.36893824  0.72745537  0.60090985
   0.13085838  0.27284877  0.40080019
   0.84016924  0.66168566  0.00155793
   0.92612363  0.87136793  0.80111187
   0.57617505  0.13961342  0.19043160
   0.40604977  0.79398586  0.19766404
   0.43612519  0.85373192  0.79823889
   0.30134116  0.60349057  0.40236690
   0.85851201  0.73486249  0.59692687
   0.46385862  0.93128321  0.40611444
   0.19624282  0.33841794  0.00176071
   0.25954082  0.53436542  0.79450558
   0.19538630  0.39447173  0.59697656
   0.07872932  0.14357066  0.21213968
   0.76432626  0.52485071  0.80313300
   0.69161895  0.40834129  0.60397097
   0.59886198  0.20036878  0.79469425
   0.53902930  0.06725471  0.60316946
   0.34308720  0.64469621  0.00109518
   0.22466591  0.47076053  0.20225481
SQS with 1 vacancy for VFE and VRV      
           1
    -3.159281   -3.169540   -3.170073
     1.595667    1.582755   -7.939245
     8.025924   -8.034286   -1.602668
   Nb   Mo   Ta   Ti   W 
   6   5   6   6   6
Direct configuration=    15
   0.95510588  0.93554210  0.39443543
   0.63139445  0.26758407  0.40009678
   0.49146854 -0.00169335 -0.00307107
  -0.01794502  0.01770407  0.00436753
   0.09762703  0.20559442  0.79950288
   0.03756246  0.06716638  0.59740573
   0.90150006  0.80030468  0.20115695
   0.80299035  0.59440318  0.39848118
   0.72867911  0.46765830  0.19859682
   0.36848361  0.72664270  0.60048065
   0.13136850  0.27354022  0.40068390
   0.84158710  0.65934461  0.00193005
   0.92686016  0.86984991  0.80156836
   0.57683500  0.13996726  0.19128314
   0.40711036  0.79356479  0.19702850
   0.43487562  0.85298346  0.79775124
   0.29971637  0.60412816  0.40260842
   0.85733434  0.73422045  0.59738336
   0.46320075  0.93193471  0.40573030
   0.20851303  0.33807066  0.00112650
   0.25829273  0.53438362  0.79395974
   0.19543119  0.39337473  0.59695845
   0.08108635  0.14384378  0.21208617
   0.76163299  0.52300145  0.80299492
   0.68979512  0.40978808  0.60446703
   0.59758761  0.19970905  0.79507098
   0.53723192  0.06711345  0.60306202
   0.34287950  0.64524617  0.00089554
   0.22512822  0.47169556  0.20195850
SQS with 1 vacancy for VFE and VRV      
           1
    -3.157956   -3.168774   -3.168698
     1.595540    1.582132   -7.936099
     8.023634   -8.032712   -1.602682
   Nb   Mo   Ta   Ti   W 
   6   5   6   6   6
Direct configuration=    16
   0.95508505  0.93557276  0.39443034
   0.63142427  0.26768207  0.40010062
   0.49131735 -0.00164168 -0.00301764
  -0.01822244  0.01784677  0.00422813
   0.09754705  0.20562366  0.79949762
   0.03740178  0.06712682  0.59742254
   0.90150268  0.80037145  0.20124212
   0.80292314  0.59437069  0.39845744
   0.72870605  0.46782713  0.19868379
   0.36832206  0.72658427  0.60041096
   0.13140772  0.27362667  0.40065558
   0.84169666  0.65906744  0.00196700
   0.92684619  0.86962929  0.80164442
   0.57697480  0.13998249  0.19147656
   0.40721704  0.79357229  0.19698347
   0.43479057  0.85290957  0.79772163
   0.29954040  0.60418224  0.40264074
   0.85716396  0.73412369  0.59743759
   0.46310055  0.93202183  0.40567590
   0.21063462  0.33800102  0.00100567
   0.25803751  0.53438834  0.79391799
   0.19542389  0.39319247  0.59698761
   0.08134699  0.14391092  0.21200111
   0.76118572  0.52282598  0.80297510
   0.68958523  0.40988755  0.60449935
   0.59739932  0.19957733  0.79509734
   0.53700998  0.06708300  0.60305904
   0.34272708  0.64547610  0.00084845
   0.22523815  0.47184450  0.20194954
SQS with 1 vacancy for VFE and VRV      
           1
    -3.153979   -3.166479   -3.164570
     1.595158    1.580262   -7.926660
     8.016766   -8.027990   -1.602722
   Nb   Mo   Ta   Ti   W 
   6   5   6   6   6
Direct configuration=    17
   0.95502254  0.93566477  0.39441506
   0.63151378  0.26797618  0.40011213
   0.49086359 -0.00148665 -0.00285731
  -0.01905491  0.01827503  0.00380985
   0.09730705  0.20571141  0.79948181
   0.03691954  0.06700807  0.59747301
   0.90151054  0.80057183  0.20149768
   0.80272144  0.59427318  0.39838619
   0.72878688  0.46833382  0.19894474
   0.36783724  0.72640891  0.60020184
   0.13152545  0.27388611  0.40057060
   0.84202538  0.65823562  0.00207790
   0.92680419  0.86896720  0.80187270
   0.57739427  0.14002820  0.19205695
   0.40753723  0.79359480  0.19684832
   0.43453532  0.85268781  0.79763278
   0.29901232  0.60434450  0.40273774
   0.85665260  0.73383330  0.59760035
   0.46279986  0.93228330  0.40551266
   0.21700163  0.33779229  0.00064288
   0.25727159  0.53440248  0.79379274
   0.19540191  0.39264548  0.59707513
   0.08212921  0.14411244  0.21174583
   0.75984343  0.52229935  0.80291569
   0.68895533  0.41018605  0.60459634
   0.59683418  0.19918199  0.79517649
   0.53634394  0.06699160  0.60305013
   0.34226970  0.64616611  0.00070713
   0.22556809  0.47229150  0.20192264
SQS with 1 vacancy for VFE and VRV      
           1
    -3.146027   -3.161889   -3.156315
     1.594396    1.576523   -7.907782
     8.003030   -8.018545   -1.602802
   Nb   Mo   Ta   Ti   W 
   6   5   6   6   6
Direct configuration=    18
   0.95489744  0.93584899  0.39438447
   0.63169311  0.26856508  0.40013509
   0.48995507 -0.00117635 -0.00253636
  -0.02072113  0.01913231  0.00297278
   0.09682659  0.20588704  0.79945022
   0.03595395  0.06677017  0.59757413
   0.90152617  0.80097305  0.20200913
   0.80231763  0.59407790  0.39824367
   0.72894875  0.46934836  0.19946690
   0.36686666  0.72605769  0.59978345
   0.13176133  0.27440560  0.40040044
   0.84268308  0.65657019  0.00229994
   0.92671966  0.86764151  0.80232972
   0.57823372  0.14011980  0.19321847
   0.40817837  0.79363996  0.19657777
   0.43402425  0.85224372  0.79745506
   0.29795505  0.60466926  0.40293198
   0.85562858  0.73325173  0.59792625
   0.46219808  0.93280674  0.40518595
   0.22974925  0.33737592 -0.00008455
   0.25573824  0.53443060  0.79354222
   0.19535764  0.39155026  0.59725041
   0.08369557  0.14451614  0.21123470
   0.75715584  0.52124456  0.80279719
   0.68769426  0.41078357  0.60479055
   0.59570251  0.19839028  0.79533509
   0.53501043  0.06680843  0.60303245
   0.34135437  0.64754758  0.00042426
   0.22622886  0.47318658  0.20186863
SQS with 1 vacancy for VFE and VRV      
           1
    -3.149676   -3.163995   -3.160102
     1.594746    1.578239   -7.916443
     8.009333   -8.022879   -1.602765
   Nb   Mo   Ta   Ti   W 
   6   5   6   6   6
Direct configuration=    19
   0.95495492  0.93576429  0.39439853
   0.63161055  0.26829425  0.40012461
   0.49037284 -0.00131894 -0.00268389
  -0.01995545  0.01873826  0.00335731
   0.09704746  0.20580633  0.79946470
   0.03639800  0.06687968  0.59752755
   0.90151907  0.80078855  0.20177416
   0.80250329  0.59416774  0.39830910
   0.72887429  0.46888181  0.19922707
   0.36731286  0.72621931  0.59997557
   0.13165272  0.27416668  0.40047870
   0.84238107  0.65733598  0.00219783
   0.92675892  0.86825115  0.80211960
   0.57784810  0.14007759  0.19268486
   0.40788349  0.79361912  0.19670215
   0.43425927  0.85244799  0.79753663
   0.29844117  0.60452004  0.40284265
   0.85609963  0.73351929  0.59777635
   0.46247457  0.93256610  0.40533606
   0.22388785  0.33756596  0.00025090
   0.25644318  0.53441784  0.79365719
   0.19537826  0.39205391  0.59716977
   0.08297513  0.14433031  0.21146975
   0.75839174  0.52172991  0.80285129
   0.68827403  0.41050894  0.60470124
   0.59622305  0.19875448  0.79526204
   0.53562360  0.06689281  0.60304043
   0.34177488  0.64691240  0.00055426
   0.22592485  0.47277489  0.20189359
SQS with 1 vacancy for VFE and VRV      
           1
    -3.149504   -3.164288   -3.160377
     1.594730    1.578581   -7.917399
     8.008718   -8.023503   -1.602845
   Nb   Mo   Ta   Ti   W 
   6   5   6   6   6
Direct configuration=    20
   0.95489791  0.93584420  0.39445659
   0.63165939  0.26841655  0.40018834
   0.49023682 -0.00142379 -0.00263958
  -0.02032113  0.01884449  0.00314863
   0.09688631  0.20568153  0.79948637
   0.03596846  0.06681600  0.59754097
   0.90154951  0.80094962  0.20176791
   0.80237582  0.59426741  0.39831017
   0.72903055  0.46900665  0.19929150
   0.36685758  0.72628444  0.59987565
   0.13164559  0.27422168  0.40043760
   0.84241544  0.65700980  0.00221347
   0.92655435  0.86791745  0.80222987
   0.57817661  0.14003108  0.19306480
   0.40789596  0.79380964  0.19673991
   0.43421355  0.85241823  0.79757328
   0.29830100  0.60453382  0.40288630
   0.85586054  0.73337792  0.59782467
   0.46233030  0.93267352  0.40526566
   0.22791732  0.33743457  0.00001328
   0.25585394  0.53440782  0.79366090
   0.19527800  0.39180056  0.59726020
   0.08321197  0.14451105  0.21118136
   0.75763482  0.52161861  0.80287250
   0.68809369  0.41038998  0.60465001
   0.59595432  0.19851110  0.79525869
   0.53535902  0.06679932  0.60303912
   0.34135818  0.64751783  0.00045025
   0.22613754  0.47299558  0.20195159
SQS with 1 vacancy for VFE and VRV      
           1
    -3.148990   -3.165166   -3.161202
     1.594683    1.579606   -7.920267
     8.006874   -8.025375   -1.603083
   Nb   Mo   Ta   Ti   W 
   6   5   6   6   6
Direct configuration=    21
   0.95472687  0.93608391  0.39463077
   0.63180588  0.26878344  0.40037953
   0.48982873 -0.00173829 -0.00250663
  -0.02141802  0.01916312  0.00252263
   0.09640288  0.20530720  0.79955138
   0.03467988  0.06662501  0.59758124
   0.90164084  0.80143276  0.20174918
   0.80199341  0.59456639  0.39831339
   0.72949927  0.46938112  0.19948479
   0.36549182  0.72647981  0.59957594
   0.13162421  0.27438667  0.40031429
   0.84251854  0.65603139  0.00226038
   0.92594061  0.86691649  0.80256065
   0.57916189  0.13989161  0.19420459
   0.40793336  0.79438115  0.19685320
   0.43407638  0.85232895  0.79768322
   0.29788048  0.60457517  0.40301723
   0.85514325  0.73295387  0.59796961
   0.46189756  0.93299576  0.40505449
   0.24000549  0.33704020 -0.00069994
   0.25408628  0.53437782  0.79367211
   0.19497716  0.39104062  0.59753149
   0.08392260  0.14505312  0.21031618
   0.75536413  0.52128479  0.80293622
   0.68755269  0.41003313  0.60449631
   0.59514815  0.19778107  0.79524866
   0.53456529  0.06651890  0.60303523
   0.34010814  0.64933392  0.00013827
   0.22677556  0.47365756  0.20212559
SQS with 1 vacancy for VFE and VRV      
           1
    -3.147962   -3.166921   -3.162853
     1.594590    1.581658   -7.926004
     8.003186   -8.029119   -1.603560
   Nb   Mo   Ta   Ti   W 
   6   5   6   6   6
Direct configuration=    22
   0.95438461  0.93656323  0.39497921
   0.63209862  0.26951698  0.40076195
   0.48901250 -0.00236697 -0.00224071
  -0.02361101  0.01980005  0.00127086
   0.09543604  0.20455889  0.79968143
   0.03210290  0.06624331  0.59766199
   0.90182347  0.80239869  0.20171176
   0.80122865  0.59516418  0.39831993
   0.73043641  0.47012981  0.19987132
   0.36276082  0.72687046  0.59897678
   0.13158158  0.27471648  0.40006771
   0.84272475  0.65407527  0.00235403
   0.92471295  0.86491549  0.80322219
   0.58113116  0.13961306  0.19648399
   0.40800802  0.79552378  0.19707985
   0.43380196  0.85215051  0.79790310
   0.29703937  0.60465792  0.40327918
   0.85370867  0.73210622  0.59825957
   0.46103235  0.93363998  0.40463226
   0.26418054  0.33625023 -0.00212852
   0.25055126  0.53431801  0.79369483
   0.19437532  0.38952142  0.59807403
   0.08534458  0.14613651  0.20858577
   0.75082308  0.52061765  0.80306399
   0.68647095  0.40931970  0.60418896
   0.59353601  0.19632162  0.79522864
   0.53297800  0.06595835  0.60302755
   0.33760850  0.65296480 -0.00048522
   0.22805127  0.47498103  0.20247356
SQS with 1 vacancy for VFE and VRV      
           1
    -3.145905   -3.170433   -3.166153
     1.594402    1.585761   -7.937476
     7.995811   -8.036606   -1.604513
   Nb   Mo   Ta   Ti   W 
   6   5   6   6   6
Direct configuration=    23
   0.95369947  0.93752148  0.39567632
   0.63268315  0.27098321  0.40152688
   0.48737987 -0.00362305 -0.00170875
  -0.02799380  0.02107260 -0.00123174