  29  29   0   0
  0.1679057E+02  0.5525242E-09  0.8287863E-09  0.1139058E-08  0.5000000E-15
  1.000000000000000E-004
  CAR 
 SQS with 1 vacancy for VFE and VRV      
     12.16862888    -50.12485044  301      6.87819706      1.00000000
    -50.125  0.0000E+00  0.0000E+00
    -49.917  0.0000E+00  0.0000E+00
    -49.710  0.0000E+00  0.0000E+00
    -49.502  0.0000E+00  0.0000E+00
    -49.294  0.0000E+00  0.0000E+00
    -49.087 -0.1355E-34 -0.2813E-35
    -48.879 -0.5017E-27 -0.1042E-27
    -48.671 -0.2115E-20 -0.4393E-21
    -48.464 -0.9833E-15 -0.2042E-15
    -48.256 -0.5188E-10 -0.1077E-10
    -48.048 -0.3005E-06 -0.6240E-07
    -47.841 -0.1830E-03 -0.3805E-04
    -47.633 -0.1027E-01 -0.2170E-02
    -47.425  0.2064E-02 -0.1741E-02
    -47.218  0.5499E+00  0.1124E+00
    -47.010  0.1327E+01  0.3879E+00
    -46.803  0.9632E+00  0.5879E+00
    -46.595  0.8109E-01  0.6047E+00
    -46.387 -0.2199E-01  0.6002E+00
    -46.180 -0.7435E-03  0.6000E+00
    -45.972 -0.2223E-05  0.6000E+00
    -45.764 -0.7032E-09  0.6000E+00
    -45.557 -0.2451E-13  0.6000E+00
    -45.349  0.0000E+00  0.6000E+00
    -45.141  0.0000E+00  0.6000E+00
    -44.934  0.0000E+00  0.6000E+00
    -44.726  0.0000E+00  0.6000E+00
    -44.518  0.0000E+00  0.6000E+00
    -44.311  0.0000E+00  0.6000E+00
    -44.103  0.0000E+00  0.6000E+00
    -43.896  0.0000E+00  0.6000E+00
    -43.688  0.0000E+00  0.6000E+00
    -43.480  0.0000E+00  0.6000E+00
    -43.273  0.0000E+00  0.6000E+00
    -43.065  0.0000E+00  0.6000E+00
    -42.857  0.0000E+00  0.6000E+00
    -42.650  0.0000E+00  0.6000E+00
    -42.442  0.0000E+00  0.6000E+00
    -42.234  0.0000E+00  0.6000E+00
    -42.027  0.0000E+00  0.6000E+00
    -41.819  0.0000E+00  0.6000E+00
    -41.611  0.0000E+00  0.6000E+00
    -41.404  0.0000E+00  0.6000E+00
    -41.196  0.0000E+00  0.6000E+00
    -40.988  0.0000E+00  0.6000E+00
    -40.781  0.0000E+00  0.6000E+00
    -40.573  0.0000E+00  0.6000E+00
    -40.366  0.0000E+00  0.6000E+00
    -40.158  0.0000E+00  0.6000E+00
    -39.950  0.0000E+00  0.6000E+00
    -39.743  0.0000E+00  0.6000E+00
    -39.535  0.0000E+00  0.6000E+00
    -39.327  0.0000E+00  0.6000E+00
    -39.120  0.0000E+00  0.6000E+00
    -38.912  0.0000E+00  0.6000E+00
    -38.704  0.0000E+00  0.6000E+00
    -38.497  0.0000E+00  0.6000E+00
    -38.289  0.0000E+00  0.6000E+00
    -38.081  0.0000E+00  0.6000E+00
    -37.874  0.0000E+00  0.6000E+00
    -37.666  0.0000E+00  0.6000E+00
    -37.459  0.0000E+00  0.6000E+00
    -37.251  0.0000E+00  0.6000E+00
    -37.043  0.0000E+00  0.6000E+00
    -36.836  0.0000E+00  0.6000E+00
    -36.628  0.0000E+00  0.6000E+00
    -36.420  0.0000E+00  0.6000E+00
    -36.213  0.0000E+00  0.6000E+00
    -36.005  0.0000E+00  0.6000E+00
    -35.797  0.0000E+00  0.6000E+00
    -35.590  0.0000E+00  0.6000E+00
    -35.382  0.0000E+00  0.6000E+00
    -35.174  0.0000E+00  0.6000E+00
    -34.967  0.0000E+00  0.6000E+00
    -34.759  0.0000E+00  0.6000E+00
    -34.551  0.0000E+00  0.6000E+00
    -34.344  0.0000E+00  0.6000E+00
    -34.136  0.0000E+00  0.6000E+00
    -33.929  0.0000E+00  0.6000E+00
    -33.721  0.0000E+00  0.6000E+00
    -33.513  0.0000E+00  0.6000E+00
    -33.306  0.0000E+00  0.6000E+00
    -33.098  0.0000E+00  0.6000E+00
    -32.890  0.0000E+00  0.6000E+00
    -32.683  0.0000E+00  0.6000E+00
    -32.475  0.0000E+00  0.6000E+00
    -32.267  0.0000E+00  0.6000E+00
    -32.060  0.0000E+00  0.6000E+00
    -31.852  0.0000E+00  0.6000E+00
    -31.644  0.0000E+00  0.6000E+00
    -31.437  0.0000E+00  0.6000E+00
    -31.229  0.0000E+00  0.6000E+00
    -31.022  0.0000E+00  0.6000E+00
    -30.814  0.0000E+00  0.6000E+00
    -30.606  0.0000E+00  0.6000E+00
    -30.399  0.0000E+00  0.6000E+00
    -30.191  0.0000E+00  0.6000E+00
    -29.983  0.0000E+00  0.6000E+00
    -29.776  0.0000E+00  0.6000E+00
    -29.568  0.0000E+00  0.6000E+00
    -29.360  0.0000E+00  0.6000E+00
    -29.153  0.0000E+00  0.6000E+00
    -28.945  0.0000E+00  0.6000E+00
    -28.737  0.0000E+00  0.6000E+00
    -28.530  0.0000E+00  0.6000E+00
    -28.322  0.0000E+00  0.6000E+00
    -28.114  0.0000E+00  0.6000E+00
    -27.907  0.0000E+00  0.6000E+00
    -27.699  0.0000E+00  0.6000E+00
    -27.492  0.0000E+00  0.6000E+00
    -27.284  0.0000E+00  0.6000E+00
    -27.076  0.0000E+00  0.6000E+00
    -26.869  0.0000E+00  0.6000E+00
    -26.661  0.0000E+00  0.6000E+00
    -26.453  0.0000E+00  0.6000E+00
    -26.246  0.0000E+00  0.6000E+00
    -26.038  0.0000E+00  0.6000E+00
    -25.830  0.0000E+00  0.6000E+00
    -25.623 -0.1448E-34  0.6000E+00
    -25.415 -0.4994E-27  0.6000E+00
    -25.207 -0.1851E-20  0.6000E+00
    -25.000 -0.7869E-15  0.6000E+00
    -24.792 -0.3915E-10  0.6000E+00
    -24.585 -0.2274E-06  0.6000E+00
    -24.377 -0.1473E-03  0.6000E+00
    -24.169 -0.9116E-02  0.5981E+00
    -23.962  0.5440E-02  0.5992E+00
    -23.754  0.4640E+00  0.6956E+00
    -23.546  0.9207E+00  0.8867E+00
    -23.339  0.1741E+01  0.1248E+01
    -23.131  0.2799E+01  0.1830E+01
    -22.923  0.1685E+01  0.2179E+01
    -22.716  0.8113E+00  0.2348E+01
    -22.508  0.2609E+00  0.2402E+01
    -22.300 -0.4943E-02  0.2401E+01
    -22.093 -0.4607E-02  0.2400E+01
    -21.885 -0.1208E-03  0.2400E+01
    -21.677 -0.3224E-06  0.2400E+01
    -21.470 -0.9183E-10  0.2400E+01
    -21.262 -0.2866E-14  0.2400E+01
    -21.055  0.0000E+00  0.2400E+01
    -20.847  0.0000E+00  0.2400E+01
    -20.639  0.0000E+00  0.2400E+01
    -20.432  0.0000E+00  0.2400E+01
    -20.224  0.0000E+00  0.2400E+01
    -20.016  0.0000E+00  0.2400E+01
    -19.809  0.0000E+00  0.2400E+01
    -19.601  0.0000E+00  0.2400E+01
    -19.393  0.0000E+00  0.2400E+01
    -19.186  0.0000E+00  0.2400E+01
    -18.978  0.0000E+00  0.2400E+01
    -18.770  0.0000E+00  0.2400E+01
    -18.563  0.0000E+00  0.2400E+01
    -18.355  0.0000E+00  0.2400E+01
    -18.148  0.0000E+00  0.2400E+01
    -17.940  0.0000E+00  0.2400E+01
    -17.732  0.0000E+00  0.2400E+01
    -17.525  0.0000E+00  0.2400E+01
    -17.317  0.0000E+00  0.2400E+01
    -17.109  0.0000E+00  0.2400E+01
    -16.902  0.0000E+00  0.2400E+01
    -16.694  0.0000E+00  0.2400E+01
    -16.486  0.0000E+00  0.2400E+01
    -16.279  0.0000E+00  0.2400E+01
    -16.071  0.0000E+00  0.2400E+01
    -15.863  0.0000E+00  0.2400E+01
    -15.656  0.0000E+00  0.2400E+01
    -15.448  0.0000E+00  0.2400E+01
    -15.241  0.0000E+00  0.2400E+01
    -15.033  0.0000E+00  0.2400E+01
    -14.825  0.0000E+00  0.2400E+01
    -14.618  0.0000E+00  0.2400E+01
    -14.410  0.0000E+00  0.2400E+01
    -14.202  0.0000E+00  0.2400E+01
    -13.995  0.0000E+00  0.2400E+01
    -13.787  0.0000E+00  0.2400E+01
    -13.579  0.0000E+00  0.2400E+01
    -13.372  0.0000E+00  0.2400E+01
    -13.164  0.0000E+00  0.2400E+01
    -12.956  0.0000E+00  0.2400E+01
    -12.749  0.0000E+00  0.2400E+01
    -12.541  0.0000E+00  0.2400E+01
    -12.333  0.0000E+00  0.2400E+01
    -12.126  0.0000E+00  0.2400E+01
    -11.918  0.0000E+00  0.2400E+01
    -11.711  0.0000E+00  0.2400E+01
    -11.503  0.0000E+00  0.2400E+01
    -11.295  0.0000E+00  0.2400E+01
    -11.088  0.0000E+00  0.2400E+01
    -10.880  0.0000E+00  0.2400E+01
    -10.672  0.0000E+00  0.2400E+01
    -10.465  0.0000E+00  0.2400E+01
    -10.257  0.0000E+00  0.2400E+01
    -10.049  0.0000E+00  0.2400E+01
     -9.842  0.0000E+00  0.2400E+01
     -9.634  0.0000E+00  0.2400E+01
     -9.426  0.0000E+00  0.2400E+01
     -9.219  0.0000E+00  0.2400E+01
     -9.011  0.0000E+00  0.2400E+01
     -8.804  0.0000E+00  0.2400E+01
     -8.596  0.0000E+00  0.2400E+01
     -8.388  0.0000E+00  0.2400E+01
     -8.181  0.0000E+00  0.2400E+01
     -7.973  0.0000E+00  0.2400E+01
     -7.765  0.0000E+00  0.2400E+01
     -7.558  0.0000E+00  0.2400E+01
     -7.350  0.0000E+00  0.2400E+01
     -7.142  0.0000E+00  0.2400E+01
     -6.935  0.0000E+00  0.2400E+01
     -6.727  0.0000E+00  0.2400E+01
     -6.519  0.0000E+00  0.2400E+01
     -6.312  0.0000E+00  0.2400E+01
     -6.104  0.0000E+00  0.2400E+01
     -5.896  0.0000E+00  0.2400E+01
     -5.689  0.0000E+00  0.2400E+01
     -5.481  0.0000E+00  0.2400E+01
     -5.274  0.0000E+00  0.2400E+01
     -5.066  0.0000E+00  0.2400E+01
     -4.858  0.0000E+00  0.2400E+01
     -4.651  0.0000E+00  0.2400E+01
     -4.443  0.0000E+00  0.2400E+01
     -4.235  0.0000E+00  0.2400E+01
     -4.028  0.0000E+00  0.2400E+01
     -3.820  0.0000E+00  0.2400E+01
     -3.612  0.0000E+00  0.2400E+01
     -3.405  0.0000E+00  0.2400E+01
     -3.197  0.0000E+00  0.2400E+01
     -2.989  0.0000E+00  0.2400E+01
     -2.782  0.0000E+00  0.2400E+01
     -2.574  0.0000E+00  0.2400E+01
     -2.367  0.0000E+00  0.2400E+01
     -2.159 -0.4283E-31  0.2400E+01
     -1.951 -0.3306E-24  0.2400E+01
     -1.744 -0.2920E-18  0.2400E+01
     -1.536 -0.2841E-13  0.2400E+01
     -1.328 -0.3227E-09  0.2400E+01
     -1.121 -0.4137E-06  0.2400E+01
     -0.913 -0.5790E-04  0.2400E+01
     -0.705 -0.6680E-03  0.2400E+01
     -0.498  0.4298E-02  0.2401E+01
     -0.290  0.2972E-01  0.2407E+01
     -0.082  0.6335E-01  0.2420E+01
      0.125  0.9123E-01  0.2439E+01
      0.333  0.7468E-01  0.2455E+01
      0.541  0.8580E-01  0.2472E+01
      0.748  0.1520E+00  0.2504E+01
      0.956  0.1614E+00  0.2537E+01
      1.163  0.1442E+00  0.2567E+01
      1.371  0.1589E+00  0.2600E+01
      1.579  0.2349E+00  0.2649E+01
      1.786  0.1844E+00  0.2687E+01
      1.994  0.2514E+00  0.2740E+01
      2.202  0.4000E+00  0.2823E+01
      2.409  0.5891E+00  0.2945E+01
      2.617  0.8346E+00  0.3118E+01
      2.825  0.9861E+00  0.3323E+01
      3.032  0.1121E+01  0.3556E+01
      3.240  0.1347E+01  0.3836E+01
      3.448  0.1419E+01  0.4130E+01
      3.655  0.1442E+01  0.4430E+01
      3.863  0.1543E+01  0.4750E+01
      4.070  0.1555E+01  0.5073E+01
      4.278  0.1385E+01  0.5360E+01
      4.486  0.1196E+01  0.5609E+01
      4.693  0.1455E+01  0.5911E+01
      4.901  0.1835E+01  0.6292E+01
      5.109  0.1930E+01  0.6693E+01
      5.316  0.1985E+01  0.7105E+01
      5.524  0.1926E+01  0.7505E+01
      5.732  0.1830E+01  0.7885E+01
      5.939  0.1801E+01  0.8259E+01
      6.147  0.1911E+01  0.8655E+01
      6.355  0.2013E+01  0.9073E+01
      6.562  0.1952E+01  0.9479E+01
      6.770  0.1713E+01  0.9834E+01
      6.978  0.1482E+01  0.1014E+02
      7.185  0.1228E+01  0.1040E+02
      7.393  0.9926E+00  0.1060E+02
      7.600  0.8040E+00  0.1077E+02
      7.808  0.7613E+00  0.1093E+02
      8.016  0.8041E+00  0.1110E+02
      8.223  0.9437E+00  0.1129E+02
      8.431  0.1024E+01  0.1150E+02
      8.639  0.9895E+00  0.1171E+02
      8.846  0.7554E+00  0.1187E+02
      9.054  0.4307E+00  0.1196E+02
      9.262  0.1920E+00  0.1200E+02
      9.469  0.2684E-01  0.1200E+02
      9.677 -0.3196E-02  0.1200E+02
      9.885 -0.4848E-03  0.1200E+02
     10.092 -0.6028E-05  0.1200E+02
     10.300 -0.8125E-08  0.1200E+02
     10.507 -0.1231E-11  0.1200E+02
     10.715 -0.2310E-16  0.1200E+02
     10.923  0.0000E+00  0.1200E+02
     11.130  0.0000E+00  0.1200E+02
     11.338  0.0000E+00  0.1200E+02
     11.546  0.0000E+00  0.1200E+02
     11.753  0.0000E+00  0.1200E+02
     11.961  0.0000E+00  0.1200E+02
     12.169  0.0000E+00  0.1200E+02
