   29   29   20    1
  0.1679057E+02  0.5525242E-09  0.8287863E-09  0.1139058E-08  0.5000000E-15
  1.000000000000000E-004
  CAR 
 SQS with 1 vacancy for VFE and VRV      
    200     63    120
 
  0.0000000E+00  0.0000000E+00  0.0000000E+00  0.8000000E-02
    1      -47.293329   1.000000
    2      -47.180727   1.000000
    3      -47.101776   1.000000
    4      -47.037801   1.000000
    5      -46.971489   1.000000
    6      -46.869961   1.000000
    7      -23.847666   1.000000
    8      -23.788068   1.000000
    9      -23.592041   1.000000
   10      -23.559090   1.000000
   11      -23.430008   1.000000
   12      -23.350591   1.000000
   13      -23.324591   1.000000
   14      -23.296830   1.000000
   15      -23.274154   1.000000
   16      -23.223603   1.000000
   17      -23.199885   1.000000
   18      -23.156854   1.000000
   19      -23.133748   1.000000
   20      -23.064087   1.000000
   21      -23.046810   1.000000
   22      -22.872514   1.000000
   23      -22.793855   1.000000
   24      -22.593699   1.000000
   25       -0.515457   1.000000
   26        0.863591   1.000000
   27        1.220315   1.000000
   28        2.100112   1.000000
   29        2.119650   1.000000
   30        2.181843   1.000000
   31        2.332838   1.000000
   32        2.383227   1.000000
   33        2.570584   1.000000
   34        2.643645   1.000000
   35        2.692231   1.000000
   36        2.739017   1.000000
   37        2.763641   1.000000
   38        2.938214   1.000000
   39        3.013936   1.000000
   40        3.054277   1.000000
   41        3.233949   1.000000
   42        3.278120   1.000000
   43        3.386777   1.000000
   44        3.435394   1.000000
   45        3.467329   1.000000
   46        3.526144   1.000000
   47        3.624319   1.000000
   48        3.662988   1.000000
   49        3.728302   1.000000
   50        3.765331   1.000000
   51        3.823811   1.000000
   52        3.912435   1.000000
   53        3.978322   1.000000
   54        4.019022   1.000000
   55        4.219890   1.000000
   56        4.279551   1.000000
   57        4.325186   1.000000
   58        4.456609   1.000000
   59        4.563877   1.000000
   60        4.620904   1.000000
   61        4.639257   1.000000
   62        4.666206   1.000000
   63        4.799410   1.000000
   64        4.818373   1.000000
   65        4.889507   1.000000
   66        4.924796   1.000000
   67        4.972576   1.000000
   68        5.028348   1.000000
   69        5.051528   1.000000
   70        5.142560   1.000000
   71        5.177425   1.000000
   72        5.235533   1.000000
   73        5.285073   1.000000
   74        5.323144   1.000000
   75        5.429349   1.000000
   76        5.500507   1.000000
   77        5.549932   1.000000
   78        5.591712   1.000000
   79        5.732901   1.000000
   80        5.740697   1.000000
   81        5.837546   1.000000
   82        5.931157   1.000000
   83        6.077393   1.000000
   84        6.090368   1.000000
   85        6.130841   1.000001
   86        6.212717   1.000013
   87        6.310298   1.000223
   88        6.339884   1.000472
   89        6.397944   1.001780
   90        6.422298   1.002928
   91        6.532862   1.017400
   92        6.575222   1.026983
   93        6.652348   1.033863
   94        6.665623   1.030481
   95        6.725307   0.980386
   96        6.843885   0.642844
   97        6.882146   0.483295
   98        7.009771   0.055705
   99        7.052660  -0.006305
  100        7.157114  -0.031968
  101        7.276386  -0.008231
  102        7.321439  -0.003740
  103        7.391039  -0.000865
  104        7.591588  -0.000003
  105        7.709466  -0.000000
  106        7.762521  -0.000000
  107        7.882189  -0.000000
  108        8.000172  -0.000000
  109        8.147843  -0.000000
  110        8.348855  -0.000000
  111        8.536085  -0.000000
  112        8.686824  -0.000000
  113        8.747098  -0.000000
  114        8.826504  -0.000000
  115        8.858105  -0.000000
  116        8.967331  -0.000000
  117        9.038518  -0.000000
  118        9.105483  -0.000000
  119        9.225258  -0.000000
  120        9.294740  -0.000000
 
  0.2000000E+00 -0.1387779E-16  0.0000000E+00  0.1600000E-01
    1      -47.292638   1.000000
    2      -47.174823   1.000000
    3      -47.101033   1.000000
    4      -47.037528   1.000000
    5      -46.971538   1.000000
    6      -46.876572   1.000000
    7      -23.804772   1.000000
    8      -23.731371   1.000000
    9      -23.586430   1.000000
   10      -23.556464   1.000000
   11      -23.435965   1.000000
   12      -23.346826   1.000000
   13      -23.322950   1.000000
   14      -23.297204   1.000000
   15      -23.279380   1.000000
   16      -23.227842   1.000000
   17      -23.198315   1.000000
   18      -23.157955   1.000000
   19      -23.137487   1.000000
   20      -23.070967   1.000000
   21      -23.053525   1.000000
   22      -22.878523   1.000000
   23      -22.795834   1.000000
   24      -22.713657   1.000000
   25       -0.198627   1.000000
   26        1.124989   1.000000
   27        1.490045   1.000000
   28        2.160775   1.000000
   29        2.298921   1.000000
   30        2.419363   1.000000
   31        2.500329   1.000000
   32        2.614599   1.000000
   33        2.696157   1.000000
   34        2.769494   1.000000
   35        2.869827   1.000000
   36        2.935558   1.000000
   37        2.979316   1.000000
   38        3.128028   1.000000
   39        3.167335   1.000000
   40        3.195686   1.000000
   41        3.347629   1.000000
   42        3.381849   1.000000
   43        3.428372   1.000000
   44        3.518550   1.000000
   45        3.582405   1.000000
   46        3.693811   1.000000
   47        3.713753   1.000000
   48        3.800433   1.000000
   49        3.876760   1.000000
   50        3.931673   1.000000
   51        3.982169   1.000000
   52        4.031170   1.000000
   53        4.119461   1.000000
   54        4.159769   1.000000
   55        4.262729   1.000000
   56        4.304800   1.000000
   57        4.376993   1.000000
   58        4.498204   1.000000
   59        4.575991   1.000000
   60        4.672334   1.000000
   61        4.758807   1.000000
   62        4.777550   1.000000
   63        4.854459   1.000000
   64        4.896307   1.000000
   65        4.945787   1.000000
   66        5.022535   1.000000
   67        5.112296   1.000000
   68        5.122770   1.000000
   69        5.181953   1.000000
   70        5.223977   1.000000
   71        5.300543   1.000000
   72        5.333558   1.000000
   73        5.359351   1.000000
   74        5.418791   1.000000
   75        5.438717   1.000000
   76        5.516829   1.000000
   77        5.552962   1.000000
   78        5.604001   1.000000
   79        5.651313   1.000000
   80        5.741439   1.000000
   81        5.816822   1.000000
   82        5.865776   1.000000
   83        5.911408   1.000000
   84        6.031916   1.000000
   85        6.093528   1.000000
   86        6.150926   1.000002
   87        6.218804   1.000016
   88        6.280182   1.000099
   89        6.348576   1.000583
   90        6.386516   1.001392
   91        6.439071   1.004041
   92        6.469806   1.006965
   93        6.501277   1.011398
   94        6.539260   1.018780
   95        6.609689   1.033646
   96        6.689271   1.018386
   97        6.744361   0.948650
   98        6.792331   0.828853
   99        6.852067   0.609526
  100        6.974445   0.140380
  101        7.043273   0.003742
  102        7.132227  -0.035159
  103        7.193995  -0.024038
  104        7.217304  -0.018742
  105        7.329482  -0.003205
  106        7.536369  -0.000017
  107        7.601438  -0.000002
  108        7.689129  -0.000000
  109        7.823710  -0.000000
  110        8.017542  -0.000000
  111        8.112035  -0.000000
  112        8.127901  -0.000000
  113        8.148140  -0.000000
  114        8.288624  -0.000000
  115        8.433204  -0.000000
  116        8.475951  -0.000000
  117        8.636923  -0.000000
  118        8.678789  -0.000000
  119        8.739797  -0.000000
  120        8.804219  -0.000000
 
  0.4000000E+00 -0.2775558E-16  0.0000000E+00  0.1600000E-01
    1      -47.291549   1.000000
    2      -47.164633   1.000000
    3      -47.099819   1.000000
    4      -47.037091   1.000000
    5      -46.971618   1.000000
    6      -46.887878   1.000000
    7      -23.802194   1.000000
    8      -23.592344   1.000000
    9      -23.568089   1.000000
   10      -23.467498   1.000000
   11      -23.423424   1.000000
   12      -23.342353   1.000000
   13      -23.318021   1.000000
   14      -23.299007   1.000000
   15      -23.286770   1.000000
   16      -23.234806   1.000000
   17      -23.194026   1.000000
   18      -23.160382   1.000000
   19      -23.142574   1.000000
   20      -23.083765   1.000000
   21      -23.065972   1.000000
   22      -23.004226   1.000000
   23      -22.888479   1.000000
   24      -22.797980   1.000000
   25        0.617962   1.000000
   26        1.541929   1.000000
   27        2.102377   1.000000
   28        2.222295   1.000000
   29        2.427038   1.000000
   30        2.653221   1.000000
   31        2.693607   1.000000
   32        2.873815   1.000000
   33        2.987860   1.000000
   34        3.062616   1.000000
   35        3.152940   1.000000
   36        3.257769   1.000000
   37        3.318398   1.000000
   38        3.342071   1.000000
   39        3.423213   1.000000
   40        3.498884   1.000000
   41        3.530352   1.000000
   42        3.605075   1.000000
   43        3.665423   1.000000
   44        3.788986   1.000000
   45        3.832213   1.000000
   46        3.917094   1.000000
   47        3.962612   1.000000
   48        4.014838   1.000000
   49        4.115528   1.000000
   50        4.160617   1.000000
   51        4.245674   1.000000
   52        4.297448   1.000000
   53        4.398403   1.000000
   54        4.434250   1.000000
   55        4.482751   1.000000
   56        4.555561   1.000000
   57        4.625294   1.000000
   58        4.691285   1.000000
   59        4.728846   1.000000
   60        4.764786   1.000000
   61        4.780177   1.000000
   62        4.823288   1.000000
   63        4.894929   1.000000
   64        4.946352   1.000000
   65        4.999576   1.000000
   66        5.049618   1.000000
   67        5.110495   1.000000
   68        5.153687   1.000000
   69        5.238698   1.000000
   70        5.272617   1.000000
   71        5.284440   1.000000
   72        5.343366   1.000000
   73        5.389725   1.000000
   74        5.460055   1.000000
   75        5.501838   1.000000
   76        5.551146   1.000000
   77        5.633724   1.000000
   78        5.650742   1.000000
   79        5.700095   1.000000
   80        5.757862   1.000000
   81        5.799494   1.000000
   82        5.841330   1.000000
   83        5.928588   1.000000
   84        5.975955   1.000000
   85        6.034264   1.000000
   86        6.069222   1.000000
   87        6.106802   1.000000
   88        6.143978   1.000001
   89        6.196663   1.000008
   90        6.267595   1.000069
   91        6.296929   1.000156
   92        6.328885   1.000359
   93        6.402798   1.001971
   94        6.437504   1.003924
   95        6.494138   1.010254
   96        6.536374   1.018152
   97        6.582165   1.028527
   98        6.639386   1.035307
   99        6.657668   1.032762
  100        6.708438   1.001499
  101        6.810334   0.769647
  102        6.845628   0.635806
  103        6.924163   0.311084
  104        6.961676   0.178581
  105        7.039994   0.007690
  106        7.093357  -0.031310
  107        7.166266  -0.030209
  108        7.249147  -0.012417
  109        7.323103  -0.003624
  110        7.447984  -0.000212
  111        7.588486  -0.000003
  112        7.699555  -0.000000
  113        7.761301  -0.000000
  114        7.820557  -0.000000
  115        7.948127  -0.000000
  116        8.007635  -0.000000
  117        8.144607  -0.000000
  118        8.301886  -0.000000
  119        8.384555  -0.000000
  120        8.513904  -0.000000
 
  0.0000000E+00  0.2000000E+00  0.1387779E-16  0.1600000E-01
    1      -47.293318   1.000000
    2      -47.180722   1.000000
    3      -47.101475   1.000000
    4      -47.037778   1.000000
    5      -46.971820   1.000000
    6      -46.869958   1.000000
    7      -23.847634   1.000000
    8      -23.787559   1.000000
    9      -23.587602   1.000000
   10      -23.558410   1.000000
   11      -23.430199   1.000000
   12      -23.350679   1.000000
   13      -23.324568   1.000000
   14      -23.296891   1.000000
   15      -23.274373   1.000000
   16      -23.223603   1.000000
   17      -23.199882   1.000000
   18      -23.156783   1.000000
   19      -23.133575   1.000000
   20      -23.064087   1.000000
   21      -23.046944   1.000000
   22      -22.877922   1.000000
   23      -22.795300   1.000000
   24      -22.593707   1.000000
   25       -0.372960   1.000000
   26        0.927033   1.000000
   27        1.291935   1.000000
   28        1.700160   1.000000
   29        2.047428   1.000000
   30        2.269882   1.000000
   31        2.327874   1.000000
   32        2.477270   1.000000
   33        2.566429   1.000000
   34        2.644965   1.000000
   35        2.697696   1.000000
   36        2.736629   1.000000
   37        2.877922   1.000000
   38        2.919842   1.000000
   39        2.993005   1.000000
   40        3.015668   1.000000
   41        3.108353   1.000000
   42        3.174650   1.000000
   43        3.329755   1.000000
   44        3.392765   1.000000
   45        3.499758   1.000000
   46        3.576054   1.000000
   47        3.648162   1.000000
   48        3.734029   1.000000
   49        3.807937   1.000000
   50        3.843647   1.000000
   51        3.872654   1.000000
   52        3.961511   1.000000
   53        4.007186   1.000000
   54        4.065597   1.000000
   55        4.154968   1.000000
   56        4.231610   1.000000
   57        4.346835   1.000000
   58        4.492482   1.000000
   59        4.546005   1.000000
   60        4.618554   1.000000
   61        4.674781   1.000000
   62        4.796941   1.000000
   63        4.839563   1.000000
   64        4.902626   1.000000
   65        4.932350   1.000000
   66        4.991409   1.000000
   67        5.071305   1.000000
   68        5.106941   1.000000
   69        5.123396   1.000000
   70        5.176917   1.000000
   71        5.249087   1.000000
   72        5.267061   1.000000
   73        5.309183   1.000000
   74        5.359445   1.000000
   75        5.420530   1.000000
   76        5.510623   1.000000
   77        5.580656   1.000000
   78        5.646698   1.000000
   79        5.737470   1.000000
   80        5.798974   1.000000
   81        5.916049   1.000000
   82        5.936659   1.000000
   83        6.013386   1.000000
   84        6.060504   1.000000
   85        6.104897   1.000000
   86        6.184054   1.000005
   87        6.260390   1.000056
   88        6.291803   1.000136
   89        6.304603   1.000192
   90        6.376102   1.001105
   91        6.389398   1.001482
   92        6.469270   1.006902
   93        6.501389   1.011417
   94        6.561317   1.023788
   95        6.629557   1.035407
   96        6.681513   1.023320
   97        6.900415   0.406627
   98        6.937083   0.262402
   99        7.000812   0.074204
  100        7.187861  -0.025456
  101        7.245480  -0.013071
  102        7.377645  -0.001172
  103        7.399409  -0.000712
  104        7.573518  -0.000005
  105        7.770123  -0.000000
  106        7.836347  -0.000000
  107        7.891107  -0.000000
  108        8.002002  -0.000000
  109        8.139124  -0.000000
  110        8.166857  -0.000000
  111        8.256169  -0.000000
  112        8.319969  -0.000000
  113        8.416946  -0.000000
  114        8.690946  -0.000000
  115        8.739342  -0.000000
  116        8.839392  -0.000000
  117        8.915811  -0.000000
  118        8.962178  -0.000000
  119        9.040462  -0.000000
  120        9.083364  -0.000000
 
  0.2000000E+00  0.2000000E+00 -0.4857226E-16  0.1600000E-01
    1      -47.292648   1.000000
    2      -47.174828   1.000000
    3      -47.101319   1.000000
    4      -47.037553   1.000000
    5      -46.971220   1.000000
    6      -46.876575   1.000000
    7      -23.805205   1.000000
    8      -23.731474   1.000000
    9      -23.590986   1.000000
   10      -23.556825   1.000000
   11      -23.435779   1.000000
   12      -23.346825   1.000000
   13      -23.322930   1.000000
   14      -23.297162   1.000000
   15      -23.279428   1.000000
   16      -23.227814   1.000000
   17      -23.198298   1.000000
   18      -23.157960   1.000000
   19      -23.137453   1.000000
   20      -23.070968   1.000000
   21      -23.053393   1.000000
   22      -22.873232   1.000000
   23      -22.794506   1.000000
   24      -22.713634   1.000000
   25       -0.192179   1.000000
   26        1.082864   1.000000
   27        1.494747   1.000000
   28        2.070714   1.000000
   29        2.276556   1.000000
   30        2.380314   1.000000
   31        2.441313   1.000000
   32        2.533159   1.000000
   33        2.666708   1.000000
   34        2.808725   1.000000
   35        2.838734   1.000000
   36        2.924477   1.000000
   37        2.939819   1.000000
   38        3.094956   1.000000
   39        3.183933   1.000000
   40        3.225655   1.000000
   41        3.253936   1.000000
   42        3.377041   1.000000
   43        3.472356   1.000000
   44        3.518044   1.000000
   45        3.589803   1.000000
   46        3.678104   1.000000
   47        3.765921   1.000000
   48        3.823748   1.000000
   49        3.859690   1.000000
   50        3.920498   1.000000
   51        3.971088   1.000000
   52        4.043350   1.000000
   53        4.135984   1.000000
   54        4.190768   1.000000
   55        4.233865   1.000000
   56        4.369874   1.000000
   57        4.410180   1.000000
   58        4.503088   1.000000
   59        4.592487   1.000000
   60        4.663224   1.000000
   61        4.705899   1.000000
   62        4.757679   1.000000
   63        4.851037   1.000000
   64        4.890243   1.000000
   65        4.944402   1.000000
   66        5.017593   1.000000
   67        5.080830   1.000000
   68        5.108887   1.000000
   69        5.137513   1.000000
   70        5.192075   1.000000
   71        5.243104   1.000000
   72        5.300583   1.000000
   73        5.319630   1.000000
   74        5.376332   1.000000
   75        5.390599   1.000000
   76        5.484084   1.000000
   77        5.542130   1.000000
   78        5.587005   1.000000
   79        5.693648   1.000000
   80        5.767971   1.000000
   81        5.816362   1.000000
   82        5.834508   1.000000
   83        5.930732   1.000000
   84        5.989678   1.000000
   85        6.046540   1.000000
   86        6.123496   1.000001
   87        6.175108   1.000004
   88        6.273155   1.000081
   89        6.331343   1.000382
   90        6.363606   1.000831
   91        6.402654   1.001965
   92        6.503770   1.011817
   93        6.517609   1.014319
   94        6.595062   1.031185
   95        6.672308   1.027919
   96        6.727693   0.976883
   97        6.793295   0.825868
   98        6.865543   0.553424
   99        6.990463   0.098095
  100        7.052176  -0.005831
  101        7.100057  -0.033068
  102        7.186307  -0.025813
  103        7.253338  -0.011696
  104        7.288730  -0.006719
  105        7.343748  -0.002414
  106        7.452151  -0.000190
  107        7.495249  -0.000058
  108        7.649856  -0.000000
  109        7.784377  -0.000000
  110        7.979410  -0.000000
  111        8.051159  -0.000000
  112        8.137673  -0.000000
  113        8.482076  -0.000000
  114        8.584322  -0.000000
  115        8.694085  -0.000000
  116        8.820708  -0.000000
  117        8.894539  -0.000000
  118        9.028886  -0.000000
  119        9.111085  -0.000000
  120        9.145633  -0.000000
 
  0.4000000E+00  0.2000000E+00 -0.5551115E-16  0.1600000E-01
    1      -47.291564   1.000000
    2      -47.164642   1.000000
    3      -47.100294   1.000000
    4      -47.037128   1.000000
    5      -46.971098   1.000000
    6      -46.887884   1.000000
    7      -23.802976   1.000000
    8      -23.596640   1.000000
    9      -23.572033   1.000000
   10      -23.467383   1.000000
   11      -23.423263   1.000000
   12      -23.342460   1.000000
   13      -23.317903   1.000000
   14      -23.298951   1.000000
   15      -23.286748   1.000000
   16      -23.234765   1.000000
   17      -23.193998   1.000000
   18      -23.160401   1.000000
   19      -23.142599   1.000000
   20      -23.083757   1.000000
   21      -23.065780   1.000000
   22      -23.004183   1.000000
   23      -22.879348   1.000000
   24      -22.796108   1.000000
   25        0.531592   1.000000
   26        1.499222   1.000000
   27        1.947925   1.000000
   28        2.139581   1.000000
   29        2.298678   1.000000
   30        2.449734   1.000000
   31        2.725070   1.000000
   32        2.976697   1.000000
   33        3.057312   1.000000
   34        3.164907   1.000000
   35        3.232061   1.000000
   36        3.276702   1.000000
   37        3.352620   1.000000
   38        3.396790   1.000000
   39        3.502148   1.000000
   40        3.556538   1.000000
   41        3.575378   1.000000
   42        3.617559   1.000000
   43        3.675248   1.000000
   44        3.746247   1.000000
   45        3.803551   1.000000
   46        3.851625   1.000000
   47        3.912979   1.000000
   48        3.969453   1.000000
   49        4.029308   1.000000
   50        4.124253   1.000000
   51        4.180981   1.000000
   52        4.207145   1.000000
   53        4.282932   1.000000
   54        4.390290   1.000000
   55        4.405514   1.000000
   56        4.480928   1.000000
   57        4.525329   1.000000
   58        4.655498   1.000000
   59        4.701033   1.000000
   60        4.729953   1.000000
   61        4.832589   1.000000
   62        4.842011   1.000000
   63        4.881308   1.000000
   64        4.958023   1.000000
   65        5.004479   1.000000
   66        5.097982   1.000000
   67        5.133711   1.000000
   68        5.158285   1.000000
   69        5.228689   1.000000
   70        5.256480   1.000000
   71        5.286859   1.000000
   72        5.343370   1.000000
   73        5.381597   1.000000
   74        5.467546   1.000000
   75        5.543791   1.000000
   76        5.572598   1.000000
   77        5.609508   1.000000
   78        5.638908   1.000000
   79        5.689316   1.000000
   80        5.778602   1.000000
   81        5.844117   1.000000
   82        5.867931   1.000000
   83        5.923225   1.000000
   84        5.980330   1.000000
   85        6.040817   1.000000
   86        6.064930   1.000000
   87        6.096353   1.000000
   88        6.137051   1.000001
   89        6.169522   1.000003
   90        6.229598   1.000023
   91        6.278474   1.000094
   92        6.298409   1.000163
   93        6.322041   1.000302
   94        6.398247   1.001791
   95        6.446430   1.004629
   96        6.471770   1.007196
   97        6.513305   1.013509
   98        6.578286   1.027671
   99        6.614663   1.034289
  100        6.660745   1.031974
  101        6.723507   0.982940
  102        6.836356   0.672819
  103        6.919089   0.330916
  104        6.995162   0.086912
  105        7.049118  -0.002728
  106        7.226790  -0.016716
  107        7.304425  -0.005116
  108        7.368361  -0.001438
  109        7.492496  -0.000062
  110        7.576196  -0.000005
  111        7.728281  -0.000000
  112        7.934675  -0.000000
  113        8.067310  -0.000000
  114        8.137862  -0.000000
  115        8.312510  -0.000000
  116        8.366581  -0.000000
  117        8.462180  -0.000000
  118        8.497649  -0.000000
  119        8.563126  -0.000000
  120        8.652974  -0.000000
 
 -0.4000000E+00  0.2000000E+00 -0.3908332E-16  0.1600000E-01
    1      -47.291548   1.000000
    2      -47.164633   1.000000
    3      -47.099811   1.000000
    4      -47.037093   1.000000
    5      -46.971625   1.000000
    6      -46.887878   1.000000
    7      -23.802185   1.000000
    8      -23.592315   1.000000
    9      -23.568038   1.000000
   10      -23.467499   1.000000
   11      -23.423430   1.000000
   12      -23.342381   1.000000
   13      -23.318023   1.000000
   14      -23.299065   1.000000
   15      -23.286849   1.000000
   16      -23.234789   1.000000
   17      -23.194011   1.000000
   18      -23.160312   1.000000
   19      -23.142514   1.000000
   20      -23.083767   1.000000
   21      -23.065973   1.000000
   22      -23.004215   1.000000
   23      -22.888551   1.000000
   24      -22.798036   1.000000
   25        0.875358   1.000000
   26        1.500196   1.000000
   27        1.807760   1.000000
   28        2.275767   1.000000
   29        2.286869   1.000000
   30        2.543141   1.000000
   31        2.707600   1.000000
   32        2.916267   1.000000
   33        3.006219   1.000000
   34        3.096003   1.000000
   35        3.120687   1.000000
   36        3.238864   1.000000
   37        3.295233   1.000000
   38        3.365134   1.000000
   39        3.407134   1.000000
   40        3.459550   1.000000
   41        3.554635   1.000000
   42        3.614602   1.000000
   43        3.659071   1.000000
   44        3.781949   1.000000
   45        3.828750   1.000000
   46        3.866791   1.000000
   47        3.984300   1.000000
   48        4.069720   1.000000
   49        4.139949   1.000000
   50        4.200499   1.000000
   51        4.266465   1.000000
   52        4.321205   1.000000
   53        4.426315   1.000000
   54        4.479313   1.000000
   55        4.539479   1.000000
   56        4.546724   1.000000
   57        4.622145   1.000000
   58        4.641843   1.000000
   59        4.727717   1.000000
   60        4.812622   1.000000
   61        4.834651   1.000000
   62        4.880515   1.000000
   63        4.929676   1.000000
   64        4.970149   1.000000
   65        5.032110   1.000000
   66        5.043821   1.000000
   67        5.075148   1.000000
   68        5.131649   1.000000
   69        5.172417   1.000000
   70        5.202017   1.000000
   71        5.267970   1.000000
   72        5.334184   1.000000
   73        5.350712   1.000000
   74        5.417272   1.000000
   75        5.481440   1.000000
   76        5.533634   1.000000
   77        5.575285   1.000000
   78        5.631639   1.000000
   79        5.726379   1.000000
   80        5.777579   1.000000
   81        5.824758   1.000000
   82        5.874226   1.000000
   83        5.936412   1.000000
   84        5.940444   1.000000
   85        5.990168   1.000000
   86        6.051639   1.000000
   87        6.115008   1.000000
   88        6.125376   1.000001
   89        6.195460   1.000008
   90        6.226335   1.000020
   91        6.280581   1.000100
   92        6.345376   1.000539
   93        6.375531   1.001091
   94        6.442296   1.004291
   95        6.483352   1.008681
   96        6.517677   1.014332
   97        6.636888   1.035406
   98        6.677030   1.025722
   99        6.715247   0.993726
  100        6.759284   0.917562
  101        6.795697   0.818334
  102        6.862878   0.564609
  103        6.901828   0.400778
  104        6.994721   0.087938
  105        7.068701  -0.019473
  106        7.116000  -0.035251
  107        7.148885  -0.033329
  108        7.264174  -0.009961
  109        7.278354  -0.007974
  110        7.413464  -0.000508
  111        7.449296  -0.000205
  112        7.745978  -0.000000
  113        7.808514  -0.000000
  114        7.927011  -0.000000
  115        8.089810  -0.000000
  116        8.202164  -0.000000
  117        8.299805  -0.000000
  118        8.367995  -0.000000
  119        8.430386  -0.000000
  120        8.464650  -0.000000
 
 -0.2000000E+00  0.2000000E+00  0.1006140E-15  0.1600000E-01
    1      -47.292622   1.000000
    2      -47.174814   1.000000
    3      -47.100545   1.000000
    4      -47.037491   1.000000
    5      -46.972073   1.000000
    6      -46.876566   1.000000
    7      -23.804086   1.000000
    8      -23.731205   1.000000
    9      -23.579029   1.000000
   10      -23.555470   1.000000
   11      -23.436254   1.000000
   12      -23.346884   1.000000
   13      -23.322950   1.000000
   14      -23.297311   1.000000
   15      -23.279631   1.000000
   16      -23.227850   1.000000
   17      -23.198317   1.000000
   18      -23.157834   1.000000
   19      -23.137296   1.000000
   20      -23.070974   1.000000
   21      -23.053739   1.000000
   22      -22.887789   1.000000
   23      -22.797832   1.000000
   24      -22.713676   1.000000
   25        0.057646   1.000000
   26        1.186947   1.000000
   27        1.525493   1.000000
   28        1.824527   1.000000
   29        2.158955   1.000000
   30        2.501102   1.000000
   31        2.565884   1.000000
   32        2.718761   1.000000
   33        2.771354   1.000000
   34        2.847445   1.000000
   35        2.869374   1.000000
   36        2.924463   1.000000
   37        2.991370   1.000000
   38        3.065168   1.000000
   39        3.144079   1.000000
   40        3.183821   1.000000
   41        3.222751   1.000000
   42        3.344382   1.000000
   43        3.369869   1.000000
   44        3.489410   1.000000
   45        3.580513   1.000000
   46        3.598322   1.000000
   47        3.713708   1.000000