       N       E                     dE             d eps       ncg     rms          rms(c)
DAV:   1     0.210535752444E+04    0.21054E+04   -0.94066E+04 15120   0.177E+03
DAV:   2     0.530201306313E+02   -0.20523E+04   -0.19937E+04 15128   0.531E+02
DAV:   3    -0.307441442274E+03   -0.36046E+03   -0.34353E+03 26480   0.176E+02
DAV:   4    -0.351783039237E+03   -0.44342E+02   -0.40955E+02 23432   0.582E+01
DAV:   5    -0.356712852758E+03   -0.49298E+01   -0.47955E+01 28648   0.214E+01    0.757E+01
DAV:   6    -0.346211457850E+03    0.10501E+02   -0.12224E+02 21224   0.305E+01    0.363E+01
DAV:   7    -0.358377803835E+03   -0.12166E+02   -0.40350E+02 21152   0.782E+01    0.266E+01
DAV:   8    -0.346435680112E+03    0.11942E+02   -0.65567E+01 23144   0.251E+01    0.186E+01
DAV:   9    -0.338101068532E+03    0.83346E+01   -0.18236E+01 22224   0.137E+01    0.120E+01
DAV:  10    -0.335441995316E+03    0.26591E+01   -0.12637E+01 22128   0.960E+00    0.782E+00
DAV:  11    -0.334586008624E+03    0.85599E+00   -0.44101E+00 22296   0.567E+00    0.405E+00
DAV:  12    -0.334509302869E+03    0.76706E-01   -0.16895E+00 23712   0.360E+00    0.281E+00
DAV:  13    -0.334491889715E+03    0.17413E-01   -0.12765E+00 22168   0.362E+00    0.204E+00
DAV:  14    -0.334432312326E+03    0.59577E-01   -0.59897E-01 23080   0.233E+00    0.116E+00
DAV:  15    -0.334422905674E+03    0.94067E-02   -0.19922E-01 22144   0.131E+00    0.869E-01
DAV:  16    -0.334420814420E+03    0.20913E-02   -0.83739E-02 22944   0.774E-01    0.667E-01
DAV:  17    -0.334416606074E+03    0.42083E-02   -0.32339E-02 21712   0.512E-01    0.413E-01
DAV:  18    -0.334414954455E+03    0.16516E-02   -0.24478E-02 21344   0.453E-01    0.180E-01
DAV:  19    -0.334414755873E+03    0.19858E-03   -0.63876E-03 21224   0.236E-01    0.120E-01
DAV:  20    -0.334414624710E+03    0.13116E-03   -0.21042E-03 19624   0.142E-01    0.769E-02
DAV:  21    -0.334414555497E+03    0.69214E-04   -0.79321E-04 16520   0.915E-02
   1 F= -.33441456E+03 E0= -.33441563E+03  d E =-.334415E+03
       N       E                     dE             d eps       ncg     rms          rms(c)
DAV:   1    -0.335548120903E+03   -0.11335E+01   -0.14637E+02 15472   0.478E+01    0.113E+01
DAV:   2    -0.335784795412E+03   -0.23667E+00   -0.18406E+01 21872   0.180E+01    0.737E+00
DAV:   3    -0.335478590373E+03    0.30621E+00   -0.11423E+01 22040   0.103E+01    0.642E+00
DAV:   4    -0.335088495250E+03    0.39010E+00   -0.65701E+00 23128   0.852E+00    0.344E+00
DAV:   5    -0.334883369131E+03    0.20513E+00   -0.19857E+00 22488   0.523E+00    0.200E+00
DAV:   6    -0.334820170957E+03    0.63198E-01   -0.67866E-01 23048   0.252E+00    0.120E+00
DAV:   7    -0.334822347153E+03   -0.21762E-02   -0.16557E-01 24616   0.124E+00    0.863E-01
DAV:   8    -0.334823680365E+03   -0.13332E-02   -0.51802E-02 23472   0.736E-01    0.680E-01
DAV:   9    -0.334826968063E+03   -0.32877E-02   -0.45973E-02 22168   0.593E-01    0.534E-01
DAV:  10    -0.334828547376E+03   -0.15793E-02   -0.29089E-02 24072   0.510E-01    0.324E-01
DAV:  11    -0.334829480309E+03   -0.93293E-03   -0.15932E-02 22936   0.381E-01    0.230E-01
DAV:  12    -0.334829424454E+03    0.55855E-04   -0.77729E-03 22672   0.244E-01    0.113E-01
DAV:  13    -0.334829492273E+03   -0.67819E-04   -0.16694E-03 21936   0.116E-01    0.557E-02
DAV:  14    -0.334829496529E+03   -0.42567E-05   -0.38524E-04 13216   0.753E-02
   2 F= -.33482950E+03 E0= -.33482986E+03  d E =-.414941E+00
       N       E                     dE             d eps       ncg     rms          rms(c)
DAV:   1    -0.334885019311E+03   -0.55527E-01   -0.60127E+00 15568   0.975E+00    0.237E+00
DAV:   2    -0.334894538329E+03   -0.95190E-02   -0.70831E-01 22520   0.355E+00    0.157E+00
DAV:   3    -0.334897959065E+03   -0.34207E-02   -0.58630E-01 22176   0.246E+00    0.142E+00
DAV:   4    -0.334869920838E+03    0.28038E-01   -0.23291E-01 22528   0.156E+00    0.662E-01
DAV:   5    -0.334861159067E+03    0.87618E-02   -0.77568E-02 22504   0.102E+00    0.383E-01
DAV:   6    -0.334859596154E+03    0.15629E-02   -0.32138E-02 23104   0.563E-01    0.259E-01
DAV:   7    -0.334859285769E+03    0.31038E-03   -0.86868E-03 22544   0.289E-01    0.175E-01
DAV:   8    -0.334859246551E+03    0.39219E-04   -0.29982E-03 20392   0.175E-01    0.135E-01
DAV:   9    -0.334859303926E+03   -0.57375E-04   -0.19268E-03 19552   0.122E-01    0.100E-01
DAV:  10    -0.334859384963E+03   -0.81037E-04   -0.10466E-03 17976   0.103E-01    0.684E-02
DAV:  11    -0.334859389443E+03   -0.44797E-05   -0.73900E-04 17096   0.963E-02
   3 F= -.33485939E+03 E0= -.33485992E+03  d E =-.444834E+00
       N       E                     dE             d eps       ncg     rms          rms(c)
DAV:   1    -0.335064704338E+03   -0.20532E+00   -0.70087E+01 15328   0.288E+01    0.423E+00
DAV:   2    -0.335304634403E+03   -0.23993E+00   -0.51478E+00 20992   0.877E+00    0.300E+00
DAV:   3    -0.335309811160E+03   -0.51768E-02   -0.21795E+00 22856   0.486E+00    0.243E+00
DAV:   4    -0.335219156102E+03    0.90655E-01   -0.61713E-01 22072   0.257E+00    0.131E+00
DAV:   5    -0.335206799969E+03    0.12356E-01   -0.28211E-01 22880   0.168E+00    0.947E-01
DAV:   6    -0.335196107464E+03    0.10693E-01   -0.14093E-01 23856   0.120E+00    0.506E-01
DAV:   7    -0.335193937553E+03    0.21699E-02   -0.32795E-02 25016   0.618E-01    0.352E-01
DAV:   8    -0.335193870097E+03    0.67456E-04   -0.12363E-02 22784   0.327E-01    0.289E-01
DAV:   9    -0.335193925526E+03   -0.55429E-04   -0.56966E-03 20504   0.206E-01    0.228E-01
DAV:  10    -0.335194062366E+03   -0.13684E-03   -0.27242E-03 20184   0.166E-01    0.155E-01
DAV:  11    -0.335194352422E+03   -0.29006E-03   -0.30177E-03 21176   0.179E-01    0.116E-01
DAV:  12    -0.335194166875E+03    0.18555E-03   -0.21701E-03 19768   0.143E-01    0.460E-02
DAV:  13    -0.335194121419E+03    0.45456E-04   -0.29547E-04 11608   0.694E-02
   4 F= -.33519412E+03 E0= -.33519405E+03  d E =-.334732E+00
       N       E                     dE             d eps       ncg     rms          rms(c)
DAV:   1    -0.335205366284E+03   -0.11199E-01   -0.96497E+00 15632   0.106E+01    0.150E+00
DAV:   2    -0.335236008915E+03   -0.30643E-01   -0.67117E-01 21216   0.316E+00    0.111E+00
DAV:   3    -0.335232938533E+03    0.30704E-02   -0.27861E-01 22792   0.170E+00    0.867E-01
DAV:   4    -0.335222801451E+03    0.10137E-01   -0.86030E-02 21920   0.952E-01    0.498E-01
DAV:   5    -0.335221062169E+03    0.17393E-02   -0.41759E-02 22784   0.640E-01    0.359E-01
DAV:   6    -0.335219406525E+03    0.16556E-02   -0.18306E-02 23848   0.435E-01    0.180E-01
DAV:   7    -0.335219189550E+03    0.21698E-03   -0.41139E-03 25192   0.225E-01    0.141E-01
DAV:   8    -0.335219152570E+03    0.36980E-04   -0.20258E-03 20424   0.131E-01    0.112E-01
DAV:   9    -0.335219140524E+03    0.12046E-04   -0.84416E-04 17280   0.849E-02
   5 F= -.33521914E+03 E0= -.33521897E+03  d E =-.359751E+00
       N       E                     dE             d eps       ncg     rms          rms(c)
DAV:   1    -0.335252757919E+03   -0.33605E-01   -0.37212E+00 15880   0.640E+00    0.781E-01
DAV:   2    -0.335279606720E+03   -0.26849E-01   -0.30606E-01 23096   0.214E+00    0.104E+00
DAV:   3    -0.335264662653E+03    0.14944E-01   -0.14201E-01 23080   0.114E+00    0.482E-01
DAV:   4    -0.335263216342E+03    0.14463E-02   -0.22163E-02 23680   0.513E-01    0.318E-01
DAV:   5    -0.335262515802E+03    0.70054E-03   -0.15233E-02 22384   0.384E-01    0.214E-01
DAV:   6    -0.335262033695E+03    0.48211E-03   -0.67497E-03 22784   0.250E-01    0.114E-01
DAV:   7    -0.335261891389E+03    0.14231E-03   -0.19513E-03 21112   0.138E-01    0.715E-02
DAV:   8    -0.335261861917E+03    0.29472E-04   -0.52693E-04 14216   0.756E-02
   6 F= -.33526186E+03 E0= -.33526138E+03  d E =-.427214E-01
       N       E                     dE             d eps       ncg     rms          rms(c)
DAV:   1    -0.335266789159E+03   -0.48978E-02   -0.82559E+00 15728   0.954E+00    0.118E+00
DAV:   2    -0.335328498481E+03   -0.61709E-01   -0.69973E-01 23048   0.323E+00    0.160E+00
DAV:   3    -0.335294038704E+03    0.34460E-01   -0.33486E-01 23048   0.174E+00    0.730E-01
DAV:   4    -0.335290689166E+03    0.33495E-02   -0.49709E-02 23728   0.765E-01    0.480E-01
DAV:   5    -0.335289233417E+03    0.14557E-02   -0.35903E-02 22400   0.580E-01    0.333E-01
DAV:   6    -0.335287982785E+03    0.12506E-02   -0.16113E-02 23624   0.386E-01    0.169E-01
DAV:   7    -0.335287653134E+03    0.32965E-03   -0.45669E-03 22736   0.209E-01    0.106E-01
DAV:   8    -0.335287590235E+03    0.62899E-04   -0.13546E-03 19048   0.111E-01    0.778E-02
DAV:   9    -0.335287575373E+03    0.14862E-04   -0.50170E-04 14328   0.736E-02
   7 F= -.33528758E+03 E0= -.33528663E+03  d E =-.684348E-01
       N       E                     dE             d eps       ncg     rms          rms(c)
DAV:   1    -0.335346739226E+03   -0.59149E-01   -0.43501E+00 16768   0.883E+00    0.231E+00
DAV:   2    -0.335341596402E+03    0.51428E-02   -0.61798E-01 23768   0.340E+00    0.142E+00
DAV:   3    -0.335337911002E+03    0.36854E-02   -0.49315E-01 22712   0.224E+00    0.128E+00
DAV:   4    -0.335315353537E+03    0.22557E-01   -0.23018E-01 23032   0.157E+00    0.695E-01
DAV:   5    -0.335309070335E+03    0.62832E-02   -0.95860E-02 22488   0.940E-01    0.448E-01
DAV:   6    -0.335306137663E+03    0.29327E-02   -0.30363E-02 23896   0.507E-01    0.215E-01
DAV:   7    -0.335306305169E+03   -0.16751E-03   -0.73758E-03 22560   0.265E-01    0.165E-01
DAV:   8    -0.335306283126E+03    0.22043E-04   -0.27013E-03 20056   0.161E-01    0.118E-01
DAV:   9    -0.335306393570E+03   -0.11044E-03   -0.13144E-03 19256   0.108E-01    0.895E-02
DAV:  10    -0.335306543587E+03   -0.15002E-03   -0.10481E-03 18888   0.990E-02    0.649E-02
DAV:  11    -0.335306560114E+03   -0.16527E-04   -0.59668E-04 14944   0.909E-02
   8 F= -.33530656E+03 E0= -.33530545E+03  d E =-.189847E-01
       N       E                     dE             d eps       ncg     rms          rms(c)
DAV:   1    -0.335306900430E+03   -0.35684E-03   -0.18052E-02 18248   0.572E-01    0.152E-01
DAV:   2    -0.335306939307E+03   -0.38877E-04   -0.31245E-03 24744   0.226E-01    0.104E-01
DAV:   3    -0.335306901218E+03    0.38090E-04   -0.22057E-03 19224   0.150E-01    0.863E-02
DAV:   4    -0.335306799185E+03    0.10203E-03   -0.81585E-04 16488   0.999E-02    0.499E-02
DAV:   5    -0.335306774127E+03    0.25059E-04   -0.44448E-04 13360   0.771E-02
   9 F= -.33530677E+03 E0= -.33530566E+03  d E =-.191988E-01
       N       E                     dE             d eps       ncg     rms          rms(c)
DAV:   1    -0.335313351946E+03   -0.65528E-02   -0.94790E-01 16432   0.312E+00    0.276E-01
DAV:   2    -0.335319586917E+03   -0.62350E-02   -0.63362E-02 24192   0.108E+00    0.476E-01
DAV:   3    -0.335315828439E+03    0.37585E-02   -0.28585E-02 23752   0.522E-01    0.171E-01
DAV:   4    -0.335315628883E+03    0.19956E-03   -0.32232E-03 22320   0.181E-01    0.117E-01
DAV:   5    -0.335315531244E+03    0.97639E-04   -0.15357E-03 19184   0.119E-01    0.918E-02
DAV:   6    -0.335315508920E+03    0.22324E-04   -0.12022E-03 17840   0.108E-01    0.686E-02
DAV:   7    -0.335315432937E+03    0.75983E-04   -0.39909E-04 13248   0.798E-02
  10 F= -.33531543E+03 E0= -.33531431E+03  d E =-.865881E-02
       N       E                     dE             d eps       ncg     rms          rms(c)
DAV:   1    -0.335313366170E+03    0.21428E-02   -0.44280E+00 16432   0.675E+00    0.602E-01
DAV:   2    -0.335340977674E+03   -0.27612E-01   -0.28634E-01 24168   0.229E+00    0.995E-01
DAV:   3    -0.335325356439E+03    0.15621E-01   -0.12802E-01 23744   0.110E+00    0.378E-01
DAV:   4    -0.335324302816E+03    0.10536E-02   -0.14319E-02 24784   0.385E-01    0.254E-01
DAV:   5    -0.335323961476E+03    0.34134E-03   -0.70773E-03 21792   0.250E-01    0.209E-01
DAV:   6    -0.335323809579E+03    0.15190E-03   -0.59758E-03 22232   0.233E-01    0.146E-01
DAV:   7    -0.335323454703E+03    0.35488E-03   -0.20424E-03 20120   0.153E-01    0.636E-02
DAV:   8    -0.335323426371E+03    0.28332E-04   -0.77659E-04 16208   0.904E-02
  11 F= -.33532343E+03 E0= -.33532229E+03  d E =-.166522E-01
       N       E                     dE             d eps       ncg     rms          rms(c)
DAV:   1    -0.335327819095E+03   -0.43644E-02   -0.37389E-01 18088   0.258E+00    0.658E-01
DAV:   2    -0.335327835220E+03   -0.16125E-04   -0.56843E-02 24352   0.997E-01    0.417E-01
DAV:   3    -0.335327225240E+03    0.60998E-03   -0.46366E-02 22224   0.663E-01    0.347E-01
DAV:   4    -0.335325177917E+03    0.20473E-02   -0.16339E-02 23256   0.403E-01    0.143E-01
DAV:   5    -0.335325092411E+03    0.85506E-04   -0.57788E-03 21808   0.235E-01    0.141E-01
DAV:   6    -0.335324808426E+03    0.28399E-03   -0.24274E-03 20424   0.147E-01    0.617E-02
DAV:   7    -0.335324804484E+03    0.39423E-05   -0.31854E-04 12056   0.731E-02
  12 F= -.33532480E+03 E0= -.33532364E+03  d E =-.137811E-02
       N       E                     dE             d eps       ncg     rms          rms(c)
DAV:   1    -0.335324878600E+03   -0.70174E-04   -0.27322E-03 19952   0.220E-01    0.765E-02
DAV:   2    -0.335324928145E+03   -0.49545E-04   -0.10568E-03 19856   0.119E-01    0.675E-02
DAV:   3    -0.335324879757E+03    0.48388E-04   -0.82672E-04 16496   0.929E-02
  13 F= -.33532488E+03 E0= -.33532372E+03  d E =-.145339E-02
       N       E                     dE             d eps       ncg     rms          rms(c)
DAV:   1    -0.335325446574E+03   -0.51843E-03   -0.26018E-01 15440   0.179E+00    0.216E-01
DAV:   2    -0.335326628870E+03   -0.11823E-02   -0.19037E-02 22672   0.545E-01    0.191E-01
DAV:   3    -0.335326423443E+03    0.20543E-03   -0.63810E-03 20424   0.253E-01    0.137E-01
DAV:   4    -0.335326236183E+03    0.18726E-03   -0.18786E-03 19896   0.146E-01    0.822E-02
DAV:   5    -0.335326197959E+03    0.38224E-04   -0.11474E-03 17344   0.116E-01    0.572E-02
DAV:   6    -0.335326136571E+03    0.61388E-04   -0.43557E-04 13568   0.828E-02
  14 F= -.33532614E+03 E0= -.33532498E+03  d E =-.125681E-02
       N       E                     dE             d eps       ncg     rms          rms(c)
DAV:   1    -0.335326011824E+03    0.18613E-03   -0.96384E-02 15576   0.109E+00    0.127E-01
DAV:   2    -0.335326544259E+03   -0.53243E-03   -0.71839E-03 22640   0.337E-01    0.127E-01
DAV:   3    -0.335326411513E+03    0.13275E-03   -0.25168E-03 18792   0.155E-01    0.788E-02
DAV:   4    -0.335326339944E+03    0.71569E-04   -0.45859E-04 13624   0.862E-02
  15 F= -.33532634E+03 E0= -.33532517E+03  d E =-.146019E-02
       N       E                     dE             d eps       ncg     rms          rms(c)
DAV:   1    -0.335326684407E+03   -0.27289E-03   -0.46235E-02 15288   0.795E-01    0.159E-01
DAV:   2    -0.335326764024E+03   -0.79617E-04   -0.41294E-03 20336   0.253E-01    0.803E-02
DAV:   3    -0.335326863999E+03   -0.99974E-04   -0.22287E-03 18968   0.153E-01    0.980E-02
DAV:   4    -0.335326700881E+03    0.16312E-03   -0.12727E-03 17864   0.111E-01    0.352E-02
DAV:   5    -0.335326687510E+03    0.13371E-04   -0.25684E-04 11768   0.641E-02
  16 F= -.33532669E+03 E0= -.33532552E+03  d E =-.347565E-03
       N       E                     dE             d eps       ncg     rms          rms(c)
DAV:   1    -0.335326758805E+03   -0.57924E-04   -0.25054E-02 15344   0.589E-01    0.108E-01
DAV:   2    -0.335326846498E+03   -0.87693E-04   -0.25154E-03 20720   0.203E-01    0.714E-02
DAV:   3    -0.335326832528E+03    0.13970E-04   -0.13247E-03 18368   0.119E-01    0.564E-02
DAV:   4    -0.335326777082E+03    0.55446E-04   -0.37028E-04 13320   0.761E-02
  17 F= -.33532678E+03 E0= -.33532559E+03  d E =-.437138E-03
