<?xml version="1.0" encoding="ISO-8859-1"?>
<modeling>
 <generator>
  <i name="program" type="string">vasp </i>
  <i name="version" type="string">5.4.4.18Apr17-6-g9f103f2a35  </i>
  <i name="subversion" type="string">(build Aug 09 2018 16:20:53) complex            parallel </i>
  <i name="platform" type="string">LinuxIFC </i>
  <i name="date" type="string">2020 04 12 </i>
  <i name="time" type="string">17:40:38 </i>
 </generator>
 <incar>
  <i type="string" name="SYSTEM"> SQS with 1 vacancy for VFE and VRV</i>
  <i type="string" name="PREC">normal</i>
  <i type="int" name="IALGO">    38</i>
  <i type="int" name="ICHARG">     2</i>
  <i type="int" name="IBRION">     2</i>
  <i type="int" name="NSW">    20</i>
  <i type="int" name="ISIF">     3</i>
  <i type="int" name="ISYM">     0</i>
  <i name="ENCUT">    600.00000000</i>
  <i type="string" name="LREAL"> Auto</i>
  <i type="int" name="ISMEAR">     1</i>
  <i name="SIGMA">      0.20000000</i>
  <v type="int" name="KPOINT_BSE">    -1     0     0     0</v>
  <i type="string" name="GGA"> PS</i>
 </incar>
 <structure name="primitive_cell" >
  <crystal>
   <varray name="basis" >
    <v>      -3.19000000      -3.19000000      -3.19000000 </v>
    <v>       1.59500000       1.59500000      -7.97500000 </v>
    <v>       7.97500000      -7.97500000      -1.59500000 </v>
   </varray>
   <i name="volume">    486.92638500 </i>
   <varray name="rec_basis" >
    <v>      -0.13584117      -0.12539185      -0.05224660 </v>
    <v>       0.04179728       0.06269592      -0.10449321 </v>
    <v>       0.06269592      -0.06269592       0.00000000 </v>
   </varray>
  </crystal>
  <varray name="positions" >
   <v>      -0.03333333      -0.06666667       0.40000000 </v>
   <v>       0.30000000      -0.40000000       0.40000000 </v>
   <v>      -0.10000000      -0.20000000       0.20000000 </v>
   <v>       0.06666667       0.13333333       0.20000000 </v>
   <v>       0.46666667      -0.06666667       0.40000000 </v>
   <v>      -0.13333333      -0.26666667      -0.40000000 </v>
   <v>       0.03333333       0.06666667      -0.40000000 </v>
   <v>      -0.36666667       0.26666667       0.40000000 </v>
   <v>       0.40000000      -0.20000000       0.20000000 </v>
   <v>      -0.20000000      -0.40000000       0.40000000 </v>
   <v>      -0.43333333       0.13333333       0.20000000 </v>
   <v>       0.36666667      -0.26666667      -0.40000000 </v>
   <v>       0.13333333       0.26666667       0.40000000 </v>
   <v>      -0.46666667       0.06666667      -0.40000000 </v>
   <v>       0.23333333       0.46666667       0.20000000 </v>
   <v>       0.00000000       0.00000000       0.00000000 </v>
   <v>      -0.06666667      -0.13333333      -0.20000000 </v>
   <v>      -0.30000000       0.40000000      -0.40000000 </v>
   <v>      -0.26666667       0.46666667       0.20000000 </v>
   <v>       0.33333333      -0.33333333       0.00000000 </v>
   <v>       0.43333333      -0.13333333      -0.20000000 </v>
   <v>      -0.50000000       0.00000000       0.00000000 </v>
   <v>       0.26666667      -0.46666667      -0.20000000 </v>
   <v>      -0.33333333       0.33333333       0.00000000 </v>
   <v>      -0.40000000       0.20000000      -0.20000000 </v>
   <v>      -0.16666667      -0.33333333       0.00000000 </v>
   <v>      -0.23333333      -0.46666667      -0.20000000 </v>
   <v>       0.16666667       0.33333333       0.00000000 </v>
   <v>       0.10000000       0.20000000      -0.20000000 </v>
  </varray>
 </structure>
 <varray name="primitive_index" >
  <v type="int" >        1 </v>
  <v type="int" >       18 </v>
  <v type="int" >        7 </v>
  <v type="int" >       23 </v>
  <v type="int" >       20 </v>
  <v type="int" >       19 </v>
  <v type="int" >        6 </v>
  <v type="int" >        2 </v>
  <v type="int" >       16 </v>
  <v type="int" >        8 </v>
  <v type="int" >       15 </v>
  <v type="int" >       11 </v>
  <v type="int" >       12 </v>
  <v type="int" >       27 </v>
  <v type="int" >       29 </v>
  <v type="int" >        4 </v>
  <v type="int" >       14 </v>
  <v type="int" >       25 </v>
  <v type="int" >        9 </v>
  <v type="int" >       28 </v>
  <v type="int" >       17 </v>
  <v type="int" >        3 </v>
  <v type="int" >       22 </v>
  <v type="int" >       10 </v>
  <v type="int" >       26 </v>
  <v type="int" >       13 </v>
  <v type="int" >       24 </v>
  <v type="int" >       21 </v>
  <v type="int" >        5 </v>
 </varray>
 <kpoints>
  <generation param="Gamma">
   <v type="int" name="divisions">       5        5        5 </v>
   <v name="usershift">      0.00000000       0.00000000       0.00000000 </v>
   <v name="genvec1">      0.20000000      -0.00000000      -0.00000000 </v>
   <v name="genvec2">      0.00000000       0.20000000       0.00000000 </v>
   <v name="genvec3">      0.00000000       0.00000000       0.20000000 </v>
   <v name="shift">      0.00000000       0.00000000       0.00000000 </v>
  </generation>
  <varray name="kpointlist" >
   <v>       0.00000000       0.00000000       0.00000000 </v>
   <v>       0.20000000      -0.00000000       0.00000000 </v>
   <v>       0.40000000      -0.00000000       0.00000000 </v>
   <v>       0.00000000       0.20000000       0.00000000 </v>
   <v>       0.20000000       0.20000000      -0.00000000 </v>
   <v>       0.40000000       0.20000000      -0.00000000 </v>
   <v>      -0.40000000       0.20000000      -0.00000000 </v>
   <v>      -0.20000000       0.20000000       0.00000000 </v>
   <v>       0.00000000       0.40000000       0.00000000 </v>
   <v>       0.20000000       0.40000000       0.00000000 </v>
   <v>       0.40000000       0.40000000      -0.00000000 </v>
   <v>      -0.40000000       0.40000000       0.00000000 </v>
   <v>      -0.20000000       0.40000000       0.00000000 </v>
   <v>       0.00000000       0.00000000       0.20000000 </v>
   <v>       0.20000000      -0.00000000       0.20000000 </v>
   <v>       0.40000000       0.00000000       0.20000000 </v>
   <v>      -0.40000000       0.00000000       0.20000000 </v>
   <v>      -0.20000000       0.00000000       0.20000000 </v>
   <v>       0.00000000       0.20000000       0.20000000 </v>
   <v>       0.20000000       0.20000000       0.20000000 </v>
   <v>       0.40000000       0.20000000       0.20000000 </v>
   <v>      -0.40000000       0.20000000       0.20000000 </v>
   <v>      -0.20000000       0.20000000       0.20000000 </v>
   <v>       0.00000000       0.40000000       0.20000000 </v>
   <v>       0.20000000       0.40000000       0.20000000 </v>
   <v>       0.40000000       0.40000000       0.20000000 </v>
   <v>      -0.40000000       0.40000000       0.20000000 </v>
   <v>      -0.20000000       0.40000000       0.20000000 </v>
   <v>       0.00000000      -0.40000000       0.20000000 </v>
   <v>       0.20000000      -0.40000000       0.20000000 </v>
   <v>       0.40000000      -0.40000000       0.20000000 </v>
   <v>      -0.40000000      -0.40000000       0.20000000 </v>
   <v>      -0.20000000      -0.40000000       0.20000000 </v>
   <v>       0.00000000      -0.20000000       0.20000000 </v>
   <v>       0.20000000      -0.20000000       0.20000000 </v>
   <v>       0.40000000      -0.20000000       0.20000000 </v>
   <v>      -0.40000000      -0.20000000       0.20000000 </v>
   <v>      -0.20000000      -0.20000000       0.20000000 </v>
   <v>       0.00000000       0.00000000       0.40000000 </v>
   <v>       0.20000000      -0.00000000       0.40000000 </v>
   <v>       0.40000000      -0.00000000       0.40000000 </v>
   <v>      -0.40000000       0.00000000       0.40000000 </v>
   <v>      -0.20000000       0.00000000       0.40000000 </v>
   <v>      -0.00000000       0.20000000       0.40000000 </v>
   <v>       0.20000000       0.20000000       0.40000000 </v>
   <v>       0.40000000       0.20000000       0.40000000 </v>
   <v>      -0.40000000       0.20000000       0.40000000 </v>
   <v>      -0.20000000       0.20000000       0.40000000 </v>
   <v>       0.00000000       0.40000000       0.40000000 </v>
   <v>       0.20000000       0.40000000       0.40000000 </v>
   <v>       0.40000000       0.40000000       0.40000000 </v>
   <v>      -0.40000000       0.40000000       0.40000000 </v>
   <v>      -0.20000000       0.40000000       0.40000000 </v>
   <v>       0.00000000      -0.40000000       0.40000000 </v>
   <v>       0.20000000      -0.40000000       0.40000000 </v>
   <v>       0.40000000      -0.40000000       0.40000000 </v>
   <v>      -0.40000000      -0.40000000       0.40000000 </v>
   <v>      -0.20000000      -0.40000000       0.40000000 </v>
   <v>       0.00000000      -0.20000000       0.40000000 </v>
   <v>       0.20000000      -0.20000000       0.40000000 </v>
   <v>       0.40000000      -0.20000000       0.40000000 </v>
   <v>      -0.40000000      -0.20000000       0.40000000 </v>
   <v>      -0.20000000      -0.20000000       0.40000000 </v>
  </varray>
  <varray name="weights" >
   <v>       0.00800000 </v>
   <v>       0.01600000 </v>
   <v>       0.01600000 </v>
   <v>       0.01600000 </v>
   <v>       0.01600000 </v>
   <v>       0.01600000 </v>
   <v>       0.01600000 </v>
   <v>       0.01600000 </v>
   <v>       0.01600000 </v>
   <v>       0.01600000 </v>
   <v>       0.01600000 </v>
   <v>       0.01600000 </v>
   <v>       0.01600000 </v>
   <v>       0.01600000 </v>
   <v>       0.01600000 </v>
   <v>       0.01600000 </v>
   <v>       0.01600000 </v>
   <v>       0.01600000 </v>
   <v>       0.01600000 </v>
   <v>       0.01600000 </v>
   <v>       0.01600000 </v>
   <v>       0.01600000 </v>
   <v>       0.01600000 </v>
   <v>       0.01600000 </v>
   <v>       0.01600000 </v>
   <v>       0.01600000 </v>
   <v>       0.01600000 </v>
   <v>       0.01600000 </v>
   <v>       0.01600000 </v>
   <v>       0.01600000 </v>
   <v>       0.01600000 </v>
   <v>       0.01600000 </v>
   <v>       0.01600000 </v>
   <v>       0.01600000 </v>
   <v>       0.01600000 </v>
   <v>       0.01600000 </v>
   <v>       0.01600000 </v>
   <v>       0.01600000 </v>
   <v>       0.01600000 </v>
   <v>       0.01600000 </v>
   <v>       0.01600000 </v>
   <v>       0.01600000 </v>
   <v>       0.01600000 </v>
   <v>       0.01600000 </v>
   <v>       0.01600000 </v>
   <v>       0.01600000 </v>
   <v>       0.01600000 </v>
   <v>       0.01600000 </v>
   <v>       0.01600000 </v>
   <v>       0.01600000 </v>
   <v>       0.01600000 </v>
   <v>       0.01600000 </v>
   <v>       0.01600000 </v>
   <v>       0.01600000 </v>
   <v>       0.01600000 </v>
   <v>       0.01600000 </v>
   <v>       0.01600000 </v>
   <v>       0.01600000 </v>
   <v>       0.01600000 </v>
   <v>       0.01600000 </v>
   <v>       0.01600000 </v>
   <v>       0.01600000 </v>
   <v>       0.01600000 </v>
  </varray>
 </kpoints>
 <parameters>
  <separator name="general" >
   <i type="string" name="SYSTEM">SQS with 1 vacancy for VFE and VRV</i>
   <i type="logical" name="LCOMPAT"> F  </i>
  </separator>
  <separator name="electronic" >
   <i type="string" name="PREC">normal</i>
   <i name="ENMAX">    600.00000000</i>
   <i name="ENAUG">    455.65900000</i>
   <i name="EDIFF">      0.00010000</i>
   <i type="int" name="IALGO">    38</i>
   <i type="int" name="IWAVPR">    11</i>
   <i type="int" name="NBANDS">   120</i>
   <i name="NELECT">    200.00000000</i>
   <i type="int" name="TURBO">     0</i>
   <i type="int" name="IRESTART">     0</i>
   <i type="int" name="NREBOOT">     0</i>
   <i type="int" name="NMIN">     0</i>
   <i name="EREF">      0.00000000</i>
   <separator name="electronic smearing" >
    <i type="int" name="ISMEAR">     1</i>
    <i name="SIGMA">      0.20000000</i>
    <i name="KSPACING">      0.50000000</i>
    <i type="logical" name="KGAMMA"> T  </i>
   </separator>
   <separator name="electronic projectors" >
    <i type="logical" name="LREAL"> T  </i>
    <v name="ROPT">     -0.00050000     -0.00050000     -0.00050000     -0.00050000     -0.00050000</v>
    <i type="int" name="LMAXPAW">  -100</i>
    <i type="int" name="LMAXMIX">     2</i>
    <i type="logical" name="NLSPLINE"> F  </i>
   </separator>
   <separator name="electronic startup" >
    <i type="int" name="ISTART">     0</i>
    <i type="int" name="ICHARG">     2</i>
    <i type="int" name="INIWAV">     1</i>
   </separator>
   <separator name="electronic spin" >
    <i type="int" name="ISPIN">     1</i>
    <i type="logical" name="LNONCOLLINEAR"> F  </i>
    <v name="MAGMOM">      1.00000000      1.00000000      1.00000000      1.00000000      1.00000000      1.00000000      1.00000000      1.00000000      1.00000000      1.00000000      1.00000000      1.00000000      1.00000000      1.00000000      1.00000000      1.00000000      1.00000000      1.00000000      1.00000000      1.00000000
      1.00000000      1.00000000      1.00000000      1.00000000      1.00000000      1.00000000      1.00000000      1.00000000      1.00000000</v>
    <i name="NUPDOWN">     -1.00000000</i>
    <i type="logical" name="LSORBIT"> F  </i>
    <v name="SAXIS">      0.00000000      0.00000000      1.00000000</v>
    <i type="logical" name="LSPIRAL"> F  </i>
    <v name="QSPIRAL">      0.00000000      0.00000000      0.00000000</v>
    <i type="logical" name="LZEROZ"> F  </i>
   </separator>
   <separator name="electronic exchange-correlation" >
    <i type="logical" name="LASPH"> F  </i>
    <i type="logical" name="LMETAGGA"> F  </i>
   </separator>
   <separator name="electronic convergence" >
    <i type="int" name="NELM">    60</i>
    <i type="int" name="NELMDL">    -5</i>
    <i type="int" name="NELMIN">     2</i>
    <i name="ENINI">    600.00000000</i>
    <separator name="electronic convergence detail" >
     <i type="logical" name="LDIAG"> T  </i>
     <i type="logical" name="LSUBROT"> F  </i>
     <i name="WEIMIN">      0.00100000</i>
     <i name="EBREAK">      0.00000021</i>
     <i name="DEPER">      0.30000000</i>
     <i type="int" name="NRMM">     4</i>
     <i name="TIME">      0.40000000</i>
    </separator>
   </separator>
   <separator name="electronic mixer" >
    <i name="AMIX">      0.40000000</i>
    <i name="BMIX">      1.00000000</i>
    <i name="AMIN">      0.10000000</i>
    <i name="AMIX_MAG">      1.60000000</i>
    <i name="BMIX_MAG">      1.00000000</i>
    <separator name="electronic mixer details" >
     <i type="int" name="IMIX">     4</i>
     <i type="logical" name="MIXFIRST"> F  </i>
     <i type="int" name="MAXMIX">   -45</i>
     <i name="WC">    100.00000000</i>
     <i type="int" name="INIMIX">     1</i>
     <i type="int" name="MIXPRE">     1</i>
     <i type="int" name="MREMOVE">     5</i>
    </separator>
   </separator>
   <separator name="electronic dipolcorrection" >
    <i type="logical" name="LDIPOL"> F  </i>
    <i type="logical" name="LMONO"> F  </i>
    <i type="int" name="IDIPOL">     0</i>
    <i name="EPSILON">      1.00000000</i>
    <v name="DIPOL">   -100.00000000   -100.00000000   -100.00000000</v>
    <i name="EFIELD">      0.00000000</i>
   </separator>
  </separator>
  <separator name="grids" >
   <i type="int" name="NGX">    36</i>
   <i type="int" name="NGY">    50</i>
   <i type="int" name="NGZ">    70</i>
   <i type="int" name="NGXF">    72</i>
   <i type="int" name="NGYF">   100</i>
   <i type="int" name="NGZF">   140</i>
   <i type="logical" name="ADDGRID"> F  </i>
  </separator>
  <separator name="ionic" >
   <i type="int" name="NSW">    20</i>
   <i type="int" name="IBRION">     2</i>
   <i type="int" name="MDALGO">     0</i>
   <i type="int" name="ISIF">     3</i>
   <i name="PSTRESS">      0.00000000</i>
   <i name="EDIFFG">      0.00100000</i>
   <i type="int" name="NFREE">     1</i>
   <i name="POTIM">      0.50000000</i>
   <i name="SMASS">     -3.00000000</i>
   <i name="SCALEE">      1.00000000</i>
  </separator>
  <separator name="ionic md" >
   <i name="TEBEG">      0.00010000</i>
   <i name="TEEND">      0.00010000</i>
   <i type="int" name="NBLOCK">     1</i>
   <i type="int" name="KBLOCK">    20</i>
   <i type="int" name="NPACO">   256</i>
   <i name="APACO">     16.00000000</i>
  </separator>
  <separator name="symmetry" >
   <i type="int" name="ISYM">     0</i>
   <i name="SYMPREC">      0.00001000</i>
  </separator>
  <separator name="dos" >
   <i type="int" name="LORBIT">     0</i>
   <v name="RWIGS">     -1.00000000     -1.00000000     -1.00000000     -1.00000000     -1.00000000</v>
   <i type="int" name="NEDOS">   301</i>
   <i name="EMIN">     10.00000000</i>
   <i name="EMAX">    -10.00000000</i>
   <i name="EFERMI">      0.00000000</i>
  </separator>
  <separator name="writing" >
   <i type="int" name="NWRITE">     2</i>
   <i type="logical" name="LWAVE"> T  </i>
   <i type="logical" name="LDOWNSAMPLE"> F  </i>
   <i type="logical" name="LCHARG"> T  </i>
   <i type="logical" name="LPARD"> F  </i>
   <i type="logical" name="LVTOT"> F  </i>
   <i type="logical" name="LVHAR"> F  </i>
   <i type="logical" name="LELF"> F  </i>
   <i type="logical" name="LOPTICS"> F  </i>
   <v name="STM">      0.00000000      0.00000000      0.00000000      0.00000000      0.00000000      0.00000000      0.00000000</v>
  </separator>
  <separator name="performance" >
   <i type="int" name="NPAR">     8</i>
   <i type="int" name="NSIM">     4</i>
   <i type="int" name="NBLK">    -1</i>
   <i type="logical" name="LPLANE"> T  </i>
   <i type="logical" name="LSCALAPACK"> T  </i>
   <i type="logical" name="LSCAAWARE"> F  </i>
   <i type="logical" name="LSCALU"> F  </i>
   <i type="logical" name="LASYNC"> F  </i>
   <i type="logical" name="LORBITALREAL"> F  </i>
  </separator>
  <separator name="miscellaneous" >
   <i type="int" name="IDIOT">     3</i>
   <i type="int" name="ISPECIAL">     0</i>
   <i type="logical" name="LMUSIC"> F  </i>
   <v name="POMASS">     92.91000000     95.94000000    180.94800000     47.88000000    183.85000000</v>
   <v name="DARWINR">      0.00000000      0.00000000      0.00000000      0.00000000      0.00000000</v>
   <v name="DARWINV">      1.00000000      1.00000000      1.00000000      1.00000000      1.00000000</v>
   <i type="logical" name="LCORR"> T  </i>
  </separator>
  <i type="logical" name="GGA_COMPAT"> T  </i>
  <i type="logical" name="LBERRY"> F  </i>
  <i type="int" name="ICORELEVEL">     0</i>
  <i type="logical" name="LDAU"> F  </i>
  <i type="int" name="I_CONSTRAINED_M">     0</i>
  <separator name="electronic exchange-correlation" >
   <i type="string" name="GGA">PS</i>
   <i type="int" name="VOSKOWN">     0</i>
   <i type="logical" name="LHFCALC"> F  </i>
   <i type="string" name="PRECFOCK"></i>
   <i type="logical" name="LSYMGRAD"> F  </i>
   <i type="logical" name="LHFONE"> F  </i>
   <i type="logical" name="LRHFCALC"> F  </i>
   <i type="logical" name="LTHOMAS"> F  </i>
   <i type="logical" name="LMODELHF"> F  </i>
   <i name="ENCUT4O">     -1.00000000</i>
   <i type="int" name="EXXOEP">     0</i>
   <i type="int" name="FOURORBIT">     0</i>
   <i name="AEXX">      0.00000000</i>
   <i name="HFALPHA">      0.00000000</i>
   <i name="MCALPHA">      0.00000000</i>
   <i name="ALDAX">      1.00000000</i>
   <i name="AGGAX">      1.00000000</i>
   <i name="ALDAC">      1.00000000</i>
   <i name="AGGAC">      1.00000000</i>
   <i type="int" name="NKREDX">     1</i>
   <i type="int" name="NKREDY">     1</i>
   <i type="int" name="NKREDZ">     1</i>
   <i type="logical" name="SHIFTRED"> F  </i>
   <i type="logical" name="ODDONLY"> F  </i>
   <i type="logical" name="EVENONLY"> F  </i>
   <i type="int" name="LMAXFOCK">     0</i>
   <i type="int" name="NMAXFOCKAE">     0</i>
   <i type="logical" name="LFOCKAEDFT"> F  </i>
   <i name="HFSCREEN">      0.00000000</i>
   <i name="HFSCREENC">      0.00000000</i>
   <i type="int" name="NBANDSGWLOW">     0</i>
  </separator>
  <separator name="vdW DFT" >
   <i type="logical" name="LUSE_VDW"> F  </i>
   <i name="Zab_VDW">     -0.84910000</i>
   <i name="PARAM1">      0.12340000</i>
   <i name="PARAM2">      1.00000000</i>
   <i name="PARAM3">      0.00000000</i>
  </separator>
  <separator name="model GW" >
   <i type="int" name="MODEL_GW">     0</i>
   <i name="MODEL_EPS0">     10.07433900</i>
   <i name="MODEL_ALPHA">      1.00000000</i>
  </separator>
  <separator name="linear response parameters" >
   <i type="logical" name="LEPSILON"> F  </i>
   <i type="logical" name="LRPA"> F  </i>
   <i type="logical" name="LNABLA"> F  </i>
   <i type="logical" name="LVEL"> F  </i>
   <i type="int" name="KINTER">     0</i>
   <i name="CSHIFT">      0.10000000</i>
   <i name="OMEGAMAX">     -1.00000000</i>
   <i name="DEG_THRESHOLD">      0.00200000</i>
   <i name="RTIME">     -0.10000000</i>
   <i name="WPLASMAI">      0.00000000</i>
   <v name="DFIELD">      0.00000000      0.00000000      0.00000000</v>
   <v name="WPLASMA">      0.00000000      0.00000000      0.00000000      0.00000000      0.00000000      0.00000000      0.00000000      0.00000000      0.00000000</v>
  </separator>
  <separator name="orbital magnetization" >
   <i type="logical" name="NUCIND"> F  </i>
   <v name="MAGPOS">      0.00000000      0.00000000      0.00000000</v>
   <i type="logical" name="LNICSALL"> T  </i>
   <i type="logical" name="ORBITALMAG"> F  </i>
   <i type="logical" name="LMAGBLOCH"> F  </i>
   <i type="logical" name="LCHIMAG"> F  </i>
   <i type="logical" name="LGAUGE"> T  </i>
   <i type="int" name="MAGATOM">     0</i>
   <v name="MAGDIPOL">      0.00000000      0.00000000      0.00000000</v>
   <v name="AVECCONST">      0.00000000      0.00000000      0.00000000</v>
  </separator>
  <separator name="response functions" >
   <i type="logical" name="LADDER"> F  </i>
   <i type="logical" name="LRPAFORCE"> F  </i>
   <i type="logical" name="LFXC"> F  </i>
   <i type="logical" name="LHARTREE"> T  </i>
   <i type="int" name="IBSE">     0</i>
   <v type="int" name="KPOINT">    -1     0     0     0</v>
   <i type="logical" name="LTCTE"> F  </i>
   <i type="logical" name="LTETE"> F  </i>
   <i type="logical" name="LTRIPLET"> F  </i>
   <i type="logical" name="LFXCEPS"> F  </i>
   <i type="logical" name="LFXHEG"> F  </i>
   <i type="int" name="NATURALO">     2</i>
   <i type="logical" name="L2ORDER"> F  </i>
   <i type="logical" name="LMP2LT"> F  </i>
   <i type="logical" name="LUSEW"> F  </i>
   <i name="ENCUTGW">     -2.00000000</i>
   <i name="ENCUTGWSOFT">     -2.00000000</i>
   <i name="ENCUTLF">     -1.00000000</i>
   <i type="int" name="LMAXMP2">    -1</i>
   <i name="SCISSOR">      0.00000000</i>
   <i type="int" name="NOMEGA">     0</i>
   <i type="int" name="NOMEGAR">     0</i>
   <i type="int" name="NBANDSGW">    -1</i>
   <i type="int" name="NBANDSO">    -1</i>
   <i type="int" name="NBANDSV">    -1</i>
   <i type="int" name="NELM">     1</i>
   <i type="int" name="NELMHF">     1</i>
   <i type="int" name="DIM">     3</i>
   <i type="int" name="ANTIRES">     0</i>
   <i name="OMEGAMAX">    -30.00000000</i>
   <i name="OMEGAMIN">    -30.00000000</i>
   <i name="OMEGATL">   -200.00000000</i>
   <i type="int" name="OMEGAGRID">   140</i>
   <i name="CSHIFT">     -0.10000000</i>
   <i type="logical" name="SELFENERGY"> F  </i>
   <i type="logical" name="LSPECTRAL"> F  </i>
   <i type="logical" name="LSPECTRALGW"> F  </i>
   <i type="logical" name="LSINGLES"> F  </i>
   <i type="logical" name="LFERMIGW"> F  </i>
   <i type="logical" name="ODDONLYGW"> F  </i>
   <i type="logical" name="EVENONLYGW"> F  </i>
   <i type="int" name="NKREDLFX">     1</i>
   <i type="int" name="NKREDLFY">     1</i>
   <i type="int" name="NKREDLFZ">     1</i>
   <i type="int" name="MAXMEM">  2800</i>
   <i type="int" name="TELESCOPE">     0</i>
   <i type="int" name="TAUPAR">     1</i>
   <i type="int" name="OMEGAPAR">    -1</i>
   <i name="LAMBDA">      1.00000000</i>
  </separator>
  <separator name="External order field" >
   <i name="OFIELD_KAPPA">      0.00000000</i>
   <v name="OFIELD_K">      0.00000000      0.00000000      0.00000000</v>
   <i name="OFIELD_Q6_NEAR">      0.00000000</i>
   <i name="OFIELD_Q6_FAR">      0.00000000</i>
   <i name="OFIELD_A">      0.00000000</i>
  </separator>
  <separator name="solvation model" >
   <i type="logical" name="LSOL"> F  </i>
  </separator>
 </parameters>
 <atominfo>
  <atoms>      29 </atoms>
  <types>       5 </types>
  <array name="atoms" >
   <dimension dim="1">ion</dimension>
   <field type="string">element</field>
   <field type="int">atomtype</field>
   <set>
    <rc><c>Nb</c><c>   1</c></rc>
    <rc><c>Nb</c><c>   1</c></rc>
    <rc><c>Nb</c><c>   1</c></rc>
    <rc><c>Nb</c><c>   1</c></rc>
    <rc><c>Nb</c><c>   1</c></rc>
    <rc><c>Nb</c><c>   1</c></rc>
    <rc><c>Mo</c><c>   2</c></rc>
    <rc><c>Mo</c><c>   2</c></rc>
    <rc><c>Mo</c><c>   2</c></rc>
    <rc><c>Mo</c><c>   2</c></rc>
    <rc><c>Mo</c><c>   2</c></rc>
    <rc><c>Mo</c><c>   2</c></rc>
    <rc><c>Ta</c><c>   3</c></rc>
    <rc><c>Ta</c><c>   3</c></rc>
    <rc><c>Ta</c><c>   3</c></rc>
    <rc><c>Ta</c><c>   3</c></rc>
    <rc><c>Ta</c><c>   3</c></rc>
    <rc><c>Ta</c><c>   3</c></rc>
    <rc><c>Ti</c><c>   4</c></rc>
    <rc><c>Ti</c><c>   4</c></rc>
    <rc><c>Ti</c><c>   4</c></rc>
    <rc><c>Ti</c><c>   4</c></rc>
    <rc><c>Ti</c><c>   4</c></rc>
    <rc><c>W </c><c>   5</c></rc>
    <rc><c>W </c><c>   5</c></rc>
    <rc><c>W </c><c>   5</c></rc>
    <rc><c>W </c><c>   5</c></rc>
    <rc><c>W </c><c>   5</c></rc>
    <rc><c>W </c><c>   5</c></rc>
   </set>
  </array>
  <array name="atomtypes" >
   <dimension dim="1">type</dimension>
   <field type="int">atomspertype</field>
   <field type="string">element</field>
   <field>mass</field>
   <field>valence</field>
   <field type="string">pseudopotential</field>
   <set>
    <rc><c>   6</c><c>Nb</c><c>     92.91000000</c><c>     13.00000000</c><c>  PAW_PBE Nb_sv 25May2007               </c></rc>
    <rc><c>   6</c><c>Mo</c><c>     95.94000000</c><c>      6.00000000</c><c>  PAW_PBE Mo 08Apr2002                  </c></rc>
    <rc><c>   6</c><c>Ta</c><c>    180.94800000</c><c>      5.00000000</c><c>  PAW_PBE Ta 17Jan2003                  </c></rc>
    <rc><c>   5</c><c>Ti</c><c>     47.88000000</c><c>      4.00000000</c><c>  PAW_PBE Ti 08Apr2002                  </c></rc>
    <rc><c>   6</c><c>W </c><c>    183.85000000</c><c>      6.00000000</c><c>  PAW_PBE W 08Apr2002                   </c></rc>
   </set>
  </array>
 </atominfo>
 <structure name="initialpos" >
  <crystal>
   <varray name="basis" >
    <v>      -3.19000000      -3.19000000      -3.19000000 </v>
    <v>       1.59500000       1.59500000      -7.97500000 </v>
    <v>       7.97500000      -7.97500000      -1.59500000 </v>
   </varray>
   <i name="volume">    486.92638500 </i>
   <varray name="rec_basis" >
    <v>      -0.13584117      -0.12539185      -0.05224660 </v>
    <v>       0.04179728       0.06269592      -0.10449321 </v>
    <v>       0.06269592      -0.06269592       0.00000000 </v>
   </varray>
  </crystal>
  <varray name="positions" >
   <v>       0.96666667       0.93333333       0.40000000 </v>
   <v>       0.63333333       0.26666667       0.40000000 </v>
   <v>       0.50000000       0.00000000       0.00000000 </v>
   <v>       0.00000000       0.00000000       0.00000000 </v>
   <v>       0.10000000       0.20000000       0.80000000 </v>
   <v>       0.03333333       0.06666667       0.60000000 </v>
   <v>       0.90000000       0.80000000       0.20000000 </v>
   <v>       0.80000000       0.60000000       0.40000000 </v>
   <v>       0.73333333       0.46666667       0.20000000 </v>
   <v>       0.66666667       0.33333333       0.00000000 </v>
   <v>       0.36666667       0.73333333       0.60000000 </v>
   <v>       0.13333333       0.26666667       0.40000000 </v>
   <v>       0.83333333       0.66666667       0.00000000 </v>
   <v>       0.93333333       0.86666667       0.80000000 </v>
   <v>       0.56666667       0.13333333       0.20000000 </v>
   <v>       0.40000000       0.80000000       0.20000000 </v>
   <v>       0.43333333       0.86666667       0.80000000 </v>
   <v>       0.30000000       0.60000000       0.40000000 </v>
   <v>       0.86666667       0.73333333       0.60000000 </v>
   <v>       0.46666667       0.93333333       0.40000000 </v>
   <v>       0.16666667       0.33333333       0.00000000 </v>
   <v>       0.26666667       0.53333333       0.80000000 </v>
   <v>       0.06666667       0.13333333       0.20000000 </v>
   <v>       0.76666667       0.53333333       0.80000000 </v>
   <v>       0.70000000       0.40000000       0.60000000 </v>
   <v>       0.60000000       0.20000000       0.80000000 </v>
   <v>       0.53333333       0.06666667       0.60000000 </v>
   <v>       0.33333333       0.66666667       0.00000000 </v>
   <v>       0.23333333       0.46666667       0.20000000 </v>
  </varray>
 </structure>
 <calculation>
  <scstep>
   <time name="dav">   18.57   18.65</time>
   <time name="total">   18.60   18.69</time>
   <energy>
    <i name="alphaZ">   1318.14636210 </i>
    <i name="ewald"> -11706.56141782 </i>
    <i name="hartreedc">  -3141.60895100 </i>
    <i name="XCdc">   -868.14470422 </i>
    <i name="pawpsdc">  12179.31920212 </i>
    <i name="pawaedc"> -10655.17440453 </i>
    <i name="eentropy">      0.01054052 </i>
    <i name="bandstr">   1862.94214343 </i>
    <i name="atom">  13116.42875384 </i>
    <i name="e_fr_energy">   2105.35752444 </i>
    <i name="e_wo_entrp">   2105.34698392 </i>
    <i name="e_0_energy">   2105.35401094 </i>
   </energy>
  </scstep>
  <scstep>
   <time name="dav">   18.55   18.60</time>
   <time name="total">   18.55   18.60</time>
   <energy>
    <i name="e_fr_energy">     53.02013063 </i>
    <i name="e_wo_entrp">     53.02288948 </i>
    <i name="e_0_energy">     53.02105025 </i>
   </energy>
  </scstep>
  <scstep>
   <time name="dav">   28.77   28.84</time>
   <time name="total">   28.77   28.84</time>
   <energy>
    <i name="e_fr_energy">   -307.44144227 </i>
    <i name="e_wo_entrp">   -307.44159006 </i>
    <i name="e_0_energy">   -307.44149154 </i>
   </energy>
  </scstep>
  <scstep>
   <time name="dav">   25.93   26.00</time>
   <time name="total">   25.93   26.00</time>
   <energy>
    <i name="e_fr_energy">   -351.78303924 </i>
    <i name="e_wo_entrp">   -351.78308222 </i>
    <i name="e_0_energy">   -351.78305357 </i>
   </energy>
  </scstep>
  <scstep>
   <time name="dav">   30.82   30.90</time>
   <time name="total">   31.42   31.51</time>
   <energy>
    <i name="e_fr_energy">   -356.71285276 </i>
    <i name="e_wo_entrp">   -356.71756266 </i>
    <i name="e_0_energy">   -356.71442273 </i>
   </energy>
  </scstep>
  <scstep>
   <time name="dav">   23.91   23.97</time>
   <time name="total">   24.53   24.60</time>
   <energy>
    <i name="e_fr_energy">   -346.21145785 </i>
    <i name="e_wo_entrp">   -346.20686448 </i>
    <i name="e_0_energy">   -346.20992673 </i>
   </energy>
  </scstep>
  <scstep>
   <time name="dav">   24.03   24.10</time>
   <time name="total">   24.69   24.76</time>
   <energy>
    <i name="e_fr_energy">   -358.37780384 </i>
    <i name="e_wo_entrp">   -358.38185483 </i>
    <i name="e_0_energy">   -358.37915417 </i>
   </energy>
  </scstep>
  <scstep>
   <time name="dav">   25.72   25.79</time>
   <time name="total">   26.36   26.42</time>
   <energy>
    <i name="e_fr_energy">   -346.43568011 </i>
    <i name="e_wo_entrp">   -346.44472634 </i>
    <i name="e_0_energy">   -346.43869552 </i>
   </energy>
  </scstep>
  <scstep>
   <time name="dav">   24.85   24.91</time>
   <time name="total">   25.48   25.54</time>
   <energy>
    <i name="e_fr_energy">   -338.10106853 </i>
    <i name="e_wo_entrp">   -338.10321110 </i>
    <i name="e_0_energy">   -338.10178272 </i>
   </energy>
  </scstep>
  <scstep>
   <time name="dav">   25.01   25.04</time>
   <time name="total">   25.66   25.70</time>
   <energy>
    <i name="e_fr_energy">   -335.44199532 </i>
    <i name="e_wo_entrp">   -335.45151820 </i>
    <i name="e_0_energy">   -335.44516961 </i>
   </energy>
  </scstep>
  <scstep>
   <time name="dav">   25.15   25.18</time>
   <time name="total">   25.78   25.82</time>
   <energy>
    <i name="e_fr_energy">   -334.58600862 </i>
    <i name="e_wo_entrp">   -334.58903033 </i>
    <i name="e_0_energy">   -334.58701586 </i>
   </energy>
  </scstep>
  <scstep>
   <time name="dav">   26.44   26.47</time>
   <time name="total">   27.07   27.10</time>
   <energy>
    <i name="e_fr_energy">   -334.50930287 </i>
    <i name="e_wo_entrp">   -334.51725016 </i>
    <i name="e_0_energy">   -334.51195197 </i>
   </energy>
  </scstep>
  <scstep>
   <time name="dav">   24.98   25.01</time>
   <time name="total">   25.62   25.66</time>
   <energy>
    <i name="e_fr_energy">   -334.49188971 </i>
    <i name="e_wo_entrp">   -334.49962569 </i>
    <i name="e_0_energy">   -334.49446837 </i>
   </energy>
  </scstep>
  <scstep>
   <time name="dav">   26.30   26.82</time>
   <time name="total">   26.93   27.47</time>
   <energy>
    <i name="e_fr_energy">   -334.43231233 </i>
    <i name="e_wo_entrp">   -334.43315120 </i>
    <i name="e_0_energy">   -334.43259195 </i>
   </energy>
  </scstep>
  <scstep>
   <time name="dav">   25.54   25.57</time>
   <time name="total">   26.17   26.20</time>
   <energy>
    <i name="e_fr_energy">   -334.42290567 </i>
    <i name="e_wo_entrp">   -334.42640967 </i>
    <i name="e_0_energy">   -334.42407367 </i>
   </energy>
  </scstep>
  <scstep>
   <time name="dav">   25.76   25.79</time>
   <time name="total">   26.39   26.44</time>
   <energy>
    <i name="e_fr_energy">   -334.42081442 </i>
    <i name="e_wo_entrp">   -334.42402724 </i>
    <i name="e_0_energy">   -334.42188536 </i>
   </energy>
  </scstep>
  <scstep>
   <time name="dav">   24.47   24.50</time>
   <time name="total">   25.10   25.13</time>
   <energy>
    <i name="e_fr_energy">   -334.41660607 </i>
    <i name="e_wo_entrp">   -334.41940789 </i>
    <i name="e_0_energy">   -334.41754001 </i>
   </energy>
  </scstep>
  <scstep>
   <time name="dav">   24.03   24.07</time>
   <time name="total">   24.67   24.70</time>
   <energy>
    <i name="e_fr_energy">   -334.41495446 </i>
    <i name="e_wo_entrp">   -334.41843760 </i>
    <i name="e_0_energy">   -334.41611550 </i>
   </energy>
  </scstep>
  <scstep>
   <time name="dav">   23.91   23.95</time>
   <time name="total">   24.54   24.59</time>
   <energy>
    <i name="e_fr_energy">   -334.41475587 </i>
    <i name="e_wo_entrp">   -334.41801813 </i>
    <i name="e_0_energy">   -334.41584329 </i>
   </energy>
  </scstep>
  <scstep>
   <time name="dav">   22.47   22.50</time>
   <time name="total">   23.09   23.13</time>
   <energy>
    <i name="e_fr_energy">   -334.41462471 </i>
    <i name="e_wo_entrp">   -334.41785477 </i>
    <i name="e_0_energy">   -334.41570140 </i>
   </energy>
  </scstep>
  <scstep>
   <time name="dav">   19.65   19.68</time>
   <time name="total">   19.68   19.72</time>
   <energy>
    <i name="alphaZ">   1318.14636210 </i>
    <i name="ewald"> -11706.56141782 </i>
    <i name="hartreedc">  -2998.83829508 </i>
    <i name="XCdc">   -862.33895564 </i>
    <i name="pawpsdc">  21046.46318808 </i>
    <i name="pawaedc"> -19524.10395232 </i>
    <i name="eentropy">      0.00323008 </i>
    <i name="bandstr">   -723.61346875 </i>
    <i name="atom">  13116.42875384 </i>
    <i name="e_fr_energy">   -334.41455550 </i>
    <i name="e_wo_entrp">   -334.41778558 </i>
    <i name="e_0_energy">   -334.41563219 </i>
   </energy>
  </scstep>
  <structure>
   <crystal>
    <varray name="basis" >
     <v>      -3.19000000      -3.19000000      -3.19000000 </v>
     <v>       1.59500000       1.59500000      -7.97500000 </v>
     <v>       7.97500000      -7.97500000      -1.59500000 </v>
    </varray>
    <i name="volume">    486.92638500 </i>
    <varray name="rec_basis" >
     <v>      -0.13584117      -0.12539185      -0.05224660 </v>
     <v>       0.04179728       0.06269592      -0.10449321 </v>
     <v>       0.06269592      -0.06269592       0.00000000 </v>
    </varray>
   </crystal>
   <varray name="positions" >
    <v>       0.96666667       0.93333333       0.40000000 </v>
    <v>       0.63333333       0.26666667       0.40000000 </v>
    <v>       0.50000000       0.00000000       0.00000000 </v>
    <v>       0.00000000       0.00000000       0.00000000 </v>
    <v>       0.10000000       0.20000000       0.80000000 </v>
    <v>       0.03333333       0.06666667       0.60000000 </v>
    <v>       0.90000000       0.80000000       0.20000000 </v>
    <v>       0.80000000       0.60000000       0.40000000 </v>
    <v>       0.73333333       0.46666667       0.20000000 </v>
    <v>       0.66666667       0.33333333       0.00000000 </v>
    <v>       0.36666667       0.73333333       0.60000000 </v>
    <v>       0.13333333       0.26666667       0.40000000 </v>
    <v>       0.83333333       0.66666667       0.00000000 </v>
    <v>       0.93333333       0.86666667       0.80000000 </v>
    <v>       0.56666667       0.13333333       0.20000000 </v>
    <v>       0.40000000       0.80000000       0.20000000 </v>
    <v>       0.43333333       0.86666667       0.80000000 </v>
    <v>       0.30000000       0.60000000       0.40000000 </v>
    <v>       0.86666667       0.73333333       0.60000000 </v>
    <v>       0.46666667       0.93333333       0.40000000 </v>
    <v>       0.16666667       0.33333333       0.00000000 </v>
    <v>       0.26666667       0.53333333       0.80000000 </v>
    <v>       0.06666667       0.13333333       0.20000000 </v>
    <v>       0.76666667       0.53333333       0.80000000 </v>
    <v>       0.70000000       0.40000000       0.60000000 </v>
    <v>       0.60000000       0.20000000       0.80000000 </v>
    <v>       0.53333333       0.06666667       0.60000000 </v>
    <v>       0.33333333       0.66666667       0.00000000 </v>
    <v>       0.23333333       0.46666667       0.20000000 </v>
   </varray>
  </structure>
  <varray name="forces" >
   <v>      -0.05784629       0.41121324       0.21095794 </v>
   <v>       0.06416300      -0.18000186       0.08613763 </v>
   <v>       0.08677614       0.25026303      -0.27136786 </v>
   <v>       0.57195131      -0.33716289      -0.07828026 </v>
   <v>      -0.31020951       1.08656254      -0.89402016 </v>
   <v>      -0.39165691       0.26139381      -0.05965433 </v>
   <v>       0.12665380      -0.52197579       0.05370131 </v>
   <v>      -0.45192752      -0.02188538       0.73960966 </v>
   <v>       0.06682625      -0.02988200      -0.03955278 </v>
   <v>      -0.01654303       0.45962971      -0.52802338 </v>
   <v>      -0.32449069      -0.43503510      -0.07779378 </v>
   <v>       0.43244351       0.05815857      -0.73612119 </v>
   <v>       0.05660440      -0.46469827       0.35055436 </v>
   <v>       0.09122668       0.48375816      -0.16207475 </v>
   <v>      -0.04861877       0.36077774      -0.01963555 </v>
   <v>      -0.71003295      -0.01282262       0.40993308 </v>
   <v>      -0.94771701       0.04937125       0.71460229 </v>
   <v>       0.61809731      -0.88630446       0.15119295 </v>
   <v>      -0.21892363       0.11435227       0.87283986 </v>
   <v>       0.55324870      -0.53084927       0.28879505 </v>
   <v>      -0.03810650      -0.26108352      -0.24943373 </v>
   <v>      -0.77193393       0.21075960       0.05106049 </v>
   <v>       0.40923897      -0.07370219      -0.62517862 </v>
   <v>       0.17612463      -0.03761827       0.80400704 </v>
   <v>       0.77818798       0.14242365      -0.65436642 </v>
   <v>      -0.25004977       0.28796450      -0.16207181 </v>
   <v>       0.36588968      -0.18671495      -0.95034640 </v>
   <v>      -0.00998430      -0.42092628       0.84435432 </v>
   <v>       0.15060842       0.22403477      -0.06982492 </v>
  </varray>
  <varray name="stress" >
   <v>     -24.35868930      -0.29892518       6.32085361 </v>
   <v>      -0.29892515     -24.27451676       4.36568656 </v>
   <v>       6.32085358       4.36568641     -25.02472453 </v>
  </varray>
  <energy>
   <i name="e_fr_energy">   -334.41455550 </i>
   <i name="e_wo_entrp">   -334.41563219 </i>
   <i name="e_0_energy">      0.00323008 </i>
  </energy>
  <time name="totalsc">  544.28  545.96</time>
 </calculation>
 <calculation>
  <scstep>
   <time name="dav">   19.04   19.06</time>
   <time name="total">   19.67   19.69</time>
   <energy>
    <i name="alphaZ">   1368.49926871 </i>
    <i name="ewald"> -11912.91974428 </i>
    <i name="hartreedc">  -2979.85468199 </i>
    <i name="XCdc">   -857.69181105 </i>
    <i name="pawpsdc">  21047.45545221 </i>
    <i name="pawaedc"> -19525.04221978 </i>
    <i name="eentropy">     -0.00050515 </i>
    <i name="bandstr">   -592.42263341 </i>
    <i name="atom">  13116.42875384 </i>
    <i name="e_fr_energy">   -335.54812090 </i>
    <i name="e_wo_entrp">   -335.54761575 </i>
    <i name="e_0_energy">   -335.54795252 </i>
   </energy>
  </scstep>
  <scstep>
   <time name="dav">   25.12   25.15</time>
   <time name="total">   25.75   25.78</time>
   <energy>
    <i name="e_fr_energy">   -335.78479541 </i>
    <i name="e_wo_entrp">   -335.79009741 </i>
    <i name="e_0_energy">   -335.78656274 </i>
   </energy>
  </scstep>
  <scstep>
   <time name="dav">   25.20   25.22</time>
   <time name="total">   25.83   25.86</time>
   <energy>
    <i name="e_fr_energy">   -335.47859037 </i>
    <i name="e_wo_entrp">   -335.48390283 </i>
    <i name="e_0_energy">   -335.48036119 </i>
   </energy>
  </scstep>
  <scstep>
   <time name="dav">   26.59   26.62</time>
   <time name="total">   27.22   27.25</time>
   <energy>
    <i name="e_fr_energy">   -335.08849525 </i>
    <i name="e_wo_entrp">   -335.09241115 </i>
    <i name="e_0_energy">   -335.08980055 </i>
   </energy>
  </scstep>
  <scstep>
   <time name="dav">   25.88   25.91</time>
   <time name="total">   26.51   26.54</time>
   <energy>
    <i name="e_fr_energy">   -334.88336913 </i>
    <i name="e_wo_entrp">   -334.88692247 </i>
    <i name="e_0_energy">   -334.88455358 </i>
   </energy>
  </scstep>
  <scstep>
   <time name="dav">   26.06   26.10</time>
   <time name="total">   26.71   26.75</time>
   <energy>
    <i name="e_fr_energy">   -334.82017096 </i>
    <i name="e_wo_entrp">   -334.82064270 </i>
    <i name="e_0_energy">   -334.82032820 </i>
   </energy>
  </scstep>
  <scstep>
   <time name="dav">   27.45   27.48</time>
   <time name="total">   28.07   28.11</time>
   <energy>
    <i name="e_fr_energy">   -334.82234715 </i>
    <i name="e_wo_entrp">   -334.82400483 </i>
    <i name="e_0_energy">   -334.82289971 </i>
   </energy>
  </scstep>
  <scstep>
   <time name="dav">   26.36   26.46</time>
   <time name="total">   26.98   27.09</time>
   <energy>
    <i name="e_fr_energy">   -334.82368037 </i>
    <i name="e_wo_entrp">   -334.82512013 </i>
    <i name="e_0_energy">   -334.82416029 </i>
   </energy>
  </scstep>
  <scstep>
   <time name="dav">   25.11   25.14</time>
   <time name="total">   25.74   25.78</time>
   <energy>
    <i name="e_fr_energy">   -334.82696806 </i>
    <i name="e_wo_entrp">   -334.82779904 </i>
    <i name="e_0_energy">   -334.82724506 </i>
   </energy>
  </scstep>
  <scstep>
   <time name="dav">   26.90   26.95</time>
   <time name="total">   27.53   27.58</time>
   <energy>
    <i name="e_fr_energy">   -334.82854738 </i>
    <i name="e_wo_entrp">   -334.82979015 </i>
    <i name="e_0_energy">   -334.82896163 </i>
   </energy>
  </scstep>
  <scstep>
   <time name="dav">   25.83   25.86</time>
   <time name="total">   26.45   26.49</time>
   <energy>
    <i name="e_fr_energy">   -334.82948031 </i>
    <i name="e_wo_entrp">   -334.83068441 </i>
    <i name="e_0_energy">   -334.82988168 </i>
   </energy>
  </scstep>
  <scstep>
   <time name="dav">   25.59   25.62</time>
   <time name="total">   26.21   26.25</time>
   <energy>
    <i name="e_fr_energy">   -334.82942445 </i>
    <i name="e_wo_entrp">   -334.83052440 </i>
    <i name="e_0_energy">   -334.82979110 </i>
   </energy>
  </scstep>
  <scstep>
   <time name="dav">   24.93   24.97</time>
   <time name="total">   25.56   25.60</time>
   <energy>
    <i name="e_fr_energy">   -334.82949227 </i>
    <i name="e_wo_entrp">   -334.83065284 </i>
    <i name="e_0_energy">   -334.82987913 </i>
   </energy>
  </scstep>
  <scstep>
   <time name="dav">   16.85   16.87</time>
   <time name="total">   16.88   16.91</time>
   <energy>
    <i name="alphaZ">   1368.49926871 </i>
    <i name="ewald"> -11912.91974428 </i>
    <i name="hartreedc">  -2911.73708137 </i>
    <i name="XCdc">   -859.59831358 </i>
    <i name="pawpsdc">  22268.84046031 </i>
    <i name="pawaedc"> -20747.15768203 </i>
    <i name="eentropy">      0.00109377 </i>
    <i name="bandstr">   -657.18625190 </i>
    <i name="atom">  13116.42875384 </i>
    <i name="e_fr_energy">   -334.82949653 </i>
    <i name="e_wo_entrp">   -334.83059030 </i>
    <i name="e_0_energy">   -334.82986112 </i>
   </energy>
  </scstep>
  <structure>
   <crystal>
    <varray name="basis" >
     <v>      -3.16042674      -3.15740923      -3.16687558 </v>
     <v>       1.54963083       1.55758187      -7.86548367 </v>
     <v>       7.87289481      -7.88185174      -1.56693708 </v>
    </varray>
    <i name="volume">    469.01029301 </i>
    <varray name="rec_basis" >
     <v>      -0.13738549      -0.12685426      -0.05218785 </v>
     <v>       0.04267152       0.06371858      -0.10611274 </v>
     <v>       0.06346816      -0.06346507      -0.00006355 </v>
    </varray>
   </crystal>
   <varray name="positions" >
    <v>       0.96402651       0.93339701       0.39858127 </v>
    <v>       0.63378461       0.26581739       0.40073851 </v>
    <v>       0.49860141       0.00229990      -0.00049449 </v>
    <v>      -0.00151131       0.00052811       0.00274972 </v>
    <v>       0.09771343       0.20716771       0.79577530 </v>
    <v>       0.03446912       0.06696826       0.59802477 </v>
    <v>       0.90219219       0.79840590       0.20196186 </v>
    <v>       0.80122983       0.59529414       0.39869929 </v>
    <v>       0.73317585       0.46691042       0.20029251 </v>
    <v>       0.66532556       0.33735196      -0.00144024 </v>
    <v>       0.37162088       0.73175537       0.60033435 </v>
    <v>       0.13200297       0.27142537       0.40113207 </v>
    <v>       0.83488987       0.66360812       0.00157674 </v>
    <v>       0.93021764       0.86913083       0.79881274 </v>
    <v>       0.56485235       0.13442549       0.19876173 </v>
    <v>       0.40369741       0.79646301       0.19789121 </v>
    <v>       0.43744422       0.86130268       0.79698419 </v>
    <v>       0.30092978       0.59780344       0.40455024 </v>
    <v>       0.86520960       0.72883775       0.59899197 </v>
    <v>       0.46552436       0.93138747       0.40327898 </v>
    <v>       0.16912445       0.33372422       0.00067442 </v>
    <v>       0.27032178       0.53215686       0.79702773 </v>
    <v>       0.06600640       0.13708715       0.20146071 </v>
    <v>       0.76371352       0.52952167       0.80064649 </v>
    <v>       0.69568806       0.40529861       0.60192294 </v>
    <v>       0.60030520       0.20118379       0.79837271 </v>
    <v>       0.53446038       0.07163044       0.60167142 </v>
    <v>       0.33381684       0.66111698       0.00124294 </v>
    <v>       0.23116710       0.46799997       0.19977791 </v>
   </varray>
  </structure>
  <varray name="forces" >
   <v>       0.00999914       0.20098126       0.11732718 </v>
   <v>       0.00979759      -0.05320962       0.06546682 </v>
   <v>      -0.13603975       0.28283317       0.02021842 </v>
   <v>       0.12645262      -0.07390430      -0.14122663 </v>
   <v>      -0.44702580       0.56289865      -0.44333276 </v>
   <v>      -0.22128586       0.10121370      -0.17410067 </v>
   <v>       0.10637547      -0.24584063       0.02427008 </v>
   <v>      -0.12308607      -0.09143622       0.15310243 </v>
   <v>       0.05366008      -0.15180696       0.13592172 </v>
   <v>      -0.04492382       0.12328289      -0.10614210 </v>
   <v>      -0.12565241      -0.10772794       0.05394895 </v>
   <v>       0.33157631      -0.14724244      -0.43633754 </v>
   <v>       0.03025295      -0.07626636      -0.00203338 </v>
   <v>      -0.07979509       0.11044585      -0.05021628 </v>
   <v>       0.08720057       0.08812176       0.07157551 </v>
   <v>      -0.03299694      -0.19137855       0.05753277 </v>
   <v>      -0.14027831       0.07052549       0.20973358 </v>
   <v>       0.52861462      -0.60631443       0.22719005 </v>
   <v>      -0.38515838      -0.13280298       0.59831455 </v>
   <v>       0.25278392      -0.28975522       0.19586365 </v>
   <v>      -0.12775461      -0.12808785      -0.05523738 </v>
   <v>      -0.46804122       0.43911018       0.23135440 </v>
   <v>       0.31333875      -0.01980853      -0.35536000 </v>
   <v>      -0.07117513      -0.04663846       0.06983005 </v>
   <v>       0.28467617       0.12819294      -0.24211478 </v>
   <v>      -0.00660750       0.16254537      -0.05010522 </v>
   <v>       0.28453360       0.11506700      -0.53500385 </v>
   <v>      -0.12383801       0.02345358       0.34409020 </v>
   <v>       0.11439711      -0.04645134       0.01547023 </v>
  </varray>
  <varray name="stress" >
   <v>      59.11044063       0.24439050       1.14293076 </v>
   <v>       0.24439053      58.81828488       2.49844072 </v>
   <v>       1.14293082       2.49844066      59.12059667 </v>
  </varray>
  <energy>
   <i name="e_fr_energy">   -334.82949653 </i>
   <i name="e_wo_entrp">   -334.82986112 </i>
   <i name="e_0_energy">      0.00109377 </i>
  </energy>
  <time name="totalsc">  373.15  373.75</time>
 </calculation>
 <calculation>
  <scstep>
   <time name="dav">   19.08   19.11</time>
   <time name="total">   19.71   19.74</time>
   <energy>
    <i name="alphaZ">   1358.12328936 </i>
    <i name="ewald"> -11871.55610422 </i>
    <i name="hartreedc">  -2915.25053497 </i>
    <i name="XCdc">   -860.53251808 </i>
    <i name="pawpsdc">  22268.50495562 </i>
    <i name="pawaedc"> -20746.77727012 </i>
    <i name="eentropy">      0.00209450 </i>
    <i name="bandstr">   -683.82768524 </i>
    <i name="atom">  13116.42875384 </i>
    <i name="e_fr_energy">   -334.88501931 </i>
    <i name="e_wo_entrp">   -334.88711381 </i>
    <i name="e_0_energy">   -334.88571748 </i>
   </energy>
  </scstep>
  <scstep>
   <time name="dav">   25.45   25.49</time>
   <time name="total">   26.08   26.12</time>
   <energy>
    <i name="e_fr_energy">   -334.89453833 </i>
    <i name="e_wo_entrp">   -334.89574495 </i>
    <i name="e_0_energy">   -334.89494054 </i>
   </energy>
  </scstep>
  <scstep>
   <time name="dav">   25.08   25.11</time>
   <time name="total">   25.71   25.75</time>
   <energy>
    <i name="e_fr_energy">   -334.89795907 </i>
    <i name="e_wo_entrp">   -334.89979039 </i>
    <i name="e_0_energy">   -334.89856951 </i>
   </energy>
  </scstep>
  <scstep>
   <time name="dav">   25.43   25.47</time>
   <time name="total">   26.06   26.10</time>
   <energy>
    <i name="e_fr_energy">   -334.86992084 </i>
    <i name="e_wo_entrp">   -334.87212055 </i>
    <i name="e_0_energy">   -334.87065407 </i>
   </energy>
  </scstep>
  <scstep>
   <time name="dav">   25.39   25.43</time>
   <time name="total">   26.01   26.05</time>
   <energy>
    <i name="e_fr_energy">   -334.86115907 </i>
    <i name="e_wo_entrp">   -334.86246221 </i>
    <i name="e_0_energy">   -334.86159345 </i>
   </energy>
  </scstep>
  <scstep>
   <time name="dav">   25.92   25.96</time>
   <time name="total">   26.56   26.60</time>
   <energy>
    <i name="e_fr_energy">   -334.85959615 </i>
    <i name="e_wo_entrp">   -334.86141898 </i>
    <i name="e_0_energy">   -334.86020376 </i>
   </energy>
  </scstep>
  <scstep>
   <time name="dav">   25.43   25.46</time>
   <time name="total">   26.06   26.09</time>
   <energy>
    <i name="e_fr_energy">   -334.85928577 </i>
    <i name="e_wo_entrp">   -334.86089059 </i>
    <i name="e_0_energy">   -334.85982071 </i>
   </energy>
  </scstep>
  <scstep>
   <time name="dav">   23.43   23.46</time>
   <time name="total">   24.06   24.09</time>
   <energy>
    <i name="e_fr_energy">   -334.85924655 </i>
    <i name="e_wo_entrp">   -334.86074940 </i>
    <i name="e_0_energy">   -334.85974750 </i>
   </energy>
  </scstep>
  <scstep>
   <time name="dav">   22.64   22.67</time>
   <time name="total">   23.27   23.31</time>
   <energy>
    <i name="e_fr_energy">   -334.85930393 </i>
    <i name="e_wo_entrp">   -334.86100142 </i>
    <i name="e_0_energy">   -334.85986976 </i>
   </energy>
  </scstep>
  <scstep>
   <time name="dav">   21.21   21.23</time>
   <time name="total">   21.83   21.86</time>
   <energy>
    <i name="e_fr_energy">   -334.85938496 </i>
    <i name="e_wo_entrp">   -334.86102463 </i>
    <i name="e_0_energy">   -334.85993152 </i>
   </energy>
  </scstep>
  <scstep>
   <time name="dav">   20.37   20.39</time>
   <time name="total">   20.40   20.42</time>
   <energy>
    <i name="alphaZ">   1358.12328936 </i>
    <i name="ewald"> -11871.55610422 </i>
    <i name="hartreedc">  -2929.07793784 </i>
    <i name="XCdc">   -860.14014393 </i>
    <i name="pawpsdc">  22004.66805387 </i>
    <i name="pawaedc"> -20482.48598221 </i>
    <i name="eentropy">      0.00159218 </i>
    <i name="bandstr">   -670.82091049 </i>
    <i name="atom">  13116.42875384 </i>
    <i name="e_fr_energy">   -334.85938944 </i>
    <i name="e_wo_entrp">   -334.86098162 </i>
    <i name="e_0_energy">   -334.85992017 </i>
   </energy>
  </scstep>
  <structure>
   <crystal>
    <varray name="basis" >
     <v>      -3.16639889      -3.16399075      -3.17154543 </v>
     <v>       1.55879287       1.56513825      -7.88759987 </v>
     <v>       7.89351438      -7.90066251      -1.57260423 </v>
    </varray>
    <i name="volume">    472.59350313 </i>
    <varray name="rec_basis" >
     <v>      -0.13707046      -0.12655595      -0.05220118 </v>
     <v>       0.04249234       0.06350940      -0.10578151 </v>
     <v>       0.06331065      -0.06330825      -0.00005046 </v>
    </varray>
   </crystal>
   <varray name="positions" >
    <v>       0.96456454       0.93338387       0.39887142 </v>
    <v>       0.63369183       0.26599150       0.40058759 </v>
    <v>       0.49888888       0.00182793      -0.00039357 </v>
    <v>      -0.00120226       0.00041872       0.00218755 </v>
    <v>       0.09818651       0.20569794       0.79663838 </v>
    <v>       0.03423762       0.06690715       0.59842853 </v>
    <v>       0.90174393       0.79873279       0.20156084 </v>
    <v>       0.80097394       0.59626020       0.39896565 </v>
    <v>       0.73320826       0.46686030       0.20023268 </v>
    <v>       0.66560299       0.33652765      -0.00114615 </v>
    <v>       0.37060937       0.73207990       0.60026597 </v>
    <v>       0.13227939       0.27044850       0.40090018 </v>
    <v>       0.83456957       0.66423545       0.00125464 </v>
    <v>       0.93085519       0.86862505       0.79905534 </v>
    <v>       0.56522316       0.13420145       0.19901485 </v>
    <v>       0.40293964       0.79718993       0.19832256 </v>
    <v>       0.43660008       0.86240476       0.79760116 </v>
    <v>       0.30073860       0.59825297       0.40362015 </v>
    <v>       0.86550168       0.72976010       0.59919858 </v>
    <v>       0.46575564       0.93178556       0.40260885 </v>
    <v>       0.16862397       0.33364427       0.00053640 </v>
    <v>       0.26957501       0.53239972       0.79763538 </v>
    <v>       0.06614520       0.13631647       0.20116171 </v>
    <v>       0.76431154       0.53030297       0.80051483 </v>
    <v>       0.69657294       0.40421021       0.60152942 </v>
    <v>       0.60024400       0.20094143       0.79870527 </v>
    <v>       0.53423616       0.07061178       0.60132914 </v>
    <v>       0.33371256       0.66225531       0.00098938 </v>
    <v>       0.23161005       0.46772610       0.19982326 </v>
   </varray>
  </structure>
  <varray name="forces" >
   <v>      -0.00669120       0.25390383       0.13806890 </v>
   <v>       0.02521804      -0.08286812       0.06917492 </v>
   <v>      -0.08770972       0.27700189      -0.04297047 </v>
   <v>       0.22313777      -0.12888084      -0.13082951 </v>
   <v>      -0.41228961       0.68149400      -0.54690749 </v>
   <v>      -0.25668543       0.13672492      -0.15370482 </v>
   <v>       0.11069131      -0.30861008       0.03248532 </v>
   <v>      -0.19634610      -0.07943575       0.28890301 </v>
   <v>       0.06054784      -0.12718922       0.09204824 </v>
   <v>      -0.03700176       0.20369485      -0.20902010 </v>
   <v>      -0.17624108      -0.19170094       0.02989329 </v>
   <v>       0.35931402      -0.10372301      -0.50591777 </v>
   <v>       0.04087150      -0.17003790       0.07889460 </v>
   <v>      -0.04832343       0.19687133      -0.08308995 </v>
   <v>       0.04789406       0.13310240       0.05193790 </v>
   <v>      -0.18294097      -0.16043414       0.14329393 </v>
   <v>      -0.31973261       0.07767401       0.32477085 </v>
   <v>       0.54441883      -0.65834794       0.20998378 </v>
   <v>      -0.34683774      -0.08204441       0.66145800 </v>
   <v>       0.32340749      -0.34461212       0.21628578 </v>
   <v>      -0.10839672      -0.16092788      -0.09949937 </v>
   <v>      -0.53385724       0.38480455       0.19881423 </v>
   <v>       0.33424099      -0.02472280      -0.41714909 </v>
   <v>      -0.02482529      -0.04280670       0.24711133 </v>
   <v>       0.40676965       0.13252309      -0.34605814 </v>
   <v>      -0.06417862       0.19695028      -0.07736818 </v>
   <v>       0.30468041       0.05028687      -0.62845414 </v>
   <v>      -0.10063861      -0.07997383       0.46118576 </v>
   <v>       0.12150424       0.02128366      -0.00334081 </v>
  </varray>
  <varray name="stress" >
   <v>      41.24133653       0.06324070       2.39817430 </v>
   <v>       0.06324072      41.13720518       3.04540256 </v>
   <v>       2.39817429       3.04540262      41.16278678 </v>
  </varray>
  <energy>
   <i name="e_fr_energy">   -334.85938944 </i>
   <i name="e_wo_entrp">   -334.85992017 </i>
   <i name="e_0_energy">      0.00159218 </i>
  </energy>
  <time name="totalsc">  283.71  284.11</time>
 </calculation>
 <calculation>
  <scstep>
   <time name="dav">   18.84   18.86</time>
   <time name="total">   19.47   19.49</time>
   <energy>
    <i name="alphaZ">   1340.29659473 </i>
    <i name="ewald"> -11860.29907052 </i>
    <i name="hartreedc">  -2876.47091354 </i>
    <i name="XCdc">   -861.95512959 </i>
    <i name="pawpsdc">  22004.01300750 </i>
    <i name="pawaedc"> -20481.93303361 </i>
    <i name="eentropy">      0.00268569 </i>
    <i name="bandstr">   -715.14759883 </i>
    <i name="atom">  13116.42875384 </i>
    <i name="e_fr_energy">   -335.06470434 </i>
    <i name="e_wo_entrp">   -335.06739003 </i>
    <i name="e_0_energy">   -335.06559957 </i>
   </energy>
  </scstep>
  <scstep>
   <time name="dav">   24.14   24.17</time>
   <time name="total">   24.77   24.79</time>
   <energy>
    <i name="e_fr_energy">   -335.30463440 </i>
    <i name="e_wo_entrp">   -335.30130907 </i>
    <i name="e_0_energy">   -335.30352596 </i>
   </energy>
  </scstep>
  <scstep>
   <time name="dav">   25.85   25.87</time>
   <time name="total">   26.48   26.51</time>
   <energy>
    <i name="e_fr_energy">   -335.30981116 </i>
    <i name="e_wo_entrp">   -335.31206121 </i>
    <i name="e_0_energy">   -335.31056118 </i>
   </energy>
  </scstep>
  <scstep>
   <time name="dav">   25.38   25.40</time>
   <time name="total">   26.01   26.03</time>
   <energy>
    <i name="e_fr_energy">   -335.21915610 </i>
    <i name="e_wo_entrp">   -335.21953964 </i>
    <i name="e_0_energy">   -335.21928395 </i>
   </energy>
  </scstep>
  <scstep>
   <time name="dav">   25.99   26.02</time>
   <time name="total">   26.62   26.64</time>
   <energy>
    <i name="e_fr_energy">   -335.20679997 </i>
    <i name="e_wo_entrp">   -335.20603065 </i>
    <i name="e_0_energy">   -335.20654353 </i>
   </energy>
  </scstep>
  <scstep>
   <time name="dav">   26.78   26.82</time>
   <time name="total">   27.41   27.46</time>
   <energy>
    <i name="e_fr_energy">   -335.19610746 </i>
    <i name="e_wo_entrp">   -335.19561867 </i>
    <i name="e_0_energy">   -335.19594453 </i>
   </energy>
  </scstep>
  <scstep>
   <time name="dav">   28.23   28.28</time>
   <time name="total">   28.85   28.90</time>
   <energy>
    <i name="e_fr_energy">   -335.19393755 </i>
    <i name="e_wo_entrp">   -335.19370768 </i>
    <i name="e_0_energy">   -335.19386093 </i>
   </energy>
  </scstep>
  <scstep>
   <time name="dav">   25.64   25.69</time>
   <time name="total">   26.27   26.31</time>
   <energy>
    <i name="e_fr_energy">   -335.19387010 </i>
    <i name="e_wo_entrp">   -335.19361098 </i>
    <i name="e_0_energy">   -335.19378373 </i>
   </energy>
  </scstep>
  <scstep>
   <time name="dav">   23.51   23.54</time>
   <time name="total">   24.14   24.18</time>
   <energy>
    <i name="e_fr_energy">   -335.19392553 </i>
    <i name="e_wo_entrp">   -335.19365502 </i>
    <i name="e_0_energy">   -335.19383536 </i>
   </energy>
  </scstep>
  <scstep>
   <time name="dav">   23.21   23.24</time>
   <time name="total">   23.84   23.87</time>
   <energy>
    <i name="e_fr_energy">   -335.19406237 </i>
    <i name="e_wo_entrp">   -335.19389494 </i>
    <i name="e_0_energy">   -335.19400656 </i>
   </energy>
  </scstep>
  <scstep>
   <time name="dav">   24.09   24.11</time>
   <time name="total">   24.71   24.74</time>
   <energy>
    <i name="e_fr_energy">   -335.19435242 </i>
    <i name="e_wo_entrp">   -335.19406273 </i>
    <i name="e_0_energy">   -335.19425586 </i>
   </energy>
  </scstep>
  <scstep>
   <time name="dav">   22.81   22.83</time>
   <time name="total">   23.44   23.47</time>
   <energy>
    <i name="e_fr_energy">   -335.19416688 </i>
    <i name="e_wo_entrp">   -335.19394563 </i>
    <i name="e_0_energy">   -335.19409313 </i>
   </energy>
  </scstep>
  <scstep>
   <time name="dav">   15.33   15.35</time>
   <time name="total">   15.36   15.38</time>
   <energy>
    <i name="alphaZ">   1340.29659473 </i>
    <i name="ewald"> -11860.29907052 </i>
    <i name="hartreedc">  -2897.76425459 </i>
    <i name="XCdc">   -861.25777586 </i>
    <i name="pawpsdc">  21533.56800740 </i>
    <i name="pawaedc"> -20011.91928389 </i>
    <i name="eentropy">     -0.00020028 </i>
    <i name="bandstr">   -694.24689224 </i>
    <i name="atom">  13116.42875384 </i>
    <i name="e_fr_energy">   -335.19412142 </i>
    <i name="e_wo_entrp">   -335.19392114 </i>
    <i name="e_0_energy">   -335.19405466 </i>
   </energy>
  </scstep>
  <structure>
   <crystal>
    <varray name="basis" >
     <v>      -3.18733529      -3.18387982      -3.19798924 </v>
     <v>       1.54844302       1.55734119      -7.91514858 </v>
     <v>       7.92590413      -7.93940978      -1.57683674 </v>
    </varray>
    <i name="volume">    478.87926114 </i>
    <varray name="rec_basis" >
     <v>      -0.13635437      -0.12590453      -0.05144733 </v>
     <v>       0.04253617       0.06342489      -0.10553952 </v>
     <v>       0.06302474      -0.06302243      -0.00007040 </v>
    </varray>
   </crystal>
   <varray name="positions" >
    <v>       0.96228982       0.93344681       0.39775118 </v>
    <v>       0.63400311       0.26527915       0.40112645 </v>
    <v>       0.49766817       0.00343732      -0.00121927 </v>
    <v>      -0.00214077       0.00106440       0.00411470 </v>
    <v>       0.09700923       0.21137086       0.79279989 </v>
    <v>       0.03545188       0.06740876       0.59682101 </v>
    <v>       0.90339146       0.79747773       0.20320304 </v>
    <v>       0.80214394       0.59280872       0.39813183 </v>
    <v>       0.73320477       0.46659896       0.20067672 </v>
    <v>       0.66468386       0.33937185      -0.00224410 </v>
    <v>       0.37424711       0.73071811       0.60045678 </v>
    <v>       0.13136534       0.27438490       0.40220118 </v>
    <v>       0.83564387       0.66227363       0.00237342 </v>
    <v>       0.92895460       0.87033735       0.79807539 </v>
    <v>       0.56366501       0.13487134       0.19826375 </v>
    <v>       0.40573370       0.79459196       0.19723785 </v>
    <v>       0.43907902       0.85864693       0.79546850 </v>
    <v>       0.30114592       0.59613252       0.40779518 </v>
    <v>       0.86537661       0.72525920       0.59827431 </v>
    <v>       0.46489041       0.93003808       0.40530098 </v>
    <v>       0.17085767       0.33373054       0.00095562 </v>
    <v>       0.27174530       0.53132591       0.79469594 </v>
    <v>       0.06528409       0.13961522       0.20246023 </v>
    <v>       0.76275212       0.52765249       0.80086351 </v>
    <v>       0.69305427       0.40841997       0.60292287 </v>
    <v>       0.60008956       0.20198205       0.79748122 </v>
    <v>       0.53439935       0.07516309       0.60256666 </v>
    <v>       0.33395941       0.65802818       0.00157270 </v>
    <v>       0.23005119       0.46856397       0.19987244 </v>
   </varray>
  </structure>
  <varray name="forces" >
   <v>       0.01171643       0.04652904       0.09100480 </v>
   <v>      -0.03675239      -0.01015102       0.01521756 </v>
   <v>      -0.24531318       0.19623071       0.14212200 </v>
   <v>      -0.08507227       0.02792431      -0.06244555 </v>
   <v>      -0.38072836       0.22234058      -0.09896102 </v>
   <v>      -0.07462583       0.03447411      -0.11103294 </v>
   <v>       0.04489357      -0.09982254       0.03299553 </v>
   <v>       0.00761522      -0.02601908      -0.04434467 </v>
   <v>       0.07942829      -0.11121898       0.13035199 </v>
   <v>      -0.05668834      -0.00742797       0.08003391 </v>
   <v>       0.00371046       0.05427129       0.02390792 </v>
   <v>       0.16526433      -0.10656558      -0.21922331 </v>
   <v>       0.09803226       0.14403896      -0.13698141 </v>
   <v>      -0.05857053       0.01486033      -0.03463928 </v>
   <v>       0.05206125       0.01410315       0.05664006 </v>
   <v>       0.15479802      -0.21932523       0.02804316 </v>
   <v>       0.13460887       0.06841751      -0.05391076 </v>
   <v>       0.26328705      -0.27925455       0.15358362 </v>
   <v>      -0.28136093      -0.17766534       0.30143025 </v>
   <v>       0.11833063      -0.15985329       0.10893354 </v>
   <v>      -0.14340463      -0.03061578      -0.00042478 </v>
   <v>      -0.21829873       0.39613945       0.17742302 </v>
   <v>       0.26516646      -0.01436078      -0.17997962 </v>
   <v>      -0.00072924      -0.04433865      -0.25474169 </v>
   <v>       0.02516259       0.05847091       0.02451318 </v>
   <v>      -0.01316766      -0.01269643       0.02527064 </v>
   <v>       0.15513782       0.04868092      -0.23199910 </v>
   <v>      -0.08817183       0.14628137       0.04917671 </v>
   <v>       0.10367068      -0.17344740      -0.01196375 </v>
  </varray>
  <varray name="stress" >
   <v>      11.68036211       0.90413495      -1.46516986 </v>
   <v>       0.90413497      10.31659186       1.80735358 </v>
   <v>      -1.46517000       1.80735351      11.22832274 </v>
  </varray>
  <energy>
   <i name="e_fr_energy">   -335.19412142 </i>
   <i name="e_wo_entrp">   -335.19405466 </i>
   <i name="e_0_energy">     -0.00020028 </i>
  </energy>
  <time name="totalsc">  335.25  335.75</time>
 </calculation>
 <calculation>
  <scstep>
   <time name="dav">   18.88   18.91</time>
   <time name="total">   19.51   19.54</time>
   <energy>
    <i name="alphaZ">   1333.76116655 </i>
    <i name="ewald"> -11854.42223346 </i>
    <i name="hartreedc">  -2879.71967725 </i>
    <i name="XCdc">   -861.92862059 </i>
    <i name="pawpsdc">  21533.83719274 </i>
    <i name="pawaedc"> -20012.20765261 </i>
    <i name="eentropy">      0.00055832 </i>
    <i name="bandstr">   -710.95485382 </i>
    <i name="atom">  13116.42875384 </i>
    <i name="e_fr_energy">   -335.20536628 </i>
    <i name="e_wo_entrp">   -335.20592461 </i>
    <i name="e_0_energy">   -335.20555239 </i>
   </energy>
  </scstep>
  <scstep>
   <time name="dav">   24.12   24.15</time>
   <time name="total">   24.75   24.79</time>
   <energy>
    <i name="e_fr_energy">   -335.23600892 </i>
    <i name="e_wo_entrp">   -335.23425818 </i>
    <i name="e_0_energy">   -335.23542534 </i>
   </energy>
  </scstep>
  <scstep>
   <time name="dav">   25.77   25.80</time>
   <time name="total">   26.40   26.46</time>
   <energy>
    <i name="e_fr_energy">   -335.23293853 </i>
    <i name="e_wo_entrp">   -335.23305794 </i>
    <i name="e_0_energy">   -335.23297834 </i>
   </energy>
  </scstep>
  <scstep>
   <time name="dav">   25.06   25.09</time>
   <time name="total">   25.68   25.72</time>
   <energy>
    <i name="e_fr_energy">   -335.22280145 </i>
    <i name="e_wo_entrp">   -335.22237247 </i>
    <i name="e_0_energy">   -335.22265846 </i>
   </energy>
  </scstep>
  <scstep>
   <time name="dav">   25.91   25.94</time>
   <time name="total">   26.54   26.58</time>
   <energy>
    <i name="e_fr_energy">   -335.22106217 </i>
    <i name="e_wo_entrp">   -335.22041375 </i>
    <i name="e_0_energy">   -335.22084603 </i>
   </energy>
  </scstep>
  <scstep>
   <time name="dav">   26.89   26.93</time>
   <time name="total">   27.52   27.56</time>
   <energy>
    <i name="e_fr_energy">   -335.21940653 </i>
    <i name="e_wo_entrp">   -335.21878024 </i>
    <i name="e_0_energy">   -335.21919776 </i>
   </energy>
  </scstep>
  <scstep>
   <time name="dav">   28.07   28.10</time>
   <time name="total">   28.70   28.73</time>
   <energy>
    <i name="e_fr_energy">   -335.21918955 </i>
    <i name="e_wo_entrp">   -335.21868923 </i>
    <i name="e_0_energy">   -335.21902278 </i>
   </energy>
  </scstep>
  <scstep>
   <time name="dav">   23.21   23.25</time>
   <time name="total">   23.85   23.89</time>
   <energy>
    <i name="e_fr_energy">   -335.21915257 </i>
    <i name="e_wo_entrp">   -335.21863704 </i>
    <i name="e_0_energy">   -335.21898073 </i>
   </energy>
  </scstep>
  <scstep>
   <time name="dav">   20.70   20.77</time>
   <time name="total">   20.73   20.81</time>
   <energy>
    <i name="alphaZ">   1333.76116655 </i>
    <i name="ewald"> -11854.42223346 </i>
    <i name="hartreedc">  -2888.17539847 </i>
    <i name="XCdc">   -861.65565257 </i>
    <i name="pawpsdc">  21380.09128052 </i>
    <i name="pawaedc"> -19858.23074353 </i>
    <i name="eentropy">     -0.00052112 </i>
    <i name="bandstr">   -703.01579227 </i>
    <i name="atom">  13116.42875384 </i>
    <i name="e_fr_energy">   -335.21914052 </i>
    <i name="e_wo_entrp">   -335.21861940 </i>
    <i name="e_0_energy">   -335.21896682 </i>
   </energy>
  </scstep>
  <structure>
   <crystal>
    <varray name="basis" >
     <v>      -3.19511058      -3.19126616      -3.20780986 </v>
     <v>       1.54459933       1.55444555      -7.92537953 </v>
     <v>       7.93793293      -7.95379962      -1.57840859 </v>
    </varray>
    <i name="volume">    481.22576897 </i>
    <varray name="rec_basis" >
     <v>      -0.13609086      -0.12566476      -0.05117041 </v>
     <v>       0.04255207       0.06339347      -0.10545014 </v>
     <v>       0.06291924      -0.06291692      -0.00007771 </v>
    </varray>
   </crystal>
   <varray name="positions" >
    <v>       0.96145091       0.93347041       0.39733697 </v>
    <v>       0.63411881       0.26501518       0.40132564 </v>
    <v>       0.49721580       0.00403392      -0.00152447 </v>
    <v>      -0.00248837       0.00130440       0.00482721 </v>
    <v>       0.09656790       0.21347288       0.79138107 </v>
    <v>       0.03589950       0.06759401       0.59622676 </v>
    <v>       0.90400056       0.79701254       0.20381014 </v>
    <v>       0.80258062       0.59152898       0.39782338 </v>
    <v>       0.73320375       0.46650220       0.20084087 </v>
    <v>       0.66434106       0.34042600      -0.00264988 </v>
    <v>       0.37559088       0.73021255       0.60052734 </v>
    <v>       0.13102226       0.27584442       0.40268239 </v>
    <v>       0.83604265       0.66154651       0.00278695 </v>
    <v>       0.92825133       0.87097223       0.79771314 </v>
    <v>       0.56308948       0.13511983       0.19798607 </v>
    <v>       0.40676832       0.79362813       0.19683674 </v>
    <v>       0.43999931       0.85725302       0.79467986 </v>
    <v>       0.30129811       0.59534747       0.40933863 </v>
    <v>       0.86533708       0.72359078       0.59793232 </v>
    <v>       0.46457304       0.92939123       0.40629617 </v>
    <v>       0.17168141       0.33376208       0.00111067 </v>
    <v>       0.27254815       0.53092669       0.79360919 </v>
    <v>       0.06496144       0.14083839       0.20294048 </v>
    <v>       0.76218054       0.52667056       0.80099222 </v>
    <v>       0.69174998       0.40998146       0.60343820 </v>
    <v>       0.60003142       0.20236750       0.79702873 </v>
    <v>       0.53445279       0.07685026       0.60302446 </v>
    <v>       0.33405631       0.65646149       0.00178812 </v>
    <v>       0.22947496       0.46887490       0.19989063 </v>
   </varray>
  </structure>
  <varray name="forces" >
   <v>       0.02618035      -0.03434882       0.07011753 </v>
   <v>      -0.06218197       0.01645209      -0.00376148 </v>
   <v>      -0.29878292       0.16095887       0.20719176 </v>
   <v>      -0.18448649       0.08056835      -0.03860179 </v>
   <v>      -0.38030159       0.06888071       0.05513127 </v>
   <v>      -0.00907709       0.00183342      -0.09396145 </v>
   <v>       0.02029816      -0.02188229       0.03026106 </v>
   <v>       0.08936081      -0.00203711      -0.16992559 </v>
   <v>       0.08718159      -0.10416752       0.14218334 </v>
   <v>      -0.06247863      -0.08714216       0.19345115 </v>
   <v>       0.07120164       0.14928772       0.01736346 </v>
   <v>       0.09714487      -0.10522495      -0.11896257 </v>
   <v>       0.11613543       0.24685248      -0.22089936 </v>
   <v>      -0.07307347      -0.04948494      -0.01317449 </v>
   <v>       0.04167191      -0.03350520       0.05096288 </v>
   <v>       0.27670535      -0.24088339       0.00786091 </v>
   <v>       0.28195564       0.05299201      -0.18389331 </v>
   <v>       0.17981931      -0.13653299       0.13926887 </v>
   <v>      -0.25984057      -0.20952382       0.17396584 </v>
   <v>       0.04373047      -0.09439421       0.07130543 </v>
   <v>      -0.15226383       0.02004844       0.03717843 </v>
   <v>      -0.10683984       0.40246005       0.16654701 </v>
   <v>       0.24048239      -0.01140668      -0.10437543 </v>
   <v>       0.01316213      -0.03818902      -0.44369553 </v>
   <v>      -0.11878721       0.02568415       0.16609337 </v>
   <v>       0.00806130      -0.08499229       0.05814211 </v>
   <v>       0.09732791       0.04948150      -0.08885067 </v>
   <v>      -0.08051987       0.22402505      -0.09379813 </v>
   <v>       0.09821422      -0.24580947      -0.01312461 </v>
  </varray>
  <varray name="stress" >
   <v>       2.44650227       1.37086497      -2.93739210 </v>
   <v>       1.37086492       0.69084833       1.36158479 </v>
   <v>      -2.93739206       1.36158479       2.13008517 </v>
  </varray>
  <energy>
   <i name="e_fr_energy">   -335.21914052 </i>
   <i name="e_wo_entrp">   -335.21896682 </i>
   <i name="e_0_energy">     -0.00052112 </i>
  </energy>
  <time name="totalsc">  242.16  242.60</time>
 </calculation>
 <calculation>
  <scstep>
   <time name="dav">   19.17   19.23</time>
   <time name="total">   19.80   19.87</time>
   <energy>
    <i name="alphaZ">   1331.19714541 </i>
    <i name="ewald"> -11845.82664960 </i>
    <i name="hartreedc">  -2887.44898197 </i>
    <i name="XCdc">   -861.90490627 </i>
    <i name="pawpsdc">  21378.02469550 </i>
    <i name="pawaedc"> -19856.34639581 </i>
    <i name="eentropy">     -0.00082838 </i>
    <i name="bandstr">   -709.37559064 </i>
    <i name="atom">  13116.42875384 </i>
    <i name="e_fr_energy">   -335.25275792 </i>
    <i name="e_wo_entrp">   -335.25192954 </i>
    <i name="e_0_energy">   -335.25248179 </i>
   </energy>
  </scstep>
  <scstep>
   <time name="dav">   25.96   26.03</time>
   <time name="total">   26.59   26.66</time>
   <energy>
    <i name="e_fr_energy">   -335.27960672 </i>
    <i name="e_wo_entrp">   -335.27807916 </i>
    <i name="e_0_energy">   -335.27909753 </i>
   </energy>
  </scstep>
  <scstep>
   <time name="dav">   26.09   26.16</time>
   <time name="total">   26.72   26.78</time>
   <energy>
    <i name="e_fr_energy">   -335.26466265 </i>
    <i name="e_wo_entrp">   -335.26344730 </i>
    <i name="e_0_energy">   -335.26425754 </i>
   </energy>
  </scstep>
  <scstep>
   <time name="dav">   26.49   26.53</time>
   <time name="total">   27.13   27.18</time>
   <energy>
    <i name="e_fr_energy">   -335.26321634 </i>
    <i name="e_wo_entrp">   -335.26198409 </i>
    <i name="e_0_energy">   -335.26280559 </i>
   </energy>
  </scstep>
  <scstep>
   <time name="dav">   25.28   25.32</time>
   <time name="total">   25.91   25.95</time>
   <energy>
    <i name="e_fr_energy">   -335.26251580 </i>
    <i name="e_wo_entrp">   -335.26098963 </i>
    <i name="e_0_energy">   -335.26200708 </i>
   </energy>
  </scstep>
  <scstep>
   <time name="dav">   25.39   25.43</time>
   <time name="total">   26.02   26.05</time>
   <energy>
    <i name="e_fr_energy">   -335.26203369 </i>
    <i name="e_wo_entrp">   -335.26054997 </i>
    <i name="e_0_energy">   -335.26153912 </i>
   </energy>
  </scstep>
  <scstep>
   <time name="dav">   23.93   23.96</time>
   <time name="total">   24.57   24.61</time>
   <energy>
    <i name="e_fr_energy">   -335.26189139 </i>
    <i name="e_wo_entrp">   -335.26049435 </i>
    <i name="e_0_energy">   -335.26142571 </i>
   </energy>
  </scstep>
  <scstep>
   <time name="dav">   17.61   17.63</time>
   <time name="total">   17.64   17.66</time>
   <energy>
    <i name="alphaZ">   1331.19714541 </i>
    <i name="ewald"> -11845.82664960 </i>
    <i name="hartreedc">  -2890.94265024 </i>
    <i name="XCdc">   -861.80071369 </i>
    <i name="pawpsdc">  21297.68294678 </i>
    <i name="pawaedc"> -19775.95073519 </i>
    <i name="eentropy">     -0.00145370 </i>
    <i name="bandstr">   -706.04850552 </i>
    <i name="atom">  13116.42875384 </i>
    <i name="e_fr_energy">   -335.26186192 </i>
    <i name="e_wo_entrp">   -335.26040822 </i>
    <i name="e_0_energy">   -335.26137735 </i>
   </energy>
  </scstep>
  <structure>
   <crystal>
    <varray name="basis" >
     <v>      -3.19660753      -3.19501506      -3.20922420 </v>
     <v>       1.55240311       1.55204988      -7.93172600 </v>
     <v>       7.94272448      -7.95422711      -1.58904296 </v>
    </varray>
    <i name="volume">    482.15265877 </i>
    <varray name="rec_basis" >
     <v>      -0.13596736      -0.12554671      -0.05117813 </v>
     <v>       0.04241371       0.06340218      -0.10536843 </v>
     <v>       0.06289058      -0.06291913      -0.00000279 </v>
    </varray>
   </crystal>
   <varray name="positions" >
    <v>       0.96129737       0.93324425       0.39740158 </v>
    <v>       0.63430732       0.26495833       0.40121037 </v>
    <v>       0.49743968       0.00343113      -0.00233393 </v>
    <v>      -0.00206249       0.00136234       0.00444249 </v>
    <v>       0.09761464       0.21319018       0.79048755 </v>
    <v>       0.03609752       0.06787125       0.59615382 </v>
    <v>       0.90401438       0.79686947       0.20393751 </v>
    <v>       0.80253421       0.59199424       0.39795065 </v>
[...]
       <r>    4.6922    1.0000 </r>
       <r>    4.7229    1.0000 </r>
       <r>    4.7384    1.0000 </r>
       <r>    4.7839    1.0000 </r>
       <r>    4.8330    1.0000 </r>
       <r>    4.9307    1.0000 </r>
       <r>    4.9913    1.0000 </r>
       <r>    5.0304    1.0000 </r>
       <r>    5.0932    1.0000 </r>
       <r>    5.1599    1.0000 </r>
       <r>    5.2237    1.0000 </r>
       <r>    5.2803    1.0000 </r>
       <r>    5.3331    1.0000 </r>
       <r>    5.4049    1.0000 </r>
       <r>    5.4534    1.0000 </r>
       <r>    5.4937    1.0000 </r>
       <r>    5.5579    1.0000 </r>
       <r>    5.5956    1.0000 </r>
       <r>    5.6240    1.0000 </r>
       <r>    5.7198    1.0000 </r>
       <r>    5.7738    1.0000 </r>
       <r>    5.8227    1.0000 </r>
       <r>    5.8933    1.0000 </r>
       <r>    5.9736    1.0000 </r>
       <r>    5.9937    1.0000 </r>
       <r>    6.0239    1.0000 </r>
       <r>    6.1464    1.0000 </r>
       <r>    6.1916    1.0000 </r>
       <r>    6.2035    1.0000 </r>
       <r>    6.2325    1.0000 </r>
       <r>    6.2941    1.0001 </r>
       <r>    6.3621    1.0008 </r>
       <r>    6.4149    1.0025 </r>
       <r>    6.4541    1.0053 </r>
       <r>    6.4762    1.0077 </r>
       <r>    6.5348    1.0178 </r>
       <r>    6.6100    1.0337 </r>
       <r>    6.6576    1.0328 </r>
       <r>    6.7206    0.9869 </r>
       <r>    6.8198    0.7358 </r>
       <r>    6.9026    0.3975 </r>
       <r>    6.9687    0.1570 </r>
       <r>    7.1249   -0.0354 </r>
       <r>    7.2650   -0.0098 </r>
       <r>    7.3317   -0.0031 </r>
       <r>    7.3973   -0.0007 </r>
       <r>    7.4723   -0.0001 </r>
       <r>    7.5210   -0.0000 </r>
       <r>    7.7454   -0.0000 </r>
       <r>    7.9101   -0.0000 </r>
       <r>    8.0536   -0.0000 </r>
       <r>    8.1258   -0.0000 </r>
       <r>    8.2535   -0.0000 </r>
       <r>    8.4065   -0.0000 </r>
       <r>    8.6838   -0.0000 </r>
       <r>    8.7213   -0.0000 </r>
       <r>    8.8764   -0.0000 </r>
       <r>    8.9419   -0.0000 </r>
       <r>    8.9814   -0.0000 </r>
       <r>    9.0398   -0.0000 </r>
       <r>    9.1109   -0.0000 </r>
      </set>
     </set>
    </set>
   </array>
  </eigenvalues>
  <separator name="orbital magnetization" >
   <v name="MAGDIPOLOUT">      0.00000000      0.00000000      0.00000000</v>
  </separator>
  <dos>
   <i name="efermi">      6.87819706 </i>
   <total>
    <array>
     <dimension dim="1">gridpoints</dimension>
     <dimension dim="2">spin</dimension>
     <field>energy</field>
     <field>total</field>
     <field>integrated</field>
     <set>
      <set comment="spin 1">
       <r>   -50.1249     0.0000     0.0000 </r>
       <r>   -49.9172     0.0000     0.0000 </r>
       <r>   -49.7096     0.0000     0.0000 </r>
       <r>   -49.5019     0.0000     0.0000 </r>
       <r>   -49.2943     0.0000     0.0000 </r>
       <r>   -49.0866    -0.0000    -0.0000 </r>
       <r>   -48.8790    -0.0000    -0.0000 </r>
       <r>   -48.6713    -0.0000    -0.0000 </r>
       <r>   -48.4637    -0.0000    -0.0000 </r>
       <r>   -48.2560    -0.0000    -0.0000 </r>
       <r>   -48.0484    -0.0000    -0.0000 </r>
       <r>   -47.8408    -0.0037    -0.0008 </r>
       <r>   -47.6331    -0.2053    -0.0434 </r>
       <r>   -47.4255     0.0413    -0.0348 </r>
       <r>   -47.2178    10.9972     2.2487 </r>
       <r>   -47.0102    26.5301     7.7575 </r>
       <r>   -46.8025    19.2643    11.7577 </r>
       <r>   -46.5949     1.6219    12.0944 </r>
       <r>   -46.3872    -0.4398    12.0031 </r>
       <r>   -46.1796    -0.0149    12.0000 </r>
       <r>   -45.9720    -0.0000    12.0000 </r>
       <r>   -45.7643    -0.0000    12.0000 </r>
       <r>   -45.5567    -0.0000    12.0000 </r>
       <r>   -45.3490     0.0000    12.0000 </r>
       <r>   -45.1414     0.0000    12.0000 </r>
       <r>   -44.9337     0.0000    12.0000 </r>
       <r>   -44.7261     0.0000    12.0000 </r>
       <r>   -44.5184     0.0000    12.0000 </r>
       <r>   -44.3108     0.0000    12.0000 </r>
       <r>   -44.1031     0.0000    12.0000 </r>
       <r>   -43.8955     0.0000    12.0000 </r>
       <r>   -43.6879     0.0000    12.0000 </r>
       <r>   -43.4802     0.0000    12.0000 </r>
       <r>   -43.2726     0.0000    12.0000 </r>
       <r>   -43.0649     0.0000    12.0000 </r>
       <r>   -42.8573     0.0000    12.0000 </r>
       <r>   -42.6496     0.0000    12.0000 </r>
       <r>   -42.4420     0.0000    12.0000 </r>
       <r>   -42.2343     0.0000    12.0000 </r>
       <r>   -42.0267     0.0000    12.0000 </r>
       <r>   -41.8191     0.0000    12.0000 </r>
       <r>   -41.6114     0.0000    12.0000 </r>
       <r>   -41.4038     0.0000    12.0000 </r>
       <r>   -41.1961     0.0000    12.0000 </r>
       <r>   -40.9885     0.0000    12.0000 </r>
       <r>   -40.7808     0.0000    12.0000 </r>
       <r>   -40.5732     0.0000    12.0000 </r>
       <r>   -40.3655     0.0000    12.0000 </r>
       <r>   -40.1579     0.0000    12.0000 </r>
       <r>   -39.9502     0.0000    12.0000 </r>
       <r>   -39.7426     0.0000    12.0000 </r>
       <r>   -39.5350     0.0000    12.0000 </r>
       <r>   -39.3273     0.0000    12.0000 </r>
       <r>   -39.1197     0.0000    12.0000 </r>
       <r>   -38.9120     0.0000    12.0000 </r>
       <r>   -38.7044     0.0000    12.0000 </r>
       <r>   -38.4967     0.0000    12.0000 </r>
       <r>   -38.2891     0.0000    12.0000 </r>
       <r>   -38.0814     0.0000    12.0000 </r>
       <r>   -37.8738     0.0000    12.0000 </r>
       <r>   -37.6662     0.0000    12.0000 </r>
       <r>   -37.4585     0.0000    12.0000 </r>
       <r>   -37.2509     0.0000    12.0000 </r>
       <r>   -37.0432     0.0000    12.0000 </r>
       <r>   -36.8356     0.0000    12.0000 </r>
       <r>   -36.6279     0.0000    12.0000 </r>
       <r>   -36.4203     0.0000    12.0000 </r>
       <r>   -36.2126     0.0000    12.0000 </r>
       <r>   -36.0050     0.0000    12.0000 </r>
       <r>   -35.7974     0.0000    12.0000 </r>
       <r>   -35.5897     0.0000    12.0000 </r>
       <r>   -35.3821     0.0000    12.0000 </r>
       <r>   -35.1744     0.0000    12.0000 </r>
       <r>   -34.9668     0.0000    12.0000 </r>
       <r>   -34.7591     0.0000    12.0000 </r>
       <r>   -34.5515     0.0000    12.0000 </r>
       <r>   -34.3438     0.0000    12.0000 </r>
       <r>   -34.1362     0.0000    12.0000 </r>
       <r>   -33.9285     0.0000    12.0000 </r>
       <r>   -33.7209     0.0000    12.0000 </r>
       <r>   -33.5133     0.0000    12.0000 </r>
       <r>   -33.3056     0.0000    12.0000 </r>
       <r>   -33.0980     0.0000    12.0000 </r>
       <r>   -32.8903     0.0000    12.0000 </r>
       <r>   -32.6827     0.0000    12.0000 </r>
       <r>   -32.4750     0.0000    12.0000 </r>
       <r>   -32.2674     0.0000    12.0000 </r>
       <r>   -32.0597     0.0000    12.0000 </r>
       <r>   -31.8521     0.0000    12.0000 </r>
       <r>   -31.6445     0.0000    12.0000 </r>
       <r>   -31.4368     0.0000    12.0000 </r>
       <r>   -31.2292     0.0000    12.0000 </r>
       <r>   -31.0215     0.0000    12.0000 </r>
       <r>   -30.8139     0.0000    12.0000 </r>
       <r>   -30.6062     0.0000    12.0000 </r>
       <r>   -30.3986     0.0000    12.0000 </r>
       <r>   -30.1909     0.0000    12.0000 </r>
       <r>   -29.9833     0.0000    12.0000 </r>
       <r>   -29.7756     0.0000    12.0000 </r>
       <r>   -29.5680     0.0000    12.0000 </r>
       <r>   -29.3604     0.0000    12.0000 </r>
       <r>   -29.1527     0.0000    12.0000 </r>
       <r>   -28.9451     0.0000    12.0000 </r>
       <r>   -28.7374     0.0000    12.0000 </r>
       <r>   -28.5298     0.0000    12.0000 </r>
       <r>   -28.3221     0.0000    12.0000 </r>
       <r>   -28.1145     0.0000    12.0000 </r>
       <r>   -27.9068     0.0000    12.0000 </r>
       <r>   -27.6992     0.0000    12.0000 </r>
       <r>   -27.4916     0.0000    12.0000 </r>
       <r>   -27.2839     0.0000    12.0000 </r>
       <r>   -27.0763     0.0000    12.0000 </r>
       <r>   -26.8686     0.0000    12.0000 </r>
       <r>   -26.6610     0.0000    12.0000 </r>
       <r>   -26.4533     0.0000    12.0000 </r>
       <r>   -26.2457     0.0000    12.0000 </r>
       <r>   -26.0380     0.0000    12.0000 </r>
       <r>   -25.8304     0.0000    12.0000 </r>
       <r>   -25.6227    -0.0000    12.0000 </r>
       <r>   -25.4151    -0.0000    12.0000 </r>
       <r>   -25.2075    -0.0000    12.0000 </r>
       <r>   -24.9998    -0.0000    12.0000 </r>
       <r>   -24.7922    -0.0000    12.0000 </r>
       <r>   -24.5845    -0.0000    12.0000 </r>
       <r>   -24.3769    -0.0029    11.9994 </r>
       <r>   -24.1692    -0.1823    11.9615 </r>
       <r>   -23.9616     0.1088    11.9841 </r>
       <r>   -23.7539     9.2806    13.9112 </r>
       <r>   -23.5463    18.4147    17.7349 </r>
       <r>   -23.3387    34.8287    24.9669 </r>
       <r>   -23.1310    55.9783    36.5905 </r>
       <r>   -22.9234    33.6969    43.5875 </r>
       <r>   -22.7157    16.2260    46.9568 </r>
       <r>   -22.5081     5.2176    48.0402 </r>
       <r>   -22.3004    -0.0989    48.0196 </r>
       <r>   -22.0928    -0.0921    48.0005 </r>
       <r>   -21.8851    -0.0024    48.0000 </r>
       <r>   -21.6775    -0.0000    48.0000 </r>
       <r>   -21.4698    -0.0000    48.0000 </r>
       <r>   -21.2622    -0.0000    48.0000 </r>
       <r>   -21.0546     0.0000    48.0000 </r>
       <r>   -20.8469     0.0000    48.0000 </r>
       <r>   -20.6393     0.0000    48.0000 </r>
       <r>   -20.4316     0.0000    48.0000 </r>
       <r>   -20.2240     0.0000    48.0000 </r>
       <r>   -20.0163     0.0000    48.0000 </r>
       <r>   -19.8087     0.0000    48.0000 </r>
       <r>   -19.6010     0.0000    48.0000 </r>
       <r>   -19.3934     0.0000    48.0000 </r>
       <r>   -19.1858     0.0000    48.0000 </r>
       <r>   -18.9781     0.0000    48.0000 </r>
       <r>   -18.7705     0.0000    48.0000 </r>
       <r>   -18.5628     0.0000    48.0000 </r>
       <r>   -18.3552     0.0000    48.0000 </r>
       <r>   -18.1475     0.0000    48.0000 </r>
       <r>   -17.9399     0.0000    48.0000 </r>
       <r>   -17.7322     0.0000    48.0000 </r>
       <r>   -17.5246     0.0000    48.0000 </r>
       <r>   -17.3170     0.0000    48.0000 </r>
       <r>   -17.1093     0.0000    48.0000 </r>
       <r>   -16.9017     0.0000    48.0000 </r>
       <r>   -16.6940     0.0000    48.0000 </r>
       <r>   -16.4864     0.0000    48.0000 </r>
       <r>   -16.2787     0.0000    48.0000 </r>
       <r>   -16.0711     0.0000    48.0000 </r>
       <r>   -15.8634     0.0000    48.0000 </r>
       <r>   -15.6558     0.0000    48.0000 </r>
       <r>   -15.4481     0.0000    48.0000 </r>
       <r>   -15.2405     0.0000    48.0000 </r>
       <r>   -15.0329     0.0000    48.0000 </r>
       <r>   -14.8252     0.0000    48.0000 </r>
       <r>   -14.6176     0.0000    48.0000 </r>
       <r>   -14.4099     0.0000    48.0000 </r>
       <r>   -14.2023     0.0000    48.0000 </r>
       <r>   -13.9946     0.0000    48.0000 </r>
       <r>   -13.7870     0.0000    48.0000 </r>
       <r>   -13.5793     0.0000    48.0000 </r>
       <r>   -13.3717     0.0000    48.0000 </r>
       <r>   -13.1641     0.0000    48.0000 </r>
       <r>   -12.9564     0.0000    48.0000 </r>
       <r>   -12.7488     0.0000    48.0000 </r>
       <r>   -12.5411     0.0000    48.0000 </r>
       <r>   -12.3335     0.0000    48.0000 </r>
       <r>   -12.1258     0.0000    48.0000 </r>
       <r>   -11.9182     0.0000    48.0000 </r>
       <r>   -11.7105     0.0000    48.0000 </r>
       <r>   -11.5029     0.0000    48.0000 </r>
       <r>   -11.2952     0.0000    48.0000 </r>
       <r>   -11.0876     0.0000    48.0000 </r>
       <r>   -10.8800     0.0000    48.0000 </r>
       <r>   -10.6723     0.0000    48.0000 </r>
       <r>   -10.4647     0.0000    48.0000 </r>
       <r>   -10.2570     0.0000    48.0000 </r>
       <r>   -10.0494     0.0000    48.0000 </r>
       <r>    -9.8417     0.0000    48.0000 </r>
       <r>    -9.6341     0.0000    48.0000 </r>
       <r>    -9.4264     0.0000    48.0000 </r>
       <r>    -9.2188     0.0000    48.0000 </r>
       <r>    -9.0112     0.0000    48.0000 </r>
       <r>    -8.8035     0.0000    48.0000 </r>
       <r>    -8.5959     0.0000    48.0000 </r>
       <r>    -8.3882     0.0000    48.0000 </r>
       <r>    -8.1806     0.0000    48.0000 </r>
       <r>    -7.9729     0.0000    48.0000 </r>
       <r>    -7.7653     0.0000    48.0000 </r>
       <r>    -7.5576     0.0000    48.0000 </r>
       <r>    -7.3500     0.0000    48.0000 </r>
       <r>    -7.1423     0.0000    48.0000 </r>
       <r>    -6.9347     0.0000    48.0000 </r>
       <r>    -6.7271     0.0000    48.0000 </r>
       <r>    -6.5194     0.0000    48.0000 </r>
       <r>    -6.3118     0.0000    48.0000 </r>
       <r>    -6.1041     0.0000    48.0000 </r>
       <r>    -5.8965     0.0000    48.0000 </r>
       <r>    -5.6888     0.0000    48.0000 </r>
       <r>    -5.4812     0.0000    48.0000 </r>
       <r>    -5.2735     0.0000    48.0000 </r>
       <r>    -5.0659     0.0000    48.0000 </r>
       <r>    -4.8583     0.0000    48.0000 </r>
       <r>    -4.6506     0.0000    48.0000 </r>
       <r>    -4.4430     0.0000    48.0000 </r>
       <r>    -4.2353     0.0000    48.0000 </r>
       <r>    -4.0277     0.0000    48.0000 </r>
       <r>    -3.8200     0.0000    48.0000 </r>
       <r>    -3.6124     0.0000    48.0000 </r>
       <r>    -3.4047     0.0000    48.0000 </r>
       <r>    -3.1971     0.0000    48.0000 </r>
       <r>    -2.9895     0.0000    48.0000 </r>
       <r>    -2.7818     0.0000    48.0000 </r>
       <r>    -2.5742     0.0000    48.0000 </r>
       <r>    -2.3665     0.0000    48.0000 </r>
       <r>    -2.1589    -0.0000    48.0000 </r>
       <r>    -1.9512    -0.0000    48.0000 </r>
       <r>    -1.7436    -0.0000    48.0000 </r>
       <r>    -1.5359    -0.0000    48.0000 </r>
       <r>    -1.3283    -0.0000    48.0000 </r>
       <r>    -1.1206    -0.0000    48.0000 </r>
       <r>    -0.9130    -0.0012    47.9998 </r>
       <r>    -0.7054    -0.0134    47.9970 </r>
       <r>    -0.4977     0.0860    48.0148 </r>
       <r>    -0.2901     0.5944    48.1383 </r>
       <r>    -0.0824     1.2671    48.4014 </r>
       <r>     0.1252     1.8247    48.7802 </r>
       <r>     0.3329     1.4937    49.0904 </r>
       <r>     0.5405     1.7159    49.4467 </r>
       <r>     0.7482     3.0394    50.0778 </r>
       <r>     0.9558     3.2286    50.7482 </r>
       <r>     1.1634     2.8841    51.3471 </r>
       <r>     1.3711     3.1776    52.0069 </r>
       <r>     1.5787     4.6973    52.9823 </r>
       <r>     1.7864     3.6880    53.7480 </r>
       <r>     1.9940     5.0274    54.7920 </r>
       <r>     2.2017     8.0009    56.4533 </r>
       <r>     2.4093    11.7816    58.8997 </r>
       <r>     2.6170    16.6920    62.3657 </r>
       <r>     2.8246    19.7216    66.4608 </r>
       <r>     3.0323    22.4251    71.1173 </r>
       <r>     3.2399    26.9415    76.7115 </r>
       <r>     3.4475    28.3709    82.6026 </r>
       <r>     3.6552    28.8431    88.5917 </r>
       <r>     3.8628    30.8623    95.0001 </r>
       <r>     4.0705    31.0944   101.4567 </r>
       <r>     4.2781    27.7057   107.2097 </r>
       <r>     4.4858    23.9207   112.1767 </r>
       <r>     4.6934    29.0978   118.2187 </r>
       <r>     4.9011    36.7000   125.8392 </r>
       <r>     5.1087    38.5962   133.8535 </r>
       <r>     5.3163    39.6940   142.0958 </r>
       <r>     5.5240    38.5213   150.0945 </r>
       <r>     5.7316    36.5955   157.6934 </r>
       <r>     5.9393    36.0124   165.1712 </r>
       <r>     6.1469    38.2213   173.1077 </r>
       <r>     6.3546    40.2600   181.4674 </r>
       <r>     6.5622    39.0359   189.5731 </r>
       <r>     6.7699    34.2616   196.6873 </r>
       <r>     6.9775    29.6368   202.8413 </r>
       <r>     7.1852    24.5524   207.9394 </r>
       <r>     7.3928    19.8524   212.0617 </r>
       <r>     7.6004    16.0799   215.4006 </r>
       <r>     7.8081    15.2258   218.5622 </r>
       <r>     8.0157    16.0828   221.9017 </r>
       <r>     8.2234    18.8742   225.8208 </r>
       <r>     8.4310    20.4704   230.0714 </r>
       <r>     8.6387    19.7896   234.1806 </r>
       <r>     8.8463    15.1089   237.3179 </r>
       <r>     9.0540     8.6143   239.1066 </r>
       <r>     9.2616     3.8394   239.9038 </r>
       <r>     9.4692     0.5369   240.0153 </r>
       <r>     9.6769    -0.0639   240.0020 </r>
       <r>     9.8845    -0.0097   240.0000 </r>
       <r>    10.0922    -0.0001   240.0000 </r>
       <r>    10.2998    -0.0000   240.0000 </r>
       <r>    10.5075    -0.0000   240.0000 </r>
       <r>    10.7151    -0.0000   240.0000 </r>
       <r>    10.9228     0.0000   240.0000 </r>
       <r>    11.1304     0.0000   240.0000 </r>
       <r>    11.3380     0.0000   240.0000 </r>
       <r>    11.5457     0.0000   240.0000 </r>
       <r>    11.7533     0.0000   240.0000 </r>
       <r>    11.9610     0.0000   240.0000 </r>
       <r>    12.1686     0.0000   240.0000 </r>
      </set>
     </set>
    </array>
   </total>
  </dos>
 </calculation>
 <structure name="finalpos" >
  <crystal>
   <varray name="basis" >
    <v>      -3.19319841      -3.19806668      -3.20333111 </v>
    <v>       1.57038196       1.53322278      -7.91647835 </v>
    <v>       7.94015857      -7.93428524      -1.61941915 </v>
   </varray>
   <i name="volume">    480.30023876 </i>
   <varray name="rec_basis" >
    <v>      -0.13594523      -0.12557767      -0.05128852 </v>
    <v>       0.04213434       0.06372282      -0.10561915 </v>
    <v>       0.06293740      -0.06310499       0.00026296 </v>
   </varray>
  </crystal>
  <varray name="positions" >
   <v>       0.96133540       0.93209282       0.39865383 </v>
   <v>       0.63561140       0.26403289       0.40064548 </v>
   <v>       0.49853835       0.00251746      -0.00354735 </v>
   <v>      -0.00038661       0.00221849       0.00344558 </v>
   <v>       0.10087187       0.21560910       0.78643790 </v>
   <v>       0.03618228       0.06813959       0.59568496 </v>
   <v>       0.90365324       0.79608944       0.20499995 </v>
   <v>       0.80078099       0.59276387       0.39933986 </v>
   <v>       0.73151612       0.46584493       0.20211093 </v>
   <v>       0.66557436       0.33888618      -0.00365840 </v>
   <v>       0.37433805       0.73133428       0.60079979 </v>
   <v>       0.13144493       0.27745081       0.40488418 </v>
   <v>       0.83292087       0.66461791       0.00260293 </v>
   <v>       0.92915384       0.87102597       0.79664750 </v>
   <v>       0.56181948       0.13305019       0.19807822 </v>
   <v>       0.40507758       0.79250003       0.20022109 </v>
   <v>       0.43735477       0.86072037       0.79499911 </v>
   <v>       0.29909132       0.59212161       0.41351488 </v>
   <v>       0.87434986       0.71576460       0.59860845 </v>
   <v>       0.46488820       0.92715239       0.40875386 </v>
   <v>       0.17329096       0.33344982      -0.00159086 </v>
   <v>       0.26900920       0.53148494       0.78755460 </v>
   <v>       0.06017589       0.14458046       0.20515039 </v>
   <v>       0.76263187       0.53019083       0.80113475 </v>
   <v>       0.69232660       0.40896749       0.60288880 </v>
   <v>       0.60287866       0.20257483       0.79663343 </v>
   <v>       0.53319064       0.07935986       0.60300284 </v>
   <v>       0.33249489       0.65757533       0.00054892 </v>
   <v>       0.22988498       0.46788352       0.20145437 </v>
  </varray>
 </structure>
</modeling>
