SQS with 1 vacancy for VFE and VRV      
           1
    -3.190000   -3.190000   -3.190000
     1.595000    1.595000   -7.975000
     7.975000   -7.975000   -1.595000
   Nb   Mo   Ta   Ti   W 
   6   6   6   5   6
Direct configuration=     1
   0.96666667  0.93333333  0.40000000
   0.63333333  0.26666667  0.40000000
   0.50000000  0.00000000  0.00000000
   0.00000000  0.00000000  0.00000000
   0.10000000  0.20000000  0.80000000
   0.03333333  0.06666667  0.60000000
   0.90000000  0.80000000  0.20000000
   0.80000000  0.60000000  0.40000000
   0.73333333  0.46666667  0.20000000
   0.66666667  0.33333333  0.00000000
   0.36666667  0.73333333  0.60000000
   0.13333333  0.26666667  0.40000000
   0.83333333  0.66666667  0.00000000
   0.93333333  0.86666667  0.80000000
   0.56666667  0.13333333  0.20000000
   0.40000000  0.80000000  0.20000000
   0.43333333  0.86666667  0.80000000
   0.30000000  0.60000000  0.40000000
   0.86666667  0.73333333  0.60000000
   0.46666667  0.93333333  0.40000000
   0.16666667  0.33333333  0.00000000
   0.26666667  0.53333333  0.80000000
   0.06666667  0.13333333  0.20000000
   0.76666667  0.53333333  0.80000000
   0.70000000  0.40000000  0.60000000
   0.60000000  0.20000000  0.80000000
   0.53333333  0.06666667  0.60000000
   0.33333333  0.66666667  0.00000000
   0.23333333  0.46666667  0.20000000
SQS with 1 vacancy for VFE and VRV      
           1
    -3.160427   -3.157409   -3.166876
     1.549631    1.557582   -7.865484
     7.872895   -7.881852   -1.566937
   Nb   Mo   Ta   Ti   W 
   6   6   6   5   6
Direct configuration=     2
   0.96402651  0.93339701  0.39858127
   0.63378461  0.26581739  0.40073851
   0.49860141  0.00229990 -0.00049449
  -0.00151131  0.00052811  0.00274972
   0.09771343  0.20716771  0.79577530
   0.03446912  0.06696826  0.59802477
   0.90219219  0.79840590  0.20196186
   0.80122983  0.59529414  0.39869929
   0.73317585  0.46691042  0.20029251
   0.66532556  0.33735196 -0.00144024
   0.37162088  0.73175537  0.60033435
   0.13200297  0.27142537  0.40113207
   0.83488987  0.66360812  0.00157674
   0.93021764  0.86913083  0.79881274
   0.56485235  0.13442549  0.19876173
   0.40369741  0.79646301  0.19789121
   0.43744422  0.86130268  0.79698419
   0.30092978  0.59780344  0.40455024
   0.86520960  0.72883775  0.59899197
   0.46552436  0.93138747  0.40327898
   0.16912445  0.33372422  0.00067442
   0.27032178  0.53215686  0.79702773
   0.06600640  0.13708715  0.20146071
   0.76371352  0.52952167  0.80064649
   0.69568806  0.40529861  0.60192294
   0.60030520  0.20118379  0.79837271
   0.53446038  0.07163044  0.60167142
   0.33381684  0.66111698  0.00124294
   0.23116710  0.46799997  0.19977791
SQS with 1 vacancy for VFE and VRV      
           1
    -3.166399   -3.163991   -3.171545
     1.558793    1.565138   -7.887600
     7.893514   -7.900663   -1.572604
   Nb   Mo   Ta   Ti   W 
   6   6   6   5   6
Direct configuration=     3
   0.96456454  0.93338387  0.39887142
   0.63369183  0.26599150  0.40058759
   0.49888888  0.00182793 -0.00039357
  -0.00120226  0.00041872  0.00218755
   0.09818651  0.20569794  0.79663838
   0.03423762  0.06690715  0.59842853
   0.90174393  0.79873279  0.20156084
   0.80097394  0.59626020  0.39896565
   0.73320826  0.46686030  0.20023268
   0.66560299  0.33652765 -0.00114615
   0.37060937  0.73207990  0.60026597
   0.13227939  0.27044850  0.40090018
   0.83456957  0.66423545  0.00125464
   0.93085519  0.86862505  0.79905534
   0.56522316  0.13420145  0.19901485
   0.40293964  0.79718993  0.19832256
   0.43660008  0.86240476  0.79760116
   0.30073860  0.59825297  0.40362015
   0.86550168  0.72976010  0.59919858
   0.46575564  0.93178556  0.40260885
   0.16862397  0.33364427  0.00053640
   0.26957501  0.53239972  0.79763538
   0.06614520  0.13631647  0.20116171
   0.76431154  0.53030297  0.80051483
   0.69657294  0.40421021  0.60152942
   0.60024400  0.20094143  0.79870527
   0.53423616  0.07061178  0.60132914
   0.33371256  0.66225531  0.00098938
   0.23161005  0.46772610  0.19982326
SQS with 1 vacancy for VFE and VRV      
           1
    -3.187335   -3.183880   -3.197989
     1.548443    1.557341   -7.915149
     7.925904   -7.939410   -1.576837
   Nb   Mo   Ta   Ti   W 
   6   6   6   5   6
Direct configuration=     4
   0.96228982  0.93344681  0.39775118
   0.63400311  0.26527915  0.40112645
   0.49766817  0.00343732 -0.00121927
  -0.00214077  0.00106440  0.00411470
   0.09700923  0.21137086  0.79279989
   0.03545188  0.06740876  0.59682101
   0.90339146  0.79747773  0.20320304
   0.80214394  0.59280872  0.39813183
   0.73320477  0.46659896  0.20067672
   0.66468386  0.33937185 -0.00224410
   0.37424711  0.73071811  0.60045678
   0.13136534  0.27438490  0.40220118
   0.83564387  0.66227363  0.00237342
   0.92895460  0.87033735  0.79807539
   0.56366501  0.13487134  0.19826375
   0.40573370  0.79459196  0.19723785
   0.43907902  0.85864693  0.79546850
   0.30114592  0.59613252  0.40779518
   0.86537661  0.72525920  0.59827431
   0.46489041  0.93003808  0.40530098
   0.17085767  0.33373054  0.00095562
   0.27174530  0.53132591  0.79469594
   0.06528409  0.13961522  0.20246023
   0.76275212  0.52765249  0.80086351
   0.69305427  0.40841997  0.60292287
   0.60008956  0.20198205  0.79748122
   0.53439935  0.07516309  0.60256666
   0.33395941  0.65802818  0.00157270
   0.23005119  0.46856397  0.19987244
SQS with 1 vacancy for VFE and VRV      
           1
    -3.195111   -3.191266   -3.207810
     1.544599    1.554446   -7.925380
     7.937933   -7.953800   -1.578409
   Nb   Mo   Ta   Ti   W 
   6   6   6   5   6
Direct configuration=     5
   0.96145091  0.93347041  0.39733697
   0.63411881  0.26501518  0.40132564
   0.49721580  0.00403392 -0.00152447
  -0.00248837  0.00130440  0.00482721
   0.09656790  0.21347288  0.79138107
   0.03589950  0.06759401  0.59622676
   0.90400056  0.79701254  0.20381014
   0.80258062  0.59152898  0.39782338
   0.73320375  0.46650220  0.20084087
   0.66434106  0.34042600 -0.00264988
   0.37559088  0.73021255  0.60052734
   0.13102226  0.27584442  0.40268239
   0.83604265  0.66154651  0.00278695
   0.92825133  0.87097223  0.79771314
   0.56308948  0.13511983  0.19798607
   0.40676832  0.79362813  0.19683674
   0.43999931  0.85725302  0.79467986
   0.30129811  0.59534747  0.40933863
   0.86533708  0.72359078  0.59793232
   0.46457304  0.92939123  0.40629617
   0.17168141  0.33376208  0.00111067
   0.27254815  0.53092669  0.79360919
   0.06496144  0.14083839  0.20294048
   0.76218054  0.52667056  0.80099222
   0.69174998  0.40998146  0.60343820
   0.60003142  0.20236750  0.79702873
   0.53445279  0.07685026  0.60302446
   0.33405631  0.65646149  0.00178812
   0.22947496  0.46887490  0.19989063
SQS with 1 vacancy for VFE and VRV      
           1
    -3.196608   -3.195015   -3.209224
     1.552403    1.552050   -7.931726
     7.942724   -7.954227   -1.589043
   Nb   Mo   Ta   Ti   W 
   6   6   6   5   6
Direct configuration=     6
   0.96129737  0.93324425  0.39740158
   0.63430732  0.26495833  0.40121037
   0.49743968  0.00343113 -0.00233393
  -0.00206249  0.00136234  0.00444249
   0.09761464  0.21319018  0.79048755
   0.03609752  0.06787125  0.59615382
   0.90401438  0.79686947  0.20393751
   0.80253421  0.59199424  0.39795065
   0.73304031  0.46601036  0.20118071
   0.66456743  0.33975124 -0.00264567
   0.37492219  0.73045391  0.60040114
   0.13115499  0.27624887  0.40307063
   0.83512027  0.66266449  0.00260337
   0.92864129  0.87089948  0.79763982
   0.56292677  0.13498812  0.19808815
   0.40665315  0.79342268  0.19767912
   0.43912226  0.85806299  0.79499675
   0.30092226  0.59485169  0.41001754
   0.86675896  0.72228490  0.59781504
   0.46460504  0.92901743  0.40662209
   0.17219711  0.33351850  0.00083212
   0.27141891  0.53098186  0.79264383
   0.06423093  0.14150482  0.20341273
   0.76282239  0.52779327  0.80109221
   0.69174989  0.40955971  0.60323979
   0.60020446  0.20210119  0.79714511
   0.53405472  0.07745490  0.60314800
   0.33373076  0.65687540  0.00129076
   0.22991327  0.46863299  0.20047674
SQS with 1 vacancy for VFE and VRV      
           1
    -3.198837   -3.200599   -3.211331
     1.564026    1.548482   -7.941178
     7.949861   -7.954864   -1.604882
   Nb   Mo   Ta   Ti   W 
   6   6   6   5   6
Direct configuration=     7
   0.96106873  0.93290753  0.39749804
   0.63458782  0.26487400  0.40103876
   0.49777241  0.00253571 -0.00353862
  -0.00142864  0.00144941  0.00386954
   0.09917223  0.21277145  0.78915723
   0.03639242  0.06828401  0.59604492
   0.90403486  0.79665632  0.20412729
   0.80246546  0.59268636  0.39813972
   0.73279679  0.46527776  0.20168719
   0.66490389  0.33874715 -0.00263880
   0.37392713  0.73081319  0.60021316
   0.13135282  0.27685001  0.40364828
   0.83374822  0.66432834  0.00232915
   0.92922161  0.87079145  0.79753062
   0.56268454  0.13479189  0.19824031
   0.40648167  0.79311531  0.19893356
   0.43781750  0.85926751  0.79546797
   0.30036261  0.59411252  0.41102894
   0.86887427  0.72034213  0.59764136
   0.46465244  0.92846056  0.40710770
   0.17296444  0.33315667  0.00041751
   0.26973824  0.53106557  0.79120668
   0.06314420  0.14249548  0.20411539
   0.76377839  0.52946396  0.80123986
   0.69174946  0.40893246  0.60294476
   0.60046184  0.20170470  0.79731861
   0.53346268  0.07835436  0.60333145
   0.33324649  0.65749223  0.00054991
   0.23056550  0.46827196  0.20134953
SQS with 1 vacancy for VFE and VRV      
           1
    -3.190761   -3.194094   -3.202092
     1.566490    1.540088   -7.919489
     7.931937   -7.930852   -1.610222
   Nb   Mo   Ta   Ti   W 
   6   6   6   5   6
Direct configuration=     8
   0.96099954  0.93271366  0.39767720
   0.63489677  0.26475912  0.40100154
   0.49800240  0.00208457 -0.00395533
  -0.00097357  0.00155807  0.00354240
   0.09992612  0.21293228  0.78824375
   0.03644546  0.06841551  0.59589735
   0.90402609  0.79646682  0.20423725
   0.80211291  0.59303348  0.39838531
   0.73253638  0.46510149  0.20195577
   0.66524646  0.33831391 -0.00280826
   0.37346642  0.73101760  0.60026125
   0.13149347  0.27726687  0.40407836
   0.83308796  0.66503604  0.00228514
   0.92939801  0.87078796  0.79726360
   0.56245518  0.13440717  0.19823254
   0.40625730  0.79285802  0.19961718
   0.43713036  0.86004098  0.79550574
   0.29996712  0.59359785  0.41178921
   0.87052399  0.71886230  0.59764090
   0.46466921  0.92808179  0.40754501
   0.17340102  0.33302100 -0.00001357
   0.26884796  0.53114737  0.79005122
   0.06226633  0.14321895  0.20465865
   0.76396309  0.53017184  0.80127957
   0.69177924  0.40870366  0.60287715
   0.60105630  0.20171581  0.79729726
   0.53320294  0.07885644  0.60340941
   0.33299150  0.65775046  0.00029155
   0.23082404  0.46807899  0.20175283
SQS with 1 vacancy for VFE and VRV      
           1
    -3.191268   -3.194502   -3.202672
     1.566335    1.540615   -7.920851
     7.933062   -7.932359   -1.609886
   Nb   Mo   Ta   Ti   W 
   6   6   6   5   6
Direct configuration=     9
   0.96100390  0.93272588  0.39766591
   0.63487733  0.26476635  0.40100388
   0.49798794  0.00211293 -0.00392912
  -0.00100221  0.00155119  0.00356300
   0.09987869  0.21292207  0.78830127
   0.03644212  0.06840722  0.59590665
   0.90402665  0.79647876  0.20423032
   0.80213508  0.59301165  0.39836987
   0.73255277  0.46511261  0.20193886
   0.66522491  0.33834117 -0.00279761
   0.37349541  0.73100474  0.60025823
   0.13148460  0.27724066  0.40405130
   0.83312950  0.66499149  0.00228794
   0.92938692  0.87078816  0.79728041
   0.56246962  0.13443139  0.19823301
   0.40627142  0.79287428  0.19957413
   0.43717358  0.85999229  0.79550339
   0.29999201  0.59363032  0.41174133
   0.87042020  0.71895544  0.59764088
   0.46466815  0.92810567  0.40751746
   0.17337355  0.33302950  0.00001356
   0.26890401  0.53114213  0.79012396
   0.06232155  0.14317346  0.20462447
   0.76395145  0.53012728  0.80127710
   0.69177737  0.40871805  0.60288140
   0.60101889  0.20171510  0.79729861
   0.53321927  0.07882484  0.60340453
   0.33300755  0.65773418  0.00030782
   0.23080777  0.46809116  0.20172743
SQS with 1 vacancy for VFE and VRV      
           1
    -3.191773   -3.195558   -3.202098
     1.569260    1.537908   -7.918892
     7.936465   -7.932273   -1.614439
   Nb   Mo   Ta   Ti   W 
   6   6   6   5   6
Direct configuration=    10
   0.96103160  0.93267601  0.39788493
   0.63512443  0.26462975  0.40103016
   0.49806906  0.00209184 -0.00379538
  -0.00074838  0.00170891  0.00346844
   0.10008680  0.21347506  0.78776590
   0.03638547  0.06835730  0.59576493
   0.90398250  0.79639052  0.20429521
   0.80167819  0.59311765  0.39863219
   0.73240249  0.46524807  0.20201205
   0.66552954  0.33831433 -0.00301905
   0.37344175  0.73112366  0.60042056
   0.13160021  0.27739423  0.40435823
   0.83302788  0.66491779  0.00237677
   0.92929227  0.87079774  0.79697093
   0.56224347  0.13396488  0.19815735
   0.40597670  0.79279264  0.19981789
   0.43702544  0.86029326  0.79529656
   0.29976179  0.59327470  0.41228746
   0.87155157  0.71802600  0.59773851
   0.46468008  0.92789126  0.40784160
   0.17350136  0.33303382 -0.00034339
   0.26867354  0.53118354  0.78932670
   0.06175525  0.14357637  0.20492973
   0.76367540  0.53013943  0.80123568
   0.69185595  0.40875981  0.60292980
   0.60159806  0.20201530  0.79718824
   0.53311856  0.07905074  0.60333228
   0.33292739  0.65773765  0.00035514
   0.23075164  0.46801775  0.20174061
SQS with 1 vacancy for VFE and VRV      
           1
    -3.192865   -3.197841   -3.200857
     1.575586    1.532054   -7.914655
     7.943822   -7.932086   -1.624284
   Nb   Mo   Ta   Ti   W 
   6   6   6   5   6
Direct configuration=    11
   0.96109158  0.93256784  0.39835848
   0.63565863  0.26433434  0.40108707
   0.49824452  0.00204606 -0.00350624
  -0.00019956  0.00205027  0.00326386
   0.10053666  0.21467199  0.78660798
   0.03626289  0.06824948  0.59545858
   0.90388704  0.79619956  0.20443557
   0.80069051  0.59334643  0.39919928
   0.73207765  0.46554094  0.20217019
   0.66618805  0.33825668 -0.00349783
   0.37332584  0.73138065  0.60077144
   0.13185039  0.27772602  0.40502170
   0.83280817  0.66475822  0.00256890
   0.92908747  0.87081887  0.79630181
   0.56175430  0.13295582  0.19799414
   0.40533959  0.79261562  0.20034498
   0.43670513  0.86094449  0.79484918
   0.29926421  0.59250465  0.41346849
   0.87399747  0.71601583  0.59795022
   0.46470598  0.92742703  0.40854256
   0.17377751  0.33304368 -0.00111516
   0.26817484  0.53127412  0.78760298
   0.06053113  0.14444726  0.20558943
   0.76307854  0.53016569  0.80114612
   0.69202589  0.40885008  0.60303441
   0.60285034  0.20266498  0.79694934
   0.53290084  0.07953942  0.60317591
   0.33275409  0.65774507  0.00045746
   0.23063028  0.46785890  0.20176915
SQS with 1 vacancy for VFE and VRV      
           1
    -3.195040   -3.199984   -3.204375
     1.574129    1.533682   -7.921431
     7.947722   -7.938850   -1.623114
   Nb   Mo   Ta   Ti   W 
   6   6   6   5   6
Direct configuration=    12
   0.96113477  0.93246952  0.39839802
   0.63559957  0.26426700  0.40091455
   0.49838070  0.00224217 -0.00354663
  -0.00031333  0.00206933  0.00332121
   0.10067543  0.21496524  0.78661286
   0.03619396  0.06821014  0.59554596
   0.90385892  0.79619129  0.20464312
   0.80069727  0.59314403  0.39922308
   0.73193879  0.46567650  0.20218489
   0.66601369  0.33849191 -0.00353886
   0.37370784  0.73134768  0.60076247
   0.13175550  0.27767368  0.40500700
   0.83294750  0.66460268  0.00255939
   0.92899671  0.87092045  0.79639885
   0.56184807  0.13299902  0.19805128
   0.40529897  0.79252421  0.20027738
   0.43697918  0.86079548  0.79490536
   0.29925200  0.59242651  0.41346961
   0.87400993  0.71596339  0.59813372
   0.46475569  0.92737293  0.40859980
   0.17361898  0.33317905 -0.00125323
   0.26849173  0.53129290  0.78760200
   0.06040860  0.14447776  0.20547443
   0.76280446  0.53015761  0.80114438
   0.69210765  0.40895229  0.60301561
   0.60275963  0.20256427  0.79685922
   0.53300091  0.07951603  0.60312329
   0.33268150  0.65763482  0.00048381
   0.23039541  0.46787210  0.20162743
SQS with 1 vacancy for VFE and VRV      
           1
    -3.194867   -3.199814   -3.204095
     1.574245    1.533552   -7.920891
     7.947411   -7.938311   -1.623207
   Nb   Mo   Ta   Ti   W 
   6   6   6   5   6
Direct configuration=    13
   0.96113133  0.93247735  0.39839487
   0.63560427  0.26427236  0.40092829
   0.49836986  0.00222655 -0.00354341
  -0.00030426  0.00206781  0.00331664
   0.10066439  0.21494189  0.78661246
   0.03619945  0.06821327  0.59553900
   0.90386116  0.79619194  0.20462659
   0.80069673  0.59316014  0.39922119
   0.73194985  0.46566571  0.20218372
   0.66602758  0.33847317 -0.00353560
   0.37367742  0.73135031  0.60076318
   0.13176305  0.27767785  0.40500817
   0.83293640  0.66461507  0.00256015
   0.92900394  0.87091236  0.79639112
   0.56184060  0.13299558  0.19804673
   0.40530220  0.79253149  0.20028277
   0.43695735  0.86080735  0.79490088
   0.29925297  0.59243274  0.41346953
   0.87400894  0.71596756  0.59811911
   0.46475173  0.92737724  0.40859524
   0.17363161  0.33316827 -0.00124224
   0.26846649  0.53129141  0.78760208
   0.06041835  0.14447534  0.20548359
   0.76282628  0.53015825  0.80114452
   0.69210114  0.40894415  0.60301711
   0.60276685  0.20257230  0.79686640
   0.53299294  0.07951790  0.60312748
   0.33268728  0.65764360  0.00048171
   0.23041411  0.46787105  0.20163872
SQS with 1 vacancy for VFE and VRV      
           1
    -3.194137   -3.199162   -3.204524
     1.571765    1.533513   -7.920110
     7.944174   -7.937599   -1.621104
   Nb   Mo   Ta   Ti   W 
   6   6   6   5   6
Direct configuration=    14
   0.96120027  0.93233848  0.39846462
   0.63557875  0.26418414  0.40075177
   0.49852037  0.00241860 -0.00357446
  -0.00040115  0.00209960  0.00338393
   0.10079032  0.21528326  0.78658615
   0.03612978  0.06817218  0.59562743
   0.90381144  0.79616293  0.20485195
   0.80072093  0.59292779  0.39925124
   0.73177720  0.46579756  0.20218688
   0.66580737  0.33873350 -0.00359076
   0.37408477  0.73131991  0.60076884
   0.13162377  0.27761268  0.40496697
   0.83305685  0.66449828  0.00256483
   0.92895395  0.87101312  0.79650572
   0.56191558  0.13304021  0.19808080
   0.40520236  0.79244008  0.20021871
   0.43721083  0.86067394  0.79494033
   0.29922604  0.59232954  0.41346824
   0.87407094  0.71589849  0.59833423
   0.46481151  0.92730076  0.40866898
   0.17347331  0.33331845 -0.00138824
   0.26880363  0.53133989  0.78759485
   0.06028664  0.14452029  0.20534389
   0.76256460  0.53014362  0.80114683
   0.69219155  0.40903729  0.60299207
   0.60272558  0.20249223  0.79675242
   0.53311548  0.07947469  0.60307858
   0.33260486  0.65753461  0.00052127
   0.23014247  0.46789388  0.20150192
SQS with 1 vacancy for VFE and VRV      
           1
    -3.193691   -3.198764   -3.204785
     1.570254    1.533489   -7.919634
     7.942201   -7.937165   -1.619821
   Nb   Mo   Ta   Ti   W 
   6   6   6   5   6
Direct configuration=    15
   0.96124232  0.93225381  0.39850714
   0.63556323  0.26413032  0.40064412
   0.49861211  0.00253569 -0.00359338
  -0.00046024  0.00211900  0.00342496
   0.10086704  0.21549140  0.78657014
   0.03608730  0.06814715  0.59568134
   0.90378109  0.79614529  0.20498936
   0.80073572  0.59278612  0.39926955
   0.73167190  0.46587797  0.20218882
   0.66567306  0.33889224 -0.00362437
   0.37433315  0.73130135  0.60077228
   0.13153886  0.27757294  0.40494184
   0.83313031  0.66442705  0.00256768
   0.92892344  0.87107458  0.79657560
   0.56196129  0.13306742  0.19810158
   0.40514151  0.79238433  0.20017965
   0.43736540  0.86059259  0.79496438
   0.29920964  0.59226662  0.41346745
   0.87410872  0.71585642  0.59846541
   0.46484796  0.92725414  0.40871394
   0.17337679  0.33341001 -0.00147725
   0.26900919  0.53136943  0.78759044
   0.06020635  0.14454769  0.20525871
   0.76240505  0.53013472  0.80114823
   0.69224666  0.40909407  0.60297680
   0.60270045  0.20244339  0.79668291
   0.53319021  0.07944833  0.60304876
   0.33255462  0.65746817  0.00054538
   0.22997687  0.46790779  0.20141851
SQS with 1 vacancy for VFE and VRV      
           1
    -3.193407   -3.198362   -3.203947
     1.570328    1.533336   -7.917815
     7.941024   -7.935505   -1.619590
   Nb   Mo   Ta   Ti   W 
   6   6   6   5   6
Direct configuration=    16
   0.96129597  0.93216102  0.39859169
   0.63559100  0.26407417  0.40064490
   0.49856960  0.00252518 -0.00356685
  -0.00041780  0.00217634  0.00343684
   0.10086982  0.21555924  0.78649393
   0.03614204  0.06814279  0.59568343
   0.90370741  0.79611310  0.20499547
   0.80076181  0.59277329  0.39931007
   0.73158212  0.46585893  0.20214393
   0.66561617  0.33888875 -0.00364398
   0.37433598  0.73132033  0.60078813
   0.13148473  0.27750255  0.40490861
   0.83300959  0.66453706  0.00258800
   0.92905623  0.87104656  0.79661704
   0.56187955  0.13305749  0.19808812
   0.40510466  0.79245101  0.20020353
   0.43735927  0.86066624  0.79498439
   0.29914145  0.59218305  0.41349479
   0.87424770  0.71580349  0.59854785
   0.46487116  0.92719550  0.40873695
   0.17332732  0.33343295 -0.00154273
   0.26900919  0.53143600  0.78756978
   0.06018879  0.14456658  0.20519628
   0.76253578  0.53016705  0.80114046
   0.69229274  0.40902111  0.60292608
   0.60280316  0.20251914  0.79665439
   0.53319046  0.07939734  0.60302229
   0.33252019  0.65752993  0.00054742
   0.22992391  0.46789380  0.20143918
SQS with 1 vacancy for VFE and VRV      
           1
    -3.193198   -3.198067   -3.203331
     1.570382    1.533223   -7.916478
     7.940159   -7.934285   -1.619419
   Nb   Mo   Ta   Ti   W 
   6   6   6   5   6
Direct configuration=    17
   0.96133540  0.93209282  0.39865383
   0.63561140  0.26403289  0.40064548
   0.49853835  0.00251746 -0.00354735
  -0.00038661  0.00221849  0.00344558
   0.10087187  0.21560910  0.78643790
   0.03618228  0.06813959  0.59568496
   0.90365324  0.79608944  0.20499995
   0.80078099  0.59276387  0.39933986
   0.73151612  0.46584493  0.20211093
   0.66557436  0.33888618 -0.00365840
   0.37433805  0.73133428  0.60079979
   0.13144493  0.27745081  0.40488418
   0.83292087  0.66461791  0.00260293
   0.92915384  0.87102597  0.79664750
   0.56181948  0.13305019  0.19807822
   0.40507758  0.79250003  0.20022109
   0.43735477  0.86072037  0.79499911
   0.29909132  0.59212161  0.41351488
   0.87434986  0.71576460  0.59860845
   0.46488820  0.92715239  0.40875386
   0.17329096  0.33344982 -0.00159086
   0.26900920  0.53148494  0.78755460
   0.06017589  0.14458046  0.20515039
   0.76263187  0.53019083  0.80113475
   0.69232660  0.40896749  0.60288880
   0.60287866  0.20257483  0.79663343
   0.53319064  0.07935986  0.60300284
   0.33249489  0.65757533  0.00054892
   0.22988498  0.46788352  0.20145437
