  29  29   0   0
  0.1632129E+02  0.5473281E-09  0.8209921E-09  0.1128346E-08  0.5000000E-15
  1.000000000000000E-004
  CAR 
 Nb - Mo - Ta - Ti - V SQS               
     11.66114536    -50.42014721  301      6.68269958      1.00000000
    -50.420  0.0000E+00  0.0000E+00
    -50.213  0.0000E+00  0.0000E+00
    -50.006  0.0000E+00  0.0000E+00
    -49.799  0.0000E+00  0.0000E+00
    -49.592  0.0000E+00  0.0000E+00
    -49.385 -0.9965E-35 -0.2062E-35
    -49.179 -0.3280E-27 -0.6788E-28
    -48.972 -0.1246E-20 -0.2578E-21
    -48.765 -0.5360E-15 -0.1109E-15
    -48.558 -0.2645E-10 -0.5474E-11
    -48.351 -0.1489E-06 -0.3082E-07
    -48.144 -0.9130E-04 -0.1892E-04
    -47.937 -0.5264E-02 -0.1108E-02
    -47.730  0.4490E-02 -0.1791E-03
    -47.523  0.2725E+00  0.5621E-01
    -47.316  0.5023E+00  0.1602E+00
    -47.109  0.3019E+00  0.2226E+00
    -46.902  0.9096E-01  0.2415E+00
    -46.695 -0.5629E-02  0.2403E+00
    -46.488 -0.1386E-02  0.2400E+00
    -46.281 -0.1239E-04  0.2400E+00
    -46.074 -0.1060E-07  0.2400E+00
    -45.868 -0.9805E-12  0.2400E+00
    -45.661  0.0000E+00  0.2400E+00
    -45.454  0.0000E+00  0.2400E+00
    -45.247  0.0000E+00  0.2400E+00
    -45.040  0.0000E+00  0.2400E+00
    -44.833  0.0000E+00  0.2400E+00
    -44.626  0.0000E+00  0.2400E+00
    -44.419  0.0000E+00  0.2400E+00
    -44.212  0.0000E+00  0.2400E+00
    -44.005  0.0000E+00  0.2400E+00
    -43.798  0.0000E+00  0.2400E+00
    -43.591  0.0000E+00  0.2400E+00
    -43.384  0.0000E+00  0.2400E+00
    -43.177  0.0000E+00  0.2400E+00
    -42.970  0.0000E+00  0.2400E+00
    -42.763  0.0000E+00  0.2400E+00
    -42.557  0.0000E+00  0.2400E+00
    -42.350  0.0000E+00  0.2400E+00
    -42.143  0.0000E+00  0.2400E+00
    -41.936  0.0000E+00  0.2400E+00
    -41.729  0.0000E+00  0.2400E+00
    -41.522  0.0000E+00  0.2400E+00
    -41.315  0.0000E+00  0.2400E+00
    -41.108  0.0000E+00  0.2400E+00
    -40.901  0.0000E+00  0.2400E+00
    -40.694  0.0000E+00  0.2400E+00
    -40.487  0.0000E+00  0.2400E+00
    -40.280  0.0000E+00  0.2400E+00
    -40.073  0.0000E+00  0.2400E+00
    -39.866  0.0000E+00  0.2400E+00
    -39.659  0.0000E+00  0.2400E+00
    -39.452  0.0000E+00  0.2400E+00
    -39.246  0.0000E+00  0.2400E+00
    -39.039  0.0000E+00  0.2400E+00
    -38.832  0.0000E+00  0.2400E+00
    -38.625  0.0000E+00  0.2400E+00
    -38.418  0.0000E+00  0.2400E+00
    -38.211  0.0000E+00  0.2400E+00
    -38.004  0.0000E+00  0.2400E+00
    -37.797  0.0000E+00  0.2400E+00
    -37.590  0.0000E+00  0.2400E+00
    -37.383  0.0000E+00  0.2400E+00
    -37.176  0.0000E+00  0.2400E+00
    -36.969  0.0000E+00  0.2400E+00
    -36.762  0.0000E+00  0.2400E+00
    -36.555  0.0000E+00  0.2400E+00
    -36.348  0.0000E+00  0.2400E+00
    -36.141  0.0000E+00  0.2400E+00
    -35.935  0.0000E+00  0.2400E+00
    -35.728  0.0000E+00  0.2400E+00
    -35.521  0.0000E+00  0.2400E+00
    -35.314  0.0000E+00  0.2400E+00
    -35.107  0.0000E+00  0.2400E+00
    -34.900  0.0000E+00  0.2400E+00
    -34.693  0.0000E+00  0.2400E+00
    -34.486  0.0000E+00  0.2400E+00
    -34.279  0.0000E+00  0.2400E+00
    -34.072  0.0000E+00  0.2400E+00
    -33.865  0.0000E+00  0.2400E+00
    -33.658  0.0000E+00  0.2400E+00
    -33.451  0.0000E+00  0.2400E+00
    -33.244  0.0000E+00  0.2400E+00
    -33.037  0.0000E+00  0.2400E+00
    -32.830  0.0000E+00  0.2400E+00
    -32.624  0.0000E+00  0.2400E+00
    -32.417  0.0000E+00  0.2400E+00
    -32.210  0.0000E+00  0.2400E+00
    -32.003  0.0000E+00  0.2400E+00
    -31.796  0.0000E+00  0.2400E+00
    -31.589  0.0000E+00  0.2400E+00
    -31.382  0.0000E+00  0.2400E+00
    -31.175  0.0000E+00  0.2400E+00
    -30.968  0.0000E+00  0.2400E+00
    -30.761  0.0000E+00  0.2400E+00
    -30.554  0.0000E+00  0.2400E+00
    -30.347  0.0000E+00  0.2400E+00
    -30.140  0.0000E+00  0.2400E+00
    -29.933  0.0000E+00  0.2400E+00
    -29.726  0.0000E+00  0.2400E+00
    -29.519  0.0000E+00  0.2400E+00
    -29.313  0.0000E+00  0.2400E+00
    -29.106  0.0000E+00  0.2400E+00
    -28.899  0.0000E+00  0.2400E+00
    -28.692  0.0000E+00  0.2400E+00
    -28.485  0.0000E+00  0.2400E+00
    -28.278  0.0000E+00  0.2400E+00
    -28.071  0.0000E+00  0.2400E+00
    -27.864  0.0000E+00  0.2400E+00
    -27.657  0.0000E+00  0.2400E+00
    -27.450  0.0000E+00  0.2400E+00
    -27.243  0.0000E+00  0.2400E+00
    -27.036  0.0000E+00  0.2400E+00
    -26.829  0.0000E+00  0.2400E+00
    -26.622  0.0000E+00  0.2400E+00
    -26.415  0.0000E+00  0.2400E+00
    -26.208  0.0000E+00  0.2400E+00
    -26.002  0.0000E+00  0.2400E+00
    -25.795 -0.5611E-33  0.2400E+00
    -25.588 -0.9158E-26  0.2400E+00
    -25.381 -0.1747E-19  0.2400E+00
    -25.174 -0.3800E-14  0.2400E+00
    -24.967 -0.1002E-09  0.2400E+00
    -24.760 -0.3179E-06  0.2400E+00
    -24.553 -0.1212E-03  0.2400E+00
    -24.346 -0.4811E-02  0.2390E+00
    -24.139  0.7319E-02  0.2405E+00
    -23.932  0.1963E+00  0.2811E+00
    -23.725  0.7071E+00  0.4274E+00
    -23.518  0.1142E+01  0.6639E+00
    -23.311  0.7631E+00  0.8218E+00
    -23.104  0.4892E+00  0.9230E+00
    -22.897  0.1252E+00  0.9489E+00
    -22.691  0.5095E-01  0.9594E+00
    -22.484  0.4178E-02  0.9603E+00
    -22.277 -0.1455E-02  0.9600E+00
    -22.070 -0.3590E-04  0.9600E+00
    -21.863 -0.8158E-07  0.9600E+00
    -21.656 -0.2053E-10  0.9600E+00
    -21.449 -0.5886E-15  0.9600E+00
    -21.242  0.0000E+00  0.9600E+00
    -21.035  0.0000E+00  0.9600E+00
    -20.828  0.0000E+00  0.9600E+00
    -20.621  0.0000E+00  0.9600E+00
    -20.414  0.0000E+00  0.9600E+00
    -20.207  0.0000E+00  0.9600E+00
    -20.000  0.0000E+00  0.9600E+00
    -19.793  0.0000E+00  0.9600E+00
    -19.586  0.0000E+00  0.9600E+00
    -19.380  0.0000E+00  0.9600E+00
    -19.173  0.0000E+00  0.9600E+00
    -18.966  0.0000E+00  0.9600E+00
    -18.759  0.0000E+00  0.9600E+00
    -18.552  0.0000E+00  0.9600E+00
    -18.345  0.0000E+00  0.9600E+00
    -18.138  0.0000E+00  0.9600E+00
    -17.931  0.0000E+00  0.9600E+00
    -17.724  0.0000E+00  0.9600E+00
    -17.517  0.0000E+00  0.9600E+00
    -17.310  0.0000E+00  0.9600E+00
    -17.103  0.0000E+00  0.9600E+00
    -16.896  0.0000E+00  0.9600E+00
    -16.689  0.0000E+00  0.9600E+00
    -16.482  0.0000E+00  0.9600E+00
    -16.275  0.0000E+00  0.9600E+00
    -16.068  0.0000E+00  0.9600E+00
    -15.862  0.0000E+00  0.9600E+00
    -15.655  0.0000E+00  0.9600E+00
    -15.448  0.0000E+00  0.9600E+00
    -15.241  0.0000E+00  0.9600E+00
    -15.034  0.0000E+00  0.9600E+00
    -14.827  0.0000E+00  0.9600E+00
    -14.620  0.0000E+00  0.9600E+00
    -14.413  0.0000E+00  0.9600E+00
    -14.206  0.0000E+00  0.9600E+00
    -13.999  0.0000E+00  0.9600E+00
    -13.792  0.0000E+00  0.9600E+00
    -13.585  0.0000E+00  0.9600E+00
    -13.378  0.0000E+00  0.9600E+00
    -13.171  0.0000E+00  0.9600E+00
    -12.964  0.0000E+00  0.9600E+00
    -12.757  0.0000E+00  0.9600E+00
    -12.551  0.0000E+00  0.9600E+00
    -12.344  0.0000E+00  0.9600E+00
    -12.137  0.0000E+00  0.9600E+00
    -11.930  0.0000E+00  0.9600E+00
    -11.723  0.0000E+00  0.9600E+00
    -11.516  0.0000E+00  0.9600E+00
    -11.309  0.0000E+00  0.9600E+00
    -11.102  0.0000E+00  0.9600E+00
    -10.895  0.0000E+00  0.9600E+00
    -10.688  0.0000E+00  0.9600E+00
    -10.481  0.0000E+00  0.9600E+00
    -10.274  0.0000E+00  0.9600E+00
    -10.067  0.0000E+00  0.9600E+00
     -9.860  0.0000E+00  0.9600E+00
     -9.653  0.0000E+00  0.9600E+00
     -9.446  0.0000E+00  0.9600E+00
     -9.240  0.0000E+00  0.9600E+00
     -9.033  0.0000E+00  0.9600E+00
     -8.826  0.0000E+00  0.9600E+00
     -8.619  0.0000E+00  0.9600E+00
     -8.412  0.0000E+00  0.9600E+00
     -8.205  0.0000E+00  0.9600E+00
     -7.998  0.0000E+00  0.9600E+00
     -7.791  0.0000E+00  0.9600E+00
     -7.584  0.0000E+00  0.9600E+00
     -7.377  0.0000E+00  0.9600E+00
     -7.170  0.0000E+00  0.9600E+00
     -6.963  0.0000E+00  0.9600E+00
     -6.756  0.0000E+00  0.9600E+00
     -6.549  0.0000E+00  0.9600E+00
     -6.342  0.0000E+00  0.9600E+00
     -6.135  0.0000E+00  0.9600E+00
     -5.929  0.0000E+00  0.9600E+00
     -5.722  0.0000E+00  0.9600E+00
     -5.515  0.0000E+00  0.9600E+00
     -5.308  0.0000E+00  0.9600E+00
     -5.101  0.0000E+00  0.9600E+00
     -4.894  0.0000E+00  0.9600E+00
     -4.687  0.0000E+00  0.9600E+00
     -4.480  0.0000E+00  0.9600E+00
     -4.273  0.0000E+00  0.9600E+00
     -4.066  0.0000E+00  0.9600E+00
     -3.859  0.0000E+00  0.9600E+00
     -3.652  0.0000E+00  0.9600E+00
     -3.445  0.0000E+00  0.9600E+00
     -3.238  0.0000E+00  0.9600E+00
     -3.031  0.0000E+00  0.9600E+00
     -2.824  0.0000E+00  0.9600E+00
     -2.618  0.0000E+00  0.9600E+00
     -2.411  0.0000E+00  0.9600E+00
     -2.204  0.0000E+00  0.9600E+00
     -1.997  0.0000E+00  0.9600E+00
     -1.790 -0.1702E-33  0.9600E+00
     -1.583 -0.2087E-26  0.9600E+00
     -1.376 -0.3010E-20  0.9600E+00
     -1.169 -0.4947E-15  0.9600E+00
     -0.962 -0.9805E-11  0.9600E+00
     -0.755 -0.2298E-07  0.9600E+00
     -0.548 -0.6390E-05  0.9600E+00
     -0.341 -0.1971E-03  0.9600E+00
     -0.134  0.2376E-03  0.9600E+00
      0.073  0.1016E-01  0.9621E+00
      0.280  0.2421E-01  0.9671E+00
      0.487  0.2734E-01  0.9728E+00
      0.693  0.4027E-01  0.9811E+00
      0.900  0.3575E-01  0.9885E+00
      1.107  0.4272E-01  0.9973E+00
      1.314  0.6397E-01  0.1011E+01
      1.521  0.6048E-01  0.1023E+01
      1.728  0.6590E-01  0.1037E+01
      1.935  0.7181E-01  0.1052E+01
      2.142  0.1101E+00  0.1074E+01
      2.349  0.1166E+00  0.1099E+01
      2.556  0.1720E+00  0.1134E+01
      2.763  0.2909E+00  0.1194E+01
      2.970  0.3964E+00  0.1276E+01
      3.177  0.4861E+00  0.1377E+01
      3.384  0.5809E+00  0.1497E+01
      3.591  0.6241E+00  0.1626E+01
      3.798  0.6125E+00  0.1753E+01
      4.004  0.6246E+00  0.1882E+01
      4.211  0.6210E+00  0.2011E+01
      4.418  0.6081E+00  0.2137E+01
      4.625  0.5463E+00  0.2250E+01
      4.832  0.6029E+00  0.2374E+01
      5.039  0.7164E+00  0.2523E+01
      5.246  0.7762E+00  0.2683E+01
      5.453  0.8227E+00  0.2854E+01
      5.660  0.8198E+00  0.3023E+01
      5.867  0.8272E+00  0.3194E+01
      6.074  0.8438E+00  0.3369E+01
      6.281  0.8421E+00  0.3543E+01
      6.488  0.8197E+00  0.3713E+01
      6.695  0.7518E+00  0.3868E+01
      6.902  0.6689E+00  0.4007E+01
      7.109  0.5788E+00  0.4127E+01
      7.315  0.4749E+00  0.4225E+01
      7.522  0.4130E+00  0.4310E+01
      7.729  0.3910E+00  0.4391E+01
      7.936  0.4408E+00  0.4483E+01
      8.143  0.4904E+00  0.4584E+01
      8.350  0.5058E+00  0.4689E+01
      8.557  0.3765E+00  0.4767E+01
      8.764  0.1531E+00  0.4798E+01
      8.971  0.1157E-01  0.4801E+01
      9.178 -0.3146E-02  0.4800E+01
      9.385 -0.1971E-03  0.4800E+01
      9.592 -0.1575E-05  0.4800E+01
      9.799 -0.1730E-08  0.4800E+01
     10.006 -0.2458E-12  0.4800E+01
     10.213 -0.4254E-17  0.4800E+01
     10.420  0.0000E+00  0.4800E+01
     10.626  0.0000E+00  0.4800E+01
     10.833  0.0000E+00  0.4800E+01
     11.040  0.0000E+00  0.4800E+01
     11.247  0.0000E+00  0.4800E+01
     11.454  0.0000E+00  0.4800E+01
     11.661  0.0000E+00  0.4800E+01
