   29   29   50    1
  0.1632129E+02  0.5473281E-09  0.8209921E-09  0.1128346E-08  0.5000000E-15
  1.000000000000000E-004
  CAR 
 Nb - Mo - Ta - Ti - V SQS               
    193    172    120
 
  0.0000000E+00  0.0000000E+00  0.0000000E+00  0.2915452E-02
    1      -47.598270   1.000000
    2      -47.539047   1.000000
    3      -47.403465   1.000000
    4      -47.371229   1.000000
    5      -47.305099   1.000000
    6      -47.090979   1.000000
    7      -24.075633   1.000000
    8      -23.975068   1.000000
    9      -23.817361   1.000000
   10      -23.730991   1.000000
   11      -23.724930   1.000000
   12      -23.705320   1.000000
   13      -23.685348   1.000000
   14      -23.655116   1.000000
   15      -23.616772   1.000000
   16      -23.542861   1.000000
   17      -23.527537   1.000000
   18      -23.511645   1.000000
   19      -23.439674   1.000000
   20      -23.340393   1.000000
   21      -23.287063   1.000000
   22      -23.248878   1.000000
   23      -23.147671   1.000000
   24      -22.786432   1.000000
   25       -0.101233   1.000000
   26        1.220281   1.000000
   27        1.637414   1.000000
   28        2.401012   1.000000
   29        2.443461   1.000000
   30        2.539779   1.000000
   31        2.736583   1.000000
   32        2.759999   1.000000
   33        2.863239   1.000000
   34        2.917251   1.000000
   35        2.966428   1.000000
   36        3.019586   1.000000
   37        3.064423   1.000000
   38        3.164765   1.000000
   39        3.231483   1.000000
   40        3.338799   1.000000
   41        3.378827   1.000000
   42        3.511076   1.000000
   43        3.554443   1.000000
   44        3.640964   1.000000
   45        3.725526   1.000000
   46        3.754183   1.000000
   47        3.787176   1.000000
   48        3.836258   1.000000
   49        3.906974   1.000000
   50        3.934450   1.000000
   51        4.011202   1.000000
   52        4.156485   1.000000
   53        4.268691   1.000000
   54        4.338528   1.000000
   55        4.352408   1.000000
   56        4.419483   1.000000
   57        4.526110   1.000000
   58        4.604868   1.000000
   59        4.664963   1.000000
   60        4.755662   1.000000
   61        4.833017   1.000000
   62        4.857386   1.000000
   63        4.932877   1.000000
   64        4.960194   1.000000
   65        5.011387   1.000000
   66        5.077143   1.000000
   67        5.110788   1.000000
   68        5.210060   1.000000
   69        5.216202   1.000000
   70        5.289508   1.000000
   71        5.368536   1.000000
   72        5.391160   1.000000
   73        5.496737   1.000000
   74        5.553920   1.000000
   75        5.572336   1.000000
   76        5.640858   1.000000
   77        5.680579   1.000000
   78        5.712626   1.000000
   79        5.834418   1.000000
   80        5.893007   1.000000
   81        5.960388   1.000002
   82        6.054505   1.000042
   83        6.155067   1.000611
   84        6.182725   1.001159
   85        6.235557   1.003472
   86        6.278369   1.007450
   87        6.302510   1.010864
   88        6.327190   1.015309
   89        6.382961   1.027710
   90        6.444082   1.035297
   91        6.467734   1.031251
   92        6.602550   0.810833
   93        6.646344   0.651050
   94        6.670865   0.549978
   95        6.752556   0.223453
   96        6.789851   0.110900
   97        6.968413  -0.030682
   98        6.976976  -0.028907
   99        7.065895  -0.010388
  100        7.090565  -0.007026
  101        7.169242  -0.001556
  102        7.265572  -0.000150
  103        7.416180  -0.000001
  104        7.504009  -0.000000
  105        7.565101  -0.000000
  106        7.712050  -0.000000
  107        7.745738  -0.000000
  108        7.874810  -0.000000
  109        7.944902  -0.000000
  110        7.998822  -0.000000
  111        8.202205  -0.000000
  112        8.292345  -0.000000
  113        8.385423  -0.000000
  114        8.539877  -0.000000
  115        8.558480  -0.000000
  116        8.591215  -0.000000
  117        8.618567  -0.000000
  118        8.672149  -0.000000
  119        8.716128  -0.000000
  120        8.741214  -0.000000
 
  0.1428571E+00  0.0000000E+00 -0.1561251E-16  0.5830904E-02
    1      -47.598175   1.000000
    2      -47.538816   1.000000
    3      -47.401623   1.000000
    4      -47.369192   1.000000
    5      -47.304838   1.000000
    6      -47.095153   1.000000
    7      -24.024348   1.000000
    8      -23.971740   1.000000
    9      -23.817916   1.000000
   10      -23.732625   1.000000
   11      -23.722276   1.000000
   12      -23.706681   1.000000
   13      -23.687644   1.000000
   14      -23.655518   1.000000
   15      -23.616962   1.000000
   16      -23.539659   1.000000
   17      -23.527933   1.000000
   18      -23.512471   1.000000
   19      -23.441234   1.000000
   20      -23.338391   1.000000
   21      -23.291828   1.000000
   22      -23.253634   1.000000
   23      -23.147254   1.000000
   24      -22.851116   1.000000
   25        0.060952   1.000000
   26        1.364645   1.000000
   27        1.765953   1.000000
   28        2.427770   1.000000
   29        2.586461   1.000000
   30        2.631007   1.000000
   31        2.768954   1.000000
   32        2.857349   1.000000
   33        2.922723   1.000000
   34        3.033073   1.000000
   35        3.042017   1.000000
   36        3.113062   1.000000
   37        3.194059   1.000000
   38        3.213441   1.000000
   39        3.337551   1.000000
   40        3.385955   1.000000
   41        3.455720   1.000000
   42        3.540836   1.000000
   43        3.625202   1.000000
   44        3.641888   1.000000
   45        3.720864   1.000000
   46        3.764756   1.000000
   47        3.854936   1.000000
   48        3.953518   1.000000
   49        3.972614   1.000000
   50        4.063633   1.000000
   51        4.098488   1.000000
   52        4.218528   1.000000
   53        4.281101   1.000000
   54        4.310127   1.000000
   55        4.362349   1.000000
   56        4.405531   1.000000
   57        4.534518   1.000000
   58        4.599805   1.000000
   59        4.664324   1.000000
   60        4.754064   1.000000
   61        4.830120   1.000000
   62        4.945524   1.000000
   63        4.961987   1.000000
   64        5.003417   1.000000
   65        5.081504   1.000000
   66        5.136594   1.000000
   67        5.189609   1.000000
   68        5.249309   1.000000
   69        5.276015   1.000000
   70        5.329472   1.000000
   71        5.415560   1.000000
   72        5.432771   1.000000
   73        5.481250   1.000000
   74        5.536097   1.000000
   75        5.594391   1.000000
   76        5.652563   1.000000
   77        5.694272   1.000000
   78        5.734442   1.000000
   79        5.807677   1.000000
   80        5.867828   1.000000
   81        5.939662   1.000001
   82        6.007884   1.000010
   83        6.079737   1.000086
   84        6.131272   1.000340
   85        6.153998   1.000596
   86        6.248491   1.004427
   87        6.272535   1.006761
   88        6.348113   1.019741
   89        6.383187   1.027760
   90        6.438080   1.035457
   91        6.486716   1.022916
   92        6.511480   1.003039
   93        6.565616   0.913364
   94        6.627679   0.723329
   95        6.684700   0.491536
   96        6.724231   0.328399
   97        6.774200   0.154128
   98        6.878541  -0.022833
   99        6.934000  -0.035309
  100        7.024878  -0.018075
  101        7.072807  -0.009349
  102        7.171611  -0.001478
  103        7.295728  -0.000065
  104        7.329126  -0.000024
  105        7.421236  -0.000001
  106        7.494760  -0.000000
  107        7.544814  -0.000000
  108        7.637117  -0.000000
  109        7.842437  -0.000000
  110        7.937887  -0.000000
  111        8.033861  -0.000000
  112        8.114819  -0.000000
  113        8.269872  -0.000000
  114        8.289175  -0.000000
  115        8.350976  -0.000000
  116        8.369402  -0.000000
  117        8.415664  -0.000000
  118        8.539667  -0.000000
  119        8.559524  -0.000000
  120        8.630124  -0.000000
 
  0.2857143E+00  0.1387779E-16  0.3469447E-17  0.5830904E-02
    1      -47.597961   1.000000
    2      -47.538297   1.000000
    3      -47.398072   1.000000
    4      -47.363670   1.000000
    5      -47.304158   1.000000
    6      -47.104980   1.000000
    7      -23.982668   1.000000
    8      -23.866187   1.000000
    9      -23.818151   1.000000
   10      -23.736649   1.000000
   11      -23.714673   1.000000
   12      -23.706831   1.000000
   13      -23.691828   1.000000
   14      -23.656461   1.000000
   15      -23.617408   1.000000
   16      -23.534039   1.000000
   17      -23.528524   1.000000
   18      -23.512209   1.000000
   19      -23.444591   1.000000
   20      -23.333168   1.000000
   21      -23.303227   1.000000
   22      -23.265278   1.000000
   23      -23.147207   1.000000
   24      -23.026238   1.000000
   25        0.522143   1.000000
   26        1.756306   1.000000
   27        2.109282   1.000000
   28        2.549219   1.000000
   29        2.723292   1.000000
   30        2.831462   1.000000
   31        2.902817   1.000000
   32        2.995952   1.000000
   33        3.068979   1.000000
   34        3.208743   1.000000
   35        3.257809   1.000000
   36        3.292870   1.000000
   37        3.370684   1.000000
   38        3.440750   1.000000
   39        3.499377   1.000000
   40        3.512263   1.000000
   41        3.602345   1.000000
   42        3.672920   1.000000
   43        3.718704   1.000000
   44        3.808878   1.000000
   45        3.861825   1.000000
   46        3.884998   1.000000
   47        3.996454   1.000000
   48        4.060057   1.000000
   49        4.150191   1.000000
   50        4.225028   1.000000
   51        4.265958   1.000000
   52        4.317241   1.000000
   53        4.358078   1.000000
   54        4.395055   1.000000
   55        4.457056   1.000000
   56        4.505993   1.000000
   57        4.616333   1.000000
   58        4.691380   1.000000
   59        4.739259   1.000000
   60        4.823185   1.000000
   61        4.854126   1.000000
   62        4.963809   1.000000
   63        5.009013   1.000000
   64        5.068346   1.000000
   65        5.075900   1.000000
   66        5.170137   1.000000
   67        5.229435   1.000000
   68        5.271280   1.000000
   69        5.359693   1.000000
   70        5.396493   1.000000
   71        5.463503   1.000000
   72        5.475024   1.000000
   73        5.543428   1.000000
   74        5.574118   1.000000
   75        5.624892   1.000000
   76        5.637227   1.000000
   77        5.710626   1.000000
   78        5.765315   1.000000
   79        5.800750   1.000000
   80        5.844012   1.000000
   81        5.884150   1.000000
   82        5.931373   1.000001
   83        5.976673   1.000004
   84        6.032214   1.000021
   85        6.083300   1.000095
   86        6.170357   1.000875
   87        6.206406   1.001934
   88        6.259789   1.005426
   89        6.280786   1.007750
   90        6.370990   1.024984
   91        6.391296   1.029518
   92        6.420979   1.034493
   93        6.484053   1.024411
   94        6.554492   0.937580
   95        6.590233   0.848714
   96        6.615495   0.767349
   97        6.658054   0.603410
   98        6.689237   0.472352
   99        6.740208   0.267455
  100        6.837017   0.017583
  101        6.860436  -0.009388
  102        6.919719  -0.035202
  103        6.960128  -0.032232
  104        7.099564  -0.006031
  105        7.163551  -0.001757
  106        7.213463  -0.000567
  107        7.313012  -0.000039
  108        7.411744  -0.000002
  109        7.463254  -0.000000
  110        7.545656  -0.000000
  111        7.693859  -0.000000
  112        7.771671  -0.000000
  113        7.852379  -0.000000
  114        7.960607  -0.000000
  115        8.022735  -0.000000
  116        8.082697  -0.000000
  117        8.132584  -0.000000
  118        8.216918  -0.000000
  119        8.244016  -0.000000
  120        8.382491  -0.000000
 
  0.4285714E+00  0.5551115E-16 -0.4163336E-16  0.5830904E-02
    1      -47.597790   1.000000
    2      -47.537880   1.000000
    3      -47.395795   1.000000
    4      -47.358283   1.000000
    5      -47.303477   1.000000
    6      -47.113385   1.000000
    7      -23.981863   1.000000
    8      -23.821980   1.000000
    9      -23.745804   1.000000
   10      -23.738418   1.000000
   11      -23.715195   1.000000
   12      -23.694382   1.000000
   13      -23.657342   1.000000
   14      -23.620023   1.000000
   15      -23.615733   1.000000
   16      -23.531844   1.000000
   17      -23.527967   1.000000
   18      -23.508209   1.000000
   19      -23.447253   1.000000
   20      -23.328175   1.000000
   21      -23.313284   1.000000
   22      -23.281766   1.000000
   23      -23.250465   1.000000
   24      -23.142499   1.000000
   25        1.191337   1.000000
   26        2.016626   1.000000
   27        2.327044   1.000000
   28        2.551080   1.000000
   29        2.757258   1.000000
   30        2.909000   1.000000
   31        3.020246   1.000000
   32        3.182010   1.000000
   33        3.236240   1.000000
   34        3.270428   1.000000
   35        3.363862   1.000000
   36        3.412080   1.000000
   37        3.473682   1.000000
   38        3.548058   1.000000
   39        3.631375   1.000000
   40        3.710181   1.000000
   41        3.757921   1.000000
   42        3.810436   1.000000
   43        3.863725   1.000000
   44        3.939025   1.000000
   45        4.034889   1.000000
   46        4.077233   1.000000
   47        4.144149   1.000000
   48        4.190960   1.000000
   49        4.254119   1.000000
   50        4.295079   1.000000
   51        4.395067   1.000000
   52        4.443619   1.000000
   53        4.507430   1.000000
   54        4.582012   1.000000
   55        4.628174   1.000000
   56        4.653869   1.000000
   57        4.706916   1.000000
   58        4.741063   1.000000
   59        4.820434   1.000000
   60        4.860895   1.000000
   61        4.910262   1.000000
   62        5.017269   1.000000
   63        5.028285   1.000000
   64        5.057617   1.000000
   65        5.109111   1.000000
   66        5.141649   1.000000
   67        5.189119   1.000000
   68        5.276063   1.000000
   69        5.308008   1.000000
   70        5.399392   1.000000
   71        5.421111   1.000000
   72        5.457321   1.000000
   73        5.516568   1.000000
   74        5.563258   1.000000
   75        5.615488   1.000000
   76        5.633192   1.000000
   77        5.675284   1.000000
   78        5.736956   1.000000
   79        5.758550   1.000000
   80        5.842393   1.000000
   81        5.884668   1.000000
   82        5.923249   1.000001
   83        5.930849   1.000001
   84        5.971467   1.000003
   85        6.023200   1.000016
   86        6.083086   1.000094
   87        6.120656   1.000259
   88        6.148923   1.000527
   89        6.183881   1.001189
   90        6.225585   1.002859
   91        6.284031   1.008168
   92        6.324015   1.014686
   93        6.401616   1.031572
   94        6.471974   1.029835
   95        6.529459   0.980888
   96        6.576046   0.887819
   97        6.619586   0.752884
   98        6.659671   0.596728
   99        6.692494   0.458611
  100        6.708755   0.390782
  101        6.784029   0.126274
  102        6.855167  -0.004321
  103        6.914690  -0.034752
  104        6.966382  -0.031080
  105        6.997131  -0.024355
  106        7.075261  -0.008999
  107        7.129758  -0.003478
  108        7.223183  -0.000447
  109        7.320334  -0.000031
  110        7.390038  -0.000003
  111        7.534426  -0.000000
  112        7.588691  -0.000000
  113        7.668738  -0.000000
  114        7.753324  -0.000000
  115        7.802001  -0.000000
  116        7.915916  -0.000000
  117        7.990057  -0.000000
  118        8.087542  -0.000000
  119        8.189075  -0.000000
  120        8.237109  -0.000000
 
 -0.6938894E-17  0.1428571E+00  0.1040834E-16  0.5830904E-02
    1      -47.598262   1.000000
    2      -47.539056   1.000000
    3      -47.403461   1.000000
    4      -47.371226   1.000000
    5      -47.305096   1.000000
    6      -47.090975   1.000000
    7      -24.075640   1.000000
    8      -23.975010   1.000000
    9      -23.817210   1.000000
   10      -23.731169   1.000000
   11      -23.724931   1.000000
   12      -23.705168   1.000000
   13      -23.685267   1.000000
   14      -23.655063   1.000000
   15      -23.617193   1.000000
   16      -23.542953   1.000000
   17      -23.527557   1.000000
   18      -23.511713   1.000000
   19      -23.439720   1.000000
   20      -23.340414   1.000000
   21      -23.287153   1.000000
   22      -23.248905   1.000000
   23      -23.147677   1.000000
   24      -22.786442   1.000000
   25       -0.028361   1.000000
   26        1.260864   1.000000
   27        1.698024   1.000000
   28        2.180427   1.000000
   29        2.459106   1.000000
   30        2.509726   1.000000
   31        2.668872   1.000000
   32        2.800355   1.000000
   33        2.846980   1.000000
   34        2.928016   1.000000
   35        2.973061   1.000000
   36        3.017304   1.000000
   37        3.085500   1.000000
   38        3.152325   1.000000
   39        3.252655   1.000000
   40        3.369308   1.000000
   41        3.392351   1.000000
   42        3.460182   1.000000
   43        3.547874   1.000000
   44        3.621357   1.000000
   45        3.661672   1.000000
   46        3.771919   1.000000
   47        3.833980   1.000000
   48        3.896226   1.000000
   49        3.933920   1.000000
   50        4.001916   1.000000
   51        4.037264   1.000000
   52        4.179552   1.000000
   53        4.216618   1.000000
   54        4.285229   1.000000
   55        4.354380   1.000000
   56        4.432270   1.000000
   57        4.539386   1.000000
   58        4.584988   1.000000
   59        4.651258   1.000000
   60        4.759724   1.000000
   61        4.829664   1.000000
   62        4.899096   1.000000
   63        4.981704   1.000000
   64        5.010236   1.000000
   65        5.070667   1.000000
   66        5.127614   1.000000
   67        5.137334   1.000000
   68        5.216859   1.000000
   69        5.254447   1.000000
   70        5.334658   1.000000
   71        5.361073   1.000000
   72        5.417896   1.000000
   73        5.531894   1.000000
   74        5.550484   1.000000
   75        5.595271   1.000000
   76        5.636355   1.000000
   77        5.712733   1.000000
   78        5.746261   1.000000
   79        5.812702   1.000000
   80        5.899378   1.000000
   81        5.963063   1.000002
   82        6.050051   1.000036
   83        6.083093   1.000094
   84        6.143718   1.000464
   85        6.167261   1.000815
   86        6.272067   1.006707
   87        6.294315   1.009601
   88        6.332542   1.016392
   89        6.357194   1.021798
   90        6.416778   1.033995
   91        6.480964   1.026004
   92        6.542719   0.959839
   93        6.622418   0.742681
   94        6.655916   0.612210
   95        6.690128   0.468590
   96        6.780816   0.135119
   97        6.889434  -0.028278
   98        6.968067  -0.030751
   99        7.035700  -0.015812
  100        7.070789  -0.009645
  101        7.162978  -0.001779
  102        7.307579  -0.000046
  103        7.412893  -0.000002
  104        7.502421  -0.000000
  105        7.604923  -0.000000
  106        7.630653  -0.000000
  107        7.767554  -0.000000
  108        7.852701  -0.000000
  109        7.910766  -0.000000
  110        8.056724  -0.000000
  111        8.170165  -0.000000
  112        8.202635  -0.000000
  113        8.283904  -0.000000
  114        8.362132  -0.000000
  115        8.444395  -0.000000
  116        8.502318  -0.000000
  117        8.566301  -0.000000
  118        8.612330  -0.000000
  119        8.645158  -0.000000
  120        8.722654  -0.000000
 
  0.1428571E+00  0.1428571E+00 -0.1387779E-16  0.5830904E-02
    1      -47.598170   1.000000
    2      -47.538822   1.000000
    3      -47.401627   1.000000
    4      -47.369195   1.000000
    5      -47.304841   1.000000
    6      -47.095157   1.000000
    7      -24.024335   1.000000
    8      -23.971728   1.000000
    9      -23.818033   1.000000
   10      -23.732800   1.000000
   11      -23.722241   1.000000
   12      -23.706486   1.000000
   13      -23.687555   1.000000
   14      -23.655428   1.000000
   15      -23.617034   1.000000
   16      -23.539599   1.000000
   17      -23.527917   1.000000
   18      -23.512397   1.000000
   19      -23.441184   1.000000
   20      -23.338372   1.000000
   21      -23.291735   1.000000
   22      -23.253609   1.000000
   23      -23.147251   1.000000
   24      -22.851107   1.000000
   25        0.062503   1.000000
   26        1.342907   1.000000
   27        1.783688   1.000000
   28        2.450536   1.000000
   29        2.548001   1.000000
   30        2.647047   1.000000
   31        2.741818   1.000000
   32        2.799670   1.000000
   33        2.928279   1.000000
   34        2.939606   1.000000
   35        3.045907   1.000000
   36        3.077375   1.000000
   37        3.188337   1.000000
   38        3.208071   1.000000
   39        3.274124   1.000000
   40        3.383077   1.000000
   41        3.471358   1.000000
   42        3.534855   1.000000
   43        3.571166   1.000000
   44        3.692951   1.000000
   45        3.729598   1.000000
   46        3.798636   1.000000
   47        3.894769   1.000000
   48        3.933924   1.000000
   49        3.982447   1.000000
   50        4.025575   1.000000
   51        4.082061   1.000000
   52        4.221067   1.000000
   53        4.277146   1.000000
   54        4.318091   1.000000
   55        4.399475   1.000000
   56        4.449812   1.000000
   57        4.555807   1.000000
   58        4.649247   1.000000
   59        4.724665   1.000000
   60        4.778914   1.000000
   61        4.850215   1.000000
   62        4.907600   1.000000
   63        4.965798   1.000000
   64        5.012324   1.000000
   65        5.038467   1.000000
   66        5.103838   1.000000
   67        5.166469   1.000000
   68        5.206427   1.000000
   69        5.241048   1.000000
   70        5.313752   1.000000
   71        5.401711   1.000000
   72        5.426244   1.000000
   73        5.481437   1.000000
   74        5.507285   1.000000
   75        5.574160   1.000000
   76        5.604392   1.000000
   77        5.671053   1.000000
   78        5.756935   1.000000
   79        5.810369   1.000000
   80        5.841699   1.000000
   81        5.914797   1.000000
   82        6.023468   1.000016
   83        6.060155   1.000049
   84        6.107000   1.000181
   85        6.154241   1.000599
   86        6.188630   1.001321
   87        6.293424   1.009470
   88        6.338883   1.017724
   89        6.380682   1.027199
   90        6.422455   1.034647
   91        6.493435   1.018622
   92        6.529279   0.981145
   93        6.577812   0.883224
   94        6.688839   0.474035
   95        6.712121   0.376989
   96        6.784229   0.125732
   97        6.846450   0.005309
   98        6.932347  -0.035376
   99        6.964920  -0.031359
  100        7.042382  -0.014493
  101        7.119381  -0.004229
  102        7.155832  -0.002066
  103        7.247414  -0.000242
  104        7.367770  -0.000007
  105        7.412698  -0.000002
  106        7.517975  -0.000000
  107        7.603312  -0.000000
  108        7.652265  -0.000000
  109        7.800023  -0.000000
  110        7.903956  -0.000000
  111        8.013626  -0.000000
  112        8.119772  -0.000000
  113        8.263500  -0.000000
  114        8.342291  -0.000000
  115        8.475600  -0.000000
  116        8.525287  -0.000000
  117        8.560391  -0.000000
  118        8.625182  -0.000000
  119        8.666521  -0.000000
  120        8.760658  -0.000000
 
  0.2857143E+00  0.1428571E+00  0.2775558E-16  0.5830904E-02
    1      -47.597958   1.000000
    2      -47.538301   1.000000
    3      -47.398082   1.000000
    4      -47.363677   1.000000
    5      -47.304165   1.000000
    6      -47.104988   1.000000
    7      -23.982689   1.000000
    8      -23.866172   1.000000
    9      -23.818421   1.000000
   10      -23.736848   1.000000
   11      -23.714496   1.000000
   12      -23.706676   1.000000
   13      -23.691746   1.000000
   14      -23.656350   1.000000
   15      -23.617267   1.000000
   16      -23.533884   1.000000
   17      -23.528469   1.000000
   18      -23.512059   1.000000
   19      -23.444478   1.000000
   20      -23.333132   1.000000
   21      -23.303015   1.000000
   22      -23.265217   1.000000
   23      -23.147195   1.000000
   24      -23.026215   1.000000
   25        0.458437   1.000000
   26        1.669808   1.000000
   27        2.083301   1.000000
   28        2.583315   1.000000
   29        2.674154   1.000000
   30        2.867497   1.000000
   31        2.935972   1.000000
   32        2.981119   1.000000
   33        3.043333   1.000000
   34        3.181977   1.000000
   35        3.244370   1.000000
   36        3.287831   1.000000
   37        3.333518   1.000000
   38        3.440173   1.000000
   39        3.457948   1.000000
   40        3.534630   1.000000
   41        3.608321   1.000000
   42        3.645394   1.000000
   43        3.734363   1.000000
   44        3.796504   1.000000
   45        3.844059   1.000000
   46        3.906279   1.000000
   47        4.006670   1.000000
   48        4.093459   1.000000
   49        4.127732   1.000000
   50        4.210555   1.000000
   51        4.240621   1.000000
   52        4.265673   1.000000
   53        4.361907   1.000000
   54        4.398708   1.000000
   55        4.443574   1.000000
   56        4.505648   1.000000
   57        4.561702   1.000000
   58        4.703641   1.000000
   59        4.791967   1.000000
   60        4.821615   1.000000
   61        4.911785   1.000000
   62        4.933450   1.000000
   63        5.024510   1.000000
   64        5.085620   1.000000
   65        5.087519   1.000000
   66        5.167312   1.000000
   67        5.198603   1.000000
   68        5.244016   1.000000
   69        5.328373   1.000000
   70        5.380315   1.000000
   71        5.399547   1.000000
   72        5.419284   1.000000
   73        5.474287   1.000000
   74        5.506544   1.000000
   75        5.580151   1.000000
   76        5.634498   1.000000
   77        5.690679   1.000000
   78        5.752602   1.000000
   79        5.792929   1.000000
   80        5.837789   1.000000
   81        5.938106   1.000001
   82        5.960106   1.000002
   83        6.030674   1.000020
   84        6.085799   1.000102
   85        6.114906   1.000223
   86        6.161408   1.000710
   87        6.198463   1.001635
   88        6.228868   1.003050
   89        6.297453   1.010072
   90        6.360652   1.022593
   91        6.376827   1.026325
   92        6.414431   1.033679
   93        6.448502   1.034979
   94        6.516368   0.997709
   95        6.584463   0.865216
   96        6.612878   0.776426
   97        6.662428   0.585290
   98        6.703594   0.412122
   99        6.773842   0.155187
  100        6.854513  -0.003654
  101        6.890592  -0.028752
  102        6.917104  -0.034998
  103        6.972608  -0.029831
  104        7.047532  -0.013520
  105        7.149598  -0.002349
  106        7.240801  -0.000287
  107        7.339887  -0.000017
  108        7.408749  -0.000002
  109        7.563230  -0.000000
  110        7.674243  -0.000000
  111        7.731539  -0.000000
  112        7.867911  -0.000000
  113        8.072042  -0.000000
  114        8.117817  -0.000000
  115        8.263053  -0.000000
  116        8.272292  -0.000000
  117        8.352821  -0.000000
  118        8.380945  -0.000000
  119        8.426763  -0.000000
  120        8.518400  -0.000000
 
  0.4285714E+00  0.1428571E+00 -0.2081668E-16  0.5830904E-02
    1      -47.597786   1.000000
    2      -47.537884   1.000000
    3      -47.395802   1.000000
    4      -47.358288   1.000000
    5      -47.303482   1.000000
    6      -47.113392   1.000000
    7      -23.981875   1.000000
    8      -23.822211   1.000000
    9      -23.745874   1.000000
   10      -23.738552   1.000000
   11      -23.714862   1.000000
   12      -23.694316   1.000000
   13      -23.657240   1.000000
   14      -23.619962   1.000000
   15      -23.615685   1.000000
   16      -23.531764   1.000000
   17      -23.527884   1.000000
   18      -23.508096   1.000000
   19      -23.447159   1.000000
   20      -23.328152   1.000000
   21      -23.313114   1.000000
   22      -23.281709   1.000000
   23      -23.250452   1.000000
   24      -23.142486   1.000000
   25        1.093750   1.000000
   26        2.055380   1.000000
   27        2.264371   1.000000
   28        2.491563   1.000000
   29        2.622973   1.000000
   30        2.827871   1.000000
   31        3.129129   1.000000
   32        3.197070   1.000000
   33        3.300689   1.000000
   34        3.315008   1.000000
   35        3.388174   1.000000
   36        3.459922   1.000000
   37        3.505289   1.000000
   38        3.549714   1.000000
   39        3.656157   1.000000
   40        3.698735   1.000000
   41        3.774727   1.000000
   42        3.807717   1.000000
   43        3.866817   1.000000
   44        3.913712   1.000000
   45        3.988213   1.000000
   46        4.043890   1.000000
   47        4.135336   1.000000