 running on   96 total cores
 distrk:  each k-point on   96 cores,    1 groups
 distr:  one band on    8 cores,   12 groups
 using from now: INCAR     
 vasp.5.4.4.18Apr17-6-g9f103f2a35 (build Aug 09 2018 16:20:53) complex          
  
 POSCAR found :  5 types and      29 ions
 scaLAPACK will be used

 ----------------------------------------------------------------------------- 
|                                                                             |
|  ADVICE TO THIS USER RUNNING 'VASP/VAMP'   (HEAR YOUR MASTER'S VOICE ...):  |
|                                                                             |
|      You enforced a specific xc-type in the INCAR file,                     |
|      a different type was found on the POTCAR file                          |
|          I HOPE YOU KNOW, WHAT YOU ARE  DOING                               |
|                                                                             |
 ----------------------------------------------------------------------------- 

 LDA part: xc-table for Pade appr. of Perdew
 POSCAR found :  5 types and      29 ions
 POSCAR, INCAR and KPOINTS ok, starting setup
 FFT: planning ...
 WAVECAR not read
 initial charge from wavefunction
 entering main loop
       N       E                     dE             d eps       ncg     rms          rms(c)
DAV:   1    -0.405404382154E+04   -0.40540E+04   -0.16148E+05 58608   0.198E+03
DAV:   2    -0.990342647119E+04   -0.58494E+04   -0.54560E+04 68916   0.124E+03
DAV:   3    -0.108332997283E+05   -0.92987E+03   -0.90532E+03 82548   0.570E+02
DAV:   4    -0.110811175748E+05   -0.24782E+03   -0.22351E+03 82560   0.258E+02
DAV:   5    -0.112322386760E+05   -0.15112E+03   -0.13772E+03 82560   0.177E+02BRMIX: very serious problems
 the old and the new charge density differ
 old charge density:   192.50000 new  193.00000
    0.553E+03
DAV:   6    -0.101298777929E+04    0.10219E+05   -0.23889E+04 66012   0.599E+02    0.257E+03
DAV:   7    -0.683485339556E+03    0.32950E+03   -0.15156E+04 72036   0.549E+02    0.199E+03
DAV:   8    -0.575861834883E+03    0.10762E+03   -0.56179E+03 73476   0.407E+02    0.177E+03
DAV:   9    -0.511115823107E+03    0.64746E+02   -0.96371E+02 73656   0.980E+01    0.168E+03
DAV:  10    -0.562477029300E+03   -0.51361E+02   -0.22111E+02 82440   0.435E+01    0.170E+03
DAV:  11    -0.570448250606E+03   -0.79712E+01   -0.11763E+02 74304   0.358E+01    0.165E+03
DAV:  12    -0.678486014146E+03   -0.10804E+03   -0.14391E+03 74304   0.105E+02    0.108E+03
DAV:  13    -0.578065164742E+03    0.10042E+03   -0.23918E+03 74088   0.206E+02    0.570E+02
DAV:  14    -0.560563501512E+03    0.17502E+02   -0.26286E+03 71808   0.199E+02    0.371E+02
DAV:  15    -0.464135883573E+03    0.96428E+02   -0.92303E+02 71880   0.146E+02    0.213E+02
DAV:  16    -0.440081722805E+03    0.24054E+02   -0.46954E+02 70056   0.114E+02    0.196E+02
DAV:  17    -0.393770976178E+03    0.46311E+02   -0.26966E+02 75024   0.691E+01    0.177E+02
DAV:  18    -0.348263861973E+03    0.45507E+02   -0.15502E+02 78624   0.649E+01    0.164E+02
DAV:  19    -0.328278186683E+03    0.19986E+02   -0.20469E+02 74580   0.547E+01    0.146E+02
DAV:  20    -0.313213141940E+03    0.15065E+02   -0.17453E+02 75336   0.519E+01    0.107E+02
DAV:  21    -0.312579110285E+03    0.63403E+00   -0.10359E+02 73416   0.341E+01    0.736E+01
DAV:  22    -0.309146141651E+03    0.34330E+01   -0.10266E+02 66156   0.587E+01    0.624E+01
DAV:  23    -0.308490150763E+03    0.65599E+00   -0.30264E+01 69168   0.237E+01    0.498E+01
DAV:  24    -0.307721632656E+03    0.76852E+00   -0.23446E+01 75192   0.209E+01    0.420E+01
DAV:  25    -0.304755959385E+03    0.29657E+01   -0.18170E+01 75336   0.184E+01    0.308E+01
DAV:  26    -0.303997746037E+03    0.75821E+00   -0.62340E+00 72144   0.996E+00    0.281E+01
DAV:  27    -0.303712377141E+03    0.28537E+00   -0.32834E+00 71232   0.744E+00    0.254E+01
DAV:  28    -0.303538974056E+03    0.17340E+00   -0.23601E+00 66756   0.712E+00    0.210E+01
DAV:  29    -0.303449363663E+03    0.89610E-01   -0.37857E+00 74424   0.739E+00    0.166E+01
DAV:  30    -0.303350720872E+03    0.98643E-01   -0.31314E+00 72324   0.703E+00    0.145E+01
DAV:  31    -0.303143302394E+03    0.20742E+00   -0.65335E-01 74148   0.302E+00    0.123E+01
DAV:  32    -0.303078919268E+03    0.64383E-01   -0.35899E-01 74784   0.196E+00    0.966E+00
DAV:  33    -0.303062903741E+03    0.16016E-01   -0.24336E-01 69108   0.178E+00    0.792E+00
DAV:  34    -0.303058149881E+03    0.47539E-02   -0.18094E-01 72540   0.169E+00    0.725E+00
DAV:  35    -0.303066635386E+03   -0.84855E-02   -0.17025E-01 71028   0.180E+00    0.584E+00
DAV:  36    -0.303045577307E+03    0.21058E-01   -0.26441E-01 74880   0.212E+00    0.465E+00
DAV:  37    -0.303032920372E+03    0.12657E-01   -0.15094E-01 71496   0.159E+00    0.363E+00
DAV:  38    -0.303027889540E+03    0.50308E-02   -0.45893E-02 71304   0.688E-01    0.298E+00
DAV:  39    -0.303022553445E+03    0.53361E-02   -0.53185E-03 69348   0.255E-01    0.272E+00
DAV:  40    -0.303012975355E+03    0.95781E-02   -0.56074E-03 64824   0.301E-01    0.217E+00
DAV:  41    -0.303003222765E+03    0.97526E-02   -0.85061E-03 67308   0.402E-01    0.144E+00
DAV:  42    -0.303000563891E+03    0.26589E-02   -0.39001E-03 70176   0.189E-01    0.116E+00
DAV:  43    -0.302999679643E+03    0.88425E-03   -0.27901E-04 32712   0.101E-01    0.110E+00
DAV:  44    -0.302995830538E+03    0.38491E-02   -0.54622E-03 62472   0.296E-01    0.659E-01
DAV:  45    -0.302994992644E+03    0.83789E-03   -0.24839E-03 76764   0.167E-01    0.479E-01
DAV:  46    -0.302994147186E+03    0.84546E-03   -0.31186E-03 62892   0.236E-01    0.294E-01
DAV:  47    -0.302993885449E+03    0.26174E-03   -0.59553E-04 47136   0.930E-02    0.182E-01
DAV:  48    -0.302993772422E+03    0.11303E-03   -0.55421E-04 45996   0.694E-02    0.123E-01
DAV:  49    -0.302993758481E+03    0.13940E-04   -0.93174E-05 26832   0.479E-02
   1 F= -.30299376E+03 E0= -.30299090E+03  d E =-.302994E+03
 curvature:   0.00 expect dE= 0.000E+00 dE for cont linesearch  0.000E+00
 trial: gam= 0.00000 g(F)=  0.945E+00 g(S)=  0.292E+00 ort = 0.000E+00 (trialstep = 0.100E+01)
 search vector abs. value=  0.124E+01
 bond charge predicted
       N       E                     dE             d eps       ncg     rms          rms(c)
DAV:   1    -0.304467408442E+03   -0.14736E+01   -0.16815E+02 44592   0.523E+01    0.114E+01
DAV:   2    -0.306639693665E+03   -0.21723E+01   -0.31124E+01 74712   0.300E+01    0.126E+01
DAV:   3    -0.304747746986E+03    0.18919E+01   -0.21316E+01 73572   0.192E+01    0.896E+00
DAV:   4    -0.304376829547E+03    0.37092E+00   -0.13123E+01 71184   0.174E+01    0.743E+00
DAV:   5    -0.304020786919E+03    0.35604E+00   -0.65572E+00 69276   0.117E+01    0.505E+00
DAV:   6    -0.303774547654E+03    0.24624E+00   -0.26645E+00 69936   0.733E+00    0.271E+00
DAV:   7    -0.303732516297E+03    0.42031E-01   -0.12077E+00 77412   0.445E+00    0.219E+00
DAV:   8    -0.303714483515E+03    0.18033E-01   -0.44786E-01 75720   0.274E+00    0.149E+00
DAV:   9    -0.303707257574E+03    0.72259E-02   -0.20208E-01 70128   0.199E+00    0.123E+00
DAV:  10    -0.303702295290E+03    0.49623E-02   -0.10104E-01 70788   0.142E+00    0.867E-01
DAV:  11    -0.303707416444E+03   -0.51212E-02   -0.49204E-02 72120   0.982E-01    0.832E-01
DAV:  12    -0.303707837214E+03   -0.42077E-03   -0.52848E-02 72180   0.107E+00    0.531E-01
DAV:  13    -0.303707448189E+03    0.38902E-03   -0.31345E-02 76716   0.695E-01    0.273E-01
DAV:  14    -0.303707479658E+03   -0.31469E-04   -0.15760E-02 78312   0.502E-01    0.257E-01
DAV:  15    -0.303707093321E+03    0.38634E-03   -0.77319E-03 63420   0.405E-01    0.143E-01
DAV:  16    -0.303706866666E+03    0.22665E-03   -0.15959E-03 58368   0.189E-01    0.584E-02
DAV:  17    -0.303706870941E+03   -0.42746E-05   -0.27399E-04 32880   0.885E-02
   2 F= -.30370687E+03 E0= -.30370445E+03  d E =-.713112E+00
 trial-energy change:   -0.713112  1 .order   -0.701821   -1.237237   -0.166405
 step:   1.1449(harm=  1.1554)  dis= 0.07618  next Energy=  -303.718962 (dE=-0.725E+00)
 bond charge predicted
       N       E                     dE             d eps       ncg     rms          rms(c)
DAV:   1    -0.303724105183E+03   -0.17239E-01   -0.35075E+00 46476   0.772E+00    0.167E+00
DAV:   2    -0.303776558407E+03   -0.52453E-01   -0.72242E-01 73704   0.461E+00    0.194E+00
DAV:   3    -0.303741661544E+03    0.34897E-01   -0.51072E-01 72972   0.328E+00    0.133E+00
DAV:   4    -0.303733014467E+03    0.86471E-02   -0.25534E-01 69948   0.226E+00    0.112E+00
DAV:   5    -0.303723602908E+03    0.94116E-02   -0.13804E-01 68700   0.167E+00    0.712E-01
DAV:   6    -0.303719293970E+03    0.43089E-02   -0.60662E-02 70812   0.109E+00    0.444E-01
DAV:   7    -0.303718639552E+03    0.65442E-03   -0.30338E-02 74424   0.727E-01    0.380E-01
DAV:   8    -0.303717935816E+03    0.70374E-03   -0.12277E-02 67392   0.490E-01    0.254E-01
DAV:   9    -0.303717575746E+03    0.36007E-03   -0.49458E-03 61752   0.334E-01    0.184E-01
DAV:  10    -0.303717444509E+03    0.13124E-03   -0.19011E-03 61512   0.197E-01    0.133E-01
DAV:  11    -0.303717551680E+03   -0.10717E-03   -0.92261E-04 49644   0.155E-01    0.131E-01
DAV:  12    -0.303717586480E+03   -0.34800E-04   -0.10885E-03 53436   0.170E-01    0.728E-02
DAV:  13    -0.303717583035E+03    0.34445E-05   -0.40745E-04 37776   0.116E-01
   3 F= -.30371758E+03 E0= -.30371532E+03  d E =-.723825E+00
 curvature:  -0.58 expect dE=-0.821E+00 dE for cont linesearch -0.405E-07
 trial: gam= 1.15406 g(F)=  0.380E+00 g(S)=  0.105E+01 ort = 0.295E-03 (trialstep = 0.414E+00)
 search vector abs. value=  0.308E+01
 bond charge predicted
       N       E                     dE             d eps       ncg     rms          rms(c)
DAV:   1    -0.303896903925E+03   -0.17932E+00   -0.69126E+01 43344   0.303E+01    0.410E+00
DAV:   2    -0.304845084181E+03   -0.94818E+00   -0.92711E+00 70296   0.149E+01    0.707E+00
DAV:   3    -0.304263264777E+03    0.58182E+00   -0.51779E+00 75276   0.101E+01    0.315E+00
DAV:   4    -0.304249833647E+03    0.13431E-01   -0.12920E+00 69912   0.538E+00    0.286E+00
DAV:   5    -0.304181382848E+03    0.68451E-01   -0.76093E-01 68688   0.426E+00    0.153E+00
DAV:   6    -0.304166342863E+03    0.15040E-01   -0.32315E-01 70452   0.257E+00    0.119E+00
DAV:   7    -0.304164837645E+03    0.15052E-02   -0.19824E-01 70740   0.198E+00    0.111E+00
DAV:   8    -0.304154103832E+03    0.10734E-01   -0.10699E-01 72072   0.159E+00    0.575E-01
DAV:   9    -0.304151786955E+03    0.23169E-02   -0.30124E-02 74976   0.736E-01    0.371E-01
DAV:  10    -0.304151379636E+03    0.40732E-03   -0.95226E-03 65196   0.413E-01    0.296E-01
DAV:  11    -0.304151459274E+03   -0.79638E-04   -0.45446E-03 60876   0.323E-01    0.239E-01
DAV:  12    -0.304151747200E+03   -0.28793E-03   -0.45908E-03 63264   0.312E-01    0.202E-01
DAV:  13    -0.304151786456E+03   -0.39256E-04   -0.39022E-03 67920   0.282E-01    0.138E-01
DAV:  14    -0.304151790065E+03   -0.36093E-05   -0.33006E-03 60012   0.280E-01    0.142E-01
DAV:  15    -0.304151601253E+03    0.18881E-03   -0.17193E-03 57780   0.206E-01    0.536E-02
DAV:  16    -0.304151560187E+03    0.41066E-04   -0.26593E-04 34296   0.936E-02
   4 F= -.30415156E+03 E0= -.30415039E+03  d E =-.433977E+00
 trial-energy change:   -0.433977  1 .order   -0.434546   -0.591095   -0.277998
 step:   0.7812(harm=  0.7812)  dis= 0.08373  next Energy=  -304.275546 (dE=-0.558E+00)
 bond charge predicted
       N       E                     dE             d eps       ncg     rms          rms(c)
DAV:   1    -0.304011854400E+03    0.13975E+00   -0.53487E+01 41280   0.268E+01    0.369E+00
DAV:   2    -0.304808999395E+03   -0.79714E+00   -0.81570E+00 70248   0.147E+01    0.616E+00
DAV:   3    -0.304377199023E+03    0.43180E+00   -0.41995E+00 72096   0.934E+00    0.283E+00
DAV:   4    -0.304354546497E+03    0.22653E-01   -0.10037E+00 69108   0.485E+00    0.244E+00
DAV:   5    -0.304304033483E+03    0.50513E-01   -0.57000E-01 64992   0.362E+00    0.134E+00
DAV:   6    -0.304294023952E+03    0.10010E-01   -0.24661E-01 71292   0.218E+00    0.110E+00
DAV:   7    -0.304294084740E+03   -0.60788E-04   -0.15652E-01 72504   0.184E+00    0.104E+00
DAV:   8    -0.304283922533E+03    0.10162E-01   -0.89740E-02 73068   0.151E+00    0.482E-01
DAV:   9    -0.304282124873E+03    0.17977E-02   -0.24364E-02 78372   0.633E-01    0.319E-01
DAV:  10    -0.304281811950E+03    0.31292E-03   -0.75821E-03 64692   0.343E-01    0.249E-01
DAV:  11    -0.304281931121E+03   -0.11917E-03   -0.34436E-03 60072   0.279E-01    0.209E-01
DAV:  12    -0.304282155744E+03   -0.22462E-03   -0.36467E-03 61920   0.287E-01    0.179E-01
DAV:  13    -0.304282143344E+03    0.12400E-04   -0.28408E-03 68376   0.235E-01    0.102E-01
DAV:  14    -0.304282096001E+03    0.47343E-04   -0.16758E-03 61200   0.188E-01    0.859E-02
DAV:  15    -0.304282035562E+03    0.60438E-04   -0.88665E-04 50292   0.157E-01
   5 F= -.30428204E+03 E0= -.30428185E+03  d E =-.564453E+00
 curvature:  -0.84 expect dE=-0.154E+00 dE for cont linesearch -0.421E-03
 trial: gam=-0.00301 g(F)=  0.161E+00 g(S)=  0.212E-01 ort = 0.392E-01 (trialstep = 0.487E+00)
 search vector abs. value=  0.182E+00
 bond charge predicted
       N       E                     dE             d eps       ncg     rms          rms(c)
DAV:   1    -0.304338574212E+03   -0.56478E-01   -0.51133E+00 41280   0.790E+00    0.126E+00
DAV:   2    -0.304383453499E+03   -0.44879E-01   -0.61049E-01 70812   0.387E+00    0.148E+00
DAV:   3    -0.304370133749E+03    0.13320E-01   -0.33579E-01 71292   0.272E+00    0.114E+00
DAV:   4    -0.304362995549E+03    0.71382E-02   -0.13795E-01 69864   0.179E+00    0.754E-01
DAV:   5    -0.304356984656E+03    0.60109E-02   -0.60013E-02 69528   0.105E+00    0.510E-01
DAV:   6    -0.304356252115E+03    0.73254E-03   -0.45008E-02 69420   0.909E-01    0.479E-01
DAV:   7    -0.304354907014E+03    0.13451E-02   -0.24482E-02 70932   0.681E-01    0.298E-01
DAV:   8    -0.304354117640E+03    0.78937E-03   -0.98421E-03 67176   0.385E-01    0.165E-01
DAV:   9    -0.304353942748E+03    0.17489E-03   -0.25022E-03 60708   0.234E-01    0.131E-01
DAV:  10    -0.304353875883E+03    0.66865E-04   -0.12357E-03 53808   0.165E-01    0.948E-02
DAV:  11    -0.304353900836E+03   -0.24952E-04   -0.40391E-04 38988   0.101E-01
   6 F= -.30435390E+03 E0= -.30435371E+03  d E =-.718653E-01
 trial-energy change:   -0.071865  1 .order   -0.072557   -0.088926   -0.056188
 step:   1.3236(harm=  1.3236)  dis= 0.02693  next Energy=  -304.402812 (dE=-0.121E+00)
 bond charge predicted
       N       E                     dE             d eps       ncg     rms          rms(c)
DAV:   1    -0.304356406702E+03   -0.25308E-02   -0.15070E+01 41280   0.136E+01    0.213E+00
DAV:   2    -0.304484753016E+03   -0.12835E+00   -0.17516E+00 70884   0.662E+00    0.253E+00
DAV:   3    -0.304448513419E+03    0.36240E-01   -0.97496E-01 72864   0.469E+00    0.194E+00
DAV:   4    -0.304427563926E+03    0.20949E-01   -0.40831E-01 69948   0.303E+00    0.129E+00
DAV:   5    -0.304409507030E+03    0.18057E-01   -0.17351E-01 71184   0.176E+00    0.851E-01
DAV:   6    -0.304408130815E+03    0.13762E-02   -0.13064E-01 69480   0.154E+00    0.828E-01
DAV:   7    -0.304403929588E+03    0.42012E-02   -0.73061E-02 72648   0.116E+00    0.516E-01
DAV:   8    -0.304401644291E+03    0.22853E-02   -0.29639E-02 73176   0.679E-01    0.287E-01
DAV:   9    -0.304401104193E+03    0.54010E-03   -0.73357E-03 61428   0.395E-01    0.218E-01
DAV:  10    -0.304400943220E+03    0.16097E-03   -0.36943E-03 60288   0.271E-01    0.162E-01
DAV:  11    -0.304401072515E+03   -0.12929E-03   -0.16375E-03 59916   0.174E-01    0.131E-01
DAV:  12    -0.304401136030E+03   -0.63515E-04   -0.21385E-03 60456   0.214E-01    0.109E-01
DAV:  13    -0.304401056697E+03    0.79333E-04   -0.14475E-03 57852   0.188E-01    0.629E-02
DAV:  14    -0.304401039198E+03    0.17499E-04   -0.68843E-04 46776   0.134E-01
   7 F= -.30440104E+03 E0= -.30440061E+03  d E =-.119004E+00
 curvature:  -0.66 expect dE=-0.102E+00 dE for cont linesearch -0.131E-05
 trial: gam= 0.83982 g(F)=  0.377E-01 g(S)=  0.116E+00 ort = 0.601E-03 (trialstep = 0.421E+00)
 search vector abs. value=  0.284E+00
 bond charge predicted
       N       E                     dE             d eps       ncg     rms          rms(c)
DAV:   1    -0.304466170816E+03   -0.65114E-01   -0.56567E+00 42708   0.963E+00    0.213E+00
DAV:   2    -0.304492202360E+03   -0.26032E-01   -0.84727E-01 72348   0.454E+00    0.169E+00
DAV:   3    -0.304501679161E+03   -0.94768E-02   -0.65154E-01 72396   0.385E+00    0.196E+00
DAV:   4    -0.304465108964E+03    0.36570E-01   -0.33133E-01 70164   0.290E+00    0.108E+00
DAV:   5    -0.304453694040E+03    0.11415E-01   -0.17388E-01 71832   0.175E+00    0.827E-01
DAV:   6    -0.304451386989E+03    0.23071E-02   -0.99544E-02 69456   0.143E+00    0.703E-01
DAV:   7    -0.304447415235E+03    0.39718E-02   -0.42793E-02 72216   0.912E-01    0.325E-01
DAV:   8    -0.304447144303E+03    0.27093E-03   -0.14847E-02 69732   0.493E-01    0.263E-01
DAV:   9    -0.304446653698E+03    0.49061E-03   -0.51402E-03 63372   0.307E-01    0.170E-01
DAV:  10    -0.304446694375E+03   -0.40677E-04   -0.15547E-03 59448   0.186E-01    0.147E-01
DAV:  11    -0.304446801396E+03   -0.10702E-03   -0.97910E-04 52704   0.146E-01    0.992E-02
DAV:  12    -0.304446985386E+03   -0.18399E-03   -0.16132E-03 64452   0.169E-01    0.945E-02
DAV:  13    -0.304446959124E+03    0.26262E-04   -0.14779E-03 58020   0.180E-01    0.703E-02
DAV:  14    -0.304446914173E+03    0.44951E-04   -0.44734E-04 40404   0.118E-01
   8 F= -.30444691E+03 E0= -.30444630E+03  d E =-.458750E-01
 trial-energy change:   -0.045875  1 .order   -0.045655   -0.065047   -0.026263
 step:   0.7057(harm=  0.7057)  dis= 0.01808  next Energy=  -304.455586 (dE=-0.545E-01)
 bond charge predicted
       N       E                     dE             d eps       ncg     rms          rms(c)
DAV:   1    -0.304462679371E+03   -0.15720E-01   -0.25920E+00 42672   0.653E+00    0.144E+00
DAV:   2    -0.304474099304E+03   -0.11420E-01   -0.37839E-01 72072   0.305E+00    0.112E+00
DAV:   3    -0.304479100079E+03   -0.50008E-02   -0.29070E-01 71964   0.258E+00    0.131E+00
DAV:   4    -0.304462673309E+03    0.16427E-01   -0.14922E-01 69864   0.196E+00    0.721E-01
DAV:   5    -0.304457645845E+03    0.50275E-02   -0.78177E-02 71400   0.120E+00    0.557E-01
DAV:   6    -0.304456504872E+03    0.11410E-02   -0.44087E-02 69372   0.950E-01    0.459E-01
DAV:   7    -0.304454860356E+03    0.16445E-02   -0.18388E-02 66156   0.602E-01    0.220E-01
DAV:   8    -0.304454729781E+03    0.13057E-03   -0.61551E-03 63804   0.323E-01    0.174E-01
DAV:   9    -0.304454540926E+03    0.18885E-03   -0.20974E-03 62832   0.200E-01    0.116E-01
DAV:  10    -0.304454570038E+03   -0.29111E-04   -0.65269E-04 45744   0.134E-01
   9 F= -.30445457E+03 E0= -.30445381E+03  d E =-.535308E-01
 curvature:  -0.65 expect dE=-0.377E-01 dE for cont linesearch -0.679E-05
 trial: gam= 0.37119 g(F)=  0.468E-01 g(S)=  0.114E-01 ort =-0.172E-02 (trialstep = 0.478E+00)
 search vector abs. value=  0.961E-01
 bond charge predicted
       N       E                     dE             d eps       ncg     rms          rms(c)
DAV:   1    -0.304468570392E+03   -0.14029E-01   -0.21852E+00 41856   0.496E+00    0.500E-01
DAV:   2    -0.304491823412E+03   -0.23253E-01   -0.23122E-01 68784   0.260E+00    0.103E+00
DAV:   3    -0.304480989174E+03    0.10834E-01   -0.96479E-02 68964   0.163E+00    0.388E-01
DAV:   4    -0.304480088296E+03    0.90088E-03   -0.15939E-02 66336   0.622E-01    0.289E-01
DAV:   5    -0.304479521502E+03    0.56679E-03   -0.92555E-03 65076   0.457E-01    0.214E-01
DAV:   6    -0.304479229711E+03    0.29179E-03   -0.44248E-03 62844   0.334E-01    0.168E-01
DAV:   7    -0.304479435660E+03   -0.20595E-03   -0.46608E-03 61704   0.319E-01    0.203E-01
DAV:   8    -0.304478997419E+03    0.43824E-03   -0.31690E-03 59820   0.268E-01    0.869E-02
DAV:   9    -0.304478911075E+03    0.86344E-04   -0.78500E-04 49344   0.131E-01
  10 F= -.30447891E+03 E0= -.30447814E+03  d E =-.243410E-01
 ZBRENT: can't locate minimum, use default step
 trial-energy change:   -0.024341  1 .order   -0.024399   -0.027532   -0.021265
 step:   1.9111(harm=  2.0990)  dis= 0.04002  next Energy=  -304.515048 (dE=-0.605E-01)
 bond charge predicted
       N       E                     dE             d eps       ncg     rms          rms(c)
DAV:   1    -0.304418363048E+03    0.60634E-01   -0.19667E+01 41868   0.149E+01    0.153E+00
DAV:   2    -0.304625838473E+03   -0.20748E+00   -0.20751E+00 69384   0.780E+00    0.296E+00
DAV:   3    -0.304534196187E+03    0.91642E-01   -0.85311E-01 69588   0.476E+00    0.119E+00
DAV:   4    -0.304525167764E+03    0.90284E-02   -0.14972E-01 68520   0.192E+00    0.869E-01
DAV:   5    -0.304519768065E+03    0.53997E-02   -0.82223E-02 65760   0.138E+00    0.618E-01
DAV:   6    -0.304517227942E+03    0.25401E-02   -0.36829E-02 69384   0.944E-01    0.491E-01
DAV:   7    -0.304518949864E+03   -0.17219E-02   -0.40919E-02 72792   0.918E-01    0.595E-01
DAV:   8    -0.304515223627E+03    0.37262E-02   -0.27308E-02 71736   0.762E-01    0.259E-01
DAV:   9    -0.304514449544E+03    0.77408E-03   -0.72139E-03 67548   0.354E-01    0.127E-01
DAV:  10    -0.304514364835E+03    0.84709E-04   -0.23527E-03 65160   0.193E-01    0.928E-02
DAV:  11    -0.304514399876E+03   -0.35041E-04   -0.16209E-03 58584   0.187E-01    0.984E-02
DAV:  12    -0.304514290578E+03    0.10930E-03   -0.64594E-04 45984   0.128E-01    0.358E-02
DAV:  13    -0.304514275333E+03    0.15245E-04   -0.13137E-04 26856   0.693E-02
  11 F= -.30451428E+03 E0= -.30451337E+03  d E =-.597053E-01
 curvature:  -1.73 expect dE=-0.345E-01 dE for cont linesearch -0.325E-03
 trial: gam= 0.13379 g(F)=  0.155E-01 g(S)=  0.452E-02 ort = 0.425E-02 (trialstep = 0.764E+00)
 search vector abs. value=  0.228E-01
 bond charge predicted
       N       E                     dE             d eps       ncg     rms          rms(c)
DAV:   1    -0.304523882216E+03   -0.95916E-02   -0.17120E+00 45420   0.540E+00    0.107E+00
DAV:   2    -0.304540275838E+03   -0.16394E-01   -0.30550E-01 70968   0.271E+00    0.106E+00
DAV:   3    -0.304539793961E+03    0.48188E-03   -0.22536E-01 70920   0.228E+00    0.109E+00
DAV:   4    -0.304530204674E+03    0.95893E-02   -0.94306E-02 68400   0.154E+00    0.575E-01
DAV:   5    -0.304527034716E+03    0.31700E-02   -0.47264E-02 69960   0.904E-01    0.422E-01
DAV:   6    -0.304525571331E+03    0.14634E-02   -0.22087E-02 70068   0.711E-01    0.263E-01
DAV:   7    -0.304525114203E+03    0.45713E-03   -0.72763E-03 69204   0.385E-01    0.174E-01
DAV:   8    -0.304525049655E+03    0.64548E-04   -0.40540E-03 59136   0.294E-01    0.152E-01
DAV:   9    -0.304524892344E+03    0.15731E-03   -0.13858E-03 57564   0.183E-01    0.855E-02
DAV:  10    -0.304524883675E+03    0.86692E-05   -0.24034E-04 32880   0.774E-02
  12 F= -.30452488E+03 E0= -.30452410E+03  d E =-.106083E-01
 trial-energy change:   -0.010608  1 .order   -0.010959   -0.015710   -0.006208
 step:   1.2639(harm=  1.2639)  dis= 0.01303  next Energy=  -304.527262 (dE=-0.130E-01)
 bond charge predicted
       N       E                     dE             d eps       ncg     rms          rms(c)
DAV:   1    -0.304526068142E+03   -0.11758E-02   -0.72984E-01 44952   0.352E+00    0.691E-01
DAV:   2    -0.304532889257E+03   -0.68211E-02   -0.12993E-01 70500   0.178E+00    0.695E-01
DAV:   3    -0.304532533778E+03    0.35548E-03   -0.97695E-02 69960   0.149E+00    0.704E-01
DAV:   4    -0.304528609542E+03    0.39242E-02   -0.40094E-02 64728   0.998E-01    0.378E-01
DAV:   5    -0.304527270102E+03    0.13394E-02   -0.20257E-02 69552   0.592E-01    0.276E-01
DAV:   6    -0.304526679497E+03    0.59061E-03   -0.93318E-03 66576   0.459E-01    0.175E-01
DAV:   7    -0.304526493924E+03    0.18557E-03   -0.30736E-03 64296   0.245E-01    0.120E-01
DAV:   8    -0.304526457310E+03    0.36615E-04   -0.15730E-03 59112   0.186E-01    0.990E-02
DAV:   9    -0.304526404123E+03    0.53187E-04   -0.48947E-04 43608   0.120E-01
  13 F= -.30452640E+03 E0= -.30452570E+03  d E =-.121288E-01
 curvature:  -0.70 expect dE=-0.224E-01 dE for cont linesearch -0.468E-05
 trial: gam= 1.65489 g(F)=  0.709E-02 g(S)=  0.248E-01 ort =-0.390E-03 (trialstep = 0.212E+00)
 search vector abs. value=  0.931E-01
 bond charge predicted
       N       E                     dE             d eps       ncg     rms          rms(c)
DAV:   1    -0.304528925374E+03   -0.24681E-02   -0.50143E-01 41364   0.255E+00    0.294E-01
DAV:   2    -0.304535068475E+03   -0.61431E-02   -0.66163E-02 68292   0.142E+00    0.476E-01
DAV:   3    -0.304533421846E+03    0.16466E-02   -0.25653E-02 68904   0.855E-01    0.278E-01
DAV:   4    -0.304532908805E+03    0.51304E-03   -0.68169E-03 63096   0.394E-01    0.185E-01
DAV:   5    -0.304532648899E+03    0.25991E-03   -0.30999E-03 62124   0.258E-01    0.135E-01
DAV:   6    -0.304532564159E+03    0.84741E-04   -0.19161E-03 60372   0.193E-01    0.102E-01
DAV:   7    -0.304532559275E+03    0.48837E-05   -0.16875E-03 58836   0.196E-01    0.957E-02
DAV:   8    -0.304532490965E+03    0.68310E-04   -0.10365E-03 52812   0.165E-01    0.605E-02
DAV:   9    -0.304532430466E+03    0.60499E-04   -0.26331E-04 32496   0.104E-01
  14 F= -.30453243E+03 E0= -.30453180E+03  d E =-.602634E-02
 ZBRENT: can't locate minimum, use default step
 trial-energy change:   -0.006026  1 .order   -0.006014   -0.006621   -0.005406
 step:   0.8477(harm=  1.1551)  dis= 0.01944  next Energy=  -304.544448 (dE=-0.180E-01)
 bond charge predicted
       N       E                     dE             d eps       ncg     rms          rms(c)
DAV:   1    -0.304510701404E+03    0.21790E-01   -0.45067E+00 41484   0.763E+00    0.861E-01
DAV:   2    -0.304566256406E+03   -0.55555E-01   -0.58835E-01 68760   0.424E+00    0.139E+00
DAV:   3    -0.304550743516E+03    0.15513E-01   -0.22003E-01 69132   0.250E+00    0.791E-01
DAV:   4    -0.304546612976E+03    0.41305E-02   -0.58123E-02 71172   0.115E+00    0.521E-01
DAV:   5    -0.304544314060E+03    0.22989E-02   -0.27519E-02 68760   0.731E-01    0.362E-01
DAV:   6    -0.304543704123E+03    0.60994E-03   -0.15099E-02 68448   0.533E-01    0.274E-01
DAV:   7    -0.304543576636E+03    0.12749E-03   -0.12111E-02 74604   0.480E-01    0.238E-01
DAV:   8    -0.304543110043E+03    0.46659E-03   -0.61667E-03 68868   0.354E-01    0.149E-01
DAV:   9    -0.304542864358E+03    0.24569E-03   -0.22500E-03 62628   0.205E-01    0.804E-02
DAV:  10    -0.304542822378E+03    0.41980E-04   -0.47227E-04 41052   0.110E-01
  15 F= -.30454282E+03 E0= -.30454240E+03  d E =-.164183E-01
 curvature:  -1.54 expect dE=-0.169E-01 dE for cont linesearch -0.822E-03
 trial: gam=-0.02998 g(F)=  0.745E-02 g(S)=  0.353E-02 ort = 0.705E-02 (trialstep = 0.339E+00)
 search vector abs. value=  0.106E-01
 bond charge predicted
       N       E                     dE             d eps       ncg     rms          rms(c)
DAV:   1    -0.304546277395E+03   -0.34130E-02   -0.17120E-01 50736   0.173E+00    0.370E-01
DAV:   2    -0.304547450949E+03   -0.11736E-02   -0.29991E-02 71964   0.833E-01    0.338E-01
DAV:   3    -0.304547550851E+03   -0.99902E-04   -0.27696E-02 71640   0.739E-01    0.382E-01
DAV:   4    -0.304546305503E+03    0.12453E-02   -0.11119E-02 58644   0.525E-01    0.197E-01
DAV:   5    -0.304546016141E+03    0.28936E-03   -0.56679E-03 61284   0.331E-01    0.151E-01
DAV:   6    -0.304545811273E+03    0.20487E-03   -0.25641E-03 61056   0.255E-01    0.860E-02
DAV:   7    -0.304545760306E+03    0.50967E-04   -0.75210E-04 50412   0.143E-01
  16 F= -.30454576E+03 E0= -.30454529E+03  d E =-.293793E-02
 trial-energy change:   -0.002938  1 .order   -0.003078   -0.003654   -0.002503
 step:   1.0769(harm=  1.0769)  dis= 0.00665  next Energy=  -304.548624 (dE=-0.580E-02)
 bond charge predicted
       N       E                     dE             d eps       ncg     rms          rms(c)
DAV:   1    -0.304549938339E+03   -0.41271E-02   -0.79764E-01 49500   0.373E+00    0.811E-01
DAV:   2    -0.304553696632E+03   -0.37583E-02   -0.12812E-01 71616   0.170E+00    0.639E-01
DAV:   3    -0.304556084912E+03   -0.23883E-02   -0.11659E-01 71124   0.146E+00    0.839E-01
DAV:   4    -0.304550231334E+03    0.58536E-02   -0.60545E-02 64668   0.120E+00    0.437E-01
DAV:   5    -0.304548336515E+03    0.18948E-02   -0.24805E-02 69420   0.660E-01    0.278E-01
DAV:   6    -0.304547963581E+03    0.37293E-03   -0.11812E-02 69480   0.513E-01    0.223E-01
DAV:   7    -0.304547578913E+03    0.38467E-03   -0.39507E-03 64284   0.303E-01    0.124E-01
DAV:   8    -0.304547568126E+03    0.10787E-04   -0.18841E-03 61296   0.194E-01    0.109E-01
DAV:   9    -0.304547506470E+03    0.61656E-04   -0.64869E-04 47220   0.136E-01
  17 F= -.30454751E+03 E0= -.30454692E+03  d E =-.468409E-02
 curvature:  -0.53 expect dE=-0.656E-02 dE for cont linesearch -0.632E-04
 trial: gam= 1.20627 g(F)=  0.369E-02 g(S)=  0.864E-02 ort =-0.112E-02 (trialstep = 0.206E+00)
 search vector abs. value=  0.251E-01
 bond charge predicted
       N       E                     dE             d eps       ncg     rms          rms(c)
DAV:   1    -0.304548887022E+03   -0.13189E-02   -0.13051E-01 41412   0.127E+00    0.165E-01
DAV:   2    -0.304550065905E+03   -0.11789E-02   -0.15049E-02 68856   0.605E-01    0.181E-01
DAV:   3    -0.304549960289E+03    0.10562E-03   -0.52162E-03 68388   0.358E-01    0.159E-01
DAV:   4    -0.304549808954E+03    0.15134E-03   -0.22404E-03 57348   0.225E-01    0.105E-01
DAV:   5    -0.304549722637E+03    0.86317E-04   -0.84186E-04 49080   0.138E-01
  18 F= -.30454972E+03 E0= -.30454908E+03  d E =-.221617E-02
 ZBRENT: can't locate minimum, use default step
 trial-energy change:   -0.002216  1 .order   -0.002157   -0.002264   -0.002051
 step:   0.8256(harm=  2.1919)  dis= 0.00712  next Energy=  -304.559527 (dE=-0.120E-01)
 bond charge predicted
       N       E                     dE             d eps       ncg     rms          rms(c)
DAV:   1    -0.304546621086E+03    0.31879E-02   -0.11688E+00 41280   0.377E+00    0.435E-01
DAV:   2    -0.304557111963E+03   -0.10491E-01   -0.12693E-01 68472   0.181E+00    0.533E-01
DAV:   3    -0.304555277241E+03    0.18347E-02   -0.39106E-02 70644   0.979E-01    0.356E-01
DAV:   4    -0.304554408040E+03    0.86920E-03   -0.13839E-02 65004   0.545E-01    0.256E-01
DAV:   5    -0.304553915833E+03    0.49221E-03   -0.73278E-03 64740   0.415E-01    0.195E-01
DAV:   6    -0.304553876867E+03    0.38966E-04   -0.50466E-03 62304   0.341E-01    0.161E-01
DAV:   7    -0.304553682412E+03    0.19445E-03   -0.31638E-03 69264   0.266E-01    0.119E-01
DAV:   8    -0.304553547015E+03    0.13540E-03   -0.15527E-03 58668   0.180E-01    0.674E-02
DAV:   9    -0.304553492284E+03    0.54730E-04   -0.25033E-04 32568   0.984E-02
  19 F= -.30455349E+03 E0= -.30455275E+03  d E =-.598581E-02
 curvature:  -1.32 expect dE=-0.847E-02 dE for cont linesearch -0.445E-03
 trial: gam= 0.04195 g(F)=  0.508E-02 g(S)=  0.133E-02 ort = 0.291E-02 (trialstep = 0.330E+00)
 search vector abs. value=  0.670E-02
 bond charge predicted
       N       E                     dE             d eps       ncg     rms          rms(c)
DAV:   1    -0.304555164386E+03   -0.16174E-02   -0.10849E-01 44952   0.134E+00    0.251E-01
DAV:   2    -0.304556151213E+03   -0.98683E-03   -0.17341E-02 69804   0.646E-01    0.235E-01
DAV:   3    -0.304556215068E+03   -0.63855E-04   -0.11470E-02 70464   0.519E-01    0.253E-01
DAV:   4    -0.304555674732E+03    0.54034E-03   -0.51059E-03 59916   0.361E-01    0.131E-01
DAV:   5    -0.304555492181E+03    0.18255E-03   -0.23420E-03 59748   0.207E-01    0.914E-02
DAV:   6    -0.304555440606E+03    0.51574E-04   -0.11104E-03 52512   0.170E-01    0.698E-02
DAV:   7    -0.304555393552E+03    0.47054E-04   -0.23635E-04 30768   0.108E-01
  20 F= -.30455539E+03 E0= -.30455468E+03  d E =-.190127E-02
 ZBRENT: can't locate minimum, use default step
 trial-energy change:   -0.001901  1 .order   -0.001961   -0.002157   -0.001765
 step:   1.3209(harm=  1.8182)  dis= 0.00526  next Energy=  -304.559431 (dE=-0.594E-02)
 bond charge predicted
       N       E                     dE             d eps       ncg     rms          rms(c)
DAV:   1    -0.304555552804E+03   -0.11220E-03   -0.96329E-01 43440   0.397E+00    0.760E-01
DAV:   2    -0.304564080815E+03   -0.85280E-02   -0.15605E-01 69972   0.191E+00    0.701E-01
DAV:   3    -0.304565104493E+03   -0.10237E-02   -0.10573E-01 70464   0.153E+00    0.788E-01
DAV:   4    -0.304559887417E+03    0.52171E-02   -0.49858E-02 66780   0.109E+00    0.395E-01
DAV:   5    -0.304558153676E+03    0.17337E-02   -0.21448E-02 69948   0.603E-01    0.266E-01
DAV:   6    -0.304557898295E+03    0.25538E-03   -0.11127E-02 65352   0.509E-01    0.231E-01
DAV:   7    -0.304557481931E+03    0.41636E-03   -0.41344E-03 60732   0.309E-01    0.116E-01
DAV:   8    -0.304557460798E+03    0.21133E-04   -0.18696E-03 60744   0.189E-01    0.103E-01
DAV:   9    -0.304557388289E+03    0.72509E-04   -0.66690E-04 47916   0.135E-01
  21 F= -.30455739E+03 E0= -.30455676E+03  d E =-.389600E-02
 curvature:  -0.83 expect dE=-0.742E-02 dE for cont linesearch -0.345E-05
 trial: gam= 1.44414 g(F)=  0.256E-02 g(S)=  0.640E-02 ort =-0.167E-03 (trialstep = 0.158E+00)
 search vector abs. value=  0.224E-01
 bond charge predicted
       N       E                     dE             d eps       ncg     rms          rms(c)
DAV:   1    -0.304558177738E+03   -0.71694E-03   -0.76627E-02 41472   0.101E+00    0.130E-01
DAV:   2    -0.304559054649E+03   -0.87691E-03   -0.10097E-02 68712   0.520E-01    0.166E-01
DAV:   3    -0.304558945799E+03    0.10885E-03   -0.35953E-03 64932   0.315E-01    0.130E-01
DAV:   4    -0.304558822153E+03    0.12365E-03   -0.12094E-03 52728   0.177E-01    0.789E-02
DAV:   5    -0.304558788647E+03    0.33506E-04   -0.49379E-04 40020   0.122E-01
  22 F= -.30455879E+03 E0= -.30455818E+03  d E =-.140036E-02
 ZBRENT: can't locate minimum, use default step
 trial-energy change:   -0.001400  1 .order   -0.001366   -0.001374   -0.001358
 step:   0.6307(harm= 13.3820)  dis= 0.00558  next Energy=  -304.615705 (dE=-0.583E-01)
 bond charge predicted
       N       E                     dE             d eps       ncg     rms          rms(c)
DAV:   1    -0.304556854154E+03    0.19680E-02   -0.68428E-01 41280   0.298E+00    0.338E-01
DAV:   2    -0.304564665800E+03   -0.78116E-02   -0.86432E-02 68136   0.156E+00    0.495E-01
DAV:   3    -0.304563040446E+03    0.16254E-02   -0.29980E-02 68556   0.910E-01    0.310E-01
DAV:   4    -0.304562316156E+03    0.72429E-03   -0.82272E-03 61572   0.451E-01    0.198E-01
DAV:   5    -0.304562063062E+03    0.25309E-03   -0.41326E-03 61500   0.296E-01    0.152E-01
DAV:   6    -0.304561958380E+03    0.10468E-03   -0.23981E-03 62028   0.232E-01    0.115E-01
DAV:   7    -0.304561945166E+03    0.13214E-04   -0.22921E-03 61260   0.218E-01    0.105E-01
DAV:   8    -0.304561854335E+03    0.90831E-04   -0.11030E-03 54168   0.164E-01    0.591E-02
DAV:   9    -0.304561800309E+03    0.54026E-04   -0.21251E-04 30336   0.985E-02
  23 F= -.30456180E+03 E0= -.30456125E+03  d E =-.441202E-02
 curvature:  -1.21 expect dE=-0.663E-02 dE for cont linesearch -0.143E-02
 ZBRENT: increasing intervall
 opt :   1.5769  next Energy=  -304.563397 (dE=-0.601E-02)
 bond charge predicted
       N       E                     dE             d eps       ncg     rms          rms(c)
DAV:   1    -0.304542942729E+03    0.18912E-01   -0.27448E+00 41280   0.599E+00    0.673E-01
DAV:   2    -0.304574694732E+03   -0.31752E-01   -0.34845E-01 68388   0.313E+00    0.958E-01
DAV:   3    -0.304568671699E+03    0.60230E-02   -0.11585E-01 69468   0.180E+00    0.630E-01
DAV:   4    -0.304565689121E+03    0.29826E-02   -0.34901E-02 69144   0.906E-01    0.383E-01
DAV:   5    -0.304564562176E+03    0.11269E-02   -0.15760E-02 67320   0.562E-01    0.286E-01
DAV:   6    -0.304564219359E+03    0.34282E-03   -0.93704E-03 65664   0.426E-01    0.213E-01
DAV:   7    -0.304564150867E+03    0.68492E-04   -0.80465E-03 71064   0.384E-01    0.198E-01
DAV:   8    -0.304563867947E+03    0.28292E-03   -0.40940E-03 60408   0.289E-01    0.116E-01
DAV:   9    -0.304563714077E+03    0.15387E-03   -0.11807E-03 55560   0.160E-01    0.547E-02
DAV:  10    -0.304563697614E+03    0.16463E-04   -0.15373E-04 26856   0.825E-02
  24 F= -.30456370E+03 E0= -.30456326E+03  d E =-.630932E-02
 curvature:  -1.35 expect dE=-0.138E-01 dE for cont linesearch -0.803E-04
 trial: gam= 1.11556 g(F)=  0.950E-02 g(S)=  0.740E-03 ort =-0.115E-02 (trialstep = 0.278E+00)
 search vector abs. value=  0.356E-01
 bond charge predicted
       N       E                     dE             d eps       ncg     rms          rms(c)
DAV:   1    -0.304563645747E+03    0.68330E-04   -0.33699E-01 41280   0.199E+00    0.171E-01
DAV:   2    -0.304566630952E+03   -0.29852E-02   -0.32460E-02 66336   0.897E-01    0.213E-01
DAV:   3    -0.304566554964E+03    0.75988E-04   -0.72824E-03 67092   0.500E-01    0.183E-01
DAV:   4    -0.304566254515E+03    0.30045E-03   -0.18575E-03 58404   0.246E-01    0.824E-02
DAV:   5    -0.304566221916E+03    0.32600E-04   -0.61061E-04 44964   0.118E-01
  25 F= -.30456622E+03 E0= -.30456581E+03  d E =-.252430E-02
 ZBRENT: can't locate minimum, use default step
 trial-energy change:   -0.002524  1 .order   -0.002533   -0.002493   -0.002574
 step:   1.1134(harm=  1.1134)  dis= 0.01442  next Energy=  -304.574315 (dE=-0.106E-01)
 bond charge predicted
       N       E                     dE             d eps       ncg     rms          rms(c)
DAV:   1    -0.304549954002E+03    0.16301E-01   -0.30126E+00 41280   0.594E+00    0.513E-01
DAV:   2    -0.304576438437E+03   -0.26484E-01   -0.28841E-01 66372   0.275E+00    0.631E-01
DAV:   3    -0.304575869545E+03    0.56889E-03   -0.62590E-02 66792   0.145E+00    0.530E-01
DAV:   4    -0.304573121774E+03    0.27478E-02   -0.16132E-02 66396   0.728E-01    0.231E-01
DAV:   5    -0.304573109340E+03    0.12435E-04   -0.57573E-03 68256   0.360E-01    0.235E-01
DAV:   6    -0.304572825948E+03    0.28339E-03   -0.42915E-03 64608   0.321E-01    0.177E-01
DAV:   7    -0.304572825563E+03    0.38492E-06   -0.45660E-03 66468   0.314E-01    0.175E-01
DAV:   8    -0.304572506050E+03    0.31951E-03   -0.24068E-03 65292   0.237E-01    0.774E-02
DAV:   9    -0.304572449509E+03    0.56540E-04   -0.70193E-04 49728   0.120E-01
  26 F= -.30457245E+03 E0= -.30457203E+03  d E =-.875190E-02
 curvature:  -3.37 expect dE=-0.280E-01 dE for cont linesearch -0.390E-02
 ZBRENT: increasing intervall
 opt :   2.7836  next Energy=  -304.578464 (dE=-0.148E-01)
 bond charge predicted
       N       E                     dE             d eps       ncg     rms          rms(c)
DAV:   1    -0.304489237393E+03    0.83269E-01   -0.12098E+01 41280   0.119E+01    0.107E+00
DAV:   2    -0.304597670257E+03   -0.10843E+00   -0.11728E+00 66576   0.560E+00    0.127E+00
DAV:   3    -0.304594304031E+03    0.33662E-02   -0.26504E-01 67392   0.293E+00    0.108E+00
DAV:   4    -0.304583703787E+03    0.10600E-01   -0.78663E-02 70092   0.156E+00    0.524E-01
DAV:   5    -0.304582309189E+03    0.13946E-02   -0.26540E-02 67716   0.749E-01    0.437E-01
DAV:   6    -0.304581512624E+03    0.79657E-03   -0.13689E-02 68268   0.578E-01    0.337E-01
DAV:   7    -0.304581399747E+03    0.11288E-03   -0.14865E-02 70464   0.550E-01    0.318E-01
DAV:   8    -0.304580541180E+03    0.85857E-03   -0.92519E-03 72204   0.473E-01    0.195E-01
DAV:   9    -0.304580143728E+03    0.39745E-03   -0.39408E-03 71124   0.278E-01    0.808E-02
DAV:  10    -0.304580137863E+03    0.58647E-05   -0.88741E-04 52980   0.131E-01
  27 F= -.30458014E+03 E0= -.30457980E+03  d E =-.164402E-01
 curvature:  -5.19 expect dE=-0.568E-01 dE for cont linesearch -0.760E-03
 trial: gam= 0.51856 g(F)=  0.554E-02 g(S)=  0.540E-02 ort = 0.228E-02 (trialstep = 0.779E+00)
 search vector abs. value=  0.229E-01
 bond charge predicted
       N       E                     dE             d eps       ncg     rms          rms(c)
DAV:   1    -0.304585854851E+03   -0.57111E-02   -0.16743E+00 42276   0.524E+00    0.110E+00
DAV:   2    -0.304595995879E+03   -0.10141E-01   -0.25021E-01 70752   0.247E+00    0.837E-01
DAV:   3    -0.304596667612E+03   -0.67173E-03   -0.16944E-01 72828   0.185E+00    0.915E-01
DAV:   4    -0.304592246984E+03    0.44206E-02   -0.10944E-01 68664   0.159E+00    0.735E-01
DAV:   5    -0.304586088065E+03    0.61589E-02   -0.45027E-02 71472   0.936E-01    0.315E-01
DAV:   6    -0.304585812769E+03    0.27530E-03   -0.19875E-02 71988   0.595E-01    0.299E-01
DAV:   7    -0.304585186024E+03    0.62674E-03   -0.10478E-02 64740   0.467E-01    0.191E-01
DAV:   8    -0.304584975913E+03    0.21011E-03   -0.38477E-03 61980   0.281E-01    0.126E-01
DAV:   9    -0.304584883990E+03    0.91923E-04   -0.10814E-03 55620   0.158E-01    0.874E-02
DAV:  10    -0.304584886921E+03   -0.29314E-05   -0.51098E-04 41244   0.127E-01
  28 F= -.30458489E+03 E0= -.30458452E+03  d E =-.474906E-02
 trial-energy change:   -0.004749  1 .order   -0.005067   -0.009452   -0.000681
 step:   0.8399(harm=  0.8399)  dis= 0.00718  next Energy=  -304.585231 (dE=-0.509E-02)
 bond charge predicted
       N       E                     dE             d eps       ncg     rms          rms(c)
DAV:   1    -0.304584934683E+03   -0.50693E-04   -0.10791E-02 52896   0.424E-01    0.970E-02
DAV:   2    -0.304585178568E+03   -0.24389E-03   -0.34153E-03 72012   0.289E-01    0.149E-01
DAV:   3    -0.304584943672E+03    0.23490E-03   -0.28511E-03 62016   0.240E-01    0.833E-02
DAV:   4    -0.304584892052E+03    0.51620E-04   -0.50978E-04 41604   0.127E-01
  29 F= -.30458489E+03 E0= -.30458455E+03  d E =-.475419E-02
 curvature:  -0.79 expect dE=-0.603E-02 dE for cont linesearch -0.343E-05
 trial: gam= 0.86605 g(F)=  0.206E-02 g(S)=  0.555E-02 ort =-0.315E-03 (trialstep = 0.748E+00)
 search vector abs. value=  0.242E-01
 bond charge predicted
       N       E                     dE             d eps       ncg     rms          rms(c)
DAV:   1    -0.304581536930E+03    0.34067E-02   -0.14730E+00 41280   0.408E+00    0.409E-01
DAV:   2    -0.304594139498E+03   -0.12603E-01   -0.14264E-01 68568   0.192E+00    0.668E-01
DAV:   3    -0.304590750528E+03    0.33890E-02   -0.49890E-02 68796   0.117E+00    0.357E-01
DAV:   4    -0.304589989471E+03    0.76106E-03   -0.10764E-02 65172   0.529E-01    0.271E-01
DAV:   5    -0.304589296455E+03    0.69302E-03   -0.64063E-03 65160   0.367E-01    0.156E-01
DAV:   6    -0.304589332378E+03   -0.35922E-04   -0.39314E-03 64944   0.286E-01    0.165E-01
DAV:   7    -0.304589141103E+03    0.19127E-03   -0.34747E-03 68868   0.257E-01    0.106E-01
DAV:   8    -0.304589055341E+03    0.85762E-04   -0.13520E-03 54960   0.196E-01    0.823E-02
DAV:   9    -0.304588967814E+03    0.87527E-04   -0.40031E-04 40032   0.116E-01
  30 F= -.30458897E+03 E0= -.30458853E+03  d E =-.407576E-02
 trial-energy change:   -0.004076  1 .order   -0.003957   -0.005483   -0.002431
 step:   1.3434(harm=  1.3434)  dis= 0.01233  next Energy=  -304.589817 (dE=-0.493E-02)
 bond charge predicted
       N       E                     dE             d eps       ncg     rms          rms(c)
DAV:   1    -0.304585186287E+03    0.38691E-02   -0.93525E-01 41280   0.325E+00    0.322E-01
DAV:   2    -0.304592374108E+03   -0.71878E-02   -0.85917E-02 68232   0.146E+00    0.449E-01
DAV:   3    -0.304591232038E+03    0.11421E-02   -0.28061E-02 69000   0.871E-01    0.305E-01
DAV:   4    -0.304590524660E+03    0.70738E-03   -0.70777E-03 62208   0.436E-01    0.198E-01
DAV:   5    -0.304590193930E+03    0.33073E-03   -0.36892E-03 61548   0.277E-01    0.125E-01
DAV:   6    -0.304590220222E+03   -0.26292E-04   -0.25556E-03 63492   0.244E-01    0.136E-01
DAV:   7    -0.304590096308E+03    0.12391E-03   -0.21422E-03 65712   0.215E-01    0.830E-02
DAV:   8    -0.304590041510E+03    0.54798E-04   -0.76200E-04 48480   0.158E-01
  31 F= -.30459004E+03 E0= -.30458957E+03  d E =-.514946E-02
 curvature:  -2.22 expect dE=-0.872E-02 dE for cont linesearch -0.153E-05
 trial: gam= 0.29897 g(F)=  0.315E-02 g(S)=  0.777E-03 ort =-0.129E-03 (trialstep = 0.867E+00)
 search vector abs. value=  0.602E-02
 bond charge predicted
       N       E                     dE             d eps       ncg     rms          rms(c)
DAV:   1    -0.304591026801E+03   -0.93049E-03   -0.55797E-01 41412   0.291E+00    0.538E-01
DAV:   2    -0.304594963124E+03   -0.39363E-02   -0.74950E-02 68916   0.132E+00    0.420E-01
DAV:   3    -0.304596173280E+03   -0.12102E-02   -0.46881E-02 69468   0.105E+00    0.547E-01
DAV:   4    -0.304593466405E+03    0.27069E-02   -0.23713E-02 60708   0.791E-01    0.257E-01
DAV:   5    -0.304592757988E+03    0.70842E-03   -0.86894E-03 68244   0.402E-01    0.173E-01
DAV:   6    -0.304592700866E+03    0.57122E-04   -0.51155E-03 59664   0.342E-01    0.172E-01
DAV:   7    -0.304592472287E+03    0.22858E-03   -0.27320E-03 59964   0.247E-01    0.841E-02
DAV:   8    -0.304592446628E+03    0.25659E-04   -0.82641E-04 52008   0.128E-01
  32 F= -.30459245E+03 E0= -.30459201E+03  d E =-.240512E-02
 trial-energy change:   -0.002405  1 .order   -0.002309   -0.003372   -0.001247
 step:   1.3756(harm=  1.3756)  dis= 0.00545  next Energy=  -304.592717 (dE=-0.268E-02)
 bond charge predicted
       N       E                     dE             d eps       ncg     rms          rms(c)
DAV:   1    -0.304592271158E+03    0.20113E-03   -0.19215E-01 41784   0.172E+00    0.309E-01
DAV:   2    -0.304593658035E+03   -0.13869E-02   -0.25513E-02 68172   0.778E-01    0.253E-01
DAV:   3    -0.304593991738E+03   -0.33370E-03   -0.16342E-02 69372   0.641E-01    0.316E-01
DAV:   4    -0.304593053991E+03    0.93775E-03   -0.69560E-03 60096   0.445E-01    0.133E-01
DAV:   5    -0.304592881524E+03    0.17247E-03   -0.26777E-03 62580   0.230E-01    0.110E-01
DAV:   6    -0.304592822090E+03    0.59434E-04   -0.16341E-03 55560   0.207E-01    0.906E-02
DAV:   7    -0.304592773283E+03    0.48807E-04   -0.68657E-04 46260   0.140E-01
  33 F= -.30459277E+03 E0= -.30459237E+03  d E =-.273177E-02
 curvature:  -1.06 expect dE=-0.633E-02 dE for cont linesearch -0.109E-04
 trial: gam= 1.47232 g(F)=  0.145E-02 g(S)=  0.450E-02 ort = 0.249E-03 (trialstep = 0.295E+00)
 search vector abs. value=  0.197E-01
 bond charge predicted
       N       E                     dE             d eps       ncg     rms          rms(c)
DAV:   1    -0.304593006323E+03   -0.18423E-03   -0.21581E-01 41364   0.167E+00    0.194E-01
DAV:   2    -0.304595261865E+03   -0.22555E-02   -0.26827E-02 68508   0.816E-01    0.256E-01
DAV:   3    -0.304594854438E+03    0.40743E-03   -0.81393E-03 69456   0.486E-01    0.175E-01
DAV:   4    -0.304594596066E+03    0.25837E-03   -0.21789E-03 60288   0.248E-01    0.102E-01
DAV:   5    -0.304594525279E+03    0.70787E-04   -0.11106E-03 53676   0.151E-01    0.879E-02
DAV:   6    -0.304594526831E+03   -0.15520E-05   -0.10312E-03 51480   0.163E-01    0.876E-02
DAV:   7    -0.304594459817E+03    0.67014E-04   -0.55036E-04 43452   0.130E-01
  34 F= -.30459446E+03 E0= -.30459410E+03  d E =-.168653E-02
 ZBRENT: can't locate minimum, use default step
 trial-energy change:   -0.001687  1 .order   -0.001733   -0.001867   -0.001600
 step:   1.1815(harm=  2.0636)  dis= 0.00973  next Energy=  -304.599295 (dE=-0.652E-02)
 bond charge predicted
       N       E                     dE             d eps       ncg     rms          rms(c)
DAV:   1    -0.304583791670E+03    0.10735E-01   -0.19379E+00 41280   0.498E+00    0.540E-01
DAV:   2    -0.304602860794E+03   -0.19069E-01   -0.22649E-01 67416   0.240E+00    0.700E-01
DAV:   3    -0.304600382530E+03    0.24783E-02   -0.65045E-02 68412   0.136E+00    0.495E-01
DAV:   4    -0.304598317884E+03    0.20646E-02   -0.20824E-02 67380   0.733E-01    0.285E-01
DAV:   5    -0.304597582863E+03    0.73502E-03   -0.86525E-03 67116   0.418E-01    0.223E-01
DAV:   6    -0.304597553410E+03    0.29453E-04   -0.70291E-03 68532   0.380E-01    0.208E-01
DAV:   7    -0.304597262530E+03    0.29088E-03   -0.42870E-03 65376   0.310E-01    0.133E-01
DAV:   8    -0.304597084635E+03    0.17789E-03   -0.20474E-03 62892   0.186E-01    0.730E-02
DAV:   9    -0.304597024419E+03    0.60216E-04   -0.28339E-04 34392   0.981E-02
  35 F= -.30459702E+03 E0= -.30459680E+03  d E =-.425114E-02
 curvature:  -2.42 expect dE=-0.604E-02 dE for cont linesearch -0.605E-04
 trial: gam= 0.40876 g(F)=  0.243E-02 g(S)=  0.650E-04 ort = 0.702E-03 (trialstep = 0.473E+00)
 search vector abs. value=  0.637E-02
 bond charge predicted
       N       E                     dE             d eps       ncg     rms          rms(c)
DAV:   1    -0.304596930069E+03    0.15457E-03   -0.17531E-01 41340   0.142E+00    0.117E-01
DAV:   2    -0.304598382730E+03   -0.14527E-02   -0.16004E-02 66192   0.639E-01    0.132E-01
DAV:   3    -0.304598401847E+03   -0.19117E-04   -0.30527E-03 67212   0.292E-01    0.122E-01
DAV:   4    -0.304598263362E+03    0.13848E-03   -0.97342E-04 50796   0.167E-01    0.601E-02
DAV:   5    -0.304598235899E+03    0.27464E-04   -0.16739E-04 27624   0.856E-02
  36 F= -.30459824E+03 E0= -.30459805E+03  d E =-.121148E-02
 ZBRENT: can't locate minimum, use default step
 trial-energy change:   -0.001211  1 .order   -0.001254   -0.001315   -0.001192
 step:   1.8904(harm=  5.0506)  dis= 0.01008  next Energy=  -304.604053 (dE=-0.703E-02)
 bond charge predicted
       N       E                     dE             d eps       ncg     rms          rms(c)
DAV:   1    -0.304589219297E+03    0.90441E-02   -0.15692E+00 41280   0.424E+00    0.368E-01
DAV:   2    -0.304602042014E+03   -0.12823E-01   -0.14039E-01 65952   0.194E+00    0.400E-01
DAV:   3    -0.304602402652E+03   -0.36064E-03   -0.30128E-02 66348   0.971E-01    0.374E-01
DAV:   4    -0.304600936939E+03    0.14657E-02   -0.88891E-03 61896   0.502E-01    0.163E-01
DAV:   5    -0.304600883116E+03    0.53823E-04   -0.23648E-03 62016   0.227E-01    0.154E-01
DAV:   6    -0.304600828627E+03    0.54489E-04   -0.20708E-03 62904   0.210E-01    0.125E-01
DAV:   7    -0.304600669740E+03    0.15889E-03   -0.16656E-03 66036   0.162E-01    0.742E-02
DAV:   8    -0.304600634652E+03    0.35089E-04   -0.74476E-04 50100   0.131E-01
  37 F= -.30460063E+03 E0= -.30460049E+03  d E =-.361023E-02
 curvature:  -3.02 expect dE=-0.409E-02 dE for cont linesearch -0.585E-03
 trial: gam= 0.00000 g(F)=  0.799E-03 g(S)=  0.552E-03 ort = 0.111E-02 (trialstep = 0.756E+00)
 search vector abs. value=  0.135E-02
 bond charge predicted
       N       E                     dE             d eps       ncg     rms          rms(c)
DAV:   1    -0.304601786403E+03   -0.11167E-02   -0.10281E-01 54036   0.138E+00    0.305E-01
DAV:   2    -0.304602459129E+03   -0.67273E-03   -0.20646E-02 73932   0.681E-01    0.285E-01
DAV:   3    -0.304602221141E+03    0.23799E-03   -0.18707E-02 71184   0.558E-01    0.283E-01
DAV:   4    -0.304601533738E+03    0.68740E-03   -0.69636E-03 59472   0.398E-01    0.149E-01
DAV:   5    -0.304601334397E+03    0.19934E-03   -0.31610E-03 64776   0.259E-01    0.117E-01
DAV:   6    -0.304601232689E+03    0.10171E-03   -0.18192E-03 59472   0.223E-01    0.837E-02
DAV:   7    -0.304601179619E+03    0.53070E-04   -0.74732E-04 49800   0.144E-01
  38 F= -.30460118E+03 E0= -.30460103E+03  d E =-.544967E-03
 trial-energy change:   -0.000545  1 .order   -0.000623   -0.001022   -0.000225
 step:   0.9692(harm=  0.9692)  dis= 0.00153  next Energy=  -304.601290 (dE=-0.655E-03)
 bond charge predicted
       N       E                     dE             d eps       ncg     rms          rms(c)
DAV:   1    -0.304601204288E+03    0.28401E-04   -0.81179E-03 56736   0.389E-01    0.838E-02
DAV:   2    -0.304601653045E+03   -0.44876E-03   -0.39464E-03 67860   0.337E-01    0.204E-01
DAV:   3    -0.304601208377E+03    0.44467E-03   -0.28045E-03 56628   0.256E-01    0.535E-02
DAV:   4    -0.304601192606E+03    0.15771E-04   -0.40418E-04 39420   0.977E-02
  39 F= -.30460119E+03 E0= -.30460102E+03  d E =-.557954E-03
 curvature:  -0.48 expect dE=-0.585E-03 dE for cont linesearch -0.271E-06
 trial: gam= 0.91366 g(F)=  0.424E-03 g(S)=  0.783E-03 ort =-0.275E-04 (trialstep = 0.472E+00)
 search vector abs. value=  0.228E-02
 reached required accuracy - stopping structural energy minimisation
 writing wavefunctions
VASP is done!
