<?xml version="1.0" encoding="ISO-8859-1"?>
<modeling>
 <generator>
  <i name="program" type="string">vasp </i>
  <i name="version" type="string">5.4.4.18Apr17-6-g9f103f2a35  </i>
  <i name="subversion" type="string">(build Aug 09 2018 16:20:53) complex            parallel </i>
  <i name="platform" type="string">LinuxIFC </i>
  <i name="date" type="string">2020 04 29 </i>
  <i name="time" type="string">23:46:04 </i>
 </generator>
 <incar>
  <i type="string" name="SYSTEM"> Nb - Mo - Ta - Ti - V SQS</i>
  <i type="string" name="PREC">normal</i>
  <i type="int" name="ICHARG">     0</i>
  <i type="int" name="IBRION">     2</i>
  <i type="int" name="NSW">    50</i>
  <i type="int" name="ISIF">     3</i>
  <i name="ENCUT">    600.00000000</i>
  <i type="string" name="LREAL"> Auto</i>
  <i type="int" name="ISMEAR">     1</i>
  <i name="SIGMA">      0.20000000</i>
  <v type="int" name="KPOINT_BSE">    -1     0     0     0</v>
  <i type="string" name="GGA"> PS</i>
 </incar>
 <structure name="primitive_cell" >
  <crystal>
   <varray name="basis" >
    <v>      -3.16000000      -3.16000000      -3.16000000 </v>
    <v>       1.58000000       1.58000000      -7.90000000 </v>
    <v>       7.90000000      -7.90000000      -1.58000000 </v>
   </varray>
   <i name="volume">    473.31744000 </i>
   <varray name="rec_basis" >
    <v>      -0.13713080      -0.12658228      -0.05274262 </v>
    <v>       0.04219409       0.06329114      -0.10548523 </v>
    <v>       0.06329114      -0.06329114       0.00000000 </v>
   </varray>
  </crystal>
  <varray name="positions" >
   <v>      -0.03333333      -0.06666667       0.40000000 </v>
   <v>      -0.10000000      -0.20000000       0.20000000 </v>
   <v>       0.06666667       0.13333333       0.20000000 </v>
   <v>       0.46666667      -0.06666667       0.40000000 </v>
   <v>      -0.13333333      -0.26666667      -0.40000000 </v>
   <v>       0.03333333       0.06666667      -0.40000000 </v>
   <v>      -0.36666667       0.26666667       0.40000000 </v>
   <v>       0.40000000      -0.20000000       0.20000000 </v>
   <v>      -0.20000000      -0.40000000       0.40000000 </v>
   <v>      -0.43333333       0.13333333       0.20000000 </v>
   <v>       0.36666667      -0.26666667      -0.40000000 </v>
   <v>       0.13333333       0.26666667       0.40000000 </v>
   <v>      -0.46666667       0.06666667      -0.40000000 </v>
   <v>       0.23333333       0.46666667       0.20000000 </v>
   <v>       0.20000000       0.40000000      -0.40000000 </v>
   <v>       0.00000000       0.00000000       0.00000000 </v>
   <v>      -0.06666667      -0.13333333      -0.20000000 </v>
   <v>      -0.30000000       0.40000000      -0.40000000 </v>
   <v>      -0.26666667       0.46666667       0.20000000 </v>
   <v>       0.33333333      -0.33333333       0.00000000 </v>
   <v>       0.43333333      -0.13333333      -0.20000000 </v>
   <v>      -0.50000000       0.00000000       0.00000000 </v>
   <v>       0.26666667      -0.46666667      -0.20000000 </v>
   <v>      -0.33333333       0.33333333       0.00000000 </v>
   <v>      -0.40000000       0.20000000      -0.20000000 </v>
   <v>      -0.16666667      -0.33333333       0.00000000 </v>
   <v>      -0.23333333      -0.46666667      -0.20000000 </v>
   <v>       0.16666667       0.33333333       0.00000000 </v>
   <v>       0.10000000       0.20000000      -0.20000000 </v>
  </varray>
 </structure>
 <varray name="primitive_index" >
  <v type="int" >        1 </v>
  <v type="int" >        7 </v>
  <v type="int" >       23 </v>
  <v type="int" >       19 </v>
  <v type="int" >       18 </v>
  <v type="int" >        6 </v>
  <v type="int" >        2 </v>
  <v type="int" >       16 </v>
  <v type="int" >        8 </v>
  <v type="int" >       15 </v>
  <v type="int" >       11 </v>
  <v type="int" >       12 </v>
  <v type="int" >       27 </v>
  <v type="int" >       29 </v>
  <v type="int" >       22 </v>
  <v type="int" >        4 </v>
  <v type="int" >       14 </v>
  <v type="int" >       25 </v>
  <v type="int" >        9 </v>
  <v type="int" >       28 </v>
  <v type="int" >       17 </v>
  <v type="int" >        3 </v>
  <v type="int" >       21 </v>
  <v type="int" >       10 </v>
  <v type="int" >       26 </v>
  <v type="int" >       13 </v>
  <v type="int" >       24 </v>
  <v type="int" >       20 </v>
  <v type="int" >        5 </v>
 </varray>
 <kpoints>
  <generation param="Gamma">
   <v type="int" name="divisions">       7        7        7 </v>
   <v name="usershift">      0.00000000       0.00000000       0.00000000 </v>
   <v name="genvec1">      0.14285714       0.00000000       0.00000000 </v>
   <v name="genvec2">     -0.00000000       0.14285714       0.00000000 </v>
   <v name="genvec3">      0.00000000       0.00000000       0.14285714 </v>
   <v name="shift">      0.00000000       0.00000000       0.00000000 </v>
  </generation>
  <varray name="kpointlist" >
   <v>       0.00000000       0.00000000       0.00000000 </v>
   <v>       0.14285714       0.00000000      -0.00000000 </v>
   <v>       0.28571429       0.00000000       0.00000000 </v>
   <v>       0.42857143       0.00000000      -0.00000000 </v>
   <v>      -0.00000000       0.14285714       0.00000000 </v>
   <v>       0.14285714       0.14285714      -0.00000000 </v>
   <v>       0.28571429       0.14285714       0.00000000 </v>
   <v>       0.42857143       0.14285714      -0.00000000 </v>
   <v>      -0.42857143       0.14285714       0.00000000 </v>
   <v>      -0.28571429       0.14285714       0.00000000 </v>
   <v>      -0.14285714       0.14285714       0.00000000 </v>
   <v>       0.00000000       0.28571429      -0.00000000 </v>
   <v>       0.14285714       0.28571429      -0.00000000 </v>
   <v>       0.28571429       0.28571429      -0.00000000 </v>
   <v>       0.42857143       0.28571429      -0.00000000 </v>
   <v>      -0.42857143       0.28571429      -0.00000000 </v>
   <v>      -0.28571429       0.28571429      -0.00000000 </v>
   <v>      -0.14285714       0.28571429      -0.00000000 </v>
   <v>      -0.00000000       0.42857143      -0.00000000 </v>
   <v>       0.14285714       0.42857143       0.00000000 </v>
   <v>       0.28571429       0.42857143       0.00000000 </v>
   <v>       0.42857143       0.42857143      -0.00000000 </v>
   <v>      -0.42857143       0.42857143       0.00000000 </v>
   <v>      -0.28571429       0.42857143      -0.00000000 </v>
   <v>      -0.14285714       0.42857143      -0.00000000 </v>
   <v>       0.00000000       0.00000000       0.14285714 </v>
   <v>       0.14285714       0.00000000       0.14285714 </v>
   <v>       0.28571429       0.00000000       0.14285714 </v>
   <v>       0.42857143       0.00000000       0.14285714 </v>
   <v>      -0.42857143       0.00000000       0.14285714 </v>
   <v>      -0.28571429       0.00000000       0.14285714 </v>
   <v>      -0.14285714      -0.00000000       0.14285714 </v>
   <v>      -0.00000000       0.14285714       0.14285714 </v>
   <v>       0.14285714       0.14285714       0.14285714 </v>
   <v>       0.28571429       0.14285714       0.14285714 </v>
   <v>       0.42857143       0.14285714       0.14285714 </v>
   <v>      -0.42857143       0.14285714       0.14285714 </v>
   <v>      -0.28571429       0.14285714       0.14285714 </v>
   <v>      -0.14285714       0.14285714       0.14285714 </v>
   <v>      -0.00000000       0.28571429       0.14285714 </v>
   <v>       0.14285714       0.28571429       0.14285714 </v>
   <v>       0.28571429       0.28571429       0.14285714 </v>
   <v>       0.42857143       0.28571429       0.14285714 </v>
   <v>      -0.42857143       0.28571429       0.14285714 </v>
   <v>      -0.28571429       0.28571429       0.14285714 </v>
   <v>      -0.14285714       0.28571429       0.14285714 </v>
   <v>       0.00000000       0.42857143       0.14285714 </v>
   <v>       0.14285714       0.42857143       0.14285714 </v>
   <v>       0.28571429       0.42857143       0.14285714 </v>
   <v>       0.42857143       0.42857143       0.14285714 </v>
   <v>      -0.42857143       0.42857143       0.14285714 </v>
   <v>      -0.28571429       0.42857143       0.14285714 </v>
   <v>      -0.14285714       0.42857143       0.14285714 </v>
   <v>       0.00000000      -0.42857143       0.14285714 </v>
   <v>       0.14285714      -0.42857143       0.14285714 </v>
   <v>       0.28571429      -0.42857143       0.14285714 </v>
   <v>       0.42857143      -0.42857143       0.14285714 </v>
   <v>      -0.42857143      -0.42857143       0.14285714 </v>
   <v>      -0.28571429      -0.42857143       0.14285714 </v>
   <v>      -0.14285714      -0.42857143       0.14285714 </v>
   <v>       0.00000000      -0.28571429       0.14285714 </v>
   <v>       0.14285714      -0.28571429       0.14285714 </v>
   <v>       0.28571429      -0.28571429       0.14285714 </v>
   <v>       0.42857143      -0.28571429       0.14285714 </v>
   <v>      -0.42857143      -0.28571429       0.14285714 </v>
   <v>      -0.28571429      -0.28571429       0.14285714 </v>
   <v>      -0.14285714      -0.28571429       0.14285714 </v>
   <v>       0.00000000      -0.14285714       0.14285714 </v>
   <v>       0.14285714      -0.14285714       0.14285714 </v>
   <v>       0.28571429      -0.14285714       0.14285714 </v>
   <v>       0.42857143      -0.14285714       0.14285714 </v>
   <v>      -0.42857143      -0.14285714       0.14285714 </v>
   <v>      -0.28571429      -0.14285714       0.14285714 </v>
   <v>      -0.14285714      -0.14285714       0.14285714 </v>
   <v>       0.00000000       0.00000000       0.28571429 </v>
   <v>       0.14285714       0.00000000       0.28571429 </v>
   <v>       0.28571429       0.00000000       0.28571429 </v>
   <v>       0.42857143       0.00000000       0.28571429 </v>
   <v>      -0.42857143      -0.00000000       0.28571429 </v>
   <v>      -0.28571429      -0.00000000       0.28571429 </v>
   <v>      -0.14285714      -0.00000000       0.28571429 </v>
   <v>      -0.00000000       0.14285714       0.28571429 </v>
   <v>       0.14285714       0.14285714       0.28571429 </v>
   <v>       0.28571429       0.14285714       0.28571429 </v>
   <v>       0.42857143       0.14285714       0.28571429 </v>
   <v>      -0.42857143       0.14285714       0.28571429 </v>
   <v>      -0.28571429       0.14285714       0.28571429 </v>
   <v>      -0.14285714       0.14285714       0.28571429 </v>
   <v>      -0.00000000       0.28571429       0.28571429 </v>
   <v>       0.14285714       0.28571429       0.28571429 </v>
   <v>       0.28571429       0.28571429       0.28571429 </v>
   <v>       0.42857143       0.28571429       0.28571429 </v>
   <v>      -0.42857143       0.28571429       0.28571429 </v>
   <v>      -0.28571429       0.28571429       0.28571429 </v>
   <v>      -0.14285714       0.28571429       0.28571429 </v>
   <v>       0.00000000       0.42857143       0.28571429 </v>
   <v>       0.14285714       0.42857143       0.28571429 </v>
   <v>       0.28571429       0.42857143       0.28571429 </v>
   <v>       0.42857143       0.42857143       0.28571429 </v>
   <v>      -0.42857143       0.42857143       0.28571429 </v>
   <v>      -0.28571429       0.42857143       0.28571429 </v>
   <v>      -0.14285714       0.42857143       0.28571429 </v>
   <v>      -0.00000000      -0.42857143       0.28571429 </v>
   <v>       0.14285714      -0.42857143       0.28571429 </v>
   <v>       0.28571429      -0.42857143       0.28571429 </v>
   <v>       0.42857143      -0.42857143       0.28571429 </v>
   <v>      -0.42857143      -0.42857143       0.28571429 </v>
   <v>      -0.28571429      -0.42857143       0.28571429 </v>
   <v>      -0.14285714      -0.42857143       0.28571429 </v>
   <v>       0.00000000      -0.28571429       0.28571429 </v>
   <v>       0.14285714      -0.28571429       0.28571429 </v>
   <v>       0.28571429      -0.28571429       0.28571429 </v>
   <v>       0.42857143      -0.28571429       0.28571429 </v>
   <v>      -0.42857143      -0.28571429       0.28571429 </v>
   <v>      -0.28571429      -0.28571429       0.28571429 </v>
   <v>      -0.14285714      -0.28571429       0.28571429 </v>
   <v>       0.00000000      -0.14285714       0.28571429 </v>
   <v>       0.14285714      -0.14285714       0.28571429 </v>
   <v>       0.28571429      -0.14285714       0.28571429 </v>
   <v>       0.42857143      -0.14285714       0.28571429 </v>
   <v>      -0.42857143      -0.14285714       0.28571429 </v>
   <v>      -0.28571429      -0.14285714       0.28571429 </v>
   <v>      -0.14285714      -0.14285714       0.28571429 </v>
   <v>       0.00000000       0.00000000       0.42857143 </v>
   <v>       0.14285714       0.00000000       0.42857143 </v>
   <v>       0.28571429       0.00000000       0.42857143 </v>
   <v>       0.42857143      -0.00000000       0.42857143 </v>
   <v>      -0.42857143      -0.00000000       0.42857143 </v>
   <v>      -0.28571429       0.00000000       0.42857143 </v>
   <v>      -0.14285714      -0.00000000       0.42857143 </v>
   <v>      -0.00000000       0.14285714       0.42857143 </v>
   <v>       0.14285714       0.14285714       0.42857143 </v>
   <v>       0.28571429       0.14285714       0.42857143 </v>
   <v>       0.42857143       0.14285714       0.42857143 </v>
   <v>      -0.42857143       0.14285714       0.42857143 </v>
   <v>      -0.28571429       0.14285714       0.42857143 </v>
   <v>      -0.14285714       0.14285714       0.42857143 </v>
   <v>       0.00000000       0.28571429       0.42857143 </v>
   <v>       0.14285714       0.28571429       0.42857143 </v>
   <v>       0.28571429       0.28571429       0.42857143 </v>
   <v>       0.42857143       0.28571429       0.42857143 </v>
   <v>      -0.42857143       0.28571429       0.42857143 </v>
   <v>      -0.28571429       0.28571429       0.42857143 </v>
   <v>      -0.14285714       0.28571429       0.42857143 </v>
   <v>       0.00000000       0.42857143       0.42857143 </v>
   <v>       0.14285714       0.42857143       0.42857143 </v>
   <v>       0.28571429       0.42857143       0.42857143 </v>
   <v>       0.42857143       0.42857143       0.42857143 </v>
   <v>      -0.42857143       0.42857143       0.42857143 </v>
   <v>      -0.28571429       0.42857143       0.42857143 </v>
   <v>      -0.14285714       0.42857143       0.42857143 </v>
   <v>       0.00000000      -0.42857143       0.42857143 </v>
   <v>       0.14285714      -0.42857143       0.42857143 </v>
   <v>       0.28571429      -0.42857143       0.42857143 </v>
   <v>       0.42857143      -0.42857143       0.42857143 </v>
   <v>      -0.42857143      -0.42857143       0.42857143 </v>
   <v>      -0.28571429      -0.42857143       0.42857143 </v>
   <v>      -0.14285714      -0.42857143       0.42857143 </v>
   <v>      -0.00000000      -0.28571429       0.42857143 </v>
   <v>       0.14285714      -0.28571429       0.42857143 </v>
   <v>       0.28571429      -0.28571429       0.42857143 </v>
   <v>       0.42857143      -0.28571429       0.42857143 </v>
   <v>      -0.42857143      -0.28571429       0.42857143 </v>
   <v>      -0.28571429      -0.28571429       0.42857143 </v>
   <v>      -0.14285714      -0.28571429       0.42857143 </v>
   <v>       0.00000000      -0.14285714       0.42857143 </v>
   <v>       0.14285714      -0.14285714       0.42857143 </v>
   <v>       0.28571429      -0.14285714       0.42857143 </v>
   <v>       0.42857143      -0.14285714       0.42857143 </v>
   <v>      -0.42857143      -0.14285714       0.42857143 </v>
   <v>      -0.28571429      -0.14285714       0.42857143 </v>
   <v>      -0.14285714      -0.14285714       0.42857143 </v>
  </varray>
  <varray name="weights" >
   <v>       0.00291545 </v>
   <v>       0.00583090 </v>
   <v>       0.00583090 </v>
   <v>       0.00583090 </v>
   <v>       0.00583090 </v>
   <v>       0.00583090 </v>
   <v>       0.00583090 </v>
   <v>       0.00583090 </v>
   <v>       0.00583090 </v>
   <v>       0.00583090 </v>
   <v>       0.00583090 </v>
   <v>       0.00583090 </v>
   <v>       0.00583090 </v>
   <v>       0.00583090 </v>
   <v>       0.00583090 </v>
   <v>       0.00583090 </v>
   <v>       0.00583090 </v>
   <v>       0.00583090 </v>
   <v>       0.00583090 </v>
   <v>       0.00583090 </v>
   <v>       0.00583090 </v>
   <v>       0.00583090 </v>
   <v>       0.00583090 </v>
   <v>       0.00583090 </v>
   <v>       0.00583090 </v>
   <v>       0.00583090 </v>
   <v>       0.00583090 </v>
   <v>       0.00583090 </v>
   <v>       0.00583090 </v>
   <v>       0.00583090 </v>
   <v>       0.00583090 </v>
   <v>       0.00583090 </v>
   <v>       0.00583090 </v>
   <v>       0.00583090 </v>
   <v>       0.00583090 </v>
   <v>       0.00583090 </v>
   <v>       0.00583090 </v>
   <v>       0.00583090 </v>
   <v>       0.00583090 </v>
   <v>       0.00583090 </v>
   <v>       0.00583090 </v>
   <v>       0.00583090 </v>
   <v>       0.00583090 </v>
   <v>       0.00583090 </v>
   <v>       0.00583090 </v>
   <v>       0.00583090 </v>
   <v>       0.00583090 </v>
   <v>       0.00583090 </v>
   <v>       0.00583090 </v>
   <v>       0.00583090 </v>
   <v>       0.00583090 </v>
   <v>       0.00583090 </v>
   <v>       0.00583090 </v>
   <v>       0.00583090 </v>
   <v>       0.00583090 </v>
   <v>       0.00583090 </v>
   <v>       0.00583090 </v>
   <v>       0.00583090 </v>
   <v>       0.00583090 </v>
   <v>       0.00583090 </v>
   <v>       0.00583090 </v>
   <v>       0.00583090 </v>
   <v>       0.00583090 </v>
   <v>       0.00583090 </v>
   <v>       0.00583090 </v>
   <v>       0.00583090 </v>
   <v>       0.00583090 </v>
   <v>       0.00583090 </v>
   <v>       0.00583090 </v>
   <v>       0.00583090 </v>
   <v>       0.00583090 </v>
   <v>       0.00583090 </v>
   <v>       0.00583090 </v>
   <v>       0.00583090 </v>
   <v>       0.00583090 </v>
   <v>       0.00583090 </v>
   <v>       0.00583090 </v>
   <v>       0.00583090 </v>
   <v>       0.00583090 </v>
   <v>       0.00583090 </v>
   <v>       0.00583090 </v>
   <v>       0.00583090 </v>
   <v>       0.00583090 </v>
   <v>       0.00583090 </v>
   <v>       0.00583090 </v>
   <v>       0.00583090 </v>
   <v>       0.00583090 </v>
   <v>       0.00583090 </v>
   <v>       0.00583090 </v>
   <v>       0.00583090 </v>
   <v>       0.00583090 </v>
   <v>       0.00583090 </v>
   <v>       0.00583090 </v>
   <v>       0.00583090 </v>
   <v>       0.00583090 </v>
   <v>       0.00583090 </v>
   <v>       0.00583090 </v>
   <v>       0.00583090 </v>
   <v>       0.00583090 </v>
   <v>       0.00583090 </v>
   <v>       0.00583090 </v>
   <v>       0.00583090 </v>
   <v>       0.00583090 </v>
   <v>       0.00583090 </v>
   <v>       0.00583090 </v>
   <v>       0.00583090 </v>
   <v>       0.00583090 </v>
   <v>       0.00583090 </v>
   <v>       0.00583090 </v>
   <v>       0.00583090 </v>
   <v>       0.00583090 </v>
   <v>       0.00583090 </v>
   <v>       0.00583090 </v>
   <v>       0.00583090 </v>
   <v>       0.00583090 </v>
   <v>       0.00583090 </v>
   <v>       0.00583090 </v>
   <v>       0.00583090 </v>
   <v>       0.00583090 </v>
   <v>       0.00583090 </v>
   <v>       0.00583090 </v>
   <v>       0.00583090 </v>
   <v>       0.00583090 </v>
   <v>       0.00583090 </v>
   <v>       0.00583090 </v>
   <v>       0.00583090 </v>
   <v>       0.00583090 </v>
   <v>       0.00583090 </v>
   <v>       0.00583090 </v>
   <v>       0.00583090 </v>
   <v>       0.00583090 </v>
   <v>       0.00583090 </v>
   <v>       0.00583090 </v>
   <v>       0.00583090 </v>
   <v>       0.00583090 </v>
   <v>       0.00583090 </v>
   <v>       0.00583090 </v>
   <v>       0.00583090 </v>
   <v>       0.00583090 </v>
   <v>       0.00583090 </v>
   <v>       0.00583090 </v>
   <v>       0.00583090 </v>
   <v>       0.00583090 </v>
   <v>       0.00583090 </v>
   <v>       0.00583090 </v>
   <v>       0.00583090 </v>
   <v>       0.00583090 </v>
   <v>       0.00583090 </v>
   <v>       0.00583090 </v>
   <v>       0.00583090 </v>
   <v>       0.00583090 </v>
   <v>       0.00583090 </v>
   <v>       0.00583090 </v>
   <v>       0.00583090 </v>
   <v>       0.00583090 </v>
   <v>       0.00583090 </v>
   <v>       0.00583090 </v>
   <v>       0.00583090 </v>
   <v>       0.00583090 </v>
   <v>       0.00583090 </v>
   <v>       0.00583090 </v>
   <v>       0.00583090 </v>
   <v>       0.00583090 </v>
   <v>       0.00583090 </v>
   <v>       0.00583090 </v>
   <v>       0.00583090 </v>
   <v>       0.00583090 </v>
   <v>       0.00583090 </v>
   <v>       0.00583090 </v>
   <v>       0.00583090 </v>
   <v>       0.00583090 </v>
   <v>       0.00583090 </v>
  </varray>
 </kpoints>
 <parameters>
  <separator name="general" >
   <i type="string" name="SYSTEM">Nb - Mo - Ta - Ti - V SQS</i>
   <i type="logical" name="LCOMPAT"> F  </i>
  </separator>
  <separator name="electronic" >
   <i type="string" name="PREC">normal</i>
   <i name="ENMAX">    600.00000000</i>
   <i name="ENAUG">    455.65900000</i>
   <i name="EDIFF">      0.00010000</i>
   <i type="int" name="IALGO">    38</i>
   <i type="int" name="IWAVPR">    11</i>
   <i type="int" name="NBANDS">   120</i>
   <i name="NELECT">    193.00000000</i>
   <i type="int" name="TURBO">     0</i>
   <i type="int" name="IRESTART">     0</i>
   <i type="int" name="NREBOOT">     0</i>
   <i type="int" name="NMIN">     0</i>
   <i name="EREF">      0.00000000</i>
   <separator name="electronic smearing" >
    <i type="int" name="ISMEAR">     1</i>
    <i name="SIGMA">      0.20000000</i>
    <i name="KSPACING">      0.50000000</i>
    <i type="logical" name="KGAMMA"> T  </i>
   </separator>
   <separator name="electronic projectors" >
    <i type="logical" name="LREAL"> T  </i>
    <v name="ROPT">     -0.00050000     -0.00050000     -0.00050000     -0.00050000     -0.00050000</v>
    <i type="int" name="LMAXPAW">  -100</i>
    <i type="int" name="LMAXMIX">     2</i>
    <i type="logical" name="NLSPLINE"> F  </i>
   </separator>
   <separator name="electronic startup" >
    <i type="int" name="ISTART">     0</i>
    <i type="int" name="ICHARG">     0</i>
    <i type="int" name="INIWAV">     1</i>
   </separator>
   <separator name="electronic spin" >
    <i type="int" name="ISPIN">     1</i>
    <i type="logical" name="LNONCOLLINEAR"> F  </i>
    <v name="MAGMOM">      1.00000000      1.00000000      1.00000000      1.00000000      1.00000000      1.00000000      1.00000000      1.00000000      1.00000000      1.00000000      1.00000000      1.00000000      1.00000000      1.00000000      1.00000000      1.00000000      1.00000000      1.00000000      1.00000000      1.00000000
      1.00000000      1.00000000      1.00000000      1.00000000      1.00000000      1.00000000      1.00000000      1.00000000      1.00000000</v>
    <i name="NUPDOWN">     -1.00000000</i>
    <i type="logical" name="LSORBIT"> F  </i>
    <v name="SAXIS">      0.00000000      0.00000000      1.00000000</v>
    <i type="logical" name="LSPIRAL"> F  </i>
    <v name="QSPIRAL">      0.00000000      0.00000000      0.00000000</v>
    <i type="logical" name="LZEROZ"> F  </i>
   </separator>
   <separator name="electronic exchange-correlation" >
    <i type="logical" name="LASPH"> F  </i>
    <i type="logical" name="LMETAGGA"> F  </i>
   </separator>
   <separator name="electronic convergence" >
    <i type="int" name="NELM">    60</i>
    <i type="int" name="NELMDL">    -5</i>
    <i type="int" name="NELMIN">     2</i>
    <i name="ENINI">    600.00000000</i>
    <separator name="electronic convergence detail" >
     <i type="logical" name="LDIAG"> T  </i>
     <i type="logical" name="LSUBROT"> F  </i>
     <i name="WEIMIN">      0.00100000</i>
     <i name="EBREAK">      0.00000021</i>
     <i name="DEPER">      0.30000000</i>
     <i type="int" name="NRMM">     4</i>
     <i name="TIME">      0.40000000</i>
    </separator>
   </separator>
   <separator name="electronic mixer" >
    <i name="AMIX">      0.40000000</i>
    <i name="BMIX">      1.00000000</i>
    <i name="AMIN">      0.10000000</i>
    <i name="AMIX_MAG">      1.60000000</i>
    <i name="BMIX_MAG">      1.00000000</i>
    <separator name="electronic mixer details" >
     <i type="int" name="IMIX">     4</i>
     <i type="logical" name="MIXFIRST"> F  </i>
     <i type="int" name="MAXMIX">   -45</i>
     <i name="WC">    100.00000000</i>
     <i type="int" name="INIMIX">     1</i>
     <i type="int" name="MIXPRE">     1</i>
     <i type="int" name="MREMOVE">     5</i>
    </separator>
   </separator>
   <separator name="electronic dipolcorrection" >
    <i type="logical" name="LDIPOL"> F  </i>
    <i type="logical" name="LMONO"> F  </i>
    <i type="int" name="IDIPOL">     0</i>
    <i name="EPSILON">      1.00000000</i>
    <v name="DIPOL">   -100.00000000   -100.00000000   -100.00000000</v>
    <i name="EFIELD">      0.00000000</i>
   </separator>
  </separator>
  <separator name="grids" >
   <i type="int" name="NGX">    36</i>
   <i type="int" name="NGY">    50</i>
   <i type="int" name="NGZ">    70</i>
   <i type="int" name="NGXF">    72</i>
   <i type="int" name="NGYF">   100</i>
   <i type="int" name="NGZF">   140</i>
   <i type="logical" name="ADDGRID"> F  </i>
  </separator>
  <separator name="ionic" >
   <i type="int" name="NSW">    50</i>
   <i type="int" name="IBRION">     2</i>
   <i type="int" name="MDALGO">     0</i>
   <i type="int" name="ISIF">     3</i>
   <i name="PSTRESS">      0.00000000</i>
   <i name="EDIFFG">      0.00100000</i>
   <i type="int" name="NFREE">     1</i>
   <i name="POTIM">      0.50000000</i>
   <i name="SMASS">     -3.00000000</i>
   <i name="SCALEE">      1.00000000</i>
  </separator>
  <separator name="ionic md" >
   <i name="TEBEG">      0.00010000</i>
   <i name="TEEND">      0.00010000</i>
   <i type="int" name="NBLOCK">     1</i>
   <i type="int" name="KBLOCK">    50</i>
   <i type="int" name="NPACO">   256</i>
   <i name="APACO">     16.00000000</i>
  </separator>
  <separator name="symmetry" >
   <i type="int" name="ISYM">     2</i>
   <i name="SYMPREC">      0.00001000</i>
  </separator>
  <separator name="dos" >
   <i type="int" name="LORBIT">     0</i>
   <v name="RWIGS">     -1.00000000     -1.00000000     -1.00000000     -1.00000000     -1.00000000</v>
   <i type="int" name="NEDOS">   301</i>
   <i name="EMIN">     10.00000000</i>
   <i name="EMAX">    -10.00000000</i>
   <i name="EFERMI">      0.00000000</i>
  </separator>
  <separator name="writing" >
   <i type="int" name="NWRITE">     2</i>
   <i type="logical" name="LWAVE"> T  </i>
   <i type="logical" name="LDOWNSAMPLE"> F  </i>
   <i type="logical" name="LCHARG"> T  </i>
   <i type="logical" name="LPARD"> F  </i>
   <i type="logical" name="LVTOT"> F  </i>
   <i type="logical" name="LVHAR"> F  </i>
   <i type="logical" name="LELF"> F  </i>
   <i type="logical" name="LOPTICS"> F  </i>
   <v name="STM">      0.00000000      0.00000000      0.00000000      0.00000000      0.00000000      0.00000000      0.00000000</v>
  </separator>
  <separator name="performance" >
   <i type="int" name="NPAR">    12</i>
   <i type="int" name="NSIM">     4</i>
   <i type="int" name="NBLK">    -1</i>
   <i type="logical" name="LPLANE"> T  </i>
   <i type="logical" name="LSCALAPACK"> T  </i>
   <i type="logical" name="LSCAAWARE"> F  </i>
   <i type="logical" name="LSCALU"> F  </i>
   <i type="logical" name="LASYNC"> F  </i>
   <i type="logical" name="LORBITALREAL"> F  </i>
  </separator>
  <separator name="miscellaneous" >
   <i type="int" name="IDIOT">     3</i>
   <i type="int" name="ISPECIAL">     0</i>
   <i type="logical" name="LMUSIC"> F  </i>
   <v name="POMASS">     92.91000000     95.94000000    180.94800000     47.88000000     50.94100000</v>
   <v name="DARWINR">      0.00000000      0.00000000      0.00000000      0.00000000      0.00000000</v>
   <v name="DARWINV">      1.00000000      1.00000000      1.00000000      1.00000000      1.00000000</v>
   <i type="logical" name="LCORR"> T  </i>
  </separator>
  <i type="logical" name="GGA_COMPAT"> T  </i>
  <i type="logical" name="LBERRY"> F  </i>
  <i type="int" name="ICORELEVEL">     0</i>
  <i type="logical" name="LDAU"> F  </i>
  <i type="int" name="I_CONSTRAINED_M">     0</i>
  <separator name="electronic exchange-correlation" >
   <i type="string" name="GGA">PS</i>
   <i type="int" name="VOSKOWN">     0</i>
   <i type="logical" name="LHFCALC"> F  </i>
   <i type="string" name="PRECFOCK"></i>
   <i type="logical" name="LSYMGRAD"> F  </i>
   <i type="logical" name="LHFONE"> F  </i>
   <i type="logical" name="LRHFCALC"> F  </i>
   <i type="logical" name="LTHOMAS"> F  </i>
   <i type="logical" name="LMODELHF"> F  </i>
   <i name="ENCUT4O">     -1.00000000</i>
   <i type="int" name="EXXOEP">     0</i>
   <i type="int" name="FOURORBIT">     0</i>
   <i name="AEXX">      0.00000000</i>
   <i name="HFALPHA">      0.00000000</i>
   <i name="MCALPHA">      0.00000000</i>
   <i name="ALDAX">      1.00000000</i>
   <i name="AGGAX">      1.00000000</i>
   <i name="ALDAC">      1.00000000</i>
   <i name="AGGAC">      1.00000000</i>
   <i type="int" name="NKREDX">     1</i>
   <i type="int" name="NKREDY">     1</i>
   <i type="int" name="NKREDZ">     1</i>
   <i type="logical" name="SHIFTRED"> F  </i>
   <i type="logical" name="ODDONLY"> F  </i>
   <i type="logical" name="EVENONLY"> F  </i>
   <i type="int" name="LMAXFOCK">     0</i>
   <i type="int" name="NMAXFOCKAE">     0</i>
   <i type="logical" name="LFOCKAEDFT"> F  </i>
   <i name="HFSCREEN">      0.00000000</i>
   <i name="HFSCREENC">      0.00000000</i>
   <i type="int" name="NBANDSGWLOW">     0</i>
  </separator>
  <separator name="vdW DFT" >
   <i type="logical" name="LUSE_VDW"> F  </i>
   <i name="Zab_VDW">     -0.84910000</i>
   <i name="PARAM1">      0.12340000</i>
   <i name="PARAM2">      1.00000000</i>
   <i name="PARAM3">      0.00000000</i>
  </separator>
  <separator name="model GW" >
   <i type="int" name="MODEL_GW">     0</i>
   <i name="MODEL_EPS0">      9.79277462</i>
   <i name="MODEL_ALPHA">      1.00000000</i>
  </separator>
  <separator name="linear response parameters" >
   <i type="logical" name="LEPSILON"> F  </i>
   <i type="logical" name="LRPA"> F  </i>
   <i type="logical" name="LNABLA"> F  </i>
   <i type="logical" name="LVEL"> F  </i>
   <i type="int" name="KINTER">     0</i>
   <i name="CSHIFT">      0.10000000</i>
   <i name="OMEGAMAX">     -1.00000000</i>
   <i name="DEG_THRESHOLD">      0.00200000</i>
   <i name="RTIME">     -0.10000000</i>
   <i name="WPLASMAI">      0.00000000</i>
   <v name="DFIELD">      0.00000000      0.00000000      0.00000000</v>
   <v name="WPLASMA">      0.00000000      0.00000000      0.00000000      0.00000000      0.00000000      0.00000000      0.00000000      0.00000000      0.00000000</v>
  </separator>
  <separator name="orbital magnetization" >
   <i type="logical" name="NUCIND"> F  </i>
   <v name="MAGPOS">      0.00000000      0.00000000      0.00000000</v>
   <i type="logical" name="LNICSALL"> T  </i>
   <i type="logical" name="ORBITALMAG"> F  </i>
   <i type="logical" name="LMAGBLOCH"> F  </i>
   <i type="logical" name="LCHIMAG"> F  </i>
   <i type="logical" name="LGAUGE"> T  </i>
   <i type="int" name="MAGATOM">     0</i>
   <v name="MAGDIPOL">      0.00000000      0.00000000      0.00000000</v>
   <v name="AVECCONST">      0.00000000      0.00000000      0.00000000</v>
  </separator>
  <separator name="response functions" >
   <i type="logical" name="LADDER"> F  </i>
   <i type="logical" name="LRPAFORCE"> F  </i>
   <i type="logical" name="LFXC"> F  </i>
   <i type="logical" name="LHARTREE"> T  </i>
   <i type="int" name="IBSE">     0</i>
   <v type="int" name="KPOINT">    -1     0     0     0</v>
   <i type="logical" name="LTCTE"> F  </i>
   <i type="logical" name="LTETE"> F  </i>
   <i type="logical" name="LTRIPLET"> F  </i>
   <i type="logical" name="LFXCEPS"> F  </i>
   <i type="logical" name="LFXHEG"> F  </i>
   <i type="int" name="NATURALO">     2</i>
   <i type="logical" name="L2ORDER"> F  </i>
   <i type="logical" name="LMP2LT"> F  </i>
   <i type="logical" name="LUSEW"> F  </i>
   <i name="ENCUTGW">     -2.00000000</i>
   <i name="ENCUTGWSOFT">     -2.00000000</i>
   <i name="ENCUTLF">     -1.00000000</i>
   <i type="int" name="LMAXMP2">    -1</i>
   <i name="SCISSOR">      0.00000000</i>
   <i type="int" name="NOMEGA">     0</i>
   <i type="int" name="NOMEGAR">     0</i>
   <i type="int" name="NBANDSGW">    -1</i>
   <i type="int" name="NBANDSO">    -1</i>
   <i type="int" name="NBANDSV">    -1</i>
   <i type="int" name="NELM">     1</i>
   <i type="int" name="NELMHF">     1</i>
   <i type="int" name="DIM">     3</i>
   <i type="int" name="ANTIRES">     0</i>
   <i name="OMEGAMAX">    -30.00000000</i>
   <i name="OMEGAMIN">    -30.00000000</i>
   <i name="OMEGATL">   -200.00000000</i>
   <i type="int" name="OMEGAGRID">   140</i>
   <i name="CSHIFT">     -0.10000000</i>
   <i type="logical" name="SELFENERGY"> F  </i>
   <i type="logical" name="LSPECTRAL"> F  </i>
   <i type="logical" name="LSPECTRALGW"> F  </i>
   <i type="logical" name="LSINGLES"> F  </i>
   <i type="logical" name="LFERMIGW"> F  </i>
   <i type="logical" name="ODDONLYGW"> F  </i>
   <i type="logical" name="EVENONLYGW"> F  </i>
   <i type="int" name="NKREDLFX">     1</i>
   <i type="int" name="NKREDLFY">     1</i>
   <i type="int" name="NKREDLFZ">     1</i>
   <i type="int" name="MAXMEM">  2800</i>
   <i type="int" name="TELESCOPE">     0</i>
   <i type="int" name="TAUPAR">     1</i>
   <i type="int" name="OMEGAPAR">    -1</i>
   <i name="LAMBDA">      1.00000000</i>
  </separator>
  <separator name="External order field" >
   <i name="OFIELD_KAPPA">      0.00000000</i>
   <v name="OFIELD_K">      0.00000000      0.00000000      0.00000000</v>
   <i name="OFIELD_Q6_NEAR">      0.00000000</i>
   <i name="OFIELD_Q6_FAR">      0.00000000</i>
   <i name="OFIELD_A">      0.00000000</i>
  </separator>
  <separator name="solvation model" >
   <i type="logical" name="LSOL"> F  </i>
  </separator>
 </parameters>
 <atominfo>
  <atoms>      29 </atoms>
  <types>       5 </types>
  <array name="atoms" >
   <dimension dim="1">ion</dimension>
   <field type="string">element</field>
   <field type="int">atomtype</field>
   <set>
    <rc><c>Nb</c><c>   1</c></rc>
    <rc><c>Nb</c><c>   1</c></rc>
    <rc><c>Nb</c><c>   1</c></rc>
    <rc><c>Nb</c><c>   1</c></rc>
    <rc><c>Nb</c><c>   1</c></rc>
    <rc><c>Nb</c><c>   1</c></rc>
    <rc><c>Mo</c><c>   2</c></rc>
    <rc><c>Mo</c><c>   2</c></rc>
    <rc><c>Mo</c><c>   2</c></rc>
    <rc><c>Mo</c><c>   2</c></rc>
    <rc><c>Mo</c><c>   2</c></rc>
    <rc><c>Mo</c><c>   2</c></rc>
    <rc><c>Ta</c><c>   3</c></rc>
    <rc><c>Ta</c><c>   3</c></rc>
    <rc><c>Ta</c><c>   3</c></rc>
    <rc><c>Ta</c><c>   3</c></rc>
    <rc><c>Ta</c><c>   3</c></rc>
    <rc><c>Ti</c><c>   4</c></rc>
    <rc><c>Ti</c><c>   4</c></rc>
    <rc><c>Ti</c><c>   4</c></rc>
    <rc><c>Ti</c><c>   4</c></rc>
    <rc><c>Ti</c><c>   4</c></rc>
    <rc><c>Ti</c><c>   4</c></rc>
    <rc><c>V </c><c>   5</c></rc>
    <rc><c>V </c><c>   5</c></rc>
    <rc><c>V </c><c>   5</c></rc>
    <rc><c>V </c><c>   5</c></rc>
    <rc><c>V </c><c>   5</c></rc>
    <rc><c>V </c><c>   5</c></rc>
   </set>
  </array>
  <array name="atomtypes" >
   <dimension dim="1">type</dimension>
   <field type="int">atomspertype</field>
   <field type="string">element</field>
   <field>mass</field>
   <field>valence</field>
   <field type="string">pseudopotential</field>
   <set>
    <rc><c>   6</c><c>Nb</c><c>     92.91000000</c><c>     13.00000000</c><c>  PAW_PBE Nb_sv 25May2007               </c></rc>
    <rc><c>   6</c><c>Mo</c><c>     95.94000000</c><c>      6.00000000</c><c>  PAW_PBE Mo 08Apr2002                  </c></rc>
    <rc><c>   5</c><c>Ta</c><c>    180.94800000</c><c>      5.00000000</c><c>  PAW_PBE Ta 17Jan2003                  </c></rc>
    <rc><c>   6</c><c>Ti</c><c>     47.88000000</c><c>      4.00000000</c><c>  PAW_PBE Ti 08Apr2002                  </c></rc>
    <rc><c>   6</c><c>V </c><c>     50.94100000</c><c>      5.00000000</c><c>  PAW_PBE V 08Apr2002                   </c></rc>
   </set>
  </array>
 </atominfo>
 <structure name="initialpos" >
  <crystal>
   <varray name="basis" >
    <v>      -3.16000000      -3.16000000      -3.16000000 </v>
    <v>       1.58000000       1.58000000      -7.90000000 </v>
    <v>       7.90000000      -7.90000000      -1.58000000 </v>
   </varray>
   <i name="volume">    473.31744000 </i>
   <varray name="rec_basis" >
    <v>      -0.13713080      -0.12658228      -0.05274262 </v>
    <v>       0.04219409       0.06329114      -0.10548523 </v>
    <v>       0.06329114      -0.06329114       0.00000000 </v>
   </varray>
  </crystal>
  <varray name="positions" >
   <v>       0.96666667       0.93333333       0.40000000 </v>
   <v>       0.63333333       0.26666667       0.40000000 </v>
   <v>       0.50000000       0.00000000       0.00000000 </v>
   <v>       0.00000000       0.00000000       0.00000000 </v>
   <v>       0.10000000       0.20000000       0.80000000 </v>
   <v>       0.03333333       0.06666667       0.60000000 </v>
   <v>       0.90000000       0.80000000       0.20000000 </v>
   <v>       0.80000000       0.60000000       0.40000000 </v>
   <v>       0.73333333       0.46666667       0.20000000 </v>
   <v>       0.66666667       0.33333333       0.00000000 </v>
   <v>       0.36666667       0.73333333       0.60000000 </v>
   <v>       0.13333333       0.26666667       0.40000000 </v>
   <v>       0.83333333       0.66666667       0.00000000 </v>
   <v>       0.93333333       0.86666667       0.80000000 </v>
   <v>       0.56666667       0.13333333       0.20000000 </v>
   <v>       0.40000000       0.80000000       0.20000000 </v>
   <v>       0.43333333       0.86666667       0.80000000 </v>
   <v>       0.86666667       0.73333333       0.60000000 </v>
   <v>       0.46666667       0.93333333       0.40000000 </v>
   <v>       0.16666667       0.33333333       0.00000000 </v>
   <v>       0.26666667       0.53333333       0.80000000 </v>
   <v>       0.20000000       0.40000000       0.60000000 </v>
   <v>       0.06666667       0.13333333       0.20000000 </v>
   <v>       0.76666667       0.53333333       0.80000000 </v>
   <v>       0.70000000       0.40000000       0.60000000 </v>
   <v>       0.60000000       0.20000000       0.80000000 </v>
   <v>       0.53333333       0.06666667       0.60000000 </v>
   <v>       0.33333333       0.66666667       0.00000000 </v>
   <v>       0.23333333       0.46666667       0.20000000 </v>
  </varray>
 </structure>
 <calculation>
  <scstep>
   <time name="dav">   42.59   42.67</time>
   <time name="total">   42.73   42.81</time>
   <energy>
    <i name="alphaZ">   1153.76813855 </i>
    <i name="ewald"> -11056.80494298 </i>
    <i name="hartreedc">   -109.77718403 </i>
    <i name="XCdc">   -916.42969293 </i>
    <i name="pawpsdc"> 522178.83443678 </i>
    <i name="pawaedc">-520943.07394942 </i>
    <i name="eentropy">      0.00232720 </i>
    <i name="bandstr">  -7235.73667123 </i>
    <i name="atom">  12875.17371654 </i>
    <i name="e_fr_energy">  -4054.04382154 </i>
    <i name="e_wo_entrp">  -4054.04614874 </i>
    <i name="e_0_energy">  -4054.04459727 </i>
   </energy>
  </scstep>
  <scstep>
   <time name="dav">   48.14   48.22</time>
   <time name="total">   48.15   48.22</time>
   <energy>
    <i name="e_fr_energy">  -9903.42647119 </i>
    <i name="e_wo_entrp">  -9903.42653546 </i>
    <i name="e_0_energy">  -9903.42649261 </i>
   </energy>
  </scstep>
  <scstep>
   <time name="dav">   56.02   56.11</time>
   <time name="total">   56.03   56.12</time>
   <energy>
    <i name="e_fr_energy"> -10833.29972833 </i>
    <i name="e_wo_entrp"> -10833.29916818 </i>
    <i name="e_0_energy"> -10833.29954161 </i>
   </energy>
  </scstep>
  <scstep>
   <time name="dav">   56.06   56.15</time>
   <time name="total">   56.06   56.16</time>
   <energy>
    <i name="e_fr_energy"> -11081.11757478 </i>
    <i name="e_wo_entrp"> -11081.11527469 </i>
    <i name="e_0_energy"> -11081.11680808 </i>
   </energy>
  </scstep>
  <scstep>
   <time name="dav">   56.08   56.18</time>
   <time name="total">   56.71   56.81</time>
   <energy>
    <i name="e_fr_energy"> -11232.23867595 </i>
    <i name="e_wo_entrp"> -11232.24085410 </i>
    <i name="e_0_energy"> -11232.23940200 </i>
   </energy>
  </scstep>
  <scstep>
   <time name="dav">   46.53   46.60</time>
   <time name="total">   47.29   47.37</time>
   <energy>
    <i name="e_fr_energy">  -1012.98777929 </i>
    <i name="e_wo_entrp">  -1012.98908785 </i>
    <i name="e_0_energy">  -1012.98821547 </i>
   </energy>
  </scstep>
  <scstep>
   <time name="dav">   50.07   50.15</time>
   <time name="total">   50.79   50.88</time>
   <energy>
    <i name="e_fr_energy">   -683.48533956 </i>
    <i name="e_wo_entrp">   -683.48412885 </i>
    <i name="e_0_energy">   -683.48493599 </i>
   </energy>
  </scstep>
  <scstep>
   <time name="dav">   51.12   51.27</time>
   <time name="total">   51.75   51.94</time>
   <energy>
    <i name="e_fr_energy">   -575.86183488 </i>
    <i name="e_wo_entrp">   -575.86878810 </i>
    <i name="e_0_energy">   -575.86415262 </i>
   </energy>
  </scstep>
  <scstep>
   <time name="dav">   51.34   51.42</time>
   <time name="total">   52.02   52.11</time>
   <energy>
    <i name="e_fr_energy">   -511.11582311 </i>
    <i name="e_wo_entrp">   -511.11429448 </i>
    <i name="e_0_energy">   -511.11531357 </i>
   </energy>
  </scstep>
  <scstep>
   <time name="dav">   55.97   56.05</time>
   <time name="total">   56.63   56.72</time>
   <energy>
    <i name="e_fr_energy">   -562.47702930 </i>
    <i name="e_wo_entrp">   -562.48230122 </i>
    <i name="e_0_energy">   -562.47878661 </i>
   </energy>
  </scstep>
  <scstep>
   <time name="dav">   51.55   51.62</time>
   <time name="total">   52.23   52.30</time>
   <energy>
    <i name="e_fr_energy">   -570.44825061 </i>
    <i name="e_wo_entrp">   -570.45994905 </i>
    <i name="e_0_energy">   -570.45215009 </i>
   </energy>
  </scstep>
  <scstep>
   <time name="dav">   51.34   51.41</time>
   <time name="total">   52.01   52.08</time>
   <energy>
    <i name="e_fr_energy">   -678.48601415 </i>
    <i name="e_wo_entrp">   -678.48078604 </i>
    <i name="e_0_energy">   -678.48427144 </i>
   </energy>
  </scstep>
  <scstep>
   <time name="dav">   51.30   51.37</time>
   <time name="total">   51.98   52.06</time>
   <energy>
    <i name="e_fr_energy">   -578.06516474 </i>
    <i name="e_wo_entrp">   -578.06780095 </i>
    <i name="e_0_energy">   -578.06604348 </i>
   </energy>
  </scstep>
  <scstep>
   <time name="dav">   49.85   49.92</time>
   <time name="total">   50.52   50.59</time>
   <energy>
    <i name="e_fr_energy">   -560.56350151 </i>
    <i name="e_wo_entrp">   -560.56597183 </i>
    <i name="e_0_energy">   -560.56432495 </i>
   </energy>
  </scstep>
  <scstep>
   <time name="dav">   49.98   50.05</time>
   <time name="total">   50.65   50.73</time>
   <energy>
    <i name="e_fr_energy">   -464.13588357 </i>
    <i name="e_wo_entrp">   -464.13220297 </i>
    <i name="e_0_energy">   -464.13465671 </i>
   </energy>
  </scstep>
  <scstep>
   <time name="dav">   49.01   49.07</time>
   <time name="total">   49.69   49.75</time>
   <energy>
    <i name="e_fr_energy">   -440.08172280 </i>
    <i name="e_wo_entrp">   -440.07169062 </i>
    <i name="e_0_energy">   -440.07837874 </i>
   </energy>
  </scstep>
  <scstep>
   <time name="dav">   51.95   52.02</time>
   <time name="total">   52.63   52.71</time>
   <energy>
    <i name="e_fr_energy">   -393.77097618 </i>
    <i name="e_wo_entrp">   -393.76012733 </i>
    <i name="e_0_energy">   -393.76735990 </i>
   </energy>
  </scstep>
  <scstep>
   <time name="dav">   53.77   53.84</time>
   <time name="total">   54.45   54.52</time>
   <energy>
    <i name="e_fr_energy">   -348.26386197 </i>
    <i name="e_wo_entrp">   -348.25996525 </i>
    <i name="e_0_energy">   -348.26256306 </i>
   </energy>
  </scstep>
  <scstep>
   <time name="dav">   51.80   51.87</time>
   <time name="total">   52.50   52.57</time>
   <energy>
    <i name="e_fr_energy">   -328.27818668 </i>
    <i name="e_wo_entrp">   -328.27679960 </i>
    <i name="e_0_energy">   -328.27772432 </i>
   </energy>
  </scstep>
  <scstep>
   <time name="dav">   51.87   51.93</time>
   <time name="total">   52.54   52.61</time>
   <energy>
    <i name="e_fr_energy">   -313.21314194 </i>
    <i name="e_wo_entrp">   -313.21819839 </i>
    <i name="e_0_energy">   -313.21482742 </i>
   </energy>
  </scstep>
  <scstep>
   <time name="dav">   51.09   51.21</time>
   <time name="total">   51.74   51.91</time>
   <energy>
    <i name="e_fr_energy">   -312.57911028 </i>
    <i name="e_wo_entrp">   -312.57673093 </i>
    <i name="e_0_energy">   -312.57831717 </i>
   </energy>
  </scstep>
  <scstep>
   <time name="dav">   46.80   46.86</time>
   <time name="total">   47.47   47.53</time>
   <energy>
    <i name="e_fr_energy">   -309.14614165 </i>
    <i name="e_wo_entrp">   -309.15353312 </i>
    <i name="e_0_energy">   -309.14860547 </i>
   </energy>
  </scstep>
  <scstep>
   <time name="dav">   48.81   48.87</time>
   <time name="total">   49.49   49.56</time>
   <energy>
    <i name="e_fr_energy">   -308.49015076 </i>
    <i name="e_wo_entrp">   -308.48578451 </i>
    <i name="e_0_energy">   -308.48869534 </i>
   </energy>
  </scstep>
  <scstep>
   <time name="dav">   51.98   52.05</time>
   <time name="total">   52.66   52.73</time>
   <energy>
    <i name="e_fr_energy">   -307.72163266 </i>
    <i name="e_wo_entrp">   -307.71031822 </i>
    <i name="e_0_energy">   -307.71786118 </i>
   </energy>
  </scstep>
  <scstep>
   <time name="dav">   52.11   52.17</time>
   <time name="total">   52.79   52.86</time>
   <energy>
    <i name="e_fr_energy">   -304.75595939 </i>
    <i name="e_wo_entrp">   -304.75365432 </i>
    <i name="e_0_energy">   -304.75519103 </i>
   </energy>
  </scstep>
  <scstep>
   <time name="dav">   50.11   50.17</time>
   <time name="total">   50.78   50.85</time>
   <energy>
    <i name="e_fr_energy">   -303.99774604 </i>
    <i name="e_wo_entrp">   -303.99861171 </i>
    <i name="e_0_energy">   -303.99803459 </i>
   </energy>
  </scstep>
  <scstep>
   <time name="dav">   49.67   49.74</time>
   <time name="total">   50.35   50.42</time>
   <energy>
    <i name="e_fr_energy">   -303.71237714 </i>
    <i name="e_wo_entrp">   -303.70361265 </i>
    <i name="e_0_energy">   -303.70945564 </i>
   </energy>
  </scstep>
  <scstep>
   <time name="dav">   47.21   47.27</time>
   <time name="total">   47.89   47.96</time>
   <energy>
    <i name="e_fr_energy">   -303.53897406 </i>
    <i name="e_wo_entrp">   -303.53833259 </i>
    <i name="e_0_energy">   -303.53876023 </i>
   </energy>
  </scstep>
  <scstep>
   <time name="dav">   51.71   51.78</time>
   <time name="total">   52.39   52.47</time>
   <energy>
    <i name="e_fr_energy">   -303.44936366 </i>
    <i name="e_wo_entrp">   -303.44688193 </i>
    <i name="e_0_energy">   -303.44853642 </i>
   </energy>
  </scstep>
  <scstep>
   <time name="dav">   50.30   50.37</time>
   <time name="total">   50.98   51.04</time>
   <energy>
    <i name="e_fr_energy">   -303.35072087 </i>
    <i name="e_wo_entrp">   -303.34545123 </i>
    <i name="e_0_energy">   -303.34896433 </i>
   </energy>
  </scstep>
  <scstep>
   <time name="dav">   51.36   51.42</time>
   <time name="total">   52.03   52.10</time>
   <energy>
    <i name="e_fr_energy">   -303.14330239 </i>
    <i name="e_wo_entrp">   -303.13819332 </i>
    <i name="e_0_energy">   -303.14159937 </i>
   </energy>
  </scstep>
  <scstep>
   <time name="dav">   51.81   51.88</time>
   <time name="total">   52.49   52.56</time>
   <energy>
    <i name="e_fr_energy">   -303.07891927 </i>
    <i name="e_wo_entrp">   -303.07182837 </i>
    <i name="e_0_energy">   -303.07655564 </i>
   </energy>
  </scstep>
  <scstep>
   <time name="dav">   48.48   48.54</time>
   <time name="total">   49.15   49.23</time>
   <energy>
    <i name="e_fr_energy">   -303.06290374 </i>
    <i name="e_wo_entrp">   -303.05671141 </i>
    <i name="e_0_energy">   -303.06083963 </i>
   </energy>
  </scstep>
  <scstep>
   <time name="dav">   50.45   50.51</time>
   <time name="total">   51.12   51.20</time>
   <energy>
    <i name="e_fr_energy">   -303.05814988 </i>
    <i name="e_wo_entrp">   -303.05118019 </i>
    <i name="e_0_energy">   -303.05582665 </i>
   </energy>
  </scstep>
  <scstep>
   <time name="dav">   49.62   49.68</time>
   <time name="total">   50.29   50.37</time>
   <energy>
    <i name="e_fr_energy">   -303.06663539 </i>
    <i name="e_wo_entrp">   -303.05977107 </i>
    <i name="e_0_energy">   -303.06434728 </i>
   </energy>
  </scstep>
  <scstep>
   <time name="dav">   51.73   51.80</time>
   <time name="total">   52.40   52.48</time>
   <energy>
    <i name="e_fr_energy">   -303.04557731 </i>
    <i name="e_wo_entrp">   -303.03843479 </i>
    <i name="e_0_energy">   -303.04319647 </i>
   </energy>
  </scstep>
  <scstep>
   <time name="dav">   50.08   50.15</time>
   <time name="total">   50.79   50.86</time>
   <energy>
    <i name="e_fr_energy">   -303.03292037 </i>
    <i name="e_wo_entrp">   -303.02607593 </i>
    <i name="e_0_energy">   -303.03063889 </i>
   </energy>
  </scstep>
  <scstep>
   <time name="dav">   49.90   49.96</time>
   <time name="total">   50.58   50.65</time>
   <energy>
    <i name="e_fr_energy">   -303.02788954 </i>
    <i name="e_wo_entrp">   -303.02045700 </i>
    <i name="e_0_energy">   -303.02541203 </i>
   </energy>
  </scstep>
  <scstep>
   <time name="dav">   48.86   48.92</time>
   <time name="total">   49.54   49.61</time>
   <energy>
    <i name="e_fr_energy">   -303.02255344 </i>
    <i name="e_wo_entrp">   -303.01513457 </i>
    <i name="e_0_energy">   -303.02008049 </i>
   </energy>
  </scstep>
  <scstep>
   <time name="dav">   46.22   46.28</time>
   <time name="total">   46.90   46.97</time>
   <energy>
    <i name="e_fr_energy">   -303.01297536 </i>
    <i name="e_wo_entrp">   -303.00532468 </i>
    <i name="e_0_energy">   -303.01042513 </i>
   </energy>
  </scstep>
  <scstep>
   <time name="dav">   47.59   47.67</time>
   <time name="total">   48.27   48.35</time>
   <energy>
    <i name="e_fr_energy">   -303.00322277 </i>
    <i name="e_wo_entrp">   -302.99530742 </i>
    <i name="e_0_energy">   -303.00058432 </i>
   </energy>
  </scstep>
  <scstep>
   <time name="dav">   49.52   49.60</time>
   <time name="total">   50.19   50.27</time>
   <energy>
    <i name="e_fr_energy">   -303.00056389 </i>
    <i name="e_wo_entrp">   -302.99255806 </i>
    <i name="e_0_energy">   -302.99789528 </i>
   </energy>
  </scstep>
  <scstep>
   <time name="dav">   28.75   28.79</time>
   <time name="total">   29.42   29.49</time>
   <energy>
    <i name="e_fr_energy">   -302.99967964 </i>
    <i name="e_wo_entrp">   -302.99164515 </i>
    <i name="e_0_energy">   -302.99700148 </i>
   </energy>
  </scstep>
  <scstep>
   <time name="dav">   45.11   45.17</time>
   <time name="total">   45.78   45.85</time>
   <energy>
    <i name="e_fr_energy">   -302.99583054 </i>
    <i name="e_wo_entrp">   -302.98756965 </i>
    <i name="e_0_energy">   -302.99307691 </i>
   </energy>
  </scstep>
  <scstep>
   <time name="dav">   53.76   53.84</time>
   <time name="total">   54.44   54.53</time>
   <energy>
    <i name="e_fr_energy">   -302.99499264 </i>
    <i name="e_wo_entrp">   -302.98656915 </i>
    <i name="e_0_energy">   -302.99218481 </i>
   </energy>
  </scstep>
  <scstep>
   <time name="dav">   45.43   45.49</time>
   <time name="total">   46.10   46.17</time>
   <energy>
    <i name="e_fr_energy">   -302.99414719 </i>
    <i name="e_wo_entrp">   -302.98573128 </i>
    <i name="e_0_energy">   -302.99134188 </i>
   </energy>
  </scstep>
  <scstep>
   <time name="dav">   36.54   36.59</time>
   <time name="total">   37.22   37.28</time>
   <energy>
    <i name="e_fr_energy">   -302.99388545 </i>
    <i name="e_wo_entrp">   -302.98535506 </i>
    <i name="e_0_energy">   -302.99104198 </i>
   </energy>
  </scstep>
  <scstep>
   <time name="dav">   36.13   36.18</time>
   <time name="total">   36.81   36.86</time>
   <energy>
    <i name="e_fr_energy">   -302.99377242 </i>
    <i name="e_wo_entrp">   -302.98518090 </i>
    <i name="e_0_energy">   -302.99090858 </i>
   </energy>
  </scstep>
  <scstep>
   <time name="dav">   25.90   25.94</time>
   <time name="total">   25.98   26.03</time>
   <energy>
    <i name="alphaZ">   1153.76813855 </i>
    <i name="ewald"> -11056.80494298 </i>
    <i name="hartreedc">  -3117.38890469 </i>
    <i name="XCdc">   -823.66737604 </i>
    <i name="pawpsdc">  18424.16615083 </i>
    <i name="pawaedc"> -16986.21842480 </i>
    <i name="eentropy">     -0.00857804 </i>
    <i name="bandstr">   -772.01353785 </i>
    <i name="atom">  12875.17371654 </i>
    <i name="e_fr_energy">   -302.99375848 </i>
    <i name="e_wo_entrp">   -302.98518044 </i>
    <i name="e_0_energy">   -302.99089914 </i>
   </energy>
  </scstep>
  <structure>
   <crystal>
    <varray name="basis" >
     <v>      -3.16000000      -3.16000000      -3.16000000 </v>
     <v>       1.58000000       1.58000000      -7.90000000 </v>
     <v>       7.90000000      -7.90000000      -1.58000000 </v>
    </varray>
    <i name="volume">    473.31744000 </i>
    <varray name="rec_basis" >
     <v>      -0.13713080      -0.12658228      -0.05274262 </v>
     <v>       0.04219409       0.06329114      -0.10548523 </v>
     <v>       0.06329114      -0.06329114       0.00000000 </v>
    </varray>
   </crystal>
   <varray name="positions" >
    <v>       0.96666667       0.93333333       0.40000000 </v>
    <v>       0.63333333       0.26666667       0.40000000 </v>
    <v>       0.50000000       0.00000000       0.00000000 </v>
    <v>       0.00000000       0.00000000       0.00000000 </v>
    <v>       0.10000000       0.20000000       0.80000000 </v>
    <v>       0.03333333       0.06666667       0.60000000 </v>
    <v>       0.90000000       0.80000000       0.20000000 </v>
    <v>       0.80000000       0.60000000       0.40000000 </v>
    <v>       0.73333333       0.46666667       0.20000000 </v>
    <v>       0.66666667       0.33333333       0.00000000 </v>
    <v>       0.36666667       0.73333333       0.60000000 </v>
    <v>       0.13333333       0.26666667       0.40000000 </v>
    <v>       0.83333333       0.66666667       0.00000000 </v>
    <v>       0.93333333       0.86666667       0.80000000 </v>
    <v>       0.56666667       0.13333333       0.20000000 </v>
    <v>       0.40000000       0.80000000       0.20000000 </v>
    <v>       0.43333333       0.86666667       0.80000000 </v>
    <v>       0.86666667       0.73333333       0.60000000 </v>
    <v>       0.46666667       0.93333333       0.40000000 </v>
    <v>       0.16666667       0.33333333       0.00000000 </v>
    <v>       0.26666667       0.53333333       0.80000000 </v>
    <v>       0.20000000       0.40000000       0.60000000 </v>
    <v>       0.06666667       0.13333333       0.20000000 </v>
    <v>       0.76666667       0.53333333       0.80000000 </v>
    <v>       0.70000000       0.40000000       0.60000000 </v>
    <v>       0.60000000       0.20000000       0.80000000 </v>
    <v>       0.53333333       0.06666667       0.60000000 </v>
    <v>       0.33333333       0.66666667       0.00000000 </v>
    <v>       0.23333333       0.46666667       0.20000000 </v>
   </varray>
  </structure>
  <varray name="forces" >
   <v>      -0.67126628      -0.21539237       1.27759440 </v>
   <v>       0.89566346       0.53654443      -0.82877224 </v>
   <v>      -0.23054453       0.62105411      -0.28849834 </v>
   <v>       0.20097162      -0.17898619      -0.05802136 </v>
   <v>       0.00560505       0.65212401      -0.61622893 </v>
   <v>      -0.33687439       0.40778579      -0.32720957 </v>
   <v>       0.13109840      -0.63376328       0.30400438 </v>
   <v>      -0.43417695      -0.24959364       0.60672698 </v>
   <v>      -0.09895044       0.12337295      -0.13007746 </v>
   <v>       0.27465637       0.62950290      -0.57761880 </v>
   <v>      -0.54887621      -0.30973298       0.42591436 </v>
   <v>       0.30784794       0.34395903      -0.49467726 </v>
   <v>       0.18025666      -0.62171860       0.52906886 </v>
   <v>       0.00835071       0.37533849       0.00895246 </v>
   <v>      -0.11167599       0.33808209      -0.13127680 </v>
   <v>      -0.17561466      -0.80279307       1.37927196 </v>
   <v>      -0.80534595      -0.21284663       0.62661872 </v>
   <v>       0.46529899       0.25290754       0.51699087 </v>
   <v>       0.48969839      -0.68714096      -0.29251397 </v>
   <v>      -0.10976623      -0.20560605      -0.43611186 </v>
   <v>      -0.49057449       0.07421493      -0.25799040 </v>
   <v>      -0.68150675       0.49432738       0.07668697 </v>
   <v>       0.77082218      -0.20884536      -0.86746219 </v>
   <v>      -0.00768560      -0.20737711       0.52698878 </v>
   <v>       0.44018010      -0.16221104      -0.56015795 </v>
   <v>       0.06613309       0.32898244      -0.17590538 </v>
   <v>       0.07171924      -0.30932448      -0.53168245 </v>
   <v>      -0.13517005      -0.34534465       0.56746661 </v>
   <v>       0.52972631       0.17248032      -0.27208038 </v>
  </varray>
  <varray name="stress" >
   <v>     -25.22354953      -0.89332127       1.42705486 </v>
   <v>      -0.89332117     -24.65700766       6.04408948 </v>
   <v>       1.42705474       6.04408945     -26.25014120 </v>
  </varray>
  <energy>
   <i name="e_fr_energy">   -302.99375848 </i>
   <i name="e_wo_entrp">   -302.99089914 </i>
   <i name="e_0_energy">     -0.00857804 </i>
  </energy>
  <time name="totalsc"> 2444.22 2448.15</time>
 </calculation>
 <calculation>
  <scstep>
   <time name="dav">   35.09   35.14</time>
   <time name="total">   35.76   35.81</time>
   <energy>
    <i name="alphaZ">   1198.04668712 </i>
    <i name="ewald"> -11295.83264724 </i>
    <i name="hartreedc">  -3062.83710828 </i>
    <i name="XCdc">   -818.96636375 </i>
    <i name="pawpsdc">  18428.08716517 </i>
    <i name="pawaedc"> -16990.15665461 </i>
    <i name="eentropy">     -0.00386171 </i>
    <i name="bandstr">   -637.97834168 </i>
    <i name="atom">  12875.17371654 </i>
    <i name="e_fr_energy">   -304.46740844 </i>
    <i name="e_wo_entrp">   -304.46354673 </i>
    <i name="e_0_energy">   -304.46612120 </i>
   </energy>
  </scstep>
  <scstep>
   <time name="dav">   52.51   52.57</time>
   <time name="total">   53.18   53.25</time>
   <energy>
    <i name="e_fr_energy">   -306.63969367 </i>
    <i name="e_wo_entrp">   -306.63856523 </i>
    <i name="e_0_energy">   -306.63931752 </i>
   </energy>
  </scstep>
  <scstep>
   <time name="dav">   51.67   51.73</time>
   <time name="total">   52.33   52.40</time>
   <energy>
    <i name="e_fr_energy">   -304.74774699 </i>
    <i name="e_wo_entrp">   -304.73860458 </i>
    <i name="e_0_energy">   -304.74469952 </i>
   </energy>
  </scstep>
  <scstep>
   <time name="dav">   50.32   50.38</time>
   <time name="total">   50.99   51.06</time>
   <energy>
    <i name="e_fr_energy">   -304.37682955 </i>
    <i name="e_wo_entrp">   -304.36598258 </i>
    <i name="e_0_energy">   -304.37321389 </i>
   </energy>
  </scstep>
  <scstep>
   <time name="dav">   49.12   49.18</time>
   <time name="total">   49.78   49.85</time>
   <energy>
    <i name="e_fr_energy">   -304.02078692 </i>
    <i name="e_wo_entrp">   -304.01705809 </i>
    <i name="e_0_energy">   -304.01954398 </i>
   </energy>
  </scstep>
  <scstep>
   <time name="dav">   49.66   49.72</time>
   <time name="total">   50.33   50.40</time>
   <energy>
    <i name="e_fr_energy">   -303.77454765 </i>
    <i name="e_wo_entrp">   -303.77008337 </i>
    <i name="e_0_energy">   -303.77305956 </i>
   </energy>
  </scstep>
  <scstep>
   <time name="dav">   53.96   54.03</time>
   <time name="total">   54.62   54.69</time>
   <energy>
    <i name="e_fr_energy">   -303.73251630 </i>
    <i name="e_wo_entrp">   -303.72432127 </i>
    <i name="e_0_energy">   -303.72978462 </i>
   </energy>
  </scstep>
  <scstep>
   <time name="dav">   52.98   53.05</time>
   <time name="total">   53.65   53.73</time>
   <energy>
    <i name="e_fr_energy">   -303.71448352 </i>
    <i name="e_wo_entrp">   -303.70524694 </i>
    <i name="e_0_energy">   -303.71140466 </i>
   </energy>
  </scstep>
  <scstep>
   <time name="dav">   50.04   50.11</time>
   <time name="total">   50.71   50.78</time>
   <energy>
    <i name="e_fr_energy">   -303.70725757 </i>
    <i name="e_wo_entrp">   -303.70111049 </i>
    <i name="e_0_energy">   -303.70520854 </i>
   </energy>
  </scstep>
  <scstep>
   <time name="dav">   50.06   50.13</time>
   <time name="total">   50.74   50.81</time>
   <energy>
    <i name="e_fr_energy">   -303.70229529 </i>
    <i name="e_wo_entrp">   -303.69483799 </i>
    <i name="e_0_energy">   -303.69980952 </i>
   </energy>
  </scstep>
  <scstep>
   <time name="dav">   50.98   51.05</time>
   <time name="total">   51.65   51.72</time>
   <energy>
    <i name="e_fr_energy">   -303.70741644 </i>
    <i name="e_wo_entrp">   -303.69934553 </i>
    <i name="e_0_energy">   -303.70472614 </i>
   </energy>
  </scstep>
  <scstep>
   <time name="dav">   50.82   50.89</time>
   <time name="total">   51.50   51.57</time>
   <energy>
    <i name="e_fr_energy">   -303.70783721 </i>
    <i name="e_wo_entrp">   -303.70122989 </i>
    <i name="e_0_energy">   -303.70563477 </i>
   </energy>
  </scstep>
  <scstep>
   <time name="dav">   53.69   53.76</time>
   <time name="total">   54.37   54.44</time>
   <energy>
    <i name="e_fr_energy">   -303.70744819 </i>
    <i name="e_wo_entrp">   -303.69992748 </i>
    <i name="e_0_energy">   -303.70494129 </i>
   </energy>
  </scstep>
  <scstep>
   <time name="dav">   54.60   54.67</time>
   <time name="total">   55.29   55.37</time>
   <energy>
    <i name="e_fr_energy">   -303.70747966 </i>
    <i name="e_wo_entrp">   -303.70048998 </i>
    <i name="e_0_energy">   -303.70514977 </i>
   </energy>
  </scstep>
  <scstep>
   <time name="dav">   45.99   46.05</time>
   <time name="total">   46.66   46.72</time>
   <energy>
    <i name="e_fr_energy">   -303.70709332 </i>
    <i name="e_wo_entrp">   -303.69975214 </i>
    <i name="e_0_energy">   -303.70464626 </i>
   </energy>
  </scstep>
  <scstep>
   <time name="dav">   43.13   43.18</time>
   <time name="total">   43.80   43.86</time>
   <energy>
    <i name="e_fr_energy">   -303.70686667 </i>
    <i name="e_wo_entrp">   -303.69957836 </i>
    <i name="e_0_energy">   -303.70443723 </i>
   </energy>
  </scstep>
  <scstep>
   <time name="dav">   29.16   29.20</time>
   <time name="total">   29.23   29.27</time>
   <energy>
    <i name="alphaZ">   1198.04668712 </i>
    <i name="ewald"> -11295.83264724 </i>
    <i name="hartreedc">  -2987.72230379 </i>
    <i name="XCdc">   -821.31667948 </i>
    <i name="pawpsdc">  19202.18455379 </i>
    <i name="pawaedc"> -17765.66165766 </i>
    <i name="eentropy">     -0.00727304 </i>
    <i name="bandstr">   -708.57126719 </i>
    <i name="atom">  12875.17371654 </i>
    <i name="e_fr_energy">   -303.70687094 </i>
    <i name="e_wo_entrp">   -303.69959790 </i>
    <i name="e_0_energy">   -303.70444659 </i>
   </energy>
  </scstep>
  <structure>
   <crystal>
    <varray name="basis" >
     <v>      -3.12165753      -3.12970746      -3.13083684 </v>
     <v>       1.55418026       1.53669492      -7.79228478 </v>
     <v>       7.80443182      -7.81243259      -1.57754245 </v>
    </varray>
    <i name="volume">    455.82412402 </i>
    <varray name="rec_basis" >
     <v>      -0.13887133      -0.12803748      -0.05294796 </v>
     <v>       0.04282837       0.06440850      -0.10708807 </v>
     <v>       0.06405697      -0.06403946       0.00014719 </v>
    </varray>
   </crystal>
   <varray name="positions" >
    <v>       0.96917203       0.92480773       0.39860807 </v>
    <v>       0.62624029       0.27434562       0.40109651 </v>
    <v>       0.49846668       0.00289513      -0.00260021 </v>
    <v>      -0.00008890       0.00015785       0.00116014 </v>
    <v>       0.09754858       0.20513848       0.79802596 </v>
    <v>       0.03390430       0.06889118       0.59772630 </v>
    <v>       0.90222937       0.79678472       0.20233538 </v>
    <v>       0.80285272       0.59526655       0.39943641 </v>
    <v>       0.73356552       0.46750390       0.19932117 </v>
    <v>       0.66247522       0.33875393      -0.00108346 </v>
    <v>       0.37110551       0.72910291       0.59926982 </v>
    <v>       0.13045498       0.27086089       0.39988974 </v>
    <v>       0.83459127       0.66244291       0.00244870 </v>
    <v>       0.93096324       0.86778414       0.79887946 </v>
    <v>       0.56567494       0.13480634       0.19862674 </v>
    <v>       0.40255470       0.79017237       0.20191498 </v>
    <v>       0.43836653       0.86118866       0.79819090 </v>
    <v>       0.86072858       0.73242177       0.60064850 </v>
    <v>       0.46836747       0.93372064       0.40359328 </v>
    <v>       0.16975806       0.33470144       0.00029263 </v>
    <v>       0.27011533       0.53387423       0.79827551 </v>
    <v>       0.20129473       0.39973185       0.59640979 </v>
    <v>       0.06504981       0.13867912       0.20299125 </v>
    <v>       0.76664300       0.53000271       0.80060972 </v>
    <v>       0.69950382       0.40325131       0.60183930 </v>
    <v>       0.59800109       0.20203427       0.79919743 </v>
    <v>       0.53610064       0.06857386       0.60116345 </v>
    <v>       0.33489257       0.66244930       0.00064173 </v>
    <v>       0.22946791       0.46965618       0.20109079 </v>
   </varray>
  </structure>
  <varray name="forces" >
   <v>      -0.49641950      -0.36646848       0.82029874 </v>
   <v>       0.69121644       0.44804471      -0.57903766 </v>
   <v>      -0.13458977       0.25722151       0.00670730 </v>
   <v>       0.08519225      -0.11644299      -0.13327082 </v>
   <v>      -0.08648517       0.35904043      -0.35308460 </v>
   <v>      -0.26085271       0.31451038      -0.14347303 </v>
   <v>      -0.02453597      -0.31234139       0.25723160 </v>
   <v>      -0.10368138      -0.24423530       0.27776847 </v>
   <v>       0.01632829      -0.07791634       0.18440061 </v>
   <v>       0.08152106       0.48504597      -0.29622859 </v>
   <v>      -0.56119216      -0.09117113       0.54924307 </v>
   <v>       0.18733225       0.21879716      -0.30591519 </v>
   <v>       0.08614125      -0.23419745       0.03942403 </v>
   <v>      -0.02606431       0.21127955      -0.05665488 </v>
   <v>       0.07943719       0.09325786      -0.11857066 </v>
   <v>       0.20903672      -0.56369513       0.69852096 </v>
   <v>      -0.24144029       0.01204311       0.32485678 </v>
   <v>       0.29652320       0.13477157       0.36565705 </v>
   <v>       0.26440552      -0.45239683      -0.11717849 </v>
   <v>      -0.14678652      -0.12048458      -0.31362927 </v>
   <v>      -0.44204241       0.05122516      -0.12086721 </v>
   <v>      -0.63063341       0.49927229      -0.17073847 </v>
   <v>       0.53194219      -0.19751765      -0.43671571 </v>
   <v>      -0.02211787      -0.11255948       0.42550361 </v>
   <v>       0.45107744      -0.13367007      -0.36629916 </v>
   <v>      -0.08935179       0.38851568      -0.20568477 </v>
   <v>       0.04491848      -0.22462480      -0.43622722 </v>
   <v>      -0.16209022      -0.23870114       0.49951285 </v>
   <v>       0.40321121       0.01339737      -0.29554934 </v>
  </varray>
  <varray name="stress" >
   <v>      42.13248313      -0.58858526       1.04309972 </v>
   <v>      -0.58858526      39.68270893       5.14282827 </v>
   <v>       1.04309971       5.14282830      40.65479492 </v>
  </varray>
  <energy>
   <i name="e_fr_energy">   -303.70687094 </i>
   <i name="e_wo_entrp">   -303.70444659 </i>
   <i name="e_0_energy">     -0.00727304 </i>
  </energy>
  <time name="totalsc">  854.20  855.39</time>
 </calculation>
 <calculation>
  <scstep>
   <time name="dav">   36.24   36.37</time>
   <time name="total">   36.88   37.05</time>
   <energy>
    <i name="alphaZ">   1204.65171298 </i>
    <i name="ewald"> -11329.81616262 </i>
    <i name="hartreedc">  -2980.68998613 </i>
    <i name="XCdc">   -820.62959204 </i>
    <i name="pawpsdc">  19201.65082576 </i>
    <i name="pawaedc"> -17765.04503227 </i>
    <i name="eentropy">     -0.00631184 </i>
    <i name="bandstr">   -689.01327556 </i>
    <i name="atom">  12875.17371654 </i>
    <i name="e_fr_energy">   -303.72410518 </i>
    <i name="e_wo_entrp">   -303.71779334 </i>
    <i name="e_0_energy">   -303.72200124 </i>
   </energy>
  </scstep>
  <scstep>
   <time name="dav">   51.80   51.87</time>
   <time name="total">   52.48   52.55</time>
   <energy>
    <i name="e_fr_energy">   -303.77655841 </i>
    <i name="e_wo_entrp">   -303.77054609 </i>
    <i name="e_0_energy">   -303.77455430 </i>
   </energy>
  </scstep>
  <scstep>
   <time name="dav">   51.38   51.45</time>
   <time name="total">   52.06   52.14</time>
   <energy>
    <i name="e_fr_energy">   -303.74166154 </i>
    <i name="e_wo_entrp">   -303.73435778 </i>
    <i name="e_0_energy">   -303.73922695 </i>
   </energy>
  </scstep>
  <scstep>
   <time name="dav">   49.59   49.65</time>
   <time name="total">   50.25   50.32</time>
   <energy>
    <i name="e_fr_energy">   -303.73301447 </i>
    <i name="e_wo_entrp">   -303.72576904 </i>
    <i name="e_0_energy">   -303.73059932 </i>
   </energy>
  </scstep>
  <scstep>
   <time name="dav">   48.87   48.93</time>
   <time name="total">   49.54   49.61</time>
   <energy>
    <i name="e_fr_energy">   -303.72360291 </i>
    <i name="e_wo_entrp">   -303.71720730 </i>
    <i name="e_0_energy">   -303.72147104 </i>
   </energy>
  </scstep>
  <scstep>
   <time name="dav">   50.10   50.17</time>
   <time name="total">   50.77   50.84</time>
   <energy>
    <i name="e_fr_energy">   -303.71929397 </i>
    <i name="e_wo_entrp">   -303.71299758 </i>
    <i name="e_0_energy">   -303.71719517 </i>
   </energy>
  </scstep>
  <scstep>
   <time name="dav">   52.19   52.31</time>
   <time name="total">   52.86   52.99</time>
   <energy>
    <i name="e_fr_energy">   -303.71863955 </i>
    <i name="e_wo_entrp">   -303.71158259 </i>
    <i name="e_0_energy">   -303.71628723 </i>
   </energy>
  </scstep>
  <scstep>
   <time name="dav">   48.38   48.49</time>
   <time name="total">   49.06   49.18</time>
   <energy>
    <i name="e_fr_energy">   -303.71793582 </i>
    <i name="e_wo_entrp">   -303.71093761 </i>
    <i name="e_0_energy">   -303.71560308 </i>
   </energy>
  </scstep>
  <scstep>
   <time name="dav">   45.27   45.37</time>
   <time name="total">   45.96   46.08</time>
   <energy>
    <i name="e_fr_energy">   -303.71757575 </i>
    <i name="e_wo_entrp">   -303.71078523 </i>
    <i name="e_0_energy">   -303.71531224 </i>
   </energy>
  </scstep>
  <scstep>
   <time name="dav">   45.05   45.15</time>
   <time name="total">   45.73   45.83</time>
   <energy>
    <i name="e_fr_energy">   -303.71744451 </i>
    <i name="e_wo_entrp">   -303.71073837 </i>
    <i name="e_0_energy">   -303.71520913 </i>
   </energy>
  </scstep>
  <scstep>
   <time name="dav">   38.40   38.49</time>
   <time name="total">   39.08   39.18</time>
   <energy>
    <i name="e_fr_energy">   -303.71755168 </i>
    <i name="e_wo_entrp">   -303.71062368 </i>
    <i name="e_0_energy">   -303.71524235 </i>
   </energy>
  </scstep>
  <scstep>
   <time name="dav">   40.46   40.55</time>
   <time name="total">   41.14   41.24</time>
   <energy>
    <i name="e_fr_energy">   -303.71758648 </i>
    <i name="e_wo_entrp">   -303.71089308 </i>
    <i name="e_0_energy">   -303.71535535 </i>
   </energy>
  </scstep>
  <scstep>
   <time name="dav">   31.92   31.99</time>
   <time name="total">   32.00   32.08</time>
   <energy>
    <i name="alphaZ">   1204.65171298 </i>
    <i name="ewald"> -11329.81616262 </i>
    <i name="hartreedc">  -2970.16937667 </i>
    <i name="XCdc">   -820.95970925 </i>
    <i name="pawpsdc">  19323.59331395 </i>
    <i name="pawaedc"> -17887.14904792 </i>
    <i name="eentropy">     -0.00678857 </i>
    <i name="bandstr">   -699.03524146 </i>
    <i name="atom">  12875.17371654 </i>
    <i name="e_fr_energy">   -303.71758304 </i>
    <i name="e_wo_entrp">   -303.71079446 </i>
    <i name="e_0_energy">   -303.71532018 </i>
   </energy>
  </scstep>
  <structure>
   <crystal>
    <varray name="basis" >
     <v>      -3.11610161      -3.12531799      -3.12661102 </v>
     <v>       1.55043891       1.53041990      -7.77667656 </v>
     <v>       7.79058374      -7.79974384      -1.57718635 </v>
    </varray>
    <i name="volume">    453.32487042 </i>
    <varray name="rec_basis" >
     <v>      -0.13912725      -0.12825133      -0.05297722 </v>
     <v>       0.04292188       0.06457355      -0.10732446 </v>
     <v>       0.06416947      -0.06414943       0.00016913 </v>
    </varray>
   </crystal>
   <varray name="positions" >
    <v>       0.96954359       0.92355338       0.39840522 </v>
    <v>       0.62519732       0.27547577       0.40125653 </v>
    <v>       0.49824140       0.00332171      -0.00298177 </v>
    <v>      -0.00010232       0.00018086       0.00133020 </v>
    <v>       0.09718754       0.20589508       0.79773590 </v>
    <v>       0.03398745       0.06921888       0.59739257 </v>
    <v>       0.90255683       0.79631105       0.20267811 </v>
    <v>       0.80327304       0.59456999       0.39935435 </v>
    <v>       0.73359930       0.46762720       0.19922150 </v>
    <v>       0.66185895       0.33955199      -0.00124288 </v>
    <v>       0.37175793       0.72848029       0.59916313 </v>
    <v>       0.13003137       0.27147824       0.39987310 </v>
    <v>       0.83477692       0.66182089       0.00280828 </v>
    <v>       0.93061588       0.86794894       0.79871519 </v>
    <v>       0.56552934       0.13502340       0.19842525 </v>
    <v>       0.40293320       0.78872582       0.20219715 </v>
    <v>       0.43910691       0.86038263       0.79792621 </v>
    <v>       0.85985916       0.73228793       0.60074417 </v>
    <v>       0.46861537       0.93377684       0.40411987 </v>
    <v>       0.17021007       0.33490247       0.00033507 </v>
    <v>       0.27062063       0.53395390       0.79802235 </v>
    <v>       0.20148549       0.39969297       0.59588340 </v>
    <v>       0.06480952       0.13946525       0.20342902 </v>
    <v>       0.76664102       0.52951253       0.80069966 </v>
    <v>       0.69942902       0.40372939       0.60210845 </v>
    <v>       0.59770754       0.20233388       0.79907959 </v>
    <v>       0.53650467       0.06885408       0.60133350 </v>
    <v>       0.33512285       0.66182853       0.00073639 </v>
    <v>       0.22889999       0.47009612       0.20125050 </v>
   </varray>
  </structure>
  <varray name="forces" >
   <v>      -0.46958961      -0.40106330       0.74732418 </v>
   <v>       0.66581503       0.43990955      -0.54247529 </v>
   <v>      -0.12768138       0.20624003       0.04777059 </v>
   <v>       0.07198813      -0.10791919      -0.14233077 </v>
   <v>      -0.10595634       0.31317606      -0.31219133 </v>
   <v>      -0.24478182       0.29369395      -0.11153054 </v>
   <v>      -0.04959528      -0.24911027       0.24968989 </v>
   <v>      -0.03789166      -0.23972261       0.21666534 </v>
   <v>       0.02914008      -0.11327410       0.24060077 </v>
   <v>       0.04854960       0.45514151      -0.24171423 </v>
   <v>      -0.55921868      -0.05499648       0.56567506 </v>
   <v>       0.15446014       0.18782027      -0.26644955 </v>
   <v>       0.07291662      -0.18025858      -0.04157976 </v>
   <v>      -0.03345798       0.18965581      -0.06514112 </v>
   <v>       0.11576531       0.04772099      -0.12019566 </v>
   <v>       0.29023727      -0.52635002       0.57615512 </v>
   <v>      -0.16117570       0.04877585       0.26975776 </v>
   <v>       0.25740166       0.11569195       0.34573615 </v>
   <v>       0.22205716      -0.40854308      -0.08313060 </v>
   <v>      -0.14446656      -0.09895800      -0.29745383 </v>
   <v>      -0.43125294       0.05044136      -0.09447067 </v>
   <v>      -0.61645446       0.49895301      -0.21313771 </v>
   <v>       0.48831957      -0.19382149      -0.36772997 </v>
   <v>      -0.02667446      -0.09397125       0.40549092 </v>
   <v>       0.44827187      -0.13036080      -0.32907285 </v>
   <v>      -0.11834776       0.39990341      -0.21169299 </v>
   <v>       0.04719769      -0.21149477      -0.42042459 </v>
   <v>      -0.16060583      -0.21982749       0.48724208 </v>
   <v>       0.37503033      -0.01745231      -0.29138642 </v>
  </varray>
  <varray name="stress" >
   <v>      52.54473302      -0.57097271       1.10970921 </v>
   <v>      -0.57097277      49.62001648       5.10403203 </v>
   <v>       1.10970928       5.10403214      50.89098411 </v>
  </varray>
  <energy>
   <i name="e_fr_energy">   -303.71758304 </i>
   <i name="e_wo_entrp">   -303.71532018 </i>
   <i name="e_0_energy">     -0.00678857 </i>
  </energy>
  <time name="totalsc">  618.34  619.66</time>
 </calculation>
 <calculation>
  <scstep>
   <time name="dav">   34.72   34.80</time>
   <time name="total">   35.41   35.50</time>
   <energy>
    <i name="alphaZ">   1190.38542104 </i>
    <i name="ewald"> -11347.34472651 </i>
    <i name="hartreedc">  -2898.69696993 </i>
    <i name="XCdc">   -822.73118565 </i>
    <i name="pawpsdc">  19323.35735517 </i>
    <i name="pawaedc"> -17886.90352046 </i>
    <i name="eentropy">     -0.00344054 </i>
    <i name="bandstr">   -737.13355360 </i>
    <i name="atom">  12875.17371654 </i>
    <i name="e_fr_energy">   -303.89690393 </i>
    <i name="e_wo_entrp">   -303.89346339 </i>
    <i name="e_0_energy">   -303.89575708 </i>
   </energy>
  </scstep>
  <scstep>
   <time name="dav">   49.69   49.75</time>
   <time name="total">   50.38   50.46</time>
   <energy>
    <i name="e_fr_energy">   -304.84508418 </i>
    <i name="e_wo_entrp">   -304.83484411 </i>
    <i name="e_0_energy">   -304.84167082 </i>
   </energy>
  </scstep>
  <scstep>
   <time name="dav">   52.66   52.73</time>
   <time name="total">   53.34   53.41</time>
   <energy>
    <i name="e_fr_energy">   -304.26326478 </i>
    <i name="e_wo_entrp">   -304.26038899 </i>
    <i name="e_0_energy">   -304.26230618 </i>
   </energy>
  </scstep>
  <scstep>
   <time name="dav">   49.50   49.56</time>
   <time name="total">   50.18   50.25</time>
   <energy>
    <i name="e_fr_energy">   -304.24983365 </i>
    <i name="e_wo_entrp">   -304.24672144 </i>
    <i name="e_0_energy">   -304.24879624 </i>
   </energy>
  </scstep>
  <scstep>
   <time name="dav">   48.88   48.95</time>
   <time name="total">   49.56   49.63</time>
   <energy>
    <i name="e_fr_energy">   -304.18138285 </i>
    <i name="e_wo_entrp">   -304.17839658 </i>
    <i name="e_0_energy">   -304.18038743 </i>
   </energy>
  </scstep>
  <scstep>
   <time name="dav">   49.87   49.93</time>
   <time name="total">   50.55   50.62</time>
   <energy>
    <i name="e_fr_energy">   -304.16634286 </i>
    <i name="e_wo_entrp">   -304.16267185 </i>
    <i name="e_0_energy">   -304.16511919 </i>
   </energy>
  </scstep>
  <scstep>
   <time name="dav">   50.08   50.15</time>
   <time name="total">   50.76   50.83</time>
   <energy>
    <i name="e_fr_energy">   -304.16483765 </i>
    <i name="e_wo_entrp">   -304.16151449 </i>
[...]
       <r>    4.7754    1.0000 </r>
       <r>    4.8021    1.0000 </r>
       <r>    4.8634    1.0000 </r>
       <r>    4.9589    1.0000 </r>
       <r>    5.0193    1.0000 </r>
       <r>    5.0744    1.0000 </r>
       <r>    5.1199    1.0000 </r>
       <r>    5.2028    1.0000 </r>
       <r>    5.2355    1.0000 </r>
       <r>    5.3369    1.0000 </r>
       <r>    5.3586    1.0000 </r>
       <r>    5.3922    1.0000 </r>
       <r>    5.4610    1.0000 </r>
       <r>    5.5148    1.0000 </r>
       <r>    5.5455    1.0000 </r>
       <r>    5.6072    1.0000 </r>
       <r>    5.6362    1.0000 </r>
       <r>    5.7445    1.0000 </r>
       <r>    5.8032    1.0000 </r>
       <r>    5.8366    1.0000 </r>
       <r>    5.8686    1.0000 </r>
       <r>    5.9152    1.0000 </r>
       <r>    6.0047    1.0000 </r>
       <r>    6.0508    1.0000 </r>
       <r>    6.0696    1.0001 </r>
       <r>    6.1586    1.0007 </r>
       <r>    6.2292    1.0031 </r>
       <r>    6.2710    1.0066 </r>
       <r>    6.3095    1.0120 </r>
       <r>    6.3394    1.0178 </r>
       <r>    6.3929    1.0299 </r>
       <r>    6.4362    1.0354 </r>
       <r>    6.4851    1.0238 </r>
       <r>    6.5038    1.0105 </r>
       <r>    6.5470    0.9521 </r>
       <r>    6.6127    0.7772 </r>
       <r>    6.6767    0.5253 </r>
       <r>    6.7417    0.2619 </r>
       <r>    6.8586   -0.0077 </r>
       <r>    6.8966   -0.0309 </r>
       <r>    7.0311   -0.0168 </r>
       <r>    7.0734   -0.0093 </r>
       <r>    7.2087   -0.0006 </r>
       <r>    7.2476   -0.0002 </r>
       <r>    7.3348   -0.0000 </r>
       <r>    7.4436   -0.0000 </r>
       <r>    7.4901   -0.0000 </r>
       <r>    7.5731   -0.0000 </r>
       <r>    7.6159   -0.0000 </r>
       <r>    7.8455   -0.0000 </r>
       <r>    7.9283   -0.0000 </r>
       <r>    7.9592   -0.0000 </r>
       <r>    8.1116   -0.0000 </r>
       <r>    8.1765   -0.0000 </r>
       <r>    8.2419   -0.0000 </r>
       <r>    8.3782   -0.0000 </r>
       <r>    8.5256   -0.0000 </r>
       <r>    8.5917   -0.0000 </r>
       <r>    8.6269   -0.0000 </r>
       <r>    8.6675   -0.0000 </r>
       <r>    8.7474   -0.0000 </r>
      </set>
     </set>
    </set>
   </array>
  </eigenvalues>
  <separator name="orbital magnetization" >
   <v name="MAGDIPOLOUT">      0.00000000      0.00000000      0.00000000</v>
  </separator>
  <dos>
   <i name="efermi">      6.68269958 </i>
   <total>
    <array>
     <dimension dim="1">gridpoints</dimension>
     <dimension dim="2">spin</dimension>
     <field>energy</field>
     <field>total</field>
     <field>integrated</field>
     <set>
      <set comment="spin 1">
       <r>   -50.4201     0.0000     0.0000 </r>
       <r>   -50.2132     0.0000     0.0000 </r>
       <r>   -50.0063     0.0000     0.0000 </r>
       <r>   -49.7993     0.0000     0.0000 </r>
       <r>   -49.5924     0.0000     0.0000 </r>
       <r>   -49.3855    -0.0000    -0.0000 </r>
       <r>   -49.1785    -0.0000    -0.0000 </r>
       <r>   -48.9716    -0.0000    -0.0000 </r>
       <r>   -48.7646    -0.0000    -0.0000 </r>
       <r>   -48.5577    -0.0000    -0.0000 </r>
       <r>   -48.3508    -0.0000    -0.0000 </r>
       <r>   -48.1438    -0.0046    -0.0009 </r>
       <r>   -47.9369    -0.2632    -0.0554 </r>
       <r>   -47.7300     0.2245    -0.0090 </r>
       <r>   -47.5230    13.6240     2.8104 </r>
       <r>   -47.3161    25.1165     8.0079 </r>
       <r>   -47.1091    15.0948    11.1316 </r>
       <r>   -46.9022     4.5478    12.0727 </r>
       <r>   -46.6953    -0.2815    12.0145 </r>
       <r>   -46.4883    -0.0693    12.0001 </r>
       <r>   -46.2814    -0.0006    12.0000 </r>
       <r>   -46.0745    -0.0000    12.0000 </r>
       <r>   -45.8675    -0.0000    12.0000 </r>
       <r>   -45.6606     0.0000    12.0000 </r>
       <r>   -45.4536     0.0000    12.0000 </r>
       <r>   -45.2467     0.0000    12.0000 </r>
       <r>   -45.0398     0.0000    12.0000 </r>
       <r>   -44.8328     0.0000    12.0000 </r>
       <r>   -44.6259     0.0000    12.0000 </r>
       <r>   -44.4190     0.0000    12.0000 </r>
       <r>   -44.2120     0.0000    12.0000 </r>
       <r>   -44.0051     0.0000    12.0000 </r>
       <r>   -43.7981     0.0000    12.0000 </r>
       <r>   -43.5912     0.0000    12.0000 </r>
       <r>   -43.3843     0.0000    12.0000 </r>
       <r>   -43.1773     0.0000    12.0000 </r>
       <r>   -42.9704     0.0000    12.0000 </r>
       <r>   -42.7635     0.0000    12.0000 </r>
       <r>   -42.5565     0.0000    12.0000 </r>
       <r>   -42.3496     0.0000    12.0000 </r>
       <r>   -42.1426     0.0000    12.0000 </r>
       <r>   -41.9357     0.0000    12.0000 </r>
       <r>   -41.7288     0.0000    12.0000 </r>
       <r>   -41.5218     0.0000    12.0000 </r>
       <r>   -41.3149     0.0000    12.0000 </r>
       <r>   -41.1080     0.0000    12.0000 </r>
       <r>   -40.9010     0.0000    12.0000 </r>
       <r>   -40.6941     0.0000    12.0000 </r>
       <r>   -40.4871     0.0000    12.0000 </r>
       <r>   -40.2802     0.0000    12.0000 </r>
       <r>   -40.0733     0.0000    12.0000 </r>
       <r>   -39.8663     0.0000    12.0000 </r>
       <r>   -39.6594     0.0000    12.0000 </r>
       <r>   -39.4525     0.0000    12.0000 </r>
       <r>   -39.2455     0.0000    12.0000 </r>
       <r>   -39.0386     0.0000    12.0000 </r>
       <r>   -38.8316     0.0000    12.0000 </r>
       <r>   -38.6247     0.0000    12.0000 </r>
       <r>   -38.4178     0.0000    12.0000 </r>
       <r>   -38.2108     0.0000    12.0000 </r>
       <r>   -38.0039     0.0000    12.0000 </r>
       <r>   -37.7970     0.0000    12.0000 </r>
       <r>   -37.5900     0.0000    12.0000 </r>
       <r>   -37.3831     0.0000    12.0000 </r>
       <r>   -37.1761     0.0000    12.0000 </r>
       <r>   -36.9692     0.0000    12.0000 </r>
       <r>   -36.7623     0.0000    12.0000 </r>
       <r>   -36.5553     0.0000    12.0000 </r>
       <r>   -36.3484     0.0000    12.0000 </r>
       <r>   -36.1414     0.0000    12.0000 </r>
       <r>   -35.9345     0.0000    12.0000 </r>
       <r>   -35.7276     0.0000    12.0000 </r>
       <r>   -35.5206     0.0000    12.0000 </r>
       <r>   -35.3137     0.0000    12.0000 </r>
       <r>   -35.1068     0.0000    12.0000 </r>
       <r>   -34.8998     0.0000    12.0000 </r>
       <r>   -34.6929     0.0000    12.0000 </r>
       <r>   -34.4859     0.0000    12.0000 </r>
       <r>   -34.2790     0.0000    12.0000 </r>
       <r>   -34.0721     0.0000    12.0000 </r>
       <r>   -33.8651     0.0000    12.0000 </r>
       <r>   -33.6582     0.0000    12.0000 </r>
       <r>   -33.4513     0.0000    12.0000 </r>
       <r>   -33.2443     0.0000    12.0000 </r>
       <r>   -33.0374     0.0000    12.0000 </r>
       <r>   -32.8304     0.0000    12.0000 </r>
       <r>   -32.6235     0.0000    12.0000 </r>
       <r>   -32.4166     0.0000    12.0000 </r>
       <r>   -32.2096     0.0000    12.0000 </r>
       <r>   -32.0027     0.0000    12.0000 </r>
       <r>   -31.7958     0.0000    12.0000 </r>
       <r>   -31.5888     0.0000    12.0000 </r>
       <r>   -31.3819     0.0000    12.0000 </r>
       <r>   -31.1749     0.0000    12.0000 </r>
       <r>   -30.9680     0.0000    12.0000 </r>
       <r>   -30.7611     0.0000    12.0000 </r>
       <r>   -30.5541     0.0000    12.0000 </r>
       <r>   -30.3472     0.0000    12.0000 </r>
       <r>   -30.1403     0.0000    12.0000 </r>
       <r>   -29.9333     0.0000    12.0000 </r>
       <r>   -29.7264     0.0000    12.0000 </r>
       <r>   -29.5194     0.0000    12.0000 </r>
       <r>   -29.3125     0.0000    12.0000 </r>
       <r>   -29.1056     0.0000    12.0000 </r>
       <r>   -28.8986     0.0000    12.0000 </r>
       <r>   -28.6917     0.0000    12.0000 </r>
       <r>   -28.4848     0.0000    12.0000 </r>
       <r>   -28.2778     0.0000    12.0000 </r>
       <r>   -28.0709     0.0000    12.0000 </r>
       <r>   -27.8639     0.0000    12.0000 </r>
       <r>   -27.6570     0.0000    12.0000 </r>
       <r>   -27.4501     0.0000    12.0000 </r>
       <r>   -27.2431     0.0000    12.0000 </r>
       <r>   -27.0362     0.0000    12.0000 </r>
       <r>   -26.8293     0.0000    12.0000 </r>
       <r>   -26.6223     0.0000    12.0000 </r>
       <r>   -26.4154     0.0000    12.0000 </r>
       <r>   -26.2084     0.0000    12.0000 </r>
       <r>   -26.0015     0.0000    12.0000 </r>
       <r>   -25.7946    -0.0000    12.0000 </r>
       <r>   -25.5876    -0.0000    12.0000 </r>
       <r>   -25.3807    -0.0000    12.0000 </r>
       <r>   -25.1738    -0.0000    12.0000 </r>
       <r>   -24.9668    -0.0000    12.0000 </r>
       <r>   -24.7599    -0.0000    12.0000 </r>
       <r>   -24.5529    -0.0061    11.9987 </r>
       <r>   -24.3460    -0.2405    11.9490 </r>
       <r>   -24.1391     0.3659    12.0247 </r>
       <r>   -23.9321     9.8143    14.0556 </r>
       <r>   -23.7252    35.3534    21.3716 </r>
       <r>   -23.5183    57.1247    33.1928 </r>
       <r>   -23.3113    38.1528    41.0881 </r>
       <r>   -23.1044    24.4593    46.1496 </r>
       <r>   -22.8974     6.2596    47.4450 </r>
       <r>   -22.6905     2.5477    47.9722 </r>
       <r>   -22.4836     0.2089    48.0154 </r>
       <r>   -22.2766    -0.0728    48.0004 </r>
       <r>   -22.0697    -0.0018    48.0000 </r>
       <r>   -21.8628    -0.0000    48.0000 </r>
       <r>   -21.6558    -0.0000    48.0000 </r>
       <r>   -21.4489    -0.0000    48.0000 </r>
       <r>   -21.2419     0.0000    48.0000 </r>
       <r>   -21.0350     0.0000    48.0000 </r>
       <r>   -20.8281     0.0000    48.0000 </r>
       <r>   -20.6211     0.0000    48.0000 </r>
       <r>   -20.4142     0.0000    48.0000 </r>
       <r>   -20.2073     0.0000    48.0000 </r>
       <r>   -20.0003     0.0000    48.0000 </r>
       <r>   -19.7934     0.0000    48.0000 </r>
       <r>   -19.5864     0.0000    48.0000 </r>
       <r>   -19.3795     0.0000    48.0000 </r>
       <r>   -19.1726     0.0000    48.0000 </r>
       <r>   -18.9656     0.0000    48.0000 </r>
       <r>   -18.7587     0.0000    48.0000 </r>
       <r>   -18.5518     0.0000    48.0000 </r>
       <r>   -18.3448     0.0000    48.0000 </r>
       <r>   -18.1379     0.0000    48.0000 </r>
       <r>   -17.9309     0.0000    48.0000 </r>
       <r>   -17.7240     0.0000    48.0000 </r>
       <r>   -17.5171     0.0000    48.0000 </r>
       <r>   -17.3101     0.0000    48.0000 </r>
       <r>   -17.1032     0.0000    48.0000 </r>
       <r>   -16.8962     0.0000    48.0000 </r>
       <r>   -16.6893     0.0000    48.0000 </r>
       <r>   -16.4824     0.0000    48.0000 </r>
       <r>   -16.2754     0.0000    48.0000 </r>
       <r>   -16.0685     0.0000    48.0000 </r>
       <r>   -15.8616     0.0000    48.0000 </r>
       <r>   -15.6546     0.0000    48.0000 </r>
       <r>   -15.4477     0.0000    48.0000 </r>
       <r>   -15.2407     0.0000    48.0000 </r>
       <r>   -15.0338     0.0000    48.0000 </r>
       <r>   -14.8269     0.0000    48.0000 </r>
       <r>   -14.6199     0.0000    48.0000 </r>
       <r>   -14.4130     0.0000    48.0000 </r>
       <r>   -14.2061     0.0000    48.0000 </r>
       <r>   -13.9991     0.0000    48.0000 </r>
       <r>   -13.7922     0.0000    48.0000 </r>
       <r>   -13.5852     0.0000    48.0000 </r>
       <r>   -13.3783     0.0000    48.0000 </r>
       <r>   -13.1714     0.0000    48.0000 </r>
       <r>   -12.9644     0.0000    48.0000 </r>
       <r>   -12.7575     0.0000    48.0000 </r>
       <r>   -12.5506     0.0000    48.0000 </r>
       <r>   -12.3436     0.0000    48.0000 </r>
       <r>   -12.1367     0.0000    48.0000 </r>
       <r>   -11.9297     0.0000    48.0000 </r>
       <r>   -11.7228     0.0000    48.0000 </r>
       <r>   -11.5159     0.0000    48.0000 </r>
       <r>   -11.3089     0.0000    48.0000 </r>
       <r>   -11.1020     0.0000    48.0000 </r>
       <r>   -10.8951     0.0000    48.0000 </r>
       <r>   -10.6881     0.0000    48.0000 </r>
       <r>   -10.4812     0.0000    48.0000 </r>
       <r>   -10.2742     0.0000    48.0000 </r>
       <r>   -10.0673     0.0000    48.0000 </r>
       <r>    -9.8604     0.0000    48.0000 </r>
       <r>    -9.6534     0.0000    48.0000 </r>
       <r>    -9.4465     0.0000    48.0000 </r>
       <r>    -9.2396     0.0000    48.0000 </r>
       <r>    -9.0326     0.0000    48.0000 </r>
       <r>    -8.8257     0.0000    48.0000 </r>
       <r>    -8.6187     0.0000    48.0000 </r>
       <r>    -8.4118     0.0000    48.0000 </r>
       <r>    -8.2049     0.0000    48.0000 </r>
       <r>    -7.9979     0.0000    48.0000 </r>
       <r>    -7.7910     0.0000    48.0000 </r>
       <r>    -7.5841     0.0000    48.0000 </r>
       <r>    -7.3771     0.0000    48.0000 </r>
       <r>    -7.1702     0.0000    48.0000 </r>
       <r>    -6.9632     0.0000    48.0000 </r>
       <r>    -6.7563     0.0000    48.0000 </r>
       <r>    -6.5494     0.0000    48.0000 </r>
       <r>    -6.3424     0.0000    48.0000 </r>
       <r>    -6.1355     0.0000    48.0000 </r>
       <r>    -5.9286     0.0000    48.0000 </r>
       <r>    -5.7216     0.0000    48.0000 </r>
       <r>    -5.5147     0.0000    48.0000 </r>
       <r>    -5.3077     0.0000    48.0000 </r>
       <r>    -5.1008     0.0000    48.0000 </r>
       <r>    -4.8939     0.0000    48.0000 </r>
       <r>    -4.6869     0.0000    48.0000 </r>
       <r>    -4.4800     0.0000    48.0000 </r>
       <r>    -4.2731     0.0000    48.0000 </r>
       <r>    -4.0661     0.0000    48.0000 </r>
       <r>    -3.8592     0.0000    48.0000 </r>
       <r>    -3.6522     0.0000    48.0000 </r>
       <r>    -3.4453     0.0000    48.0000 </r>
       <r>    -3.2384     0.0000    48.0000 </r>
       <r>    -3.0314     0.0000    48.0000 </r>
       <r>    -2.8245     0.0000    48.0000 </r>
       <r>    -2.6176     0.0000    48.0000 </r>
       <r>    -2.4106     0.0000    48.0000 </r>
       <r>    -2.2037     0.0000    48.0000 </r>
       <r>    -1.9967     0.0000    48.0000 </r>
       <r>    -1.7898    -0.0000    48.0000 </r>
       <r>    -1.5829    -0.0000    48.0000 </r>
       <r>    -1.3759    -0.0000    48.0000 </r>
       <r>    -1.1690    -0.0000    48.0000 </r>
       <r>    -0.9621    -0.0000    48.0000 </r>
       <r>    -0.7551    -0.0000    48.0000 </r>
       <r>    -0.5482    -0.0003    47.9999 </r>
       <r>    -0.3412    -0.0099    47.9979 </r>
       <r>    -0.1343     0.0119    48.0004 </r>
       <r>     0.0726     0.5080    48.1055 </r>
       <r>     0.2796     1.2103    48.3559 </r>
       <r>     0.4865     1.3671    48.6388 </r>
       <r>     0.6935     2.0137    49.0555 </r>
       <r>     0.9004     1.7873    49.4254 </r>
       <r>     1.1073     2.1361    49.8674 </r>
       <r>     1.3143     3.1984    50.5293 </r>
       <r>     1.5212     3.0241    51.1551 </r>
       <r>     1.7281     3.2950    51.8370 </r>
       <r>     1.9351     3.5906    52.5800 </r>
       <r>     2.1420     5.5066    53.7196 </r>
       <r>     2.3490     5.8289    54.9258 </r>
       <r>     2.5559     8.6022    56.7059 </r>
       <r>     2.7628    14.5447    59.7158 </r>
       <r>     2.9698    19.8178    63.8168 </r>
       <r>     3.1767    24.3046    68.8464 </r>
       <r>     3.3836    29.0436    74.8566 </r>
       <r>     3.5906    31.2041    81.3139 </r>
       <r>     3.7975    30.6257    87.6515 </r>
       <r>     4.0045    31.2278    94.1137 </r>
       <r>     4.2114    31.0497   100.5391 </r>
       <r>     4.4183    30.4037   106.8307 </r>
       <r>     4.6253    27.3164   112.4835 </r>
       <r>     4.8322    30.1428   118.7212 </r>
       <r>     5.0391    35.8217   126.1340 </r>
       <r>     5.2461    38.8124   134.1658 </r>
       <r>     5.4530    41.1346   142.6781 </r>
       <r>     5.6600    40.9907   151.1606 </r>
       <r>     5.8669    41.3624   159.7200 </r>
       <r>     6.0738    42.1907   168.4509 </r>
       <r>     6.2808    42.1074   177.1645 </r>
       <r>     6.4877    40.9849   185.6458 </r>
       <r>     6.6946    37.5903   193.4246 </r>
       <r>     6.9016    33.4474   200.3461 </r>
       <r>     7.1085    28.9399   206.3349 </r>
       <r>     7.3155    23.7465   211.2489 </r>
       <r>     7.5224    20.6482   215.5218 </r>
       <r>     7.7293    19.5492   219.5673 </r>
       <r>     7.9363    22.0390   224.1280 </r>
       <r>     8.1432    24.5182   229.2017 </r>
       <r>     8.3501    25.2901   234.4352 </r>
       <r>     8.5571    18.8248   238.3308 </r>
       <r>     8.7640     7.6550   239.9149 </r>
       <r>     8.9710     0.5786   240.0346 </r>
       <r>     9.1779    -0.1573   240.0021 </r>
       <r>     9.3848    -0.0099   240.0000 </r>
       <r>     9.5918    -0.0001   240.0000 </r>
       <r>     9.7987    -0.0000   240.0000 </r>
       <r>    10.0056    -0.0000   240.0000 </r>
       <r>    10.2126    -0.0000   240.0000 </r>
       <r>    10.4195     0.0000   240.0000 </r>
       <r>    10.6265     0.0000   240.0000 </r>
       <r>    10.8334     0.0000   240.0000 </r>
       <r>    11.0403     0.0000   240.0000 </r>
       <r>    11.2473     0.0000   240.0000 </r>
       <r>    11.4542     0.0000   240.0000 </r>
       <r>    11.6611     0.0000   240.0000 </r>
      </set>
     </set>
    </array>
   </total>
  </dos>
 </calculation>
 <structure name="finalpos" >
  <crystal>
   <varray name="basis" >
    <v>      -3.16241742      -3.19155984      -3.20306062 </v>
    <v>       1.57850928       1.37693165      -7.78675089 </v>
    <v>       7.92168304      -7.84927970      -1.74564452 </v>
   </varray>
   <i name="volume">    463.58798890 </i>
   <varray name="rec_basis" >
    <v>      -0.13702689      -0.12711429      -0.05025535 </v>
    <v>       0.04221505       0.06664126      -0.10808137 </v>
    <v>       0.06312130      -0.06402456       0.00147431 </v>
   </varray>
  </crystal>
  <varray name="positions" >
   <v>       0.00461416       0.88157780       0.40537636 </v>
   <v>       0.62405530       0.27679683       0.39889766 </v>
   <v>       0.49365881       0.00562039      -0.00366621 </v>
   <v>      -0.00006793       0.00251611       0.00390291 </v>
   <v>       0.09766443       0.22072623       0.78661131 </v>
   <v>       0.03845172       0.07297419       0.59247222 </v>
   <v>       0.90122386       0.78709803       0.20642807 </v>
   <v>       0.78562237       0.59032134       0.40411662 </v>
   <v>       0.73404275       0.45966464       0.19859996 </v>
   <v>       0.65971960       0.34348414      -0.00531907 </v>
   <v>       0.37275024       0.72291146       0.60192089 </v>
   <v>       0.13071679       0.27280635       0.39624580 </v>
   <v>       0.82820640       0.66583216       0.00726659 </v>
   <v>       0.92349797       0.87859775       0.79924195 </v>
   <v>       0.56653557       0.13153217       0.19796098 </v>
   <v>       0.40268191       0.77569527       0.21167792 </v>
   <v>       0.43470650       0.86329403       0.79876587 </v>
   <v>       0.85010973       0.72962366       0.61082563 </v>
   <v>       0.47937834       0.93130050       0.41271885 </v>
   <v>       0.17038342       0.33897010      -0.00124574 </v>
   <v>       0.27098772       0.53433356       0.79022502 </v>
   <v>       0.21066158       0.42693989       0.56509843 </v>
   <v>       0.06584963       0.13590685       0.21127536 </v>
   <v>       0.75635659       0.52748211       0.80638726 </v>
   <v>       0.69884247       0.40984298       0.60409016 </v>
   <v>       0.60004836       0.21005845       0.78735341 </v>
   <v>       0.54217504       0.08214155       0.60376573 </v>
   <v>       0.33434196       0.65058863       0.00282636 </v>
   <v>       0.22278470       0.47136283       0.20617970 </v>
  </varray>
 </structure>
</modeling>
