Nb - Mo - Ta - Ti - V SQS               
           1
    -3.160000   -3.160000   -3.160000
     1.580000    1.580000   -7.900000
     7.900000   -7.900000   -1.580000
   Nb   Mo   Ta   Ti   V 
   6   6   5   6   6
Direct configuration=     1
   0.96666667  0.93333333  0.40000000
   0.63333333  0.26666667  0.40000000
   0.50000000  0.00000000  0.00000000
   0.00000000  0.00000000  0.00000000
   0.10000000  0.20000000  0.80000000
   0.03333333  0.06666667  0.60000000
   0.90000000  0.80000000  0.20000000
   0.80000000  0.60000000  0.40000000
   0.73333333  0.46666667  0.20000000
   0.66666667  0.33333333  0.00000000
   0.36666667  0.73333333  0.60000000
   0.13333333  0.26666667  0.40000000
   0.83333333  0.66666667  0.00000000
   0.93333333  0.86666667  0.80000000
   0.56666667  0.13333333  0.20000000
   0.40000000  0.80000000  0.20000000
   0.43333333  0.86666667  0.80000000
   0.86666667  0.73333333  0.60000000
   0.46666667  0.93333333  0.40000000
   0.16666667  0.33333333  0.00000000
   0.26666667  0.53333333  0.80000000
   0.20000000  0.40000000  0.60000000
   0.06666667  0.13333333  0.20000000
   0.76666667  0.53333333  0.80000000
   0.70000000  0.40000000  0.60000000
   0.60000000  0.20000000  0.80000000
   0.53333333  0.06666667  0.60000000
   0.33333333  0.66666667  0.00000000
   0.23333333  0.46666667  0.20000000
Nb - Mo - Ta - Ti - V SQS               
           1
    -3.121658   -3.129707   -3.130837
     1.554180    1.536695   -7.792285
     7.804432   -7.812433   -1.577542
   Nb   Mo   Ta   Ti   V 
   6   6   5   6   6
Direct configuration=     2
   0.96917203  0.92480773  0.39860807
   0.62624029  0.27434562  0.40109651
   0.49846668  0.00289513 -0.00260021
  -0.00008890  0.00015785  0.00116014
   0.09754858  0.20513848  0.79802596
   0.03390430  0.06889118  0.59772630
   0.90222937  0.79678472  0.20233538
   0.80285272  0.59526655  0.39943641
   0.73356552  0.46750390  0.19932117
   0.66247522  0.33875393 -0.00108346
   0.37110551  0.72910291  0.59926982
   0.13045498  0.27086089  0.39988974
   0.83459127  0.66244291  0.00244870
   0.93096324  0.86778414  0.79887946
   0.56567494  0.13480634  0.19862674
   0.40255470  0.79017237  0.20191498
   0.43836653  0.86118866  0.79819090
   0.86072858  0.73242177  0.60064850
   0.46836747  0.93372064  0.40359328
   0.16975806  0.33470144  0.00029263
   0.27011533  0.53387423  0.79827551
   0.20129473  0.39973185  0.59640979
   0.06504981  0.13867912  0.20299125
   0.76664300  0.53000271  0.80060972
   0.69950382  0.40325131  0.60183930
   0.59800109  0.20203427  0.79919743
   0.53610064  0.06857386  0.60116345
   0.33489257  0.66244930  0.00064173
   0.22946791  0.46965618  0.20109079
Nb - Mo - Ta - Ti - V SQS               
           1
    -3.116102   -3.125318   -3.126611
     1.550439    1.530420   -7.776677
     7.790584   -7.799744   -1.577186
   Nb   Mo   Ta   Ti   V 
   6   6   5   6   6
Direct configuration=     3
   0.96954359  0.92355338  0.39840522
   0.62519732  0.27547577  0.40125653
   0.49824140  0.00332171 -0.00298177
  -0.00010232  0.00018086  0.00133020
   0.09718754  0.20589508  0.79773590
   0.03398745  0.06921888  0.59739257
   0.90255683  0.79631105  0.20267811
   0.80327304  0.59456999  0.39935435
   0.73359930  0.46762720  0.19922150
   0.66185895  0.33955199 -0.00124288
   0.37175793  0.72848029  0.59916313
   0.13003137  0.27147824  0.39987310
   0.83477692  0.66182089  0.00280828
   0.93061588  0.86794894  0.79871519
   0.56552934  0.13502340  0.19842525
   0.40293320  0.78872582  0.20219715
   0.43910691  0.86038263  0.79792621
   0.85985916  0.73228793  0.60074417
   0.46861537  0.93377684  0.40411987
   0.17021007  0.33490247  0.00033507
   0.27062063  0.53395390  0.79802235
   0.20148549  0.39969297  0.59588340
   0.06480952  0.13946525  0.20342902
   0.76664102  0.52951253  0.80069966
   0.69942902  0.40372939  0.60210845
   0.59770754  0.20233388  0.79907959
   0.53650467  0.06885408  0.60133350
   0.33512285  0.66182853  0.00073639
   0.22889999  0.47009612  0.20125050
Nb - Mo - Ta - Ti - V SQS               
           1
    -3.130266   -3.143980   -3.147597
     1.552352    1.517095   -7.801303
     7.825828   -7.836293   -1.597627
   Nb   Mo   Ta   Ti   V 
   6   6   5   6   6
Direct configuration=     4
   0.97231292  0.91688985  0.39765075
   0.61935101  0.28150855  0.40207217
   0.49727353  0.00478507 -0.00466905
   0.00008006  0.00048429  0.00212152
   0.09581752  0.20937616  0.79624021
   0.03430756  0.07070924  0.59560059
   0.90414959  0.79384765  0.20406603
   0.80515146  0.59146354  0.39934290
   0.73366532  0.46739798  0.19907558
   0.65877918  0.34333439 -0.00229089
   0.37500821  0.72466171  0.59816711
   0.12800407  0.27446274  0.39977439
   0.83569336  0.65968530  0.00431974
   0.92914545  0.86884880  0.79788692
   0.56473202  0.13615872  0.19784678
   0.40411684  0.78228343  0.20417709
   0.44158979  0.85706714  0.79678463
   0.85561285  0.73147495  0.60124303
   0.46995020  0.93380384  0.40666551
   0.17267080  0.33595230  0.00041562
   0.27345711  0.53411501  0.79656909
   0.20277577  0.40013647  0.59271633
   0.06354356  0.14301800  0.20574630
   0.76652104  0.52688070  0.80108437
   0.69861787  0.40622942  0.60373677
   0.59626697  0.20419124  0.79802606
   0.53869266  0.07044798  0.60222446
   0.33637746  0.65831318  0.00112657
   0.22633583  0.47247236  0.20227942
Nb - Mo - Ta - Ti - V SQS               
           1
    -3.142842   -3.160550   -3.166230
     1.554050    1.505264   -7.823168
     7.857122   -7.868745   -1.615777
   Nb   Mo   Ta   Ti   V 
   6   6   5   6   6
Direct configuration=     5
   0.97477511  0.91098415  0.39698895
   0.61417314  0.28685636  0.40278934
   0.49641658  0.00608434 -0.00616133
   0.00023978  0.00075219  0.00282062
   0.09460042  0.21246355  0.79491563
   0.03458799  0.07203206  0.59401544
   0.90556101  0.79166222  0.20529444
   0.80681775  0.58870974  0.39933497
   0.73372428  0.46719499  0.19894679
   0.65605119  0.34668895 -0.00321962
   0.37788840  0.72127745  0.59728926
   0.12620669  0.27710865  0.39968510
   0.83650665  0.65779050  0.00565721
   0.92784543  0.86964784  0.79715447
   0.56402562  0.13716588  0.19733474
   0.40517615  0.77657108  0.20593225
   0.44379121  0.85412920  0.79577789
   0.85186468  0.73075550  0.60168569
   0.47112694  0.93382423  0.40891506
   0.17484118  0.33688166  0.00048530
   0.27596260  0.53425842  0.79528382
   0.20391649  0.40053277  0.58991648
   0.06241529  0.14616435  0.20779165
   0.76642117  0.52454785  0.80142667
   0.69789428  0.40844344  0.60517399
   0.59499116  0.20583913  0.79709368
   0.54062025  0.07185867  0.60301001
   0.33749356  0.65519677  0.00147412
   0.22406498  0.47457806  0.20318741
Nb - Mo - Ta - Ti - V SQS               
           1
    -3.149930   -3.165106   -3.174024
     1.556440    1.498741   -7.832640
     7.872613   -7.873153   -1.624465
   Nb   Mo   Ta   Ti   V 
   6   6   5   6   6
Direct configuration=     6
   0.97619597  0.91050139  0.39738833
   0.61369956  0.28727759  0.40259431
   0.49704044  0.00473668 -0.00574081
   0.00023403  0.00098757  0.00287630
   0.09561392  0.21165609  0.79479025
   0.03479576  0.07146047  0.59377937
   0.90454785  0.79195822  0.20449811
   0.80620077  0.58960908  0.39974921
   0.73377064  0.46587762  0.19938723
   0.65659984  0.34596024 -0.00348056
   0.37756003  0.72037422  0.59690759
   0.12626703  0.27644673  0.39966039
   0.83584451  0.65986650  0.00524003
   0.92796825  0.87032149  0.79733078
   0.56424622  0.13711066  0.19781619
   0.40460139  0.77785896  0.20651614
   0.44194678  0.85522841  0.79601152
   0.85146973  0.73063340  0.60190308
   0.47149589  0.93362008  0.40888217
   0.17508081  0.33688704  0.00035833
   0.27627873  0.53405097  0.79480468
   0.20439788  0.40147670  0.58900854
   0.06213256  0.14551616  0.20820476
   0.76604281  0.52447222  0.80154858
   0.69759479  0.40850261  0.60566941
   0.59530155  0.20610540  0.79621347
   0.54097164  0.07232238  0.60320096
   0.33760613  0.65464844  0.00137342
   0.22449449  0.47453266  0.20350822
Nb - Mo - Ta - Ti - V SQS               
           1
    -3.162095   -3.172926   -3.187400
     1.560541    1.487545   -7.848896
     7.899202   -7.880718   -1.639376
   Nb   Mo   Ta   Ti   V 
   6   6   5   6   6
Direct configuration=     7
   0.97863145  0.90967190  0.39807380
   0.61288723  0.28800070  0.40225945
   0.49811219  0.00242405 -0.00501849
   0.00022387  0.00139115  0.00297152
   0.09735115  0.21027105  0.79457639
   0.03515217  0.07048056  0.59337531
   0.90281028  0.79246810  0.20313250
   0.80514316  0.59115091  0.40045825
   0.73385315  0.46361713  0.20014349
   0.65754038  0.34471076 -0.00392699
   0.37699835  0.71882606  0.59625412
   0.12637148  0.27531148  0.39961869
   0.83470596  0.66342835  0.00452273
   0.92817786  0.87147646  0.79763238
   0.56462512  0.13701478  0.19864160
   0.40361578  0.78006679  0.20751562
   0.43878592  0.85711394  0.79641042
   0.85079382  0.73042365  0.60227573
   0.47212817  0.93326986  0.40882608
   0.17549102  0.33689647  0.00014076
   0.27681969  0.53369609  0.79398365
   0.20521913  0.40309751  0.58745141
   0.06165015  0.14440363  0.20891346
   0.76539506  0.52434239  0.80175754
   0.69708263  0.40860312  0.60651850
   0.59583108  0.20656393  0.79470448
   0.54157315  0.07311714  0.60352792
   0.33779970  0.65370817  0.00120137
   0.22523091  0.47445389  0.20405832
Nb - Mo - Ta - Ti - V SQS               
           1
    -3.157866   -3.166718   -3.184479
     1.555897    1.473080   -7.827665
     7.886397   -7.857902   -1.643014
   Nb   Mo   Ta   Ti   V 
   6   6   5   6   6
Direct configuration=     8
   0.98038191  0.90861155  0.39841724
   0.61241062  0.28850274  0.40217778
   0.49836198  0.00154186 -0.00454881
   0.00023923  0.00164909  0.00308919
   0.09838990  0.20961586  0.79424556
   0.03553134  0.06989633  0.59312136
   0.90190465  0.79275414  0.20260322
   0.80454813  0.59194095  0.40079640
   0.73373826  0.46318013  0.20027847
   0.65829903  0.34409138 -0.00418082
   0.37657301  0.71769249  0.59593278
   0.12616314  0.27481776  0.39960826
   0.83395864  0.66478960  0.00433823
   0.92773168  0.87246507  0.79767434
   0.56468533  0.13683426  0.19900594
   0.40323227  0.78076714  0.20826623
   0.43739583  0.85803332  0.79658301
   0.85002407  0.73035120  0.60268949
   0.47280728  0.93305496  0.40893326
   0.17565590  0.33703391  0.00007142
   0.27718442  0.53352898  0.79327879
   0.20581830  0.40427665  0.58612950
   0.06152286  0.14370247  0.20949737
   0.76481138  0.52422151  0.80203406
   0.69690137  0.40867783  0.60703013
   0.59634858  0.20671454  0.79362178
   0.54191922  0.07384848  0.60374848
   0.33800373  0.65299676  0.00112390
   0.22545793  0.47440905  0.20443342
Nb - Mo - Ta - Ti - V SQS               
           1
    -3.155003   -3.162514   -3.182501
     1.552753    1.463285   -7.813288
     7.877725   -7.842451   -1.645477
   Nb   Mo   Ta   Ti   V 
   6   6   5   6   6
Direct configuration=     9
   0.98157027  0.90789043  0.39865094
   0.61208686  0.28884402  0.40212209
   0.49853252  0.00094197 -0.00422963
   0.00024949  0.00182424  0.00316893
   0.09909478  0.20917079  0.79402140
   0.03578887  0.06949952  0.59294930
   0.90128985  0.79294913  0.20224380
   0.80414406  0.59247757  0.40102552
   0.73366085  0.46288310  0.20037025
   0.65881397  0.34367063 -0.00435276
   0.37628542  0.71692262  0.59571513
   0.12602231  0.27448234  0.39960138
   0.83345041  0.66571484  0.00421236
   0.92742818  0.87313685  0.79770235
   0.56472657  0.13671127  0.19925330
   0.40297200  0.78124241  0.20877534
   0.43645232  0.85865813  0.79669964
   0.84950236  0.73030174  0.60297028
   0.47326811  0.93290872  0.40900616
   0.17576755  0.33712732  0.00002432
   0.27743148  0.53341600  0.79280051
   0.20622268  0.40507892  0.58523186
   0.06143757  0.14322555  0.20989397
   0.76441583  0.52413922  0.80222173
   0.69677871  0.40872817  0.60737732
   0.59669870  0.20681776  0.79288694
   0.54215338  0.07434514  0.60389788
   0.33814272  0.65251341  0.00107166
   0.22561218  0.47437820  0.20468804
Nb - Mo - Ta - Ti - V SQS               
           1
    -3.157554   -3.164904   -3.186350
     1.550050    1.455169   -7.809648
     7.882380   -7.844525   -1.649595
   Nb   Mo   Ta   Ti   V 
   6   6   5   6   6
Direct configuration=    10
   0.98290998  0.90652094  0.39886674
   0.61180729  0.28925745  0.40224875
   0.49793836  0.00141422 -0.00397610
   0.00038379  0.00197073  0.00330831
   0.09947414  0.20931423  0.79356251
   0.03613812  0.06926828  0.59281655
   0.90118796  0.79306170  0.20242762
   0.80374615  0.59279598  0.40115736
   0.73349556  0.46362141  0.20008658
   0.65940578  0.34354267 -0.00448968
   0.37586344  0.71614932  0.59558605
   0.12577160  0.27439510  0.39961443
   0.83314767  0.66526287  0.00431970
   0.92653998  0.87377834  0.79752937
   0.56452299  0.13641882  0.19928977
   0.40284366  0.78081576  0.20944313
   0.43652858  0.85868300  0.79676501
   0.84891712  0.73023011  0.60346072
   0.47401120  0.93279012  0.40927134
   0.17563584  0.33732379  0.00000551
   0.27746780  0.53334141  0.79221724
   0.20649495  0.40619212  0.58405406
   0.06161526  0.14284257  0.21032002
   0.76397658  0.52407731  0.80247852
   0.69697569  0.40865302  0.60756888
   0.59723046  0.20677104  0.79212846
   0.54223175  0.07505650  0.60396790
   0.33824262  0.65205958  0.00104311
   0.22549569  0.47439161  0.20492814
Nb - Mo - Ta - Ti - V SQS               
           1
    -3.165209   -3.172076   -3.197896
     1.541942    1.430820   -7.798730
     7.896343   -7.850746   -1.661951
   Nb   Mo   Ta   Ti   V 
   6   6   5   6   6
Direct configuration=    11
   0.98693081  0.90240729  0.39951535
   0.61096786  0.29049896  0.40262816
   0.49615582  0.00283232 -0.00321634
   0.00078588  0.00241040  0.00372610
   0.10061051  0.20974554  0.79218627
   0.03718573  0.06857386  0.59241872
   0.90088226  0.79339953  0.20297872
   0.80255236  0.59375216  0.40155238
   0.73299726  0.46583917  0.19923512
   0.66118011  0.34315834 -0.00490010
   0.37460136  0.71382739  0.59519975
   0.12502042  0.27413320  0.39965364
   0.83224191  0.66390552  0.00464203
   0.92387520  0.87570546  0.79700996
   0.56391386  0.13554060  0.19939946
   0.40246085  0.77953353  0.21144610
   0.43675711  0.85875755  0.79696104
   0.84716340  0.73001454  0.60493145
   0.47623912  0.93243324  0.41006670
   0.17524034  0.33791390 -0.00005111
   0.27757666  0.53311825  0.79046826
   0.20730642  0.40953685  0.58052099
   0.06214947  0.14169171  0.21159803
   0.76266029  0.52389118  0.80324860
   0.69756648  0.40842695  0.60814342
   0.59882416  0.20663165  0.78985408
   0.54246408  0.07719263  0.60417713
   0.33854370  0.65069667  0.00095800
   0.22514656  0.47443160  0.20564811
Nb - Mo - Ta - Ti - V SQS               
           1
    -3.169352   -3.177484   -3.203499
     1.541255    1.430031   -7.806514
     7.904662   -7.862722   -1.664262
   Nb   Mo   Ta   Ti   V 
   6   6   5   6   6
Direct configuration=    12
   0.98751448  0.90144013  0.39998875
   0.61143525  0.29062796  0.40219313
   0.49612679  0.00325919 -0.00345089
   0.00066303  0.00222822  0.00376436
   0.10032894  0.21047661  0.79183687
   0.03718212  0.06877483  0.59237601
   0.90130477  0.79312127  0.20334562
   0.80215907  0.59348054  0.40150473
   0.73341312  0.46523046  0.19941071
   0.66094091  0.34335170 -0.00485053
   0.37463779  0.71398703  0.59541522
   0.12517321  0.27430615  0.39945720
   0.83197325  0.66416594  0.00479074
   0.92398125  0.87549944  0.79706729
   0.56409135  0.13575890  0.19935398
   0.40268924  0.77899328  0.21153469
   0.43680156  0.85837811  0.79704816
   0.84687948  0.72998427  0.60532354
   0.47643377  0.93258258  0.41044605
   0.17503346  0.33791220 -0.00000321
   0.27684880  0.53309097  0.79043736
   0.20696106  0.41039053  0.57981221
   0.06211402  0.14195150  0.21158919
   0.76247550  0.52394389  0.80332089
   0.69829094  0.40794756  0.60779532
   0.59917133  0.20648493  0.78970407
   0.54241359  0.07750433  0.60413175
   0.33824273  0.65057505  0.00106776
   0.22471920  0.47455243  0.20558902
Nb - Mo - Ta - Ti - V SQS               
           1
    -3.172059   -3.181017   -3.207160
     1.540807    1.429515   -7.811600
     7.910096   -7.870548   -1.665771
   Nb   Mo   Ta   Ti   V 
   6   6   5   6   6
Direct configuration=    13
   0.98789547  0.90080873  0.40029763
   0.61174025  0.29071212  0.40190923
   0.49610776  0.00353786 -0.00360394
   0.00058295  0.00210930  0.00378933
   0.10014508  0.21095387  0.79160890
   0.03717969  0.06890603  0.59234814
   0.90158038  0.79293962  0.20358501
   0.80190263  0.59330322  0.40147366
   0.73368459  0.46483305  0.19952527
   0.66078477  0.34347795 -0.00481818
   0.37466143  0.71409127  0.59555581
   0.12527288  0.27441903  0.39932901
   0.83179784  0.66433600  0.00488779
   0.92405050  0.87536493  0.79710470
   0.56420707  0.13590141  0.19932430
   0.40283842  0.77864056  0.21159249
   0.43683067  0.85813040  0.79710501
   0.84669415  0.72996457  0.60557940
   0.47656058  0.93268012  0.41069358
   0.17489849  0.33791111  0.00002805
   0.27637398  0.53307319  0.79041724
   0.20673566  0.41094781  0.57934973
   0.06209080  0.14212111  0.21158342
   0.76235490  0.52397833  0.80336807
   0.69876385  0.40763450  0.60756814
   0.59939792  0.20638910  0.78960617
   0.54238054  0.07770782  0.60410215
   0.33804639  0.65049567  0.00113940
   0.22444038  0.47463133  0.20555049
Nb - Mo - Ta - Ti - V SQS               
           1
    -3.171563   -3.181245   -3.207481
     1.539107    1.427511   -7.808849
     7.907718   -7.870049   -1.665861
   Nb   Mo   Ta   Ti   V 
   6   6   5   6   6
Direct configuration=    14
   0.98831238  0.90020484  0.40059816
   0.61207935  0.29069818  0.40164224
   0.49609893  0.00374991 -0.00372828
   0.00052192  0.00200607  0.00380750
   0.09998624  0.21138447  0.79139254
   0.03716108  0.06904393  0.59233420
   0.90178643  0.79276583  0.20379311
   0.80164330  0.59312776  0.40144628
   0.73391204  0.46450386  0.19958225
   0.66063383  0.34359604 -0.00478596
   0.37471501  0.71423337  0.59572901
   0.12543047  0.27452788  0.39919967
   0.83156561  0.66453888  0.00501468
   0.92410897  0.87523665  0.79717571
   0.56432976  0.13600616  0.19929985
   0.40305008  0.77832095  0.21161738
   0.43680133  0.85793854  0.79715685
   0.84652245  0.72995627  0.60582245
   0.47663728  0.93278467  0.41090681
   0.17475981  0.33791956  0.00004424
   0.27593764  0.53304454  0.79042795
   0.20653702  0.41145722  0.57890489
   0.06211739  0.14224582  0.21156580
   0.76220208  0.52401739  0.80341926
   0.69917054  0.40736016  0.60731883
   0.59960490  0.20629468  0.78952167
   0.54234793  0.07790280  0.60407399
   0.33784937  0.65043575  0.00122106
   0.22417687  0.47469782  0.20549787
Nb - Mo - Ta - Ti - V SQS               
           1
    -3.170076   -3.181927   -3.208444
     1.534007    1.421496   -7.800595
     7.900584   -7.868555   -1.666130
   Nb   Mo   Ta   Ti   V 
   6   6   5   6   6
Direct configuration=    15
   0.98956355  0.89839226  0.40149988
   0.61309693  0.29065626  0.40084106
   0.49607233  0.00438637 -0.00410136
   0.00033892  0.00169625  0.00386206
   0.09950944  0.21267689  0.79074331
   0.03710509  0.06945781  0.59229236
   0.90240460  0.79224421  0.20441750
   0.80086551  0.59260115  0.40136416
   0.73459470  0.46351579  0.19975319
   0.66018086  0.34395050 -0.00468929
   0.37487549  0.71465989  0.59624867
   0.12590325  0.27485454  0.39881155
   0.83086857  0.66514786  0.00539547
   0.92428446  0.87485161  0.79738877
   0.56469775  0.13632056  0.19922647
   0.40368538  0.77736163  0.21169207
   0.43671345  0.85736269  0.79731239
   0.84600714  0.72993141  0.60655173
   0.47686709  0.93309850  0.41154660
   0.17434373  0.33794497  0.00009284
   0.27462858  0.53295861  0.79046016
   0.20594092  0.41298617  0.57757013
   0.06219704  0.14262015  0.21151293
   0.76174350  0.52413467  0.80357289
   0.70039116  0.40653663  0.60657073
   0.60022603  0.20601125  0.78926810
   0.54224993  0.07848801  0.60398950
   0.33725830  0.65025593  0.00146610
   0.22338630  0.47489743  0.20534001
Nb - Mo - Ta - Ti - V SQS               
           1
    -3.168984   -3.180474   -3.207048
     1.534306    1.419939   -7.797118
     7.898362   -7.863986   -1.666866
   Nb   Mo   Ta   Ti   V 
   6   6   5   6   6
Direct configuration=    16
   0.98986391  0.89827309  0.40156243
   0.61316821  0.29038473  0.40091195
   0.49596884  0.00430943 -0.00400025
   0.00043894  0.00177365  0.00385261
   0.09957951  0.21262183  0.79071725
   0.03708847  0.06947066  0.59233113
   0.90224048  0.79227032  0.20437366
   0.80067236  0.59268969  0.40143941
   0.73451492  0.46370745  0.19955385
   0.66025871  0.34386665 -0.00472203
   0.37488875  0.71471459  0.59631307
   0.12612997  0.27477022  0.39878011
   0.83075203  0.66516527  0.00545112
   0.92422968  0.87490554  0.79745384
   0.56470389  0.13617775  0.19921764
   0.40371318  0.77748751  0.21172211
   0.43658212  0.85753486  0.79732692
   0.84604046  0.72992913  0.60659477
   0.47685585  0.93310807  0.41149783
   0.17428808  0.33798109  0.00003989
   0.27467017  0.53286067  0.79049444
   0.20602468  0.41311331  0.57744614
   0.06239104  0.14239370  0.21151196
   0.76160814  0.52416182  0.80359902
   0.70024508  0.40658353  0.60648765
   0.60023928  0.20602911  0.78921762
   0.54223340  0.07856762  0.60397642
   0.33718346  0.65029244  0.00151326
   0.22342639  0.47485630  0.20533618
Nb - Mo - Ta - Ti - V SQS               
           1
    -3.166610   -3.177313   -3.204012
     1.534956    1.416550   -7.789554
     7.893528   -7.854046   -1.668467
   Nb   Mo   Ta   Ti   V 
   6   6   5   6   6
Direct configuration=    17
   0.99051771  0.89801364  0.40169860
   0.61332337  0.28979365  0.40106631
   0.49574364  0.00414188 -0.00378014
   0.00065665  0.00194213  0.00383202
   0.09973201  0.21250199  0.79066054
   0.03705233  0.06949862  0.59241551
   0.90188324  0.79232717  0.20427821
   0.80025200  0.59288237  0.40160317
   0.73434117  0.46412476  0.19911990
   0.66042813  0.34368415 -0.00479327
   0.37491765  0.71483360  0.59645322
   0.12662344  0.27458670  0.39871170
   0.83049841  0.66520312  0.00557226
   0.92411047  0.87502289  0.79759546
   0.56471724  0.13586691  0.19919847
   0.40377370  0.77776149  0.21178748
   0.43629627  0.85790963  0.79735850
   0.84611300  0.72992413  0.60668847
   0.47683134  0.93312892  0.41139169
   0.17416692  0.33805974 -0.00007537
   0.27476069  0.53264745  0.79056908
   0.20620694  0.41339015  0.57717621
   0.06281330  0.14190078  0.21150990
   0.76131353  0.52422090  0.80365588
   0.69992708  0.40668566  0.60630678
   0.60026811  0.20606802  0.78910774
   0.54219742  0.07874090  0.60394793
   0.33702059  0.65037187  0.00161590
   0.22351364  0.47476677  0.20532785
Nb - Mo - Ta - Ti - V SQS               
           1
    -3.167300   -3.177752   -3.204403
     1.536293    1.415649   -7.790408
     7.895743   -7.853839   -1.670438
   Nb   Mo   Ta   Ti   V 
   6   6   5   6   6
Direct configuration=    18
   0.99088735  0.89780506  0.40180154
   0.61347486  0.28949758  0.40109130
   0.49563795  0.00410219 -0.00368951
   0.00073758  0.00201074  0.00382720
   0.09977308  0.21251009  0.79060908
   0.03704362  0.06953080  0.59245148
   0.90175768  0.79234532  0.20426418
   0.79998292  0.59296858  0.40169035
   0.73429483  0.46422342  0.19895685
   0.66049973  0.34359717 -0.00483665
   0.37491893  0.71492053  0.59653525
   0.12683965  0.27449490  0.39865693
   0.83037385  0.66522310  0.00560980
   0.92407156  0.87506314  0.79767517
   0.56474222  0.13571582  0.19919222
   0.40377183  0.77789430  0.21182927
   0.43618486  0.85805945  0.79739489
   0.84617938  0.72991761  0.60675317
   0.47684390  0.93315046  0.41135407
   0.17407849  0.33809265 -0.00013287
   0.27475377  0.53254543  0.79061035
   0.20628152  0.41360257  0.57700188
   0.06301843  0.14165548  0.21150033
   0.76115833  0.52426107  0.80368448
   0.69978140  0.40674049  0.60619713
   0.60028309  0.20609656  0.78905522
   0.54217602  0.07882613  0.60392790
   0.33690158  0.65042438  0.00166818
   0.22355158  0.47472497  0.20532081
Nb - Mo - Ta - Ti - V SQS               
           1
    -3.169372   -3.179067   -3.205576
     1.540304    1.412947   -7.792971
     7.902388   -7.853218   -1.676353
   Nb   Mo   Ta   Ti   V 
   6   6   5   6   6
Direct configuration=    19
   0.99199613  0.89717929  0.40211041
   0.61392926  0.28860942  0.40116639
   0.49532100  0.00398303 -0.00341764
   0.00098033  0.00221658  0.00381270
   0.09989623  0.21253446  0.79045472
   0.03701753  0.06962729  0.59255936
   0.90138104  0.79239977  0.20422206
   0.79917590  0.59322708  0.40195182
   0.73415570  0.46451953  0.19846771
   0.66071448  0.34333632 -0.00496672
   0.37492285  0.71518123  0.59678126
   0.12748815  0.27421959  0.39849270
   0.83000027  0.66528299  0.00572239
   0.92395492  0.87518379  0.79791423
   0.56481713  0.13526260  0.19917357
   0.40376626  0.77829266  0.21195458
   0.43585074  0.85850882  0.79750399
   0.84637854  0.72989796  0.60694725
   0.47688153  0.93321511  0.41124121
   0.17381319  0.33819144 -0.00030535
   0.27473302  0.53223935  0.79073419
   0.20650514  0.41423993  0.57647888
   0.06363370  0.14091968  0.21147172
   0.76069282  0.52438155  0.80377023
   0.69934436  0.40690506  0.60586820
   0.60032798  0.20618223  0.78889767
   0.54211180  0.07908181  0.60386776
   0.33654465  0.65058184  0.00182497
   0.22366536  0.47459961  0.20529974
Nb - Mo - Ta - Ti - V SQS               
           1
    -3.170120   -3.180318   -3.206640
     1.540862    1.412753   -7.795004
     7.904541   -7.855888   -1.677611
   Nb   Mo   Ta   Ti   V 
   6   6   5   6   6
Direct configuration=    20
   0.99213795  0.89694837  0.40219173
   0.61417257  0.28854722  0.40102936
   0.49535597  0.00405752 -0.00345863
   0.00088893  0.00217875  0.00382255
   0.09982039  0.21269055  0.79038567
   0.03703962  0.06968239  0.59254385
   0.90151441  0.79232011  0.20431557
   0.79901606  0.59315323  0.40195525
   0.73421926  0.46430285  0.19858379
   0.66065729  0.34336307 -0.00498081
   0.37489775  0.71525686  0.59686159
   0.12739582  0.27426850  0.39843778
   0.82996747  0.66530730  0.00569305
   0.92396229  0.87517546  0.79796587
   0.56490775  0.13528667  0.19916028
   0.40374088  0.77822444  0.21194794
   0.43588785  0.85848872  0.79754115
   0.84641397  0.72988910  0.60702831
   0.47696036  0.93324227  0.41128732
   0.17375444  0.33820032 -0.00031354
   0.27464610  0.53225204  0.79072402
   0.20652007  0.41441288  0.57633648
   0.06362654  0.14090743  0.21145891
   0.76061844  0.52440411  0.80379270
   0.69934049  0.40694417  0.60580670
   0.60033052  0.20620280  0.78888305
   0.54211859  0.07910153  0.60387920
   0.33645236  0.65059130  0.00183682
   0.22363588  0.47460006  0.20528404
Nb - Mo - Ta - Ti - V SQS               
           1
    -3.172363   -3.184072   -3.209830
     1.542536    1.412169   -7.801104
     7.910998   -7.863898   -1.681385
   Nb   Mo   Ta   Ti   V 
   6   6   5   6   6
Direct configuration=    21
   0.99256326  0.89625576  0.40243562
   0.61490233  0.28836071  0.40061837
   0.49546085  0.00428094 -0.00358160
   0.00061482  0.00206526  0.00385208
   0.09959296  0.21315873  0.79017857
   0.03710587  0.06984764  0.59249732
   0.90191439  0.79208117  0.20459601
   0.79853669  0.59293173  0.40196555
   0.73440988  0.46365296  0.19893194
   0.66048576  0.34344333 -0.00502306
   0.37482243  0.71548370  0.59710249
   0.12711892  0.27441523  0.39827305
   0.82986911  0.66538023  0.00560508
   0.92398437  0.87515047  0.79812074
   0.56517953  0.13535887  0.19912043
   0.40366475  0.77801980  0.21192803
   0.43599916  0.85842842  0.79765261
   0.84652023  0.72986250  0.60727143
   0.47719674  0.93332370  0.41142562
   0.17357821  0.33822695 -0.00033810
   0.27438543  0.53229009  0.79069352
   0.20656487  0.41493163  0.57590942
   0.06360505  0.14087070  0.21142049
   0.76039536  0.52447174  0.80386010
   0.69932890  0.40706150  0.60562224
   0.60033813  0.20626449  0.78883920
   0.54213895  0.07916067  0.60391349
   0.33617556  0.65061968  0.00187239
   0.22354748  0.47460142  0.20523697
Nb - Mo - Ta - Ti - V SQS               
           1
    -3.171854   -3.184085   -3.209704
     1.542572    1.411282   -7.800193
     7.910268   -7.863576   -1.682205
   Nb   Mo   Ta   Ti   V 
   6   6   5   6   6
Direct configuration=    22
   0.99274484  0.89601076  0.40251912
   0.61512186  0.28825242  0.40050502
   0.49547322  0.00434195 -0.00361289
   0.00054714  0.00203455  0.00385998
   0.09952167  0.21331174  0.79010629
   0.03712704  0.06990281  0.59248787
   0.90200567  0.79198767  0.20467560
   0.79836518  0.59286252  0.40197086
   0.73444919  0.46350799  0.19899431
   0.66043343  0.34347619 -0.00503545
   0.37479994  0.71557424  0.59719400
   0.12708296  0.27445923  0.39822109
   0.82982315  0.66539323  0.00561611
   0.92399126  0.87515407  0.79816182
   0.56524644  0.13537053  0.19910065
   0.40366187  0.77794517  0.21192389
   0.43602222  0.85841755  0.79768747
   0.84654921  0.72985530  0.60735781
   0.47726451  0.93334757  0.41147255
   0.17352053  0.33823373 -0.00034745
   0.27430138  0.53230500  0.79067923
   0.20660348  0.41510346  0.57574739
   0.06362024  0.14084494  0.21141594
   0.76030776  0.52449614  0.80389032
   0.69932682  0.40710871  0.60555799
   0.60033930  0.20628602  0.78881472
   0.54214523  0.07919797  0.60392469
   0.33609346  0.65062164  0.00188833
   0.22351100  0.47459690  0.20522273
Nb - Mo - Ta - Ti - V SQS               
           1
    -3.170327   -3.184124   -3.209326
     1.542679    1.408621   -7.797458
     7.908080   -7.862608   -1.684664
   Nb   Mo   Ta   Ti   V 
   6   6   5   6   6
Direct configuration=    23
   0.99328965  0.89527563  0.40276968
   0.61578052  0.28792751  0.40016493
   0.49551036  0.00452499 -0.00370677
   0.00034407  0.00194239  0.00388369