  29  29   0   0
  0.1679057E+02  0.5525242E-09  0.8287863E-09  0.1139058E-08  0.5000000E-15
  1.000000000000000E-004
  CAR 
 SQS with 1 vacancy for VFE and VRV      
     12.09719521    -50.22533186  301      6.77682191      1.00000000
    -50.225  0.0000E+00  0.0000E+00
    -50.018  0.0000E+00  0.0000E+00
    -49.810  0.0000E+00  0.0000E+00
    -49.602  0.0000E+00  0.0000E+00
    -49.394  0.0000E+00  0.0000E+00
    -49.187 -0.2084E-35 -0.4330E-36
    -48.979 -0.9225E-28 -0.1916E-28
    -48.771 -0.4229E-21 -0.8785E-22
    -48.563 -0.2152E-15 -0.4471E-16
    -48.356 -0.1269E-10 -0.2637E-11
    -48.148 -0.8396E-07 -0.1745E-07
    -47.940 -0.6098E-04 -0.1268E-04
    -47.732 -0.4463E-02 -0.9399E-03
    -47.525 -0.8755E-02 -0.2759E-02
    -47.317  0.3035E+00  0.6028E-01
    -47.109  0.6280E+00  0.1907E+00
    -46.901  0.2452E+00  0.2417E+00
    -46.694 -0.3923E-02  0.2409E+00
    -46.486 -0.4115E-02  0.2400E+00
    -46.278 -0.6733E-04  0.2400E+00
    -46.070 -0.1046E-06  0.2400E+00
    -45.863 -0.1719E-10  0.2400E+00
    -45.655 -0.3147E-15  0.2400E+00
    -45.447  0.0000E+00  0.2400E+00
    -45.240  0.0000E+00  0.2400E+00
    -45.032  0.0000E+00  0.2400E+00
    -44.824  0.0000E+00  0.2400E+00
    -44.616  0.0000E+00  0.2400E+00
    -44.409  0.0000E+00  0.2400E+00
    -44.201  0.0000E+00  0.2400E+00
    -43.993  0.0000E+00  0.2400E+00
    -43.785  0.0000E+00  0.2400E+00
    -43.578  0.0000E+00  0.2400E+00
    -43.370  0.0000E+00  0.2400E+00
    -43.162  0.0000E+00  0.2400E+00
    -42.954  0.0000E+00  0.2400E+00
    -42.747  0.0000E+00  0.2400E+00
    -42.539  0.0000E+00  0.2400E+00
    -42.331  0.0000E+00  0.2400E+00
    -42.123  0.0000E+00  0.2400E+00
    -41.916  0.0000E+00  0.2400E+00
    -41.708  0.0000E+00  0.2400E+00
    -41.500  0.0000E+00  0.2400E+00
    -41.292  0.0000E+00  0.2400E+00
    -41.085  0.0000E+00  0.2400E+00
    -40.877  0.0000E+00  0.2400E+00
    -40.669  0.0000E+00  0.2400E+00
    -40.461  0.0000E+00  0.2400E+00
    -40.254  0.0000E+00  0.2400E+00
    -40.046  0.0000E+00  0.2400E+00
    -39.838  0.0000E+00  0.2400E+00
    -39.631  0.0000E+00  0.2400E+00
    -39.423  0.0000E+00  0.2400E+00
    -39.215  0.0000E+00  0.2400E+00
    -39.007  0.0000E+00  0.2400E+00
    -38.800  0.0000E+00  0.2400E+00
    -38.592  0.0000E+00  0.2400E+00
    -38.384  0.0000E+00  0.2400E+00
    -38.176  0.0000E+00  0.2400E+00
    -37.969  0.0000E+00  0.2400E+00
    -37.761  0.0000E+00  0.2400E+00
    -37.553  0.0000E+00  0.2400E+00
    -37.345  0.0000E+00  0.2400E+00
    -37.138  0.0000E+00  0.2400E+00
    -36.930  0.0000E+00  0.2400E+00
    -36.722  0.0000E+00  0.2400E+00
    -36.514  0.0000E+00  0.2400E+00
    -36.307  0.0000E+00  0.2400E+00
    -36.099  0.0000E+00  0.2400E+00
    -35.891  0.0000E+00  0.2400E+00
    -35.683  0.0000E+00  0.2400E+00
    -35.476  0.0000E+00  0.2400E+00
    -35.268  0.0000E+00  0.2400E+00
    -35.060  0.0000E+00  0.2400E+00
    -34.852  0.0000E+00  0.2400E+00
    -34.645  0.0000E+00  0.2400E+00
    -34.437  0.0000E+00  0.2400E+00
    -34.229  0.0000E+00  0.2400E+00
    -34.021  0.0000E+00  0.2400E+00
    -33.814  0.0000E+00  0.2400E+00
    -33.606  0.0000E+00  0.2400E+00
    -33.398  0.0000E+00  0.2400E+00
    -33.191  0.0000E+00  0.2400E+00
    -32.983  0.0000E+00  0.2400E+00
    -32.775  0.0000E+00  0.2400E+00
    -32.567  0.0000E+00  0.2400E+00
    -32.360  0.0000E+00  0.2400E+00
    -32.152  0.0000E+00  0.2400E+00
    -31.944  0.0000E+00  0.2400E+00
    -31.736  0.0000E+00  0.2400E+00
    -31.529  0.0000E+00  0.2400E+00
    -31.321  0.0000E+00  0.2400E+00
    -31.113  0.0000E+00  0.2400E+00
    -30.905  0.0000E+00  0.2400E+00
    -30.698  0.0000E+00  0.2400E+00
    -30.490  0.0000E+00  0.2400E+00
    -30.282  0.0000E+00  0.2400E+00
    -30.074  0.0000E+00  0.2400E+00
    -29.867  0.0000E+00  0.2400E+00
    -29.659  0.0000E+00  0.2400E+00
    -29.451  0.0000E+00  0.2400E+00
    -29.243  0.0000E+00  0.2400E+00
    -29.036  0.0000E+00  0.2400E+00
    -28.828  0.0000E+00  0.2400E+00
    -28.620  0.0000E+00  0.2400E+00
    -28.412  0.0000E+00  0.2400E+00
    -28.205  0.0000E+00  0.2400E+00
    -27.997  0.0000E+00  0.2400E+00
    -27.789  0.0000E+00  0.2400E+00
    -27.581  0.0000E+00  0.2400E+00
    -27.374  0.0000E+00  0.2400E+00
    -27.166  0.0000E+00  0.2400E+00
    -26.958  0.0000E+00  0.2400E+00
    -26.751  0.0000E+00  0.2400E+00
    -26.543  0.0000E+00  0.2400E+00
    -26.335  0.0000E+00  0.2400E+00
    -26.127  0.0000E+00  0.2400E+00
    -25.920  0.0000E+00  0.2400E+00
    -25.712 -0.4628E-30  0.2400E+00
    -25.504 -0.3525E-23  0.2400E+00
    -25.296 -0.3043E-17  0.2400E+00
    -25.089 -0.2852E-12  0.2400E+00
    -24.881 -0.3050E-08  0.2400E+00
    -24.673 -0.3565E-05  0.2400E+00
    -24.465 -0.4352E-03  0.2399E+00
    -24.258 -0.3874E-02  0.2391E+00
    -24.050  0.2801E-01  0.2449E+00
    -23.842  0.1843E+00  0.2832E+00
    -23.634  0.4653E+00  0.3799E+00
    -23.427  0.9328E+00  0.5737E+00
    -23.219  0.1007E+01  0.7829E+00
    -23.011  0.4517E+00  0.8768E+00
    -22.803  0.3680E+00  0.9532E+00
    -22.596  0.4233E-01  0.9620E+00
    -22.388 -0.9408E-02  0.9601E+00
    -22.180 -0.3452E-03  0.9600E+00
    -21.972 -0.1212E-05  0.9600E+00
    -21.765 -0.4978E-09  0.9600E+00
    -21.557 -0.2424E-13  0.9600E+00
    -21.349  0.0000E+00  0.9600E+00
    -21.141  0.0000E+00  0.9600E+00
    -20.934  0.0000E+00  0.9600E+00
    -20.726  0.0000E+00  0.9600E+00
    -20.518  0.0000E+00  0.9600E+00
    -20.311  0.0000E+00  0.9600E+00
    -20.103  0.0000E+00  0.9600E+00
    -19.895  0.0000E+00  0.9600E+00
    -19.687  0.0000E+00  0.9600E+00
    -19.480  0.0000E+00  0.9600E+00
    -19.272  0.0000E+00  0.9600E+00
    -19.064  0.0000E+00  0.9600E+00
    -18.856  0.0000E+00  0.9600E+00
    -18.649  0.0000E+00  0.9600E+00
    -18.441  0.0000E+00  0.9600E+00
    -18.233  0.0000E+00  0.9600E+00
    -18.025  0.0000E+00  0.9600E+00
    -17.818  0.0000E+00  0.9600E+00
    -17.610  0.0000E+00  0.9600E+00
    -17.402  0.0000E+00  0.9600E+00
    -17.194  0.0000E+00  0.9600E+00
    -16.987  0.0000E+00  0.9600E+00
    -16.779  0.0000E+00  0.9600E+00
    -16.571  0.0000E+00  0.9600E+00
    -16.363  0.0000E+00  0.9600E+00
    -16.156  0.0000E+00  0.9600E+00
    -15.948  0.0000E+00  0.9600E+00
    -15.740  0.0000E+00  0.9600E+00
    -15.532  0.0000E+00  0.9600E+00
    -15.325  0.0000E+00  0.9600E+00
    -15.117  0.0000E+00  0.9600E+00
    -14.909  0.0000E+00  0.9600E+00
    -14.701  0.0000E+00  0.9600E+00
    -14.494  0.0000E+00  0.9600E+00
    -14.286  0.0000E+00  0.9600E+00
    -14.078  0.0000E+00  0.9600E+00
    -13.871  0.0000E+00  0.9600E+00
    -13.663  0.0000E+00  0.9600E+00
    -13.455  0.0000E+00  0.9600E+00
    -13.247  0.0000E+00  0.9600E+00
    -13.040  0.0000E+00  0.9600E+00
    -12.832  0.0000E+00  0.9600E+00
    -12.624  0.0000E+00  0.9600E+00
    -12.416  0.0000E+00  0.9600E+00
    -12.209  0.0000E+00  0.9600E+00
    -12.001  0.0000E+00  0.9600E+00
    -11.793  0.0000E+00  0.9600E+00
    -11.585  0.0000E+00  0.9600E+00
    -11.378  0.0000E+00  0.9600E+00
    -11.170  0.0000E+00  0.9600E+00
    -10.962  0.0000E+00  0.9600E+00
    -10.754  0.0000E+00  0.9600E+00
    -10.547  0.0000E+00  0.9600E+00
    -10.339  0.0000E+00  0.9600E+00
    -10.131  0.0000E+00  0.9600E+00
     -9.923  0.0000E+00  0.9600E+00
     -9.716  0.0000E+00  0.9600E+00
     -9.508  0.0000E+00  0.9600E+00
     -9.300  0.0000E+00  0.9600E+00
     -9.092  0.0000E+00  0.9600E+00
     -8.885  0.0000E+00  0.9600E+00
     -8.677  0.0000E+00  0.9600E+00
     -8.469  0.0000E+00  0.9600E+00
     -8.261  0.0000E+00  0.9600E+00
     -8.054  0.0000E+00  0.9600E+00
     -7.846  0.0000E+00  0.9600E+00
     -7.638  0.0000E+00  0.9600E+00
     -7.431  0.0000E+00  0.9600E+00
     -7.223  0.0000E+00  0.9600E+00
     -7.015  0.0000E+00  0.9600E+00
     -6.807  0.0000E+00  0.9600E+00
     -6.600  0.0000E+00  0.9600E+00
     -6.392  0.0000E+00  0.9600E+00
     -6.184  0.0000E+00  0.9600E+00
     -5.976  0.0000E+00  0.9600E+00
     -5.769  0.0000E+00  0.9600E+00
     -5.561  0.0000E+00  0.9600E+00
     -5.353  0.0000E+00  0.9600E+00
     -5.145  0.0000E+00  0.9600E+00
     -4.938  0.0000E+00  0.9600E+00
     -4.730  0.0000E+00  0.9600E+00
     -4.522  0.0000E+00  0.9600E+00
     -4.314  0.0000E+00  0.9600E+00
     -4.107  0.0000E+00  0.9600E+00
     -3.899  0.0000E+00  0.9600E+00
     -3.691  0.0000E+00  0.9600E+00
     -3.483  0.0000E+00  0.9600E+00
     -3.276  0.0000E+00  0.9600E+00
     -3.068  0.0000E+00  0.9600E+00
     -2.860  0.0000E+00  0.9600E+00
     -2.652  0.0000E+00  0.9600E+00
     -2.445  0.0000E+00  0.9600E+00
     -2.237 -0.1328E-34  0.9600E+00
     -2.029 -0.2518E-27  0.9600E+00
     -1.822 -0.5451E-21  0.9600E+00
     -1.614 -0.1304E-15  0.9600E+00
     -1.406 -0.3617E-11  0.9600E+00
     -1.198 -0.1133E-07  0.9600E+00
     -0.991 -0.3926E-05  0.9600E+00
     -0.783 -0.1342E-03  0.9600E+00
     -0.575  0.1587E-03  0.9600E+00
     -0.367  0.6297E-02  0.9613E+00
     -0.160  0.1987E-01  0.9654E+00
      0.048  0.2966E-01  0.9716E+00
      0.256  0.3720E-01  0.9793E+00
      0.464  0.3178E-01  0.9859E+00
      0.671  0.6194E-01  0.9988E+00
      0.879  0.7029E-01  0.1013E+01
      1.087  0.6139E-01  0.1026E+01
      1.295  0.5715E-01  0.1038E+01
      1.502  0.8759E-01  0.1056E+01
      1.710  0.7646E-01  0.1072E+01
      1.918  0.8785E-01  0.1090E+01
      2.126  0.1483E+00  0.1121E+01
      2.333  0.2142E+00  0.1166E+01
      2.541  0.3070E+00  0.1229E+01
      2.749  0.3767E+00  0.1308E+01
      2.957  0.4457E+00  0.1400E+01
      3.164  0.5612E+00  0.1517E+01
      3.372  0.6067E+00  0.1643E+01
      3.580  0.5918E+00  0.1766E+01
      3.788  0.5881E+00  0.1888E+01
      3.995  0.6239E+00  0.2018E+01
      4.203  0.5904E+00  0.2140E+01
      4.411  0.4868E+00  0.2241E+01
      4.618  0.5570E+00  0.2357E+01
      4.826  0.7594E+00  0.2515E+01
      5.034  0.7918E+00  0.2679E+01
      5.242  0.7814E+00  0.2842E+01
      5.449  0.7513E+00  0.2998E+01
      5.657  0.7274E+00  0.3149E+01
      5.865  0.7302E+00  0.3301E+01
      6.073  0.7781E+00  0.3462E+01
      6.280  0.8047E+00  0.3629E+01
      6.488  0.7616E+00  0.3788E+01
      6.696  0.6811E+00  0.3929E+01
      6.904  0.6026E+00  0.4054E+01
      7.111  0.5084E+00  0.4160E+01
      7.319  0.4103E+00  0.4245E+01
      7.527  0.3443E+00  0.4317E+01
      7.735  0.3068E+00  0.4380E+01
      7.942  0.3287E+00  0.4449E+01
      8.150  0.3874E+00  0.4529E+01
      8.358  0.4298E+00  0.4618E+01
      8.566  0.3965E+00  0.4701E+01
      8.773  0.2771E+00  0.4758E+01
      8.981  0.1390E+00  0.4787E+01
      9.189  0.5463E-01  0.4799E+01
      9.397  0.7713E-02  0.4800E+01
      9.604 -0.8593E-03  0.4800E+01
      9.812 -0.1500E-03  0.4800E+01
     10.020 -0.1879E-05  0.4800E+01
     10.228 -0.2556E-08  0.4800E+01
     10.435 -0.3958E-12  0.4800E+01
     10.643 -0.7525E-17  0.4800E+01
     10.851  0.0000E+00  0.4800E+01
     11.058  0.0000E+00  0.4800E+01
     11.266  0.0000E+00  0.4800E+01
     11.474  0.0000E+00  0.4800E+01
     11.682  0.0000E+00  0.4800E+01
     11.889  0.0000E+00  0.4800E+01
     12.097  0.0000E+00  0.4800E+01
