   29   29   50    1
  0.1679057E+02  0.5525242E-09  0.8287863E-09  0.1139058E-08  0.5000000E-15
  1.000000000000000E-004
  CAR 
 SQS with 1 vacancy for VFE and VRV      
    199     63    120
 
  0.0000000E+00  0.0000000E+00  0.0000000E+00  0.8000000E-02
    1      -47.392490   1.000000
    2      -47.310525   1.000000
    3      -47.235343   1.000000
    4      -47.213792   1.000000
    5      -47.141086   1.000000
    6      -47.038037   1.000000
    7      -24.069499   1.000000
    8      -23.835797   1.000000
    9      -23.727544   1.000000
   10      -23.673515   1.000000
   11      -23.562247   1.000000
   12      -23.498318   1.000000
   13      -23.489103   1.000000
   14      -23.443412   1.000000
   15      -23.398786   1.000000
   16      -23.377463   1.000000
   17      -23.349805   1.000000
   18      -23.330693   1.000000
   19      -23.292490   1.000000
   20      -23.225507   1.000000
   21      -23.077674   1.000000
   22      -22.991119   1.000000
   23      -22.891347   1.000000
   24      -22.834524   1.000000
   25       -0.508059   1.000000
   26        0.745456   1.000000
   27        1.259925   1.000000
   28        2.035136   1.000000
   29        2.116653   1.000000
   30        2.192408   1.000000
   31        2.307309   1.000000
   32        2.393805   1.000000
   33        2.535838   1.000000
   34        2.564125   1.000000
   35        2.629786   1.000000
   36        2.696340   1.000000
   37        2.788360   1.000000
   38        2.854691   1.000000
   39        2.995605   1.000000
   40        3.119969   1.000000
   41        3.150529   1.000000
   42        3.252349   1.000000
   43        3.305439   1.000000
   44        3.341652   1.000000
   45        3.410734   1.000000
   46        3.535188   1.000000
   47        3.573409   1.000000
   48        3.621422   1.000000
   49        3.649449   1.000000
   50        3.706049   1.000000
   51        3.748349   1.000000
   52        3.850069   1.000000
   53        3.867265   1.000000
   54        3.978974   1.000000
   55        4.079547   1.000000
   56        4.151642   1.000000
   57        4.308734   1.000000
   58        4.349185   1.000000
   59        4.476428   1.000000
   60        4.553702   1.000000
   61        4.627197   1.000000
   62        4.635286   1.000000
   63        4.681323   1.000000
   64        4.744488   1.000000
   65        4.845141   1.000000
   66        4.855770   1.000000
   67        4.904329   1.000000
   68        4.978406   1.000000
   69        4.998262   1.000000
   70        5.040912   1.000000
   71        5.097234   1.000000
   72        5.129010   1.000000
   73        5.226289   1.000000
   74        5.258947   1.000000
   75        5.337755   1.000000
   76        5.385108   1.000000
   77        5.520215   1.000000
   78        5.542021   1.000000
   79        5.607440   1.000000
   80        5.740074   1.000000
   81        5.845911   1.000000
   82        5.869108   1.000000
   83        6.002765   1.000000
   84        6.090270   1.000007
   85        6.114489   1.000015
   86        6.130221   1.000024
   87        6.157451   1.000054
   88        6.198764   1.000170
   89        6.247070   1.000581
   90        6.318214   1.002776
   91        6.421158   1.015279
   92        6.502469   1.032753
   93        6.576535   1.025276
   94        6.668180   0.892900
   95        6.722697   0.719986
   96        6.766520   0.543528
   97        6.867837   0.155564
   98        7.017472  -0.035385
   99        7.043971  -0.033833
  100        7.123571  -0.017102
  101        7.203499  -0.005075
  102        7.289273  -0.000873
  103        7.348211  -0.000203
  104        7.486387  -0.000003
  105        7.553837  -0.000000
  106        7.618368  -0.000000
  107        7.723346  -0.000000
  108        7.822055  -0.000000
  109        7.995562  -0.000000
  110        8.274556  -0.000000
  111        8.425890  -0.000000
  112        8.534401  -0.000000
  113        8.572413  -0.000000
  114        8.676921  -0.000000
  115        8.724037  -0.000000
  116        8.892706  -0.000000
  117        8.970155  -0.000000
  118        9.004756  -0.000000
  119        9.054634  -0.000000
  120        9.144341  -0.000000
 
  0.2000000E+00 -0.1387779E-16  0.0000000E+00  0.1600000E-01
    1      -47.383587   1.000000
    2      -47.310252   1.000000
    3      -47.237702   1.000000
    4      -47.213551   1.000000
    5      -47.147013   1.000000
    6      -47.038153   1.000000
    7      -23.971228   1.000000
    8      -23.832946   1.000000
    9      -23.720144   1.000000
   10      -23.669947   1.000000
   11      -23.553573   1.000000
   12      -23.509378   1.000000
   13      -23.488845   1.000000
   14      -23.450039   1.000000
   15      -23.402932   1.000000
   16      -23.382237   1.000000
   17      -23.354458   1.000000
   18      -23.336732   1.000000
   19      -23.294593   1.000000
   20      -23.228292   1.000000
   21      -23.084554   1.000000
   22      -22.999304   1.000000
   23      -22.940697   1.000000
   24      -22.896668   1.000000
   25       -0.195649   1.000000
   26        1.014332   1.000000
   27        1.511872   1.000000
   28        2.131959   1.000000
   29        2.246170   1.000000
   30        2.376739   1.000000
   31        2.514398   1.000000
   32        2.575297   1.000000
   33        2.684554   1.000000
   34        2.756149   1.000000
   35        2.825543   1.000000
   36        2.889545   1.000000
   37        3.002696   1.000000
   38        3.077718   1.000000
   39        3.137845   1.000000
   40        3.197364   1.000000
   41        3.273384   1.000000
   42        3.320689   1.000000
   43        3.391521   1.000000
   44        3.447843   1.000000
   45        3.495815   1.000000
   46        3.610487   1.000000
   47        3.676295   1.000000
   48        3.757498   1.000000
   49        3.787602   1.000000
   50        3.881105   1.000000
   51        3.919715   1.000000
   52        3.971934   1.000000
   53        4.042730   1.000000
   54        4.070050   1.000000
   55        4.154932   1.000000
   56        4.219230   1.000000
   57        4.320878   1.000000
   58        4.426483   1.000000
   59        4.483073   1.000000
   60        4.574552   1.000000
   61        4.669632   1.000000
   62        4.699639   1.000000
   63        4.797733   1.000000
   64        4.840161   1.000000
   65        4.889888   1.000000
   66        4.958273   1.000000
   67        5.006499   1.000000
   68        5.042679   1.000000
   69        5.084900   1.000000
   70        5.158083   1.000000
   71        5.184013   1.000000
   72        5.257153   1.000000
   73        5.323631   1.000000
   74        5.336752   1.000000
   75        5.428893   1.000000
   76        5.454654   1.000000
   77        5.510515   1.000000
   78        5.597578   1.000000
   79        5.648798   1.000000
   80        5.663809   1.000000
   81        5.748409   1.000000
   82        5.789968   1.000000
   83        5.889422   1.000000
   84        5.925867   1.000000
   85        6.033902   1.000001
   86        6.075891   1.000004
   87        6.125472   1.000021
   88        6.214848   1.000260
   89        6.243116   1.000528
   90        6.292362   1.001627
   91        6.359213   1.005953
   92        6.423278   1.015703
   93        6.450167   1.021535
   94        6.510724   1.033972
   95        6.552749   1.033531
   96        6.644506   0.945739
   97        6.712918   0.755705
   98        6.743888   0.637282
   99        6.803498   0.388228
  100        6.912809   0.047328
  101        6.945604  -0.000444
  102        7.035210  -0.034824
  103        7.063148  -0.030560
  104        7.117786  -0.018338
  105        7.221807  -0.003618
  106        7.347570  -0.000207
  107        7.470264  -0.000005
  108        7.584391  -0.000000
  109        7.766310  -0.000000
  110        7.871415  -0.000000
  111        7.955881  -0.000000
  112        8.009993  -0.000000
  113        8.121373  -0.000000
  114        8.213162  -0.000000
  115        8.331757  -0.000000
  116        8.483434  -0.000000
  117        8.526255  -0.000000
  118        8.576160  -0.000000
  119        8.644498  -0.000000
  120        8.679156  -0.000000
 
  0.4000000E+00 -0.2775558E-16  0.0000000E+00  0.1600000E-01
    1      -47.366853   1.000000
    2      -47.310177   1.000000
    3      -47.243673   1.000000
    4      -47.213139   1.000000
    5      -47.156428   1.000000
    6      -47.038344   1.000000
    7      -23.843956   1.000000
    8      -23.749392   1.000000
    9      -23.682675   1.000000
   10      -23.642568   1.000000
   11      -23.539745   1.000000
   12      -23.522144   1.000000
   13      -23.490636   1.000000
   14      -23.460858   1.000000
   15      -23.411963   1.000000
   16      -23.390098   1.000000
   17      -23.369481   1.000000
   18      -23.344597   1.000000
   19      -23.298432   1.000000
   20      -23.248662   1.000000
   21      -23.232548   1.000000
   22      -23.068160   1.000000
   23      -22.989942   1.000000
   24      -22.907717   1.000000
   25        0.601670   1.000000
   26        1.485947   1.000000
   27        2.058071   1.000000
   28        2.244569   1.000000
   29        2.370620   1.000000
   30        2.609494   1.000000
   31        2.686922   1.000000
   32        2.824430   1.000000
   33        2.925940   1.000000
   34        3.033635   1.000000
   35        3.145437   1.000000
   36        3.192979   1.000000
   37        3.267064   1.000000
   38        3.340862   1.000000
   39        3.365490   1.000000
   40        3.417157   1.000000
   41        3.492157   1.000000
   42        3.547224   1.000000
   43        3.628897   1.000000
   44        3.659028   1.000000
   45        3.772296   1.000000
   46        3.842986   1.000000
   47        3.909185   1.000000
   48        3.987009   1.000000
   49        4.029636   1.000000
   50        4.067493   1.000000
   51        4.155283   1.000000
   52        4.271553   1.000000
   53        4.347788   1.000000
   54        4.434074   1.000000
   55        4.458339   1.000000
   56        4.488951   1.000000
   57        4.549712   1.000000
   58        4.587749   1.000000
   59        4.634576   1.000000
   60        4.653336   1.000000
   61        4.699179   1.000000
   62        4.780189   1.000000
   63        4.811330   1.000000
   64        4.880750   1.000000
   65        4.926562   1.000000
   66        4.986878   1.000000
   67        5.045951   1.000000
   68        5.100910   1.000000
   69        5.152042   1.000000
   70        5.192990   1.000000
   71        5.265041   1.000000
   72        5.291798   1.000000
   73        5.315788   1.000000
   74        5.366229   1.000000
   75        5.406365   1.000000
   76        5.501971   1.000000
   77        5.515924   1.000000
   78        5.548150   1.000000
   79        5.608452   1.000000
   80        5.667071   1.000000
   81        5.755584   1.000000
   82        5.777003   1.000000
   83        5.808498   1.000000
   84        5.881128   1.000000
   85        5.989403   1.000000
   86        6.032163   1.000001
   87        6.063822   1.000003
   88        6.099874   1.000009
   89        6.160531   1.000059
   90        6.184847   1.000117
   91        6.243671   1.000535
   92        6.275819   1.001132
   93        6.305393   1.002140
   94        6.391096   1.009999
   95        6.428951   1.016867
   96        6.454753   1.022588
   97        6.485157   1.029463
   98        6.540387   1.035162
   99        6.599569   1.008946
  100        6.642298   0.949949
  101        6.677553   0.868083
  102        6.731589   0.686076
  103        6.820053   0.321726
  104        6.855098   0.195235
  105        6.941254   0.004498
  106        7.024950  -0.035420
  107        7.146720  -0.012603
  108        7.198515  -0.005544
  109        7.262833  -0.001574
  110        7.296948  -0.000730
  111        7.428421  -0.000021
  112        7.580040  -0.000000
  113        7.748997  -0.000000
  114        7.797651  -0.000000
  115        7.867420  -0.000000
  116        7.989191  -0.000000
  117        8.072301  -0.000000
  118        8.197504  -0.000000
  119        8.275506  -0.000000
  120        8.377064  -0.000000
 
  0.0000000E+00  0.2000000E+00  0.1387779E-16  0.1600000E-01
    1      -47.392487   1.000000
    2      -47.310490   1.000000
    3      -47.235285   1.000000
    4      -47.213568   1.000000
    5      -47.141080   1.000000
    6      -47.038349   1.000000
    7      -24.069512   1.000000
    8      -23.833607   1.000000
    9      -23.724685   1.000000
   10      -23.672057   1.000000
   11      -23.562290   1.000000
   12      -23.498331   1.000000
   13      -23.489137   1.000000
   14      -23.443442   1.000000
   15      -23.399056   1.000000
   16      -23.377645   1.000000
   17      -23.349880   1.000000
   18      -23.330795   1.000000
   19      -23.292410   1.000000
   20      -23.225284   1.000000
   21      -23.077749   1.000000
   22      -22.992416   1.000000
   23      -22.897859   1.000000
   24      -22.834543   1.000000
   25       -0.358271   1.000000
   26        0.837140   1.000000
   27        1.355500   1.000000
   28        1.606396   1.000000
   29        1.991003   1.000000
   30        2.255885   1.000000
   31        2.317541   1.000000
   32        2.484439   1.000000
   33        2.554573   1.000000
   34        2.604072   1.000000
   35        2.688824   1.000000
   36        2.710930   1.000000
   37        2.822601   1.000000
   38        2.876645   1.000000
   39        2.941849   1.000000
   40        2.990536   1.000000
   41        3.090436   1.000000
   42        3.179587   1.000000
   43        3.239430   1.000000
   44        3.323310   1.000000
   45        3.388832   1.000000
   46        3.476252   1.000000
   47        3.593254   1.000000
   48        3.685752   1.000000
   49        3.770035   1.000000
   50        3.786648   1.000000
   51        3.846384   1.000000
   52        3.886353   1.000000
   53        3.969398   1.000000
   54        4.007109   1.000000
   55        4.093276   1.000000
   56        4.189222   1.000000
   57        4.247182   1.000000
   58        4.397289   1.000000
   59        4.488034   1.000000
   60        4.545773   1.000000
   61        4.639027   1.000000
   62        4.720365   1.000000
   63        4.767311   1.000000
   64        4.808186   1.000000
   65        4.887192   1.000000
   66        4.926111   1.000000
   67        4.959516   1.000000
   68        5.009296   1.000000
   69        5.030337   1.000000
   70        5.100652   1.000000
   71        5.166070   1.000000
   72        5.207953   1.000000
   73        5.300230   1.000000
   74        5.326144   1.000000
   75        5.375162   1.000000
   76        5.427205   1.000000
   77        5.486370   1.000000
   78        5.561648   1.000000
   79        5.703025   1.000000
   80        5.734139   1.000000
   81        5.829719   1.000000
   82        5.861510   1.000000
   83        5.945072   1.000000
   84        5.983772   1.000000
   85        6.081973   1.000005
   86        6.117641   1.000016
   87        6.165343   1.000068
   88        6.221360   1.000307
   89        6.234519   1.000428
   90        6.247147   1.000582
   91        6.322477   1.003019
   92        6.355202   1.005551
   93        6.486386   1.029721
   94        6.535561   1.035404
   95        6.624888   0.978998
   96        6.675817   0.872844
   97        6.790363   0.442849
   98        6.878544   0.125209
   99        7.008596  -0.034727
  100        7.059341  -0.031303
  101        7.188149  -0.006629
  102        7.262628  -0.001581
  103        7.320852  -0.000410
  104        7.499844  -0.000002
  105        7.558352  -0.000000
  106        7.701978  -0.000000
  107        7.793162  -0.000000
  108        7.907395  -0.000000
  109        7.931571  -0.000000
  110        8.071075  -0.000000
  111        8.140426  -0.000000
  112        8.209448  -0.000000
  113        8.430211  -0.000000
  114        8.539071  -0.000000
  115        8.632918  -0.000000
  116        8.658583  -0.000000
  117        8.760388  -0.000000
  118        8.885937  -0.000000
  119        8.914946  -0.000000
  120        8.940713  -0.000000
 
  0.2000000E+00  0.2000000E+00 -0.4857226E-16  0.1600000E-01
    1      -47.383588   1.000000
    2      -47.310283   1.000000
    3      -47.237751   1.000000
    4      -47.213776   1.000000
    5      -47.147019   1.000000
    6      -47.037851   1.000000
    7      -23.971228   1.000000
    8      -23.835134   1.000000
    9      -23.723161   1.000000
   10      -23.671088   1.000000
   11      -23.553566   1.000000
   12      -23.509351   1.000000
   13      -23.488793   1.000000
   14      -23.450038   1.000000
   15      -23.402701   1.000000
   16      -23.382259   1.000000
   17      -23.354397   1.000000
   18      -23.336601   1.000000
   19      -23.294633   1.000000
   20      -23.228265   1.000000
   21      -23.084467   1.000000
   22      -22.998180   1.000000
   23      -22.940195   1.000000
   24      -22.890681   1.000000
   25       -0.192089   1.000000
   26        0.974605   1.000000
   27        1.511776   1.000000
   28        1.993196   1.000000
   29        2.242633   1.000000
   30        2.363350   1.000000
   31        2.440067   1.000000
   32        2.592851   1.000000
   33        2.657910   1.000000
   34        2.745886   1.000000
   35        2.786747   1.000000
   36        2.853858   1.000000
   37        2.953490   1.000000
   38        3.003425   1.000000
   39        3.113435   1.000000
   40        3.155764   1.000000
   41        3.247028   1.000000
   42        3.330764   1.000000
   43        3.394420   1.000000
   44        3.499451   1.000000
   45        3.551079   1.000000
   46        3.625444   1.000000
   47        3.690876   1.000000
   48        3.760059   1.000000
   49        3.811408   1.000000
   50        3.880778   1.000000
   51        3.915439   1.000000
   52        3.975577   1.000000
   53        4.029646   1.000000
   54        4.094129   1.000000
   55        4.158154   1.000000
   56        4.245871   1.000000
   57        4.363028   1.000000
   58        4.454359   1.000000
   59        4.555039   1.000000
   60        4.610659   1.000000
   61        4.648639   1.000000
   62        4.693460   1.000000
   63        4.757387   1.000000
   64        4.822570   1.000000
   65        4.887197   1.000000
   66        4.935097   1.000000
   67        4.982264   1.000000
   68        5.015877   1.000000
   69        5.019928   1.000000
   70        5.072261   1.000000
   71        5.125351   1.000000
   72        5.191079   1.000000
   73        5.270195   1.000000
   74        5.295095   1.000000
   75        5.369805   1.000000
   76        5.428490   1.000000
   77        5.461810   1.000000
   78        5.543073   1.000000
   79        5.665290   1.000000
   80        5.714744   1.000000
   81        5.782083   1.000000
   82        5.796288   1.000000
   83        5.854484   1.000000
   84        5.921402   1.000000
   85        5.975883   1.000000
   86        6.017877   1.000001
   87        6.077292   1.000004
   88        6.134215   1.000027
   89        6.250356   1.000628
   90        6.326876   1.003290
   91        6.356861   1.005715
   92        6.401212   1.011617
   93        6.504552   1.033087
   94        6.534791   1.035424
   95        6.596344   1.011809
   96        6.709565   0.767533
   97        6.735366   0.671306
   98        6.833249   0.271449
   99        6.885254   0.107631
  100        6.975364  -0.024354
  101        7.028801  -0.035276
  102        7.106506  -0.020845
  103        7.160292  -0.010345
  104        7.192103  -0.006197
  105        7.243177  -0.002375
  106        7.382251  -0.000080
  107        7.474906  -0.000005
  108        7.501388  -0.000002
  109        7.656816  -0.000000
  110        7.846332  -0.000000
  111        7.885233  -0.000000
  112        8.119233  -0.000000
  113        8.308647  -0.000000
  114        8.511181  -0.000000
  115        8.560764  -0.000000
  116        8.653929  -0.000000
  117        8.843811  -0.000000
  118        8.891641  -0.000000
  119        8.957771  -0.000000
  120        9.036486  -0.000000
 
  0.4000000E+00  0.2000000E+00 -0.5551115E-16  0.1600000E-01
    1      -47.366854   1.000000
    2      -47.310228   1.000000
    3      -47.243734   1.000000
    4      -47.213528   1.000000
    5      -47.156438   1.000000
    6      -47.037849   1.000000
    7      -23.846541   1.000000
    8      -23.752749   1.000000
    9      -23.687159   1.000000
   10      -23.642609   1.000000
   11      -23.539766   1.000000
   12      -23.522119   1.000000
   13      -23.490620   1.000000
   14      -23.460849   1.000000
   15      -23.411582   1.000000
   16      -23.390060   1.000000
   17      -23.369373   1.000000
   18      -23.344386   1.000000
   19      -23.298515   1.000000
   20      -23.248594   1.000000
   21      -23.232582   1.000000
   22      -23.067904   1.000000
   23      -22.987235   1.000000
   24      -22.897940   1.000000
   25        0.505829   1.000000
   26        1.413843   1.000000
   27        1.921598   1.000000
   28        2.139812   1.000000
   29        2.233551   1.000000
   30        2.469591   1.000000
   31        2.704495   1.000000
   32        2.916421   1.000000
   33        3.027446   1.000000
   34        3.093079   1.000000
   35        3.143890   1.000000
   36        3.268181   1.000000
   37        3.311360   1.000000
   38        3.338367   1.000000
   39        3.418360   1.000000
   40        3.479048   1.000000
   41        3.525269   1.000000
   42        3.586274   1.000000
   43        3.619625   1.000000
   44        3.703905   1.000000
   45        3.774938   1.000000
   46        3.800339   1.000000
   47        3.895028   1.000000
   48        3.915464   1.000000
   49        3.984851   1.000000
   50        4.051719   1.000000
   51        4.077549   1.000000
   52        4.149372   1.000000
   53        4.209789   1.000000
   54        4.251321   1.000000
   55        4.326205   1.000000
   56        4.454952   1.000000
   57        4.534639   1.000000
   58        4.568643   1.000000
   59        4.640478   1.000000
   60        4.657115   1.000000
   61        4.715131   1.000000
   62        4.796013   1.000000
   63        4.836287   1.000000
   64        4.850889   1.000000
   65        4.897447   1.000000
   66        4.992149   1.000000
   67        5.049530   1.000000
   68        5.066937   1.000000
   69        5.114553   1.000000
   70        5.164357   1.000000
   71        5.221219   1.000000
   72        5.261079   1.000000
   73        5.312044   1.000000
   74        5.412544   1.000000
   75        5.453376   1.000000
   76        5.499231   1.000000
   77        5.538182   1.000000
   78        5.572037   1.000000
   79        5.658937   1.000000
   80        5.699115   1.000000
   81        5.749637   1.000000
   82        5.808890   1.000000
   83        5.851812   1.000000
   84        5.909357   1.000000
   85        5.948620   1.000000
   86        5.974862   1.000000
   87        6.041148   1.000001
   88        6.064695   1.000003
   89        6.116253   1.000016
   90        6.171047   1.000079
   91        6.188464   1.000129
   92        6.236181   1.000445
   93        6.263272   1.000851
   94        6.315646   1.002637
   95        6.349971   1.005059
   96        6.435530   1.018267
   97        6.463552   1.024623
   98        6.482806   1.028963
   99        6.539301   1.035234
  100        6.595459   1.012559
  101        6.699345   0.802150
  102        6.744956   0.632958
  103        6.806024   0.377885
  104        6.900632   0.071619
  105        6.997707  -0.032846
  106        7.067034  -0.029768
  107        7.187958  -0.006651
  108        7.331844  -0.000311
  109        7.369035  -0.000116
  110        7.608300  -0.000000
  111        7.684360  -0.000000
  112        7.799410  -0.000000
  113        8.006992  -0.000000
  114        8.052687  -0.000000
  115        8.189728  -0.000000
  116        8.238514  -0.000000
  117        8.345068  -0.000000
  118        8.448107  -0.000000
  119        8.489395  -0.000000
  120        8.552467  -0.000000
 
 -0.4000000E+00  0.2000000E+00 -0.3908332E-16  0.1600000E-01
    1      -47.366852   1.000000
    2      -47.310176   1.000000
    3      -47.243672   1.000000
    4      -47.213136   1.000000
    5      -47.156428   1.000000
    6      -47.038349   1.000000
    7      -23.843931   1.000000
    8      -23.749373   1.000000
    9      -23.682667   1.000000
   10      -23.642579   1.000000
   11      -23.539744   1.000000
   12      -23.522149   1.000000
   13      -23.490627   1.000000
   14      -23.460878   1.000000
   15      -23.411983   1.000000
   16      -23.390194   1.000000
   17      -23.369486   1.000000
   18      -23.344576   1.000000
   19      -23.298407   1.000000
   20      -23.248654   1.000000
   21      -23.232429   1.000000
   22      -23.068150   1.000000
   23      -22.989942   1.000000
   24      -22.907848   1.000000
   25        0.866123   1.000000
   26        1.460127   1.000000
   27        1.793089   1.000000
   28        2.158007   1.000000
   29        2.353048   1.000000
   30        2.475422   1.000000
   31        2.659667   1.000000
   32        2.833898   1.000000
   33        2.967475   1.000000
   34        3.018465   1.000000
   35        3.138844   1.000000
   36        3.209501   1.000000
   37        3.250155   1.000000
   38        3.302685   1.000000
   39        3.383605   1.000000
   40        3.440961   1.000000
   41        3.522253   1.000000
   42        3.541994   1.000000
   43        3.610869   1.000000
   44        3.663810   1.000000
   45        3.740763   1.000000
   46        3.837055   1.000000
   47        3.940837   1.000000
   48        3.974608   1.000000
   49        4.066175   1.000000
   50        4.149960   1.000000
   51        4.196944   1.000000
   52        4.264115   1.000000
   53        4.323589   1.000000
   54        4.400832   1.000000
   55        4.471463   1.000000
   56        4.518099   1.000000
   57        4.564906   1.000000
   58        4.634178   1.000000
   59        4.674069   1.000000
   60        4.720042   1.000000
   61        4.771153   1.000000
   62        4.831440   1.000000
   63        4.886277   1.000000
   64        4.911903   1.000000
   65        4.937625   1.000000
   66        4.962427   1.000000
   67        5.002150   1.000000
   68        5.038106   1.000000
   69        5.105943   1.000000
   70        5.155061   1.000000
   71        5.221778   1.000000
   72        5.236117   1.000000
   73        5.293017   1.000000
   74        5.337835   1.000000
   75        5.402499   1.000000
   76        5.436824   1.000000
   77        5.547534   1.000000
   78        5.570691   1.000000
   79        5.636883   1.000000
   80        5.677666   1.000000
   81        5.743969   1.000000
   82        5.776248   1.000000
   83        5.828698   1.000000
   84        5.869944   1.000000
   85        5.941135   1.000000
   86        5.974035   1.000000
   87        5.986196   1.000000
   88        6.047181   1.000002
   89        6.117758   1.000016
   90        6.146819   1.000039
   91        6.196861   1.000162
   92        6.262222   1.000831
   93        6.307443   1.002233
   94        6.370164   1.007169
   95        6.425172   1.016087
   96        6.466280   1.025254
   97        6.510783   1.033979
   98        6.564799   1.030293
   99        6.645739   0.943333
  100        6.691582   0.826915
  101        6.735635   0.670244
  102        6.768287   0.536076
  103        6.878102   0.126407
  104        6.911856   0.049096
  105        6.953779  -0.008673
  106        7.036908  -0.034663
  107        7.149645  -0.012091
  108        7.208673  -0.004622
  109        7.283246  -0.001002
  110        7.318178  -0.000438
  111        7.457142  -0.000008
  112        7.527823  -0.000001
  113        7.713187  -0.000000
  114        7.835895  -0.000000
  115        7.982898  -0.000000
  116        8.093085  -0.000000
  117        8.212230  -0.000000
  118        8.258574  -0.000000
  119        8.311930  -0.000000
  120        8.358262  -0.000000
 
 -0.2000000E+00  0.2000000E+00  0.1006140E-15  0.1600000E-01
    1      -47.383583   1.000000
    2      -47.310197   1.000000
    3      -47.237622   1.000000
    4      -47.213174   1.000000
    5      -47.147003   1.000000
    6      -47.038658   1.000000
    7      -23.971236   1.000000
    8      -23.829564   1.000000
    9      -23.715238   1.000000
   10      -23.667565   1.000000
   11      -23.553625   1.000000
   12      -23.509388   1.000000
   13      -23.488870   1.000000
   14      -23.450083   1.000000
   15      -23.403362   1.000000
   16      -23.382459   1.000000
   17      -23.354564   1.000000
   18      -23.336927   1.000000
   19      -23.294462   1.000000
   20      -23.228013   1.000000
   21      -23.084679   1.000000
   22      -23.001473   1.000000
   23      -22.941880   1.000000
   24      -22.906206   1.000000
   25        0.077374   1.000000
   26        1.147186   1.000000
   27        1.482609   1.000000
   28        1.774617   1.000000
   29        2.118962   1.000000
   30        2.419803   1.000000
   31        2.548883   1.000000
   32        2.679365   1.000000
   33        2.744111   1.000000
   34        2.812260   1.000000
   35        2.890160   1.000000
   36        2.950795   1.000000
   37        3.021932   1.000000
   38        3.058797   1.000000
   39        3.112127   1.000000
   40        3.139732   1.000000
   41        3.195258   1.000000
   42        3.255141   1.000000
   43        3.343484   1.000000
   44        3.384042   1.000000
   45        3.477167   1.000000
   46        3.542913   1.000000
   47        3.637554   1.000000