       N       E                     dE             d eps       ncg     rms          rms(c)
DAV:   1     0.216934629994E+04    0.21693E+04   -0.91672E+04 15120   0.176E+03
DAV:   2     0.764814728317E+02   -0.20929E+04   -0.20316E+04 15184   0.522E+02
DAV:   3    -0.300572124128E+03   -0.37705E+03   -0.35937E+03 26376   0.183E+02
DAV:   4    -0.347247514032E+03   -0.46675E+02   -0.43263E+02 23424   0.603E+01
DAV:   5    -0.352351822108E+03   -0.51043E+01   -0.49655E+01 28632   0.221E+01    0.746E+01
DAV:   6    -0.342944639037E+03    0.94072E+01   -0.12681E+02 21072   0.307E+01    0.380E+01
DAV:   7    -0.356437006227E+03   -0.13492E+02   -0.47240E+02 20808   0.924E+01    0.271E+01
DAV:   8    -0.347239513089E+03    0.91975E+01   -0.13247E+02 22464   0.409E+01    0.199E+01
DAV:   9    -0.335286691728E+03    0.11953E+02   -0.18978E+01 21072   0.156E+01    0.140E+01
DAV:  10    -0.331827192708E+03    0.34595E+01   -0.94897E+00 21936   0.921E+00    0.999E+00
DAV:  11    -0.330232903901E+03    0.15943E+01   -0.45321E+00 22008   0.582E+00    0.662E+00
DAV:  12    -0.329750816866E+03    0.48209E+00   -0.27378E+00 22264   0.492E+00    0.377E+00
DAV:  13    -0.329670091289E+03    0.80726E-01   -0.14902E+00 22792   0.390E+00    0.236E+00
DAV:  14    -0.329582515841E+03    0.87575E-01   -0.69805E-01 21600   0.262E+00    0.122E+00
DAV:  15    -0.329598824167E+03   -0.16308E-01   -0.49475E-01 22496   0.213E+00    0.153E+00
DAV:  16    -0.329580541349E+03    0.18283E-01   -0.16182E-01 22896   0.116E+00    0.856E-01
DAV:  17    -0.329573986150E+03    0.65552E-02   -0.52387E-02 22464   0.689E-01    0.610E-01
DAV:  18    -0.329571180502E+03    0.28056E-02   -0.37041E-02 21560   0.530E-01    0.331E-01
DAV:  19    -0.329571699660E+03   -0.51916E-03   -0.25488E-02 22224   0.470E-01    0.335E-01
DAV:  20    -0.329569973085E+03    0.17266E-02   -0.85443E-03 19832   0.272E-01    0.953E-02
DAV:  21    -0.329569881508E+03    0.91577E-04   -0.12424E-03 19560   0.115E-01    0.512E-02
DAV:  22    -0.329569871514E+03    0.99936E-05   -0.59423E-04 15640   0.818E-02
   1 F= -.32956987E+03 E0= -.32956446E+03  d E =-.329570E+03
       N       E                     dE             d eps       ncg     rms          rms(c)
DAV:   1    -0.331947362684E+03   -0.23775E+01   -0.16644E+02 19672   0.560E+01    0.154E+01
DAV:   2    -0.332429127535E+03   -0.48176E+00   -0.35226E+01 23624   0.261E+01    0.107E+01
DAV:   3    -0.330706643748E+03    0.17225E+01   -0.19550E+01 22112   0.131E+01    0.797E+00
DAV:   4    -0.330323206907E+03    0.38344E+00   -0.11247E+01 23504   0.109E+01    0.554E+00
DAV:   5    -0.329935019526E+03    0.38819E+00   -0.51440E+00 22376   0.765E+00    0.313E+00
DAV:   6    -0.329778016375E+03    0.15700E+00   -0.13662E+00 23848   0.358E+00    0.187E+00
DAV:   7    -0.329795552427E+03   -0.17536E-01   -0.50541E-01 24944   0.211E+00    0.149E+00
DAV:   8    -0.329789649751E+03    0.59027E-02   -0.22686E-01 22680   0.148E+00    0.109E+00
DAV:   9    -0.329788849418E+03    0.80033E-03   -0.90204E-02 22680   0.929E-01    0.690E-01
DAV:  10    -0.329794702790E+03   -0.58534E-02   -0.55489E-02 23904   0.722E-01    0.540E-01
DAV:  11    -0.329796757996E+03   -0.20552E-02   -0.43103E-02 22848   0.606E-01    0.339E-01
DAV:  12    -0.329796152992E+03    0.60500E-03   -0.15387E-02 23144   0.365E-01    0.164E-01
DAV:  13    -0.329796383569E+03   -0.23058E-03   -0.40404E-03 23112   0.188E-01    0.891E-02
DAV:  14    -0.329796409947E+03   -0.26378E-04   -0.15767E-03 21240   0.130E-01    0.570E-02
DAV:  15    -0.329796372365E+03    0.37582E-04   -0.55276E-04 15296   0.797E-02
   2 F= -.32979637E+03 E0= -.32979139E+03  d E =-.226501E+00
       N       E                     dE             d eps       ncg     rms          rms(c)
DAV:   1    -0.330276178607E+03   -0.47977E+00   -0.25363E+01 18936   0.218E+01    0.605E+00
DAV:   2    -0.330361255634E+03   -0.85077E-01   -0.50522E+00 25424   0.966E+00    0.497E+00
DAV:   3    -0.330182045995E+03    0.17921E+00   -0.47316E+00 22840   0.701E+00    0.351E+00
DAV:   4    -0.330054514216E+03    0.12753E+00   -0.15267E+00 23664   0.401E+00    0.209E+00
DAV:   5    -0.329977370428E+03    0.77144E-01   -0.72350E-01 22328   0.277E+00    0.111E+00
DAV:   6    -0.329960360731E+03    0.17010E-01   -0.24317E-01 22936   0.160E+00    0.754E-01
DAV:   7    -0.329961073914E+03   -0.71318E-03   -0.94525E-02 23720   0.893E-01    0.586E-01
DAV:   8    -0.329959828474E+03    0.12454E-02   -0.33552E-02 22552   0.578E-01    0.424E-01
DAV:   9    -0.329959621294E+03    0.20718E-03   -0.12724E-02 22424   0.346E-01    0.297E-01
DAV:  10    -0.329960662231E+03   -0.10409E-02   -0.10295E-02 21992   0.295E-01    0.245E-01
DAV:  11    -0.329960872103E+03   -0.20987E-03   -0.80731E-03 22784   0.258E-01    0.140E-01
DAV:  12    -0.329960749481E+03    0.12262E-03   -0.26322E-03 21568   0.153E-01    0.570E-02
DAV:  13    -0.329960760128E+03   -0.10647E-04   -0.78142E-04 17800   0.848E-02
   3 F= -.32996076E+03 E0= -.32995560E+03  d E =-.390889E+00
       N       E                     dE             d eps       ncg     rms          rms(c)
DAV:   1    -0.330150526908E+03   -0.18978E+00   -0.99651E+01 15120   0.329E+01    0.392E+00
DAV:   2    -0.330596881013E+03   -0.44635E+00   -0.73464E+00 23376   0.110E+01    0.403E+00
DAV:   3    -0.330512055403E+03    0.84826E-01   -0.29257E+00 22792   0.532E+00    0.276E+00
DAV:   4    -0.330423532524E+03    0.88523E-01   -0.65113E-01 22728   0.268E+00    0.166E+00
DAV:   5    -0.330402901189E+03    0.20631E-01   -0.27303E-01 22928   0.167E+00    0.115E+00
DAV:   6    -0.330395540583E+03    0.73606E-02   -0.15744E-01 23560   0.138E+00    0.733E-01
DAV:   7    -0.330388935294E+03    0.66053E-02   -0.62995E-02 24832   0.945E-01    0.514E-01
DAV:   8    -0.330386902721E+03    0.20326E-02   -0.32588E-02 23344   0.538E-01    0.369E-01
DAV:   9    -0.330386347194E+03    0.55553E-03   -0.10153E-02 22120   0.286E-01    0.262E-01
DAV:  10    -0.330386375591E+03   -0.28397E-04   -0.28799E-03 20648   0.174E-01    0.180E-01
DAV:  11    -0.330386676876E+03   -0.30128E-03   -0.42718E-03 19992   0.204E-01    0.142E-01
DAV:  12    -0.330386420036E+03    0.25684E-03   -0.27419E-03 19936   0.168E-01    0.481E-02
DAV:  13    -0.330386358940E+03    0.61096E-04   -0.30206E-04 11448   0.856E-02
   4 F= -.33038636E+03 E0= -.33038313E+03  d E =-.425599E+00
       N       E                     dE             d eps       ncg     rms          rms(c)
DAV:   1    -0.330391065783E+03   -0.46457E-02   -0.10139E+01 15152   0.104E+01    0.119E+00
DAV:   2    -0.330434054585E+03   -0.42989E-01   -0.73083E-01 23160   0.349E+00    0.125E+00
DAV:   3    -0.330423573939E+03    0.10481E-01   -0.27444E-01 22712   0.160E+00    0.824E-01
DAV:   4    -0.330416255809E+03    0.73181E-02   -0.60784E-02 22640   0.819E-01    0.512E-01
DAV:   5    -0.330414408722E+03    0.18471E-02   -0.27605E-02 22688   0.536E-01    0.359E-01
DAV:   6    -0.330413607516E+03    0.80121E-03   -0.15724E-02 23520   0.438E-01    0.233E-01
DAV:   7    -0.330412985951E+03    0.62156E-03   -0.70957E-03 24624   0.306E-01    0.171E-01
DAV:   8    -0.330412732082E+03    0.25387E-03   -0.31966E-03 20520   0.166E-01    0.114E-01
DAV:   9    -0.330412688607E+03    0.43475E-04   -0.80348E-04 17488   0.872E-02
   5 F= -.33041269E+03 E0= -.33040998E+03  d E =-.451928E+00
       N       E                     dE             d eps       ncg     rms          rms(c)
DAV:   1    -0.330466020516E+03   -0.53288E-01   -0.10066E+01 15200   0.120E+01    0.229E+00
DAV:   2    -0.330510745565E+03   -0.44725E-01   -0.10658E+00 22136   0.403E+00    0.157E+00
DAV:   3    -0.330509060248E+03    0.16853E-02   -0.61475E-01 22944   0.251E+00    0.136E+00
DAV:   4    -0.330483631661E+03    0.25429E-01   -0.21627E-01 22512   0.155E+00    0.743E-01
DAV:   5    -0.330475152312E+03    0.84793E-02   -0.10427E-01 22368   0.103E+00    0.400E-01
DAV:   6    -0.330472834536E+03    0.23178E-02   -0.30053E-02 23576   0.543E-01    0.235E-01
DAV:   7    -0.330472864123E+03   -0.29587E-04   -0.10216E-02 23408   0.295E-01    0.192E-01
DAV:   8    -0.330472615153E+03    0.24897E-03   -0.32897E-03 20472   0.175E-01    0.135E-01
DAV:   9    -0.330472652307E+03   -0.37154E-04   -0.88829E-04 17720   0.968E-02
   6 F= -.33047265E+03 E0= -.33047038E+03  d E =-.599637E-01
       N       E                     dE             d eps       ncg     rms          rms(c)
DAV:   1    -0.330474884783E+03   -0.22696E-02   -0.16864E+00 15224   0.489E+00    0.934E-01
DAV:   2    -0.330482018954E+03   -0.71342E-02   -0.17633E-01 21952   0.166E+00    0.644E-01
DAV:   3    -0.330481561963E+03    0.45699E-03   -0.10289E-01 22776   0.102E+00    0.558E-01
DAV:   4    -0.330477374909E+03    0.41871E-02   -0.38082E-02 21992   0.647E-01    0.305E-01
DAV:   5    -0.330475951486E+03    0.14234E-02   -0.17604E-02 22416   0.426E-01    0.164E-01
DAV:   6    -0.330475577092E+03    0.37439E-03   -0.46682E-03 23608   0.214E-01    0.983E-02
DAV:   7    -0.330475602525E+03   -0.25433E-04   -0.13645E-03 20104   0.109E-01    0.819E-02
DAV:   8    -0.330475581190E+03    0.21335E-04   -0.43659E-04 12904   0.741E-02
   7 F= -.33047558E+03 E0= -.33047346E+03  d E =-.628926E-01
       N       E                     dE             d eps       ncg     rms          rms(c)
DAV:   1    -0.330503767336E+03   -0.28165E-01   -0.30920E+00 15640   0.638E+00    0.962E-01
DAV:   2    -0.330514685863E+03   -0.10919E-01   -0.25191E-01 21408   0.186E+00    0.634E-01
DAV:   3    -0.330514748599E+03   -0.62736E-04   -0.96787E-02 22432   0.107E+00    0.580E-01
DAV:   4    -0.330510288199E+03    0.44604E-02   -0.41981E-02 21848   0.653E-01    0.313E-01
DAV:   5    -0.330509278467E+03    0.10097E-02   -0.19129E-02 22208   0.442E-01    0.217E-01
DAV:   6    -0.330508543621E+03    0.73485E-03   -0.75335E-03 23112   0.276E-01    0.100E-01
DAV:   7    -0.330508497328E+03    0.46293E-04   -0.22694E-03 21608   0.155E-01    0.827E-02
DAV:   8    -0.330508444248E+03    0.53080E-04   -0.72748E-04 16336   0.902E-02
   8 F= -.33050844E+03 E0= -.33050640E+03  d E =-.328631E-01
       N       E                     dE             d eps       ncg     rms          rms(c)
DAV:   1    -0.330517685519E+03   -0.91882E-02   -0.79500E+00 16072   0.102E+01    0.149E+00
DAV:   2    -0.330541281274E+03   -0.23596E-01   -0.56615E-01 21000   0.282E+00    0.980E-01
DAV:   3    -0.330540870362E+03    0.41091E-03   -0.22408E-01 22864   0.162E+00    0.871E-01
DAV:   4    -0.330531145098E+03    0.97253E-02   -0.99166E-02 22184   0.102E+00    0.484E-01
DAV:   5    -0.330528963436E+03    0.21817E-02   -0.49264E-02 22568   0.698E-01    0.345E-01
DAV:   6    -0.330527101588E+03    0.18618E-02   -0.17304E-02 24096   0.413E-01    0.154E-01
DAV:   7    -0.330527065727E+03    0.35861E-04   -0.42701E-03 23016   0.209E-01    0.127E-01
DAV:   8    -0.330527039255E+03    0.26472E-04   -0.13699E-03 19312   0.117E-01    0.963E-02
DAV:   9    -0.330527085172E+03   -0.45917E-04   -0.55613E-04 15040   0.797E-02
   9 F= -.33052709E+03 E0= -.33052511E+03  d E =-.515040E-01
       N       E                     dE             d eps       ncg     rms          rms(c)
DAV:   1    -0.330537211319E+03   -0.10172E-01   -0.48183E-01 15576   0.245E+00    0.361E-01
DAV:   2    -0.330540023382E+03   -0.28121E-02   -0.45600E-02 21208   0.856E-01    0.373E-01
DAV:   3    -0.330538151803E+03    0.18716E-02   -0.22921E-02 22376   0.496E-01    0.215E-01
DAV:   4    -0.330537735095E+03    0.41671E-03   -0.59713E-03 20288   0.251E-01    0.135E-01
DAV:   5    -0.330537557334E+03    0.17776E-03   -0.36559E-03 21856   0.198E-01    0.892E-02
DAV:   6    -0.330537451966E+03    0.10537E-03   -0.14444E-03 19928   0.117E-01    0.514E-02
DAV:   7    -0.330537439355E+03    0.12610E-04   -0.32846E-04 12032   0.719E-02
  10 F= -.33053744E+03 E0= -.33053549E+03  d E =-.103542E-01
       N       E                     dE             d eps       ncg     rms          rms(c)
DAV:   1    -0.330548058350E+03   -0.10606E-01   -0.35039E+00 15808   0.661E+00    0.964E-01
DAV:   2    -0.330566307228E+03   -0.18249E-01   -0.30721E-01 21632   0.218E+00    0.971E-01
DAV:   3    -0.330554875042E+03    0.11432E-01   -0.15161E-01 22968   0.126E+00    0.607E-01
DAV:   4    -0.330551429932E+03    0.34451E-02   -0.41223E-02 22560   0.654E-01    0.370E-01
DAV:   5    -0.330550199904E+03    0.12300E-02   -0.24387E-02 22624   0.524E-01    0.240E-01
DAV:   6    -0.330549353055E+03    0.84685E-03   -0.11289E-02 22704   0.316E-01    0.137E-01
DAV:   7    -0.330549276743E+03    0.76313E-04   -0.29021E-03 21256   0.171E-01    0.974E-02
DAV:   8    -0.330549218142E+03    0.58600E-04   -0.87886E-04 17352   0.978E-02
  11 F= -.33054922E+03 E0= -.33054735E+03  d E =-.221330E-01
       N       E                     dE             d eps       ncg     rms          rms(c)
DAV:   1    -0.330559450911E+03   -0.10174E-01   -0.59048E-01 15152   0.309E+00    0.757E-01
DAV:   2    -0.330560339868E+03   -0.88896E-03   -0.77416E-02 22192   0.111E+00    0.496E-01
DAV:   3    -0.330560912295E+03   -0.57243E-03   -0.65105E-02 23016   0.802E-01    0.490E-01
DAV:   4    -0.330557362052E+03    0.35502E-02   -0.24586E-02 22512   0.514E-01    0.233E-01
DAV:   5    -0.330556481202E+03    0.88085E-03   -0.10419E-02 22528   0.313E-01    0.120E-01
DAV:   6    -0.330556274405E+03    0.20680E-03   -0.22009E-03 20928   0.156E-01    0.697E-02
DAV:   7    -0.330556276261E+03   -0.18553E-05   -0.94646E-04 17568   0.983E-02
  12 F= -.33055628E+03 E0= -.33055452E+03  d E =-.705812E-02
       N       E                     dE             d eps       ncg     rms          rms(c)
DAV:   1    -0.330560166430E+03   -0.38920E-02   -0.47528E-01 15152   0.278E+00    0.648E-01
DAV:   2    -0.330560574003E+03   -0.40757E-03   -0.55774E-02 21728   0.963E-01    0.396E-01
DAV:   3    -0.330561386573E+03   -0.81257E-03   -0.46333E-02 22976   0.681E-01    0.412E-01
DAV:   4    -0.330558695822E+03    0.26908E-02   -0.18866E-02 22224   0.449E-01    0.194E-01
DAV:   5    -0.330558108224E+03    0.58760E-03   -0.72522E-03 21664   0.258E-01    0.102E-01
DAV:   6    -0.330557997059E+03    0.11116E-03   -0.13686E-03 19792   0.121E-01    0.617E-02
DAV:   7    -0.330558008322E+03   -0.11262E-04   -0.53257E-04 14656   0.790E-02
  13 F= -.33055801E+03 E0= -.33055636E+03  d E =-.879018E-02
       N       E                     dE             d eps       ncg     rms          rms(c)
DAV:   1    -0.330559962634E+03   -0.19656E-02   -0.97157E-02 16184   0.102E+00    0.870E-02
DAV:   2    -0.330560389325E+03   -0.42669E-03   -0.49541E-03 24856   0.306E-01    0.943E-02
DAV:   3    -0.330560293675E+03    0.95649E-04   -0.15107E-03 18536   0.125E-01    0.583E-02
DAV:   4    -0.330560254196E+03    0.39480E-04   -0.27557E-04 11880   0.663E-02
  14 F= -.33056025E+03 E0= -.33055867E+03  d E =-.224587E-02
       N       E                     dE             d eps       ncg     rms          rms(c)
DAV:   1    -0.330563153243E+03   -0.28596E-02   -0.87138E-01 16120   0.305E+00    0.236E-01
DAV:   2    -0.330567518992E+03   -0.43657E-02   -0.48880E-02 24920   0.948E-01    0.339E-01
DAV:   3    -0.330565874900E+03    0.16441E-02   -0.16721E-02 23760   0.402E-01    0.156E-01
DAV:   4    -0.330565645466E+03    0.22943E-03   -0.24840E-03 21568   0.159E-01    0.100E-01
DAV:   5    -0.330565536295E+03    0.10917E-03   -0.11426E-03 18448   0.108E-01    0.731E-02
DAV:   6    -0.330565507146E+03    0.29149E-04   -0.92641E-04 17224   0.989E-02
  15 F= -.33056551E+03 E0= -.33056407E+03  d E =-.749882E-02
       N       E                     dE             d eps       ncg     rms          rms(c)
DAV:   1    -0.330559831430E+03    0.57049E-02   -0.34906E+00 16152   0.611E+00    0.463E-01
DAV:   2    -0.330577267737E+03   -0.17436E-01   -0.19363E-01 24880   0.189E+00    0.663E-01
DAV:   3    -0.330571027205E+03    0.62405E-02   -0.63858E-02 23976   0.777E-01    0.299E-01
DAV:   4    -0.330570210559E+03    0.81665E-03   -0.87931E-03 23696   0.305E-01    0.194E-01
DAV:   5    -0.330569833514E+03    0.37704E-03   -0.40669E-03 21192   0.201E-01    0.141E-01
DAV:   6    -0.330569732210E+03    0.10130E-03   -0.33637E-03 20464   0.180E-01    0.111E-01
DAV:   7    -0.330569488939E+03    0.24327E-03   -0.15122E-03 19928   0.130E-01    0.434E-02
DAV:   8    -0.330569471059E+03    0.17880E-04   -0.34893E-04 13024   0.674E-02
  16 F= -.33056947E+03 E0= -.33056832E+03  d E =-.114627E-01
       N       E                     dE             d eps       ncg     rms          rms(c)
DAV:   1    -0.330574064952E+03   -0.45760E-02   -0.54214E-01 15120   0.283E+00    0.656E-01
DAV:   2    -0.330574999970E+03   -0.93502E-03   -0.61891E-02 22360   0.101E+00    0.431E-01
DAV:   3    -0.330574575959E+03    0.42401E-03   -0.44633E-02 22408   0.680E-01    0.381E-01
DAV:   4    -0.330572698517E+03    0.18774E-02   -0.19867E-02 22432   0.457E-01    0.219E-01
DAV:   5    -0.330571892041E+03    0.80648E-03   -0.90570E-03 22472   0.300E-01    0.116E-01
DAV:   6    -0.330571693103E+03    0.19894E-03   -0.23352E-03 21336   0.148E-01    0.624E-02
DAV:   7    -0.330571704794E+03   -0.11691E-04   -0.59006E-04 15728   0.813E-02
  17 F= -.33057170E+03 E0= -.33057053E+03  d E =-.223373E-02
       N       E                     dE             d eps       ncg     rms          rms(c)
DAV:   1    -0.330571720636E+03   -0.27533E-04   -0.10350E-02 15800   0.400E-01    0.849E-02
DAV:   2    -0.330571777716E+03   -0.57080E-04   -0.10384E-03 17472   0.145E-01    0.627E-02
DAV:   3    -0.330571758770E+03    0.18946E-04   -0.72191E-04 15064   0.990E-02
  18 F= -.33057176E+03 E0= -.33057057E+03  d E =-.228771E-02
       N       E                     dE             d eps       ncg     rms          rms(c)
DAV:   1    -0.330573446360E+03   -0.16686E-02   -0.44106E-01 16448   0.213E+00    0.249E-01
DAV:   2    -0.330574825571E+03   -0.13792E-02   -0.21510E-02 22944   0.569E-01    0.214E-01
DAV:   3    -0.330574783085E+03    0.42486E-04   -0.66791E-03 23232   0.264E-01    0.175E-01
DAV:   4    -0.330574419161E+03    0.36392E-03   -0.21875E-03 20232   0.157E-01    0.971E-02
DAV:   5    -0.330574479386E+03   -0.60225E-04   -0.19115E-03 19496   0.132E-01    0.933E-02
DAV:   6    -0.330574305669E+03    0.17372E-03   -0.10367E-03 17608   0.107E-01    0.278E-02
DAV:   7    -0.330574296426E+03    0.92433E-05   -0.14021E-04  9776   0.562E-02
  19 F= -.33057430E+03 E0= -.33057310E+03  d E =-.253766E-02
       N       E                     dE             d eps       ncg     rms          rms(c)
DAV:   1    -0.330574057071E+03    0.24860E-03   -0.50566E-01 16432   0.228E+00    0.271E-01
DAV:   2    -0.330575545688E+03   -0.14886E-02   -0.23842E-02 22384   0.594E-01    0.213E-01
DAV:   3    -0.330575565174E+03   -0.19486E-04   -0.80125E-03 23352   0.290E-01    0.181E-01
DAV:   4    -0.330575138707E+03    0.42647E-03   -0.28872E-03 20536   0.177E-01    0.951E-02
DAV:   5    -0.330575155406E+03   -0.16700E-04   -0.19460E-03 19744   0.134E-01    0.832E-02
DAV:   6    -0.330575015230E+03    0.14018E-03   -0.80354E-04 16528   0.974E-02    0.298E-02
DAV:   7    -0.330575006118E+03    0.91124E-05   -0.12409E-04  9344   0.554E-02
  20 F= -.33057501E+03 E0= -.33057379E+03  d E =-.324735E-02
       N       E                     dE             d eps       ncg     rms          rms(c)
DAV:   1    -0.330575049331E+03   -0.34102E-04   -0.35724E-01 16136   0.193E+00    0.189E-01
DAV:   2    -0.330576365449E+03   -0.13161E-02   -0.17321E-02 23712   0.547E-01    0.156E-01
DAV:   3    -0.330576290965E+03    0.74484E-04   -0.31022E-03 21224   0.179E-01    0.124E-01
DAV:   4    -0.330576150416E+03    0.14055E-03   -0.10092E-03 17208   0.110E-01    0.857E-02
DAV:   5    -0.330576147697E+03    0.27188E-05   -0.65195E-04 15640   0.905E-02
  21 F= -.33057615E+03 E0= -.33057495E+03  d E =-.114158E-02
       N       E                     dE             d eps       ncg     rms          rms(c)
DAV:   1    -0.330566737896E+03    0.94125E-02   -0.32094E+00 16152   0.576E+00    0.546E-01
DAV:   2    -0.330578703233E+03   -0.11965E-01   -0.15140E-01 23624   0.164E+00    0.458E-01
DAV:   3    -0.330578126414E+03    0.57682E-03   -0.29292E-02 24064   0.542E-01    0.366E-01
DAV:   4    -0.330576805046E+03    0.13214E-02   -0.90413E-03 21528   0.311E-01    0.240E-01
DAV:   5    -0.330576831519E+03   -0.26473E-04   -0.55737E-03 22008   0.233E-01    0.194E-01
DAV:   6    -0.330576250760E+03    0.58076E-03   -0.40949E-03 22760   0.205E-01    0.738E-02
DAV:   7    -0.330576183952E+03    0.66809E-04   -0.85912E-04 18128   0.100E-01
  22 F= -.33057618E+03 E0= -.33057499E+03  d E =-.117783E-02
       N       E                     dE             d eps       ncg     rms          rms(c)
DAV:   1    -0.330595265464E+03   -0.19015E-01   -0.11784E+00 20152   0.489E+00    0.142E+00
DAV:   2    -0.330598996038E+03   -0.37306E-02   -0.30511E-01 25536   0.228E+00    0.115E+00
DAV:   3    -0.330584391373E+03    0.14605E-01   -0.25800E-01 22528   0.152E+00    0.731E-01
DAV:   4    -0.330579450075E+03    0.49413E-02   -0.74613E-02 24352   0.874E-01    0.483E-01
DAV:   5    -0.330576307774E+03    0.31423E-02   -0.44116E-02 22424   0.648E-01    0.297E-01
DAV:   6    -0.330574832139E+03    0.14756E-02   -0.11553E-02 23680   0.348E-01    0.154E-01
DAV:   7    -0.330575096010E+03   -0.26387E-03   -0.43130E-03 20416   0.184E-01    0.141E-01
DAV:   8    -0.330574947216E+03    0.14879E-03   -0.18739E-03 19840   0.137E-01    0.899E-02
DAV:   9    -0.330574933377E+03    0.13839E-04   -0.41134E-04 12888   0.767E-02
  23 F= -.33057493E+03 E0= -.33057389E+03  d E =0.125057E-02
       N       E                     dE             d eps       ncg     rms          rms(c)
DAV:   1    -0.330584326199E+03   -0.93790E-02   -0.41163E-01 20136   0.289E+00    0.846E-01
DAV:   2    -0.330586098718E+03   -0.17725E-02   -0.10849E-01 25232   0.134E+00    0.661E-01
DAV:   3    -0.330580947429E+03    0.51513E-02   -0.87054E-02 22432   0.872E-01    0.431E-01
DAV:   4    -0.330579267446E+03    0.16800E-02   -0.25742E-02 24136   0.513E-01    0.279E-01
DAV:   5    -0.330578250406E+03    0.10170E-02   -0.14941E-02 22472   0.380E-01    0.175E-01
DAV:   6    -0.330577709911E+03    0.54050E-03   -0.41235E-03 22464   0.206E-01    0.850E-02
DAV:   7    -0.330577784009E+03   -0.74098E-04   -0.15083E-03 20336   0.111E-01    0.736E-02
DAV:   8    -0.330577737325E+03    0.46683E-04   -0.56882E-04 14896   0.800E-02
  24 F= -.33057774E+03 E0= -.33057662E+03  d E =-.155337E-02
       N       E                     dE             d eps       ncg     rms          rms(c)
DAV:   1    -0.330577914754E+03   -0.13075E-03   -0.33360E-01 16624   0.184E+00    0.211E-01
DAV:   2    -0.330579028405E+03   -0.11137E-02   -0.15494E-02 23512   0.498E-01    0.162E-01
DAV:   3    -0.330579008679E+03    0.19727E-04   -0.51884E-03 22400   0.234E-01    0.126E-01
DAV:   4    -0.330578813918E+03    0.19476E-03   -0.18102E-03 19872   0.141E-01    0.688E-02
DAV:   5    -0.330578808805E+03    0.51129E-05   -0.85676E-04 16512   0.100E-01
  25 F= -.33057881E+03 E0= -.33057772E+03  d E =-.107148E-02
       N       E                     dE             d eps       ncg     rms          rms(c)
DAV:   1    -0.330578755433E+03    0.58485E-04   -0.37078E-03 17456   0.197E-01    0.374E-02
DAV:   2    -0.330578779610E+03   -0.24176E-04   -0.34315E-04 11960   0.886E-02
  26 F= -.33057878E+03 E0= -.33057771E+03  d E =-.104228E-02
