<?xml version="1.0" encoding="ISO-8859-1"?>
<modeling>
 <generator>
  <i name="program" type="string">vasp </i>
  <i name="version" type="string">5.4.4.18Apr17-6-g9f103f2a35  </i>
  <i name="subversion" type="string">(build Aug 09 2018 16:20:53) complex            parallel </i>
  <i name="platform" type="string">LinuxIFC </i>
  <i name="date" type="string">2020 04 13 </i>
  <i name="time" type="string">15:54:02 </i>
 </generator>
 <incar>
  <i type="string" name="SYSTEM"> SQS with 1 vacancy for VFE and VRV</i>
  <i type="string" name="PREC">normal</i>
  <i type="int" name="IALGO">    38</i>
  <i type="int" name="ICHARG">     2</i>
  <i type="int" name="IBRION">     2</i>
  <i type="int" name="NSW">    50</i>
  <i type="int" name="ISIF">     3</i>
  <i type="int" name="ISYM">     0</i>
  <i name="ENCUT">    600.00000000</i>
  <i type="string" name="LREAL"> Auto</i>
  <i type="int" name="ISMEAR">     1</i>
  <i name="SIGMA">      0.20000000</i>
  <v type="int" name="KPOINT_BSE">    -1     0     0     0</v>
  <i type="string" name="GGA"> PS</i>
 </incar>
 <structure name="primitive_cell" >
  <crystal>
   <varray name="basis" >
    <v>      -3.19000000      -3.19000000      -3.19000000 </v>
    <v>       1.59500000       1.59500000      -7.97500000 </v>
    <v>       7.97500000      -7.97500000      -1.59500000 </v>
   </varray>
   <i name="volume">    486.92638500 </i>
   <varray name="rec_basis" >
    <v>      -0.13584117      -0.12539185      -0.05224660 </v>
    <v>       0.04179728       0.06269592      -0.10449321 </v>
    <v>       0.06269592      -0.06269592       0.00000000 </v>
   </varray>
  </crystal>
  <varray name="positions" >
   <v>      -0.03333333      -0.06666667       0.40000000 </v>
   <v>       0.30000000      -0.40000000       0.40000000 </v>
   <v>      -0.10000000      -0.20000000       0.20000000 </v>
   <v>       0.06666667       0.13333333       0.20000000 </v>
   <v>       0.46666667      -0.06666667       0.40000000 </v>
   <v>      -0.13333333      -0.26666667      -0.40000000 </v>
   <v>       0.03333333       0.06666667      -0.40000000 </v>
   <v>      -0.36666667       0.26666667       0.40000000 </v>
   <v>       0.40000000      -0.20000000       0.20000000 </v>
   <v>      -0.20000000      -0.40000000       0.40000000 </v>
   <v>      -0.43333333       0.13333333       0.20000000 </v>
   <v>       0.36666667      -0.26666667      -0.40000000 </v>
   <v>       0.13333333       0.26666667       0.40000000 </v>
   <v>      -0.46666667       0.06666667      -0.40000000 </v>
   <v>       0.23333333       0.46666667       0.20000000 </v>
   <v>       0.20000000       0.40000000      -0.40000000 </v>
   <v>       0.00000000       0.00000000       0.00000000 </v>
   <v>      -0.06666667      -0.13333333      -0.20000000 </v>
   <v>      -0.30000000       0.40000000      -0.40000000 </v>
   <v>      -0.26666667       0.46666667       0.20000000 </v>
   <v>       0.33333333      -0.33333333       0.00000000 </v>
   <v>       0.43333333      -0.13333333      -0.20000000 </v>
   <v>      -0.50000000       0.00000000       0.00000000 </v>
   <v>       0.26666667      -0.46666667      -0.20000000 </v>
   <v>      -0.33333333       0.33333333       0.00000000 </v>
   <v>      -0.40000000       0.20000000      -0.20000000 </v>
   <v>      -0.23333333      -0.46666667      -0.20000000 </v>
   <v>       0.16666667       0.33333333       0.00000000 </v>
   <v>       0.10000000       0.20000000      -0.20000000 </v>
  </varray>
 </structure>
 <varray name="primitive_index" >
  <v type="int" >        1 </v>
  <v type="int" >       17 </v>
  <v type="int" >        7 </v>
  <v type="int" >       23 </v>
  <v type="int" >       19 </v>
  <v type="int" >       18 </v>
  <v type="int" >        6 </v>
  <v type="int" >        2 </v>
  <v type="int" >       15 </v>
  <v type="int" >        8 </v>
  <v type="int" >       14 </v>
  <v type="int" >       11 </v>
  <v type="int" >       12 </v>
  <v type="int" >       27 </v>
  <v type="int" >       29 </v>
  <v type="int" >       22 </v>
  <v type="int" >        4 </v>
  <v type="int" >       13 </v>
  <v type="int" >       25 </v>
  <v type="int" >        9 </v>
  <v type="int" >       28 </v>
  <v type="int" >       16 </v>
  <v type="int" >        3 </v>
  <v type="int" >       21 </v>
  <v type="int" >       10 </v>
  <v type="int" >       26 </v>
  <v type="int" >       24 </v>
  <v type="int" >       20 </v>
  <v type="int" >        5 </v>
 </varray>
 <kpoints>
  <generation param="Gamma">
   <v type="int" name="divisions">       5        5        5 </v>
   <v name="usershift">      0.00000000       0.00000000       0.00000000 </v>
   <v name="genvec1">      0.20000000      -0.00000000      -0.00000000 </v>
   <v name="genvec2">      0.00000000       0.20000000       0.00000000 </v>
   <v name="genvec3">      0.00000000       0.00000000       0.20000000 </v>
   <v name="shift">      0.00000000       0.00000000       0.00000000 </v>
  </generation>
  <varray name="kpointlist" >
   <v>       0.00000000       0.00000000       0.00000000 </v>
   <v>       0.20000000      -0.00000000       0.00000000 </v>
   <v>       0.40000000      -0.00000000       0.00000000 </v>
   <v>       0.00000000       0.20000000       0.00000000 </v>
   <v>       0.20000000       0.20000000      -0.00000000 </v>
   <v>       0.40000000       0.20000000      -0.00000000 </v>
   <v>      -0.40000000       0.20000000      -0.00000000 </v>
   <v>      -0.20000000       0.20000000       0.00000000 </v>
   <v>       0.00000000       0.40000000       0.00000000 </v>
   <v>       0.20000000       0.40000000       0.00000000 </v>
   <v>       0.40000000       0.40000000      -0.00000000 </v>
   <v>      -0.40000000       0.40000000       0.00000000 </v>
   <v>      -0.20000000       0.40000000       0.00000000 </v>
   <v>       0.00000000       0.00000000       0.20000000 </v>
   <v>       0.20000000      -0.00000000       0.20000000 </v>
   <v>       0.40000000       0.00000000       0.20000000 </v>
   <v>      -0.40000000       0.00000000       0.20000000 </v>
   <v>      -0.20000000       0.00000000       0.20000000 </v>
   <v>       0.00000000       0.20000000       0.20000000 </v>
   <v>       0.20000000       0.20000000       0.20000000 </v>
   <v>       0.40000000       0.20000000       0.20000000 </v>
   <v>      -0.40000000       0.20000000       0.20000000 </v>
   <v>      -0.20000000       0.20000000       0.20000000 </v>
   <v>       0.00000000       0.40000000       0.20000000 </v>
   <v>       0.20000000       0.40000000       0.20000000 </v>
   <v>       0.40000000       0.40000000       0.20000000 </v>
   <v>      -0.40000000       0.40000000       0.20000000 </v>
   <v>      -0.20000000       0.40000000       0.20000000 </v>
   <v>       0.00000000      -0.40000000       0.20000000 </v>
   <v>       0.20000000      -0.40000000       0.20000000 </v>
   <v>       0.40000000      -0.40000000       0.20000000 </v>
   <v>      -0.40000000      -0.40000000       0.20000000 </v>
   <v>      -0.20000000      -0.40000000       0.20000000 </v>
   <v>       0.00000000      -0.20000000       0.20000000 </v>
   <v>       0.20000000      -0.20000000       0.20000000 </v>
   <v>       0.40000000      -0.20000000       0.20000000 </v>
   <v>      -0.40000000      -0.20000000       0.20000000 </v>
   <v>      -0.20000000      -0.20000000       0.20000000 </v>
   <v>       0.00000000       0.00000000       0.40000000 </v>
   <v>       0.20000000      -0.00000000       0.40000000 </v>
   <v>       0.40000000      -0.00000000       0.40000000 </v>
   <v>      -0.40000000       0.00000000       0.40000000 </v>
   <v>      -0.20000000       0.00000000       0.40000000 </v>
   <v>      -0.00000000       0.20000000       0.40000000 </v>
   <v>       0.20000000       0.20000000       0.40000000 </v>
   <v>       0.40000000       0.20000000       0.40000000 </v>
   <v>      -0.40000000       0.20000000       0.40000000 </v>
   <v>      -0.20000000       0.20000000       0.40000000 </v>
   <v>       0.00000000       0.40000000       0.40000000 </v>
   <v>       0.20000000       0.40000000       0.40000000 </v>
   <v>       0.40000000       0.40000000       0.40000000 </v>
   <v>      -0.40000000       0.40000000       0.40000000 </v>
   <v>      -0.20000000       0.40000000       0.40000000 </v>
   <v>       0.00000000      -0.40000000       0.40000000 </v>
   <v>       0.20000000      -0.40000000       0.40000000 </v>
   <v>       0.40000000      -0.40000000       0.40000000 </v>
   <v>      -0.40000000      -0.40000000       0.40000000 </v>
   <v>      -0.20000000      -0.40000000       0.40000000 </v>
   <v>       0.00000000      -0.20000000       0.40000000 </v>
   <v>       0.20000000      -0.20000000       0.40000000 </v>
   <v>       0.40000000      -0.20000000       0.40000000 </v>
   <v>      -0.40000000      -0.20000000       0.40000000 </v>
   <v>      -0.20000000      -0.20000000       0.40000000 </v>
  </varray>
  <varray name="weights" >
   <v>       0.00800000 </v>
   <v>       0.01600000 </v>
   <v>       0.01600000 </v>
   <v>       0.01600000 </v>
   <v>       0.01600000 </v>
   <v>       0.01600000 </v>
   <v>       0.01600000 </v>
   <v>       0.01600000 </v>
   <v>       0.01600000 </v>
   <v>       0.01600000 </v>
   <v>       0.01600000 </v>
   <v>       0.01600000 </v>
   <v>       0.01600000 </v>
   <v>       0.01600000 </v>
   <v>       0.01600000 </v>
   <v>       0.01600000 </v>
   <v>       0.01600000 </v>
   <v>       0.01600000 </v>
   <v>       0.01600000 </v>
   <v>       0.01600000 </v>
   <v>       0.01600000 </v>
   <v>       0.01600000 </v>
   <v>       0.01600000 </v>
   <v>       0.01600000 </v>
   <v>       0.01600000 </v>
   <v>       0.01600000 </v>
   <v>       0.01600000 </v>
   <v>       0.01600000 </v>
   <v>       0.01600000 </v>
   <v>       0.01600000 </v>
   <v>       0.01600000 </v>
   <v>       0.01600000 </v>
   <v>       0.01600000 </v>
   <v>       0.01600000 </v>
   <v>       0.01600000 </v>
   <v>       0.01600000 </v>
   <v>       0.01600000 </v>
   <v>       0.01600000 </v>
   <v>       0.01600000 </v>
   <v>       0.01600000 </v>
   <v>       0.01600000 </v>
   <v>       0.01600000 </v>
   <v>       0.01600000 </v>
   <v>       0.01600000 </v>
   <v>       0.01600000 </v>
   <v>       0.01600000 </v>
   <v>       0.01600000 </v>
   <v>       0.01600000 </v>
   <v>       0.01600000 </v>
   <v>       0.01600000 </v>
   <v>       0.01600000 </v>
   <v>       0.01600000 </v>
   <v>       0.01600000 </v>
   <v>       0.01600000 </v>
   <v>       0.01600000 </v>
   <v>       0.01600000 </v>
   <v>       0.01600000 </v>
   <v>       0.01600000 </v>
   <v>       0.01600000 </v>
   <v>       0.01600000 </v>
   <v>       0.01600000 </v>
   <v>       0.01600000 </v>
   <v>       0.01600000 </v>
  </varray>
 </kpoints>
 <parameters>
  <separator name="general" >
   <i type="string" name="SYSTEM">SQS with 1 vacancy for VFE and VRV</i>
   <i type="logical" name="LCOMPAT"> F  </i>
  </separator>
  <separator name="electronic" >
   <i type="string" name="PREC">normal</i>
   <i name="ENMAX">    600.00000000</i>
   <i name="ENAUG">    455.65900000</i>
   <i name="EDIFF">      0.00010000</i>
   <i type="int" name="IALGO">    38</i>
   <i type="int" name="IWAVPR">    11</i>
   <i type="int" name="NBANDS">   120</i>
   <i name="NELECT">    199.00000000</i>
   <i type="int" name="TURBO">     0</i>
   <i type="int" name="IRESTART">     0</i>
   <i type="int" name="NREBOOT">     0</i>
   <i type="int" name="NMIN">     0</i>
   <i name="EREF">      0.00000000</i>
   <separator name="electronic smearing" >
    <i type="int" name="ISMEAR">     1</i>
    <i name="SIGMA">      0.20000000</i>
    <i name="KSPACING">      0.50000000</i>
    <i type="logical" name="KGAMMA"> T  </i>
   </separator>
   <separator name="electronic projectors" >
    <i type="logical" name="LREAL"> T  </i>
    <v name="ROPT">     -0.00050000     -0.00050000     -0.00050000     -0.00050000     -0.00050000</v>
    <i type="int" name="LMAXPAW">  -100</i>
    <i type="int" name="LMAXMIX">     2</i>
    <i type="logical" name="NLSPLINE"> F  </i>
   </separator>
   <separator name="electronic startup" >
    <i type="int" name="ISTART">     0</i>
    <i type="int" name="ICHARG">     2</i>
    <i type="int" name="INIWAV">     1</i>
   </separator>
   <separator name="electronic spin" >
    <i type="int" name="ISPIN">     1</i>
    <i type="logical" name="LNONCOLLINEAR"> F  </i>
    <v name="MAGMOM">      1.00000000      1.00000000      1.00000000      1.00000000      1.00000000      1.00000000      1.00000000      1.00000000      1.00000000      1.00000000      1.00000000      1.00000000      1.00000000      1.00000000      1.00000000      1.00000000      1.00000000      1.00000000      1.00000000      1.00000000
      1.00000000      1.00000000      1.00000000      1.00000000      1.00000000      1.00000000      1.00000000      1.00000000      1.00000000</v>
    <i name="NUPDOWN">     -1.00000000</i>
    <i type="logical" name="LSORBIT"> F  </i>
    <v name="SAXIS">      0.00000000      0.00000000      1.00000000</v>
    <i type="logical" name="LSPIRAL"> F  </i>
    <v name="QSPIRAL">      0.00000000      0.00000000      0.00000000</v>
    <i type="logical" name="LZEROZ"> F  </i>
   </separator>
   <separator name="electronic exchange-correlation" >
    <i type="logical" name="LASPH"> F  </i>
    <i type="logical" name="LMETAGGA"> F  </i>
   </separator>
   <separator name="electronic convergence" >
    <i type="int" name="NELM">    60</i>
    <i type="int" name="NELMDL">    -5</i>
    <i type="int" name="NELMIN">     2</i>
    <i name="ENINI">    600.00000000</i>
    <separator name="electronic convergence detail" >
     <i type="logical" name="LDIAG"> T  </i>
     <i type="logical" name="LSUBROT"> F  </i>
     <i name="WEIMIN">      0.00100000</i>
     <i name="EBREAK">      0.00000021</i>
     <i name="DEPER">      0.30000000</i>
     <i type="int" name="NRMM">     4</i>
     <i name="TIME">      0.40000000</i>
    </separator>
   </separator>
   <separator name="electronic mixer" >
    <i name="AMIX">      0.40000000</i>
    <i name="BMIX">      1.00000000</i>
    <i name="AMIN">      0.10000000</i>
    <i name="AMIX_MAG">      1.60000000</i>
    <i name="BMIX_MAG">      1.00000000</i>
    <separator name="electronic mixer details" >
     <i type="int" name="IMIX">     4</i>
     <i type="logical" name="MIXFIRST"> F  </i>
     <i type="int" name="MAXMIX">   -45</i>
     <i name="WC">    100.00000000</i>
     <i type="int" name="INIMIX">     1</i>
     <i type="int" name="MIXPRE">     1</i>
     <i type="int" name="MREMOVE">     5</i>
    </separator>
   </separator>
   <separator name="electronic dipolcorrection" >
    <i type="logical" name="LDIPOL"> F  </i>
    <i type="logical" name="LMONO"> F  </i>
    <i type="int" name="IDIPOL">     0</i>
    <i name="EPSILON">      1.00000000</i>
    <v name="DIPOL">   -100.00000000   -100.00000000   -100.00000000</v>
    <i name="EFIELD">      0.00000000</i>
   </separator>
  </separator>
  <separator name="grids" >
   <i type="int" name="NGX">    36</i>
   <i type="int" name="NGY">    50</i>
   <i type="int" name="NGZ">    70</i>
   <i type="int" name="NGXF">    72</i>
   <i type="int" name="NGYF">   100</i>
   <i type="int" name="NGZF">   140</i>
   <i type="logical" name="ADDGRID"> F  </i>
  </separator>
  <separator name="ionic" >
   <i type="int" name="NSW">    50</i>
   <i type="int" name="IBRION">     2</i>
   <i type="int" name="MDALGO">     0</i>
   <i type="int" name="ISIF">     3</i>
   <i name="PSTRESS">      0.00000000</i>
   <i name="EDIFFG">      0.00100000</i>
   <i type="int" name="NFREE">     1</i>
   <i name="POTIM">      0.50000000</i>
   <i name="SMASS">     -3.00000000</i>
   <i name="SCALEE">      1.00000000</i>
  </separator>
  <separator name="ionic md" >
   <i name="TEBEG">      0.00010000</i>
   <i name="TEEND">      0.00010000</i>
   <i type="int" name="NBLOCK">     1</i>
   <i type="int" name="KBLOCK">    50</i>
   <i type="int" name="NPACO">   256</i>
   <i name="APACO">     16.00000000</i>
  </separator>
  <separator name="symmetry" >
   <i type="int" name="ISYM">     0</i>
   <i name="SYMPREC">      0.00001000</i>
  </separator>
  <separator name="dos" >
   <i type="int" name="LORBIT">     0</i>
   <v name="RWIGS">     -1.00000000     -1.00000000     -1.00000000     -1.00000000     -1.00000000</v>
   <i type="int" name="NEDOS">   301</i>
   <i name="EMIN">     10.00000000</i>
   <i name="EMAX">    -10.00000000</i>
   <i name="EFERMI">      0.00000000</i>
  </separator>
  <separator name="writing" >
   <i type="int" name="NWRITE">     2</i>
   <i type="logical" name="LWAVE"> T  </i>
   <i type="logical" name="LDOWNSAMPLE"> F  </i>
   <i type="logical" name="LCHARG"> T  </i>
   <i type="logical" name="LPARD"> F  </i>
   <i type="logical" name="LVTOT"> F  </i>
   <i type="logical" name="LVHAR"> F  </i>
   <i type="logical" name="LELF"> F  </i>
   <i type="logical" name="LOPTICS"> F  </i>
   <v name="STM">      0.00000000      0.00000000      0.00000000      0.00000000      0.00000000      0.00000000      0.00000000</v>
  </separator>
  <separator name="performance" >
   <i type="int" name="NPAR">     8</i>
   <i type="int" name="NSIM">     4</i>
   <i type="int" name="NBLK">    -1</i>
   <i type="logical" name="LPLANE"> T  </i>
   <i type="logical" name="LSCALAPACK"> T  </i>
   <i type="logical" name="LSCAAWARE"> F  </i>
   <i type="logical" name="LSCALU"> F  </i>
   <i type="logical" name="LASYNC"> F  </i>
   <i type="logical" name="LORBITALREAL"> F  </i>
  </separator>
  <separator name="miscellaneous" >
   <i type="int" name="IDIOT">     3</i>
   <i type="int" name="ISPECIAL">     0</i>
   <i type="logical" name="LMUSIC"> F  </i>
   <v name="POMASS">     92.91000000     95.94000000    180.94800000     47.88000000    183.85000000</v>
   <v name="DARWINR">      0.00000000      0.00000000      0.00000000      0.00000000      0.00000000</v>
   <v name="DARWINV">      1.00000000      1.00000000      1.00000000      1.00000000      1.00000000</v>
   <i type="logical" name="LCORR"> T  </i>
  </separator>
  <i type="logical" name="GGA_COMPAT"> T  </i>
  <i type="logical" name="LBERRY"> F  </i>
  <i type="int" name="ICORELEVEL">     0</i>
  <i type="logical" name="LDAU"> F  </i>
  <i type="int" name="I_CONSTRAINED_M">     0</i>
  <separator name="electronic exchange-correlation" >
   <i type="string" name="GGA">PS</i>
   <i type="int" name="VOSKOWN">     0</i>
   <i type="logical" name="LHFCALC"> F  </i>
   <i type="string" name="PRECFOCK"></i>
   <i type="logical" name="LSYMGRAD"> F  </i>
   <i type="logical" name="LHFONE"> F  </i>
   <i type="logical" name="LRHFCALC"> F  </i>
   <i type="logical" name="LTHOMAS"> F  </i>
   <i type="logical" name="LMODELHF"> F  </i>
   <i name="ENCUT4O">     -1.00000000</i>
   <i type="int" name="EXXOEP">     0</i>
   <i type="int" name="FOURORBIT">     0</i>
   <i name="AEXX">      0.00000000</i>
   <i name="HFALPHA">      0.00000000</i>
   <i name="MCALPHA">      0.00000000</i>
   <i name="ALDAX">      1.00000000</i>
   <i name="AGGAX">      1.00000000</i>
   <i name="ALDAC">      1.00000000</i>
   <i name="AGGAC">      1.00000000</i>
   <i type="int" name="NKREDX">     1</i>
   <i type="int" name="NKREDY">     1</i>
   <i type="int" name="NKREDZ">     1</i>
   <i type="logical" name="SHIFTRED"> F  </i>
   <i type="logical" name="ODDONLY"> F  </i>
   <i type="logical" name="EVENONLY"> F  </i>
   <i type="int" name="LMAXFOCK">     0</i>
   <i type="int" name="NMAXFOCKAE">     0</i>
   <i type="logical" name="LFOCKAEDFT"> F  </i>
   <i name="HFSCREEN">      0.00000000</i>
   <i name="HFSCREENC">      0.00000000</i>
   <i type="int" name="NBANDSGWLOW">     0</i>
  </separator>
  <separator name="vdW DFT" >
   <i type="logical" name="LUSE_VDW"> F  </i>
   <i name="Zab_VDW">     -0.84910000</i>
   <i name="PARAM1">      0.12340000</i>
   <i name="PARAM2">      1.00000000</i>
   <i name="PARAM3">      0.00000000</i>
  </separator>
  <separator name="model GW" >
   <i type="int" name="MODEL_GW">     0</i>
   <i name="MODEL_EPS0">     10.07433900</i>
   <i name="MODEL_ALPHA">      1.00000000</i>
  </separator>
  <separator name="linear response parameters" >
   <i type="logical" name="LEPSILON"> F  </i>
   <i type="logical" name="LRPA"> F  </i>
   <i type="logical" name="LNABLA"> F  </i>
   <i type="logical" name="LVEL"> F  </i>
   <i type="int" name="KINTER">     0</i>
   <i name="CSHIFT">      0.10000000</i>
   <i name="OMEGAMAX">     -1.00000000</i>
   <i name="DEG_THRESHOLD">      0.00200000</i>
   <i name="RTIME">     -0.10000000</i>
   <i name="WPLASMAI">      0.00000000</i>
   <v name="DFIELD">      0.00000000      0.00000000      0.00000000</v>
   <v name="WPLASMA">      0.00000000      0.00000000      0.00000000      0.00000000      0.00000000      0.00000000      0.00000000      0.00000000      0.00000000</v>
  </separator>
  <separator name="orbital magnetization" >
   <i type="logical" name="NUCIND"> F  </i>
   <v name="MAGPOS">      0.00000000      0.00000000      0.00000000</v>
   <i type="logical" name="LNICSALL"> T  </i>
   <i type="logical" name="ORBITALMAG"> F  </i>
   <i type="logical" name="LMAGBLOCH"> F  </i>
   <i type="logical" name="LCHIMAG"> F  </i>
   <i type="logical" name="LGAUGE"> T  </i>
   <i type="int" name="MAGATOM">     0</i>
   <v name="MAGDIPOL">      0.00000000      0.00000000      0.00000000</v>
   <v name="AVECCONST">      0.00000000      0.00000000      0.00000000</v>
  </separator>
  <separator name="response functions" >
   <i type="logical" name="LADDER"> F  </i>
   <i type="logical" name="LRPAFORCE"> F  </i>
   <i type="logical" name="LFXC"> F  </i>
   <i type="logical" name="LHARTREE"> T  </i>
   <i type="int" name="IBSE">     0</i>
   <v type="int" name="KPOINT">    -1     0     0     0</v>
   <i type="logical" name="LTCTE"> F  </i>
   <i type="logical" name="LTETE"> F  </i>
   <i type="logical" name="LTRIPLET"> F  </i>
   <i type="logical" name="LFXCEPS"> F  </i>
   <i type="logical" name="LFXHEG"> F  </i>
   <i type="int" name="NATURALO">     2</i>
   <i type="logical" name="L2ORDER"> F  </i>
   <i type="logical" name="LMP2LT"> F  </i>
   <i type="logical" name="LUSEW"> F  </i>
   <i name="ENCUTGW">     -2.00000000</i>
   <i name="ENCUTGWSOFT">     -2.00000000</i>
   <i name="ENCUTLF">     -1.00000000</i>
   <i type="int" name="LMAXMP2">    -1</i>
   <i name="SCISSOR">      0.00000000</i>
   <i type="int" name="NOMEGA">     0</i>
   <i type="int" name="NOMEGAR">     0</i>
   <i type="int" name="NBANDSGW">    -1</i>
   <i type="int" name="NBANDSO">    -1</i>
   <i type="int" name="NBANDSV">    -1</i>
   <i type="int" name="NELM">     1</i>
   <i type="int" name="NELMHF">     1</i>
   <i type="int" name="DIM">     3</i>
   <i type="int" name="ANTIRES">     0</i>
   <i name="OMEGAMAX">    -30.00000000</i>
   <i name="OMEGAMIN">    -30.00000000</i>
   <i name="OMEGATL">   -200.00000000</i>
   <i type="int" name="OMEGAGRID">   140</i>
   <i name="CSHIFT">     -0.10000000</i>
   <i type="logical" name="SELFENERGY"> F  </i>
   <i type="logical" name="LSPECTRAL"> F  </i>
   <i type="logical" name="LSPECTRALGW"> F  </i>
   <i type="logical" name="LSINGLES"> F  </i>
   <i type="logical" name="LFERMIGW"> F  </i>
   <i type="logical" name="ODDONLYGW"> F  </i>
   <i type="logical" name="EVENONLYGW"> F  </i>
   <i type="int" name="NKREDLFX">     1</i>
   <i type="int" name="NKREDLFY">     1</i>
   <i type="int" name="NKREDLFZ">     1</i>
   <i type="int" name="MAXMEM">  2800</i>
   <i type="int" name="TELESCOPE">     0</i>
   <i type="int" name="TAUPAR">     1</i>
   <i type="int" name="OMEGAPAR">    -1</i>
   <i name="LAMBDA">      1.00000000</i>
  </separator>
  <separator name="External order field" >
   <i name="OFIELD_KAPPA">      0.00000000</i>
   <v name="OFIELD_K">      0.00000000      0.00000000      0.00000000</v>
   <i name="OFIELD_Q6_NEAR">      0.00000000</i>
   <i name="OFIELD_Q6_FAR">      0.00000000</i>
   <i name="OFIELD_A">      0.00000000</i>
  </separator>
  <separator name="solvation model" >
   <i type="logical" name="LSOL"> F  </i>
  </separator>
 </parameters>
 <atominfo>
  <atoms>      29 </atoms>
  <types>       5 </types>
  <array name="atoms" >
   <dimension dim="1">ion</dimension>
   <field type="string">element</field>
   <field type="int">atomtype</field>
   <set>
    <rc><c>Nb</c><c>   1</c></rc>
    <rc><c>Nb</c><c>   1</c></rc>
    <rc><c>Nb</c><c>   1</c></rc>
    <rc><c>Nb</c><c>   1</c></rc>
    <rc><c>Nb</c><c>   1</c></rc>
    <rc><c>Nb</c><c>   1</c></rc>
    <rc><c>Mo</c><c>   2</c></rc>
    <rc><c>Mo</c><c>   2</c></rc>
    <rc><c>Mo</c><c>   2</c></rc>
    <rc><c>Mo</c><c>   2</c></rc>
    <rc><c>Mo</c><c>   2</c></rc>
    <rc><c>Mo</c><c>   2</c></rc>
    <rc><c>Ta</c><c>   3</c></rc>
    <rc><c>Ta</c><c>   3</c></rc>
    <rc><c>Ta</c><c>   3</c></rc>
    <rc><c>Ta</c><c>   3</c></rc>
    <rc><c>Ta</c><c>   3</c></rc>
    <rc><c>Ti</c><c>   4</c></rc>
    <rc><c>Ti</c><c>   4</c></rc>
    <rc><c>Ti</c><c>   4</c></rc>
    <rc><c>Ti</c><c>   4</c></rc>
    <rc><c>Ti</c><c>   4</c></rc>
    <rc><c>Ti</c><c>   4</c></rc>
    <rc><c>W </c><c>   5</c></rc>
    <rc><c>W </c><c>   5</c></rc>
    <rc><c>W </c><c>   5</c></rc>
    <rc><c>W </c><c>   5</c></rc>
    <rc><c>W </c><c>   5</c></rc>
    <rc><c>W </c><c>   5</c></rc>
   </set>
  </array>
  <array name="atomtypes" >
   <dimension dim="1">type</dimension>
   <field type="int">atomspertype</field>
   <field type="string">element</field>
   <field>mass</field>
   <field>valence</field>
   <field type="string">pseudopotential</field>
   <set>
    <rc><c>   6</c><c>Nb</c><c>     92.91000000</c><c>     13.00000000</c><c>  PAW_PBE Nb_sv 25May2007               </c></rc>
    <rc><c>   6</c><c>Mo</c><c>     95.94000000</c><c>      6.00000000</c><c>  PAW_PBE Mo 08Apr2002                  </c></rc>
    <rc><c>   5</c><c>Ta</c><c>    180.94800000</c><c>      5.00000000</c><c>  PAW_PBE Ta 17Jan2003                  </c></rc>
    <rc><c>   6</c><c>Ti</c><c>     47.88000000</c><c>      4.00000000</c><c>  PAW_PBE Ti 08Apr2002                  </c></rc>
    <rc><c>   6</c><c>W </c><c>    183.85000000</c><c>      6.00000000</c><c>  PAW_PBE W 08Apr2002                   </c></rc>
   </set>
  </array>
 </atominfo>
 <structure name="initialpos" >
  <crystal>
   <varray name="basis" >
    <v>      -3.19000000      -3.19000000      -3.19000000 </v>
    <v>       1.59500000       1.59500000      -7.97500000 </v>
    <v>       7.97500000      -7.97500000      -1.59500000 </v>
   </varray>
   <i name="volume">    486.92638500 </i>
   <varray name="rec_basis" >
    <v>      -0.13584117      -0.12539185      -0.05224660 </v>
    <v>       0.04179728       0.06269592      -0.10449321 </v>
    <v>       0.06269592      -0.06269592       0.00000000 </v>
   </varray>
  </crystal>
  <varray name="positions" >
   <v>       0.96666667       0.93333333       0.40000000 </v>
   <v>       0.63333333       0.26666667       0.40000000 </v>
   <v>       0.50000000       0.00000000       0.00000000 </v>
   <v>       0.00000000       0.00000000       0.00000000 </v>
   <v>       0.10000000       0.20000000       0.80000000 </v>
   <v>       0.03333333       0.06666667       0.60000000 </v>
   <v>       0.90000000       0.80000000       0.20000000 </v>
   <v>       0.80000000       0.60000000       0.40000000 </v>
   <v>       0.73333333       0.46666667       0.20000000 </v>
   <v>       0.66666667       0.33333333       0.00000000 </v>
   <v>       0.36666667       0.73333333       0.60000000 </v>
   <v>       0.13333333       0.26666667       0.40000000 </v>
   <v>       0.93333333       0.86666667       0.80000000 </v>
   <v>       0.56666667       0.13333333       0.20000000 </v>
   <v>       0.40000000       0.80000000       0.20000000 </v>
   <v>       0.43333333       0.86666667       0.80000000 </v>
   <v>       0.30000000       0.60000000       0.40000000 </v>
   <v>       0.86666667       0.73333333       0.60000000 </v>
   <v>       0.46666667       0.93333333       0.40000000 </v>
   <v>       0.16666667       0.33333333       0.00000000 </v>
   <v>       0.26666667       0.53333333       0.80000000 </v>
   <v>       0.20000000       0.40000000       0.60000000 </v>
   <v>       0.06666667       0.13333333       0.20000000 </v>
   <v>       0.76666667       0.53333333       0.80000000 </v>
   <v>       0.70000000       0.40000000       0.60000000 </v>
   <v>       0.60000000       0.20000000       0.80000000 </v>
   <v>       0.53333333       0.06666667       0.60000000 </v>
   <v>       0.33333333       0.66666667       0.00000000 </v>
   <v>       0.23333333       0.46666667       0.20000000 </v>
  </varray>
 </structure>
 <calculation>
  <scstep>
   <time name="dav">   18.16   18.18</time>
   <time name="total">   18.20   18.41</time>
   <energy>
    <i name="alphaZ">   1302.23520220 </i>
    <i name="ewald"> -11547.31731278 </i>
    <i name="hartreedc">  -3218.51928413 </i>
    <i name="XCdc">   -838.86814397 </i>
    <i name="pawpsdc">  12115.92678409 </i>
    <i name="pawaedc"> -10625.29399854 </i>
    <i name="eentropy">      0.00150127 </i>
    <i name="bandstr">   1900.92427233 </i>
    <i name="atom">  13080.25727947 </i>
    <i name="e_fr_energy">   2169.34629994 </i>
    <i name="e_wo_entrp">   2169.34479867 </i>
    <i name="e_0_energy">   2169.34579952 </i>
   </energy>
  </scstep>
  <scstep>
   <time name="dav">   18.21   18.23</time>
   <time name="total">   18.21   18.23</time>
   <energy>
    <i name="e_fr_energy">     76.48147283 </i>
    <i name="e_wo_entrp">     76.48099602 </i>
    <i name="e_0_energy">     76.48131389 </i>
   </energy>
  </scstep>
  <scstep>
   <time name="dav">   28.54   28.58</time>
   <time name="total">   28.55   28.58</time>
   <energy>
    <i name="e_fr_energy">   -300.57212413 </i>
    <i name="e_wo_entrp">   -300.57216505 </i>
    <i name="e_0_energy">   -300.57213777 </i>
   </energy>
  </scstep>
  <scstep>
   <time name="dav">   25.81   25.84</time>
   <time name="total">   25.81   25.85</time>
   <energy>
    <i name="e_fr_energy">   -347.24751403 </i>
    <i name="e_wo_entrp">   -347.24630086 </i>
    <i name="e_0_energy">   -347.24710964 </i>
   </energy>
  </scstep>
  <scstep>
   <time name="dav">   30.76   30.79</time>
   <time name="total">   31.33   31.37</time>
   <energy>
    <i name="e_fr_energy">   -352.35182211 </i>
    <i name="e_wo_entrp">   -352.35172886 </i>
    <i name="e_0_energy">   -352.35179103 </i>
   </energy>
  </scstep>
  <scstep>
   <time name="dav">   23.72   23.75</time>
   <time name="total">   24.33   24.36</time>
   <energy>
    <i name="e_fr_energy">   -342.94463904 </i>
    <i name="e_wo_entrp">   -342.94375057 </i>
    <i name="e_0_energy">   -342.94434288 </i>
   </energy>
  </scstep>
  <scstep>
   <time name="dav">   23.47   23.49</time>
   <time name="total">   24.07   24.11</time>
   <energy>
    <i name="e_fr_energy">   -356.43700623 </i>
    <i name="e_wo_entrp">   -356.44538251 </i>
    <i name="e_0_energy">   -356.43979832 </i>
   </energy>
  </scstep>
  <scstep>
   <time name="dav">   24.97   25.00</time>
   <time name="total">   25.57   25.60</time>
   <energy>
    <i name="e_fr_energy">   -347.23951309 </i>
    <i name="e_wo_entrp">   -347.23481071 </i>
    <i name="e_0_energy">   -347.23794563 </i>
   </energy>
  </scstep>
  <scstep>
   <time name="dav">   23.74   23.82</time>
   <time name="total">   24.35   24.42</time>
   <energy>
    <i name="e_fr_energy">   -335.28669173 </i>
    <i name="e_wo_entrp">   -335.28281092 </i>
    <i name="e_0_energy">   -335.28539813 </i>
   </energy>
  </scstep>
  <scstep>
   <time name="dav">   24.60   24.63</time>
   <time name="total">   25.22   25.26</time>
   <energy>
    <i name="e_fr_energy">   -331.82719271 </i>
    <i name="e_wo_entrp">   -331.82644173 </i>
    <i name="e_0_energy">   -331.82694238 </i>
   </energy>
  </scstep>
  <scstep>
   <time name="dav">   24.64   24.67</time>
   <time name="total">   25.24   25.27</time>
   <energy>
    <i name="e_fr_energy">   -330.23290390 </i>
    <i name="e_wo_entrp">   -330.22338751 </i>
    <i name="e_0_energy">   -330.22973177 </i>
   </energy>
  </scstep>
  <scstep>
   <time name="dav">   24.83   24.86</time>
   <time name="total">   25.43   25.46</time>
   <energy>
    <i name="e_fr_energy">   -329.75081687 </i>
    <i name="e_wo_entrp">   -329.74134906 </i>
    <i name="e_0_energy">   -329.74766093 </i>
   </energy>
  </scstep>
  <scstep>
   <time name="dav">   25.33   25.36</time>
   <time name="total">   25.93   25.97</time>
   <energy>
    <i name="e_fr_energy">   -329.67009129 </i>
    <i name="e_wo_entrp">   -329.65258764 </i>
    <i name="e_0_energy">   -329.66425674 </i>
   </energy>
  </scstep>
  <scstep>
   <time name="dav">   24.19   24.24</time>
   <time name="total">   24.80   24.84</time>
   <energy>
    <i name="e_fr_energy">   -329.58251584 </i>
    <i name="e_wo_entrp">   -329.56722863 </i>
    <i name="e_0_energy">   -329.57742010 </i>
   </energy>
  </scstep>
  <scstep>
   <time name="dav">   25.03   25.07</time>
   <time name="total">   25.64   25.68</time>
   <energy>
    <i name="e_fr_energy">   -329.59882417 </i>
    <i name="e_wo_entrp">   -329.58136123 </i>
    <i name="e_0_energy">   -329.59300319 </i>
   </energy>
  </scstep>
  <scstep>
   <time name="dav">   25.72   25.76</time>
   <time name="total">   26.34   26.39</time>
   <energy>
    <i name="e_fr_energy">   -329.58054135 </i>
    <i name="e_wo_entrp">   -329.56437676 </i>
    <i name="e_0_energy">   -329.57515315 </i>
   </energy>
  </scstep>
  <scstep>
   <time name="dav">   25.51   25.55</time>
   <time name="total">   26.12   26.16</time>
   <energy>
    <i name="e_fr_energy">   -329.57398615 </i>
    <i name="e_wo_entrp">   -329.55728447 </i>
    <i name="e_0_energy">   -329.56841892 </i>
   </energy>
  </scstep>
  <scstep>
   <time name="dav">   24.60   24.64</time>
   <time name="total">   25.22   25.26</time>
   <energy>
    <i name="e_fr_energy">   -329.57118050 </i>
    <i name="e_wo_entrp">   -329.55496847 </i>
    <i name="e_0_energy">   -329.56577649 </i>
   </energy>
  </scstep>
  <scstep>
   <time name="dav">   25.53   25.57</time>
   <time name="total">   26.16   26.20</time>
   <energy>
    <i name="e_fr_energy">   -329.57169966 </i>
    <i name="e_wo_entrp">   -329.55591788 </i>
    <i name="e_0_energy">   -329.56643907 </i>
   </energy>
  </scstep>
  <scstep>
   <time name="dav">   23.26   23.29</time>
   <time name="total">   23.87   23.90</time>
   <energy>
    <i name="e_fr_energy">   -329.56997308 </i>
    <i name="e_wo_entrp">   -329.55371121 </i>
    <i name="e_0_energy">   -329.56455246 </i>
   </energy>
  </scstep>
  <scstep>
   <time name="dav">   23.02   23.05</time>
   <time name="total">   23.63   23.66</time>
   <energy>
    <i name="e_fr_energy">   -329.56988151 </i>
    <i name="e_wo_entrp">   -329.55366211 </i>
    <i name="e_0_energy">   -329.56447504 </i>
   </energy>
  </scstep>
  <scstep>
   <time name="dav">   19.24   19.26</time>
   <time name="total">   19.28   19.30</time>
   <energy>
    <i name="alphaZ">   1302.23520220 </i>
    <i name="ewald"> -11547.31731278 </i>
    <i name="hartreedc">  -3072.56591933 </i>
    <i name="XCdc">   -833.53114327 </i>
    <i name="pawpsdc">  20646.31783874 </i>
    <i name="pawaedc"> -19156.60840969 </i>
    <i name="eentropy">     -0.01623993 </i>
    <i name="bandstr">   -748.34116692 </i>
    <i name="atom">  13080.25727947 </i>
    <i name="e_fr_energy">   -329.56987151 </i>
    <i name="e_wo_entrp">   -329.55363158 </i>
    <i name="e_0_energy">   -329.56445820 </i>
   </energy>
  </scstep>
  <structure>
   <crystal>
    <varray name="basis" >
     <v>      -3.19000000      -3.19000000      -3.19000000 </v>
     <v>       1.59500000       1.59500000      -7.97500000 </v>
     <v>       7.97500000      -7.97500000      -1.59500000 </v>
    </varray>
    <i name="volume">    486.92638500 </i>
    <varray name="rec_basis" >
     <v>      -0.13584117      -0.12539185      -0.05224660 </v>
     <v>       0.04179728       0.06269592      -0.10449321 </v>
     <v>       0.06269592      -0.06269592       0.00000000 </v>
    </varray>
   </crystal>
   <varray name="positions" >
    <v>       0.96666667       0.93333333       0.40000000 </v>
    <v>       0.63333333       0.26666667       0.40000000 </v>
    <v>       0.50000000       0.00000000       0.00000000 </v>
    <v>       0.00000000       0.00000000       0.00000000 </v>
    <v>       0.10000000       0.20000000       0.80000000 </v>
    <v>       0.03333333       0.06666667       0.60000000 </v>
    <v>       0.90000000       0.80000000       0.20000000 </v>
    <v>       0.80000000       0.60000000       0.40000000 </v>
    <v>       0.73333333       0.46666667       0.20000000 </v>
    <v>       0.66666667       0.33333333       0.00000000 </v>
    <v>       0.36666667       0.73333333       0.60000000 </v>
    <v>       0.13333333       0.26666667       0.40000000 </v>
    <v>       0.93333333       0.86666667       0.80000000 </v>
    <v>       0.56666667       0.13333333       0.20000000 </v>
    <v>       0.40000000       0.80000000       0.20000000 </v>
    <v>       0.43333333       0.86666667       0.80000000 </v>
    <v>       0.30000000       0.60000000       0.40000000 </v>
    <v>       0.86666667       0.73333333       0.60000000 </v>
    <v>       0.46666667       0.93333333       0.40000000 </v>
    <v>       0.16666667       0.33333333       0.00000000 </v>
    <v>       0.26666667       0.53333333       0.80000000 </v>
    <v>       0.20000000       0.40000000       0.60000000 </v>
    <v>       0.06666667       0.13333333       0.20000000 </v>
    <v>       0.76666667       0.53333333       0.80000000 </v>
    <v>       0.70000000       0.40000000       0.60000000 </v>
    <v>       0.60000000       0.20000000       0.80000000 </v>
    <v>       0.53333333       0.06666667       0.60000000 </v>
    <v>       0.33333333       0.66666667       0.00000000 </v>
    <v>       0.23333333       0.46666667       0.20000000 </v>
   </varray>
  </structure>
  <varray name="forces" >
   <v>      -0.02660920       0.49301476       0.22443004 </v>
   <v>       0.18054606      -0.17411119       0.14011450 </v>
   <v>      -0.44802078      -0.27205271       0.41669097 </v>
   <v>       0.23323497      -0.32663697      -0.17469454 </v>
   <v>       0.29189346       0.27615613      -0.45055474 </v>
   <v>      -0.70151864       0.31661790      -0.20961299 </v>
   <v>      -0.15006132      -0.32843611       0.23492759 </v>
   <v>      -0.54521254      -0.14511205       0.54971867 </v>
   <v>      -0.27551739       0.40531942      -0.15782626 </v>
   <v>       0.40861412       0.55504262      -0.40784439 </v>
   <v>      -0.11702555      -0.34601157       0.34554524 </v>
   <v>       0.07124420       0.28841088      -0.49766182 </v>
   <v>       0.68431949      -0.46343340       0.44882286 </v>
   <v>      -0.39749239       0.41540913      -0.00056651 </v>
   <v>      -0.73423552      -0.18113598       0.76728883 </v>
   <v>      -0.70589440       0.04472923       0.88506853 </v>
   <v>       0.21491179      -0.03124638      -0.34007025 </v>
   <v>       0.20475279       0.32335495       0.25892146 </v>
   <v>       0.33526653      -0.53488092       0.18753799 </v>
   <v>       0.68115914       0.19390415      -1.11224103 </v>
   <v>      -0.54971683      -0.14433236      -0.33502216 </v>
   <v>      -0.17065227       0.03255317       0.48672589 </v>
   <v>       0.42842727      -0.05021089      -0.64477824 </v>
   <v>       0.29545865      -0.31103743       0.36289620 </v>
   <v>       0.73757348       0.14798291      -0.86102580 </v>
   <v>      -0.06612245       0.35116958      -0.06319471 </v>
   <v>       0.09866253      -0.43387135      -0.44026107 </v>
   <v>      -0.12010028      -0.41403258       0.59298011 </v>
   <v>       0.14211506       0.31287706      -0.20631440 </v>
  </varray>
  <varray name="stress" >
   <v>     -34.80670010      -4.24359295       7.28413534 </v>
   <v>      -4.24359293     -30.08826153       4.61572942 </v>
   <v>       7.28413543       4.61572946     -35.89446834 </v>
  </varray>
  <energy>
   <i name="e_fr_energy">   -329.56987151 </i>
   <i name="e_wo_entrp">   -329.56445820 </i>
   <i name="e_0_energy">     -0.01623993 </i>
  </energy>
  <time name="totalsc">  562.62  563.65</time>
 </calculation>
 <calculation>
  <scstep>
   <time name="dav">   22.90   22.92</time>
   <time name="total">   23.50   23.53</time>
   <energy>
    <i name="alphaZ">   1370.94949810 </i>
    <i name="ewald"> -11812.03655188 </i>
    <i name="hartreedc">  -3063.97300337 </i>
    <i name="XCdc">   -827.08351594 </i>
    <i name="pawpsdc">  20646.56050410 </i>
    <i name="pawaedc"> -19156.80782325 </i>
    <i name="eentropy">     -0.00177240 </i>
    <i name="bandstr">   -569.81197751 </i>
    <i name="atom">  13080.25727947 </i>
    <i name="e_fr_energy">   -331.94736268 </i>
    <i name="e_wo_entrp">   -331.94559028 </i>
    <i name="e_0_energy">   -331.94677188 </i>
   </energy>
  </scstep>
  <scstep>
   <time name="dav">   26.73   26.75</time>
   <time name="total">   27.33   27.37</time>
   <energy>
    <i name="e_fr_energy">   -332.42912754 </i>
    <i name="e_wo_entrp">   -332.43095865 </i>
    <i name="e_0_energy">   -332.42973791 </i>
   </energy>
  </scstep>
  <scstep>
   <time name="dav">   25.25   25.27</time>
   <time name="total">   25.85   25.88</time>
   <energy>
    <i name="e_fr_energy">   -330.70664375 </i>
    <i name="e_wo_entrp">   -330.70095231 </i>
    <i name="e_0_energy">   -330.70474660 </i>
   </energy>
  </scstep>
  <scstep>
   <time name="dav">   26.59   26.61</time>
   <time name="total">   27.20   27.22</time>
   <energy>
    <i name="e_fr_energy">   -330.32320691 </i>
    <i name="e_wo_entrp">   -330.31687066 </i>
    <i name="e_0_energy">   -330.32109483 </i>
   </energy>
  </scstep>
  <scstep>
   <time name="dav">   25.49   25.52</time>
   <time name="total">   26.10   26.14</time>
   <energy>
    <i name="e_fr_energy">   -329.93501953 </i>
    <i name="e_wo_entrp">   -329.92277373 </i>
    <i name="e_0_energy">   -329.93093759 </i>
   </energy>
  </scstep>
  <scstep>
   <time name="dav">   26.88   26.91</time>
   <time name="total">   27.49   27.52</time>
   <energy>
    <i name="e_fr_energy">   -329.77801638 </i>
    <i name="e_wo_entrp">   -329.76353962 </i>
    <i name="e_0_energy">   -329.77319079 </i>
   </energy>
  </scstep>
  <scstep>
   <time name="dav">   27.89   27.92</time>
   <time name="total">   28.50   28.53</time>
   <energy>
    <i name="e_fr_energy">   -329.79555243 </i>
    <i name="e_wo_entrp">   -329.78090467 </i>
    <i name="e_0_energy">   -329.79066984 </i>
   </energy>
  </scstep>
  <scstep>
   <time name="dav">   25.73   25.75</time>
   <time name="total">   26.34   26.37</time>
   <energy>
    <i name="e_fr_energy">   -329.78964975 </i>
    <i name="e_wo_entrp">   -329.77472127 </i>
    <i name="e_0_energy">   -329.78467359 </i>
   </energy>
  </scstep>
  <scstep>
   <time name="dav">   25.74   25.76</time>
   <time name="total">   26.35   26.37</time>
   <energy>
    <i name="e_fr_energy">   -329.78884942 </i>
    <i name="e_wo_entrp">   -329.77421120 </i>
    <i name="e_0_energy">   -329.78397001 </i>
   </energy>
  </scstep>
  <scstep>
   <time name="dav">   26.91   26.94</time>
   <time name="total">   27.52   27.55</time>
   <energy>
    <i name="e_fr_energy">   -329.79470279 </i>
    <i name="e_wo_entrp">   -329.77960613 </i>
    <i name="e_0_energy">   -329.78967057 </i>
   </energy>
  </scstep>
  <scstep>
   <time name="dav">   25.86   25.88</time>
   <time name="total">   26.47   26.50</time>
   <energy>
    <i name="e_fr_energy">   -329.79675800 </i>
    <i name="e_wo_entrp">   -329.78189717 </i>
    <i name="e_0_energy">   -329.79180439 </i>
   </energy>
  </scstep>
  <scstep>
   <time name="dav">   26.14   26.17</time>
   <time name="total">   26.75   26.78</time>
   <energy>
    <i name="e_fr_energy">   -329.79615299 </i>
    <i name="e_wo_entrp">   -329.78119402 </i>
    <i name="e_0_energy">   -329.79116667 </i>
   </energy>
  </scstep>
  <scstep>
   <time name="dav">   26.09   26.12</time>
   <time name="total">   26.70   26.73</time>
   <energy>
    <i name="e_fr_energy">   -329.79638357 </i>
    <i name="e_wo_entrp">   -329.78148049 </i>
    <i name="e_0_energy">   -329.79141587 </i>
   </energy>
  </scstep>
  <scstep>
   <time name="dav">   24.48   24.51</time>
   <time name="total">   25.11   25.14</time>
   <energy>
    <i name="e_fr_energy">   -329.79640995 </i>
    <i name="e_wo_entrp">   -329.78143249 </i>
    <i name="e_0_energy">   -329.79141746 </i>
   </energy>
  </scstep>
  <scstep>
   <time name="dav">   18.84   18.86</time>
   <time name="total">   18.87   18.89</time>
   <energy>
    <i name="alphaZ">   1370.94949810 </i>
    <i name="ewald"> -11812.03655188 </i>
    <i name="hartreedc">  -2969.47266687 </i>
    <i name="XCdc">   -829.80832604 </i>
    <i name="pawpsdc">  22325.20003912 </i>
    <i name="pawaedc"> -20836.20340549 </i>
    <i name="eentropy">     -0.01495634 </i>
    <i name="bandstr">   -658.66728242 </i>
    <i name="atom">  13080.25727947 </i>
    <i name="e_fr_energy">   -329.79637237 </i>
    <i name="e_wo_entrp">   -329.78141602 </i>
    <i name="e_0_energy">   -329.79138692 </i>
   </energy>
  </scstep>
  <structure>
   <crystal>
    <varray name="basis" >
     <v>      -3.13876800      -3.14207427      -3.15130185 </v>
     <v>       1.53414076       1.54870459      -7.82067884 </v>
     <v>       7.84589679      -7.87451733      -1.55529605 </v>
    </varray>
    <i name="volume">    462.52081518 </i>
    <varray name="rec_basis" >
     <v>      -0.13835651      -0.12750604      -0.05239028 </v>
     <v>       0.04308590       0.06401118      -0.10673827 </v>
     <v>       0.06368057      -0.06352544      -0.00008787 </v>
    </varray>
   </crystal>
   <varray name="positions" >
    <v>       0.96329301       0.93363950       0.39842834 </v>
    <v>       0.63285023       0.26579778       0.40107270 </v>
    <v>       0.50353147      -0.00382680      -0.00053224 </v>
    <v>       0.00088776       0.00036299       0.00169340 </v>
    <v>       0.09755222       0.20369510       0.80004760 </v>
    <v>       0.03654366       0.06726643       0.59692053 </v>
    <v>       0.90237805       0.79751974       0.20053952 </v>
    <v>       0.80306521       0.59569057       0.39878985 </v>
    <v>       0.73308482       0.46813266       0.19794073 </v>
    <v>       0.66165928       0.33789201      -0.00044289 </v>
    <v>       0.36865573       0.73030890       0.60069260 </v>
    <v>       0.13237614       0.27019139       0.39934315 </v>
    <v>       0.93052091       0.86438230       0.80347151 </v>
    <v>       0.56676009       0.13379113       0.19754128 </v>
    <v>       0.40397347       0.79410369       0.19832709 </v>
    <v>       0.43545789       0.86091693       0.79772965 </v>
    <v>       0.29963778       0.60205315       0.40074453 </v>
    <v>       0.86271619       0.73341899       0.59964127 </v>
    <v>       0.46723248       0.93144617       0.40263186 </v>
    <v>       0.16383325       0.34090015       0.00147376 </v>
    <v>       0.27198668       0.53347718       0.79877387 </v>
    <v>       0.19969462       0.39730076       0.59938538 </v>
    <v>       0.06578795       0.13729569       0.20144770 </v>
    <v>       0.76569728       0.53115896       0.80183442 </v>
    <v>       0.69644148       0.40627530       0.60178329 </v>
    <v>       0.59846830       0.20124739       0.79873785 </v>
    <v>       0.53642104       0.06777269       0.60161071 </v>
    <v>       0.33513035       0.66218298       0.00088903 </v>
    <v>       0.23102935       0.46893960       0.19948351 </v>
   </varray>
  </structure>
  <varray name="forces" >
   <v>      -0.02259268       0.29633894       0.03764362 </v>
   <v>       0.00699510       0.02690191       0.09599275 </v>
   <v>      -0.56576290      -0.22971123       0.42684125 </v>
   <v>       0.13145245      -0.16538109      -0.26584560 </v>
   <v>       0.13680255      -0.02145371      -0.13688251 </v>
   <v>      -0.23053044       0.00257157      -0.09958249 </v>
   <v>      -0.22126665       0.03365933       0.19415346 </v>
   <v>      -0.14995593      -0.08069714       0.12155818 </v>
   <v>      -0.41525450       0.26490753      -0.07965287 </v>
   <v>       0.14616855       0.19401216      -0.21967110 </v>
   <v>      -0.04588521      -0.11155774       0.18769978 </v>
   <v>       0.01283661       0.14466869      -0.16452716 </v>
   <v>       0.40340047      -0.40317826       0.45625801 </v>
   <v>      -0.08210115       0.16939809       0.10017546 </v>
   <v>      -0.34286549      -0.19382923       0.04896057 </v>
   <v>      -0.04602899       0.08028621       0.31112382 </v>
   <v>       0.12795676      -0.11584706      -0.09851447 </v>
   <v>       0.06091167       0.17747456       0.06763218 </v>
   <v>       0.07387647      -0.26082487       0.14162613 </v>
   <v>       0.60903391       0.43270507      -0.89191159 </v>
   <v>      -0.25180433       0.00625317       0.03546819 </v>
   <v>      -0.03292778       0.07180129       0.18491862 </v>
   <v>       0.23229400       0.01313209      -0.40255770 </v>
   <v>       0.20292003      -0.49965251      -0.17991678 </v>
   <v>       0.23097048       0.12366260      -0.26392556 </v>
   <v>       0.05439978       0.05885418       0.01588366 </v>
   <v>       0.02620996      -0.17721216      -0.11725547 </v>
   <v>      -0.13302783       0.00338986       0.43959515 </v>
   <v>       0.08377510       0.15932776       0.05471245 </v>
  </varray>
  <varray name="stress" >
   <v>      82.24461024      -1.94757940       3.44332130 </v>
   <v>      -1.94757935      82.12476851       1.83606368 </v>
   <v>       3.44332126       1.83606361      80.93032764 </v>
  </varray>
  <energy>
   <i name="e_fr_energy">   -329.79637237 </i>
   <i name="e_wo_entrp">   -329.79138692 </i>
   <i name="e_0_energy">     -0.01495634 </i>
  </energy>
  <time name="totalsc">  408.32  408.79</time>
 </calculation>
 <calculation>
  <scstep>
   <time name="dav">   22.15   22.17</time>
   <time name="total">   22.76   22.79</time>
   <energy>
    <i name="alphaZ">   1343.72712808 </i>
    <i name="ewald"> -11708.80718344 </i>
    <i name="hartreedc">  -2973.14433781 </i>
    <i name="XCdc">   -832.28972126 </i>
    <i name="pawpsdc">  22325.14197828 </i>
    <i name="pawaedc"> -20836.13602568 </i>
    <i name="eentropy">     -0.01703156 </i>
    <i name="bandstr">   -729.00826468 </i>
    <i name="atom">  13080.25727947 </i>
    <i name="e_fr_energy">   -330.27617861 </i>
    <i name="e_wo_entrp">   -330.25914705 </i>
    <i name="e_0_energy">   -330.27050142 </i>
   </energy>
  </scstep>
  <scstep>
   <time name="dav">   28.34   28.37</time>
   <time name="total">   28.95   28.98</time>
   <energy>
    <i name="e_fr_energy">   -330.36125563 </i>
    <i name="e_wo_entrp">   -330.35152170 </i>
    <i name="e_0_energy">   -330.35801099 </i>
   </energy>
  </scstep>
  <scstep>
   <time name="dav">   25.86   25.88</time>
   <time name="total">   26.47   26.50</time>
   <energy>
    <i name="e_fr_energy">   -330.18204599 </i>
    <i name="e_wo_entrp">   -330.16964931 </i>
    <i name="e_0_energy">   -330.17791377 </i>
   </energy>
  </scstep>
  <scstep>
   <time name="dav">   26.68   26.71</time>
   <time name="total">   27.30   27.36</time>
   <energy>
    <i name="e_fr_energy">   -330.05451422 </i>
    <i name="e_wo_entrp">   -330.03865127 </i>
    <i name="e_0_energy">   -330.04922657 </i>
   </energy>
  </scstep>
  <scstep>
   <time name="dav">   25.24   25.26</time>
   <time name="total">   25.85   25.87</time>
   <energy>
    <i name="e_fr_energy">   -329.97737043 </i>
    <i name="e_wo_entrp">   -329.96210044 </i>
    <i name="e_0_energy">   -329.97228043 </i>
   </energy>
  </scstep>
  <scstep>
   <time name="dav">   25.73   25.75</time>
   <time name="total">   26.34   26.36</time>
   <energy>
    <i name="e_fr_energy">   -329.96036073 </i>
    <i name="e_wo_entrp">   -329.94547867 </i>
    <i name="e_0_energy">   -329.95540005 </i>
   </energy>
  </scstep>
  <scstep>
   <time name="dav">   27.11   27.14</time>
   <time name="total">   27.74   27.78</time>
   <energy>
    <i name="e_fr_energy">   -329.96107391 </i>
    <i name="e_wo_entrp">   -329.94568104 </i>
    <i name="e_0_energy">   -329.95594296 </i>
   </energy>
  </scstep>
  <scstep>
   <time name="dav">   26.46   26.50</time>
   <time name="total">   27.07   27.12</time>
   <energy>
    <i name="e_fr_energy">   -329.95982847 </i>
    <i name="e_wo_entrp">   -329.94458462 </i>
    <i name="e_0_energy">   -329.95474719 </i>
   </energy>
  </scstep>
  <scstep>
   <time name="dav">   26.26   26.31</time>
   <time name="total">   26.88   26.93</time>
   <energy>
    <i name="e_fr_energy">   -329.95962129 </i>
    <i name="e_wo_entrp">   -329.94402791 </i>
    <i name="e_0_energy">   -329.95442350 </i>
   </energy>
  </scstep>
  <scstep>
   <time name="dav">   25.93   25.97</time>
   <time name="total">   26.57   26.61</time>
   <energy>
    <i name="e_fr_energy">   -329.96066223 </i>
    <i name="e_wo_entrp">   -329.94534123 </i>
    <i name="e_0_energy">   -329.95555523 </i>
   </energy>
  </scstep>
  <scstep>
   <time name="dav">   26.22   26.25</time>
   <time name="total">   26.83   26.87</time>
   <energy>
    <i name="e_fr_energy">   -329.96087210 </i>
    <i name="e_wo_entrp">   -329.94533708 </i>
    <i name="e_0_energy">   -329.95569376 </i>
   </energy>
  </scstep>
  <scstep>
   <time name="dav">   24.60   24.63</time>
   <time name="total">   25.21   25.24</time>
   <energy>
    <i name="e_fr_energy">   -329.96074948 </i>
    <i name="e_wo_entrp">   -329.94527850 </i>
    <i name="e_0_energy">   -329.95559249 </i>
   </energy>
  </scstep>
  <scstep>
   <time name="dav">   21.05   21.08</time>
   <time name="total">   21.08   21.12</time>
   <energy>
    <i name="alphaZ">   1343.72712808 </i>
    <i name="ewald"> -11708.80718344 </i>
    <i name="hartreedc">  -3009.42459783 </i>
    <i name="XCdc">   -831.24318483 </i>
    <i name="pawpsdc">  21634.81224540 </i>
    <i name="pawaedc"> -20145.30506234 </i>
    <i name="eentropy">     -0.01548948 </i>
    <i name="bandstr">   -693.96189516 </i>
    <i name="atom">  13080.25727947 </i>
    <i name="e_fr_energy">   -329.96076013 </i>
    <i name="e_wo_entrp">   -329.94527064 </i>
    <i name="e_0_energy">   -329.95559697 </i>
   </energy>
  </scstep>
  <structure>
   <crystal>
    <varray name="basis" >
     <v>      -3.15863970      -3.16066354      -3.16631196 </v>
     <v>       1.55774664       1.56666150      -7.88053643 </v>
     <v>       7.89597292      -7.91349222      -1.57069629 </v>
    </varray>
    <i name="volume">    471.89095626 </i>
    <varray name="rec_basis" >
     <v>      -0.13736926      -0.12667705      -0.05233737 </v>
     <v>       0.04257794       0.06349428      -0.10585578 </v>
     <v>       0.06329484      -0.06320123      -0.00005299 </v>
    </varray>
   </crystal>
   <varray name="positions" >
    <v>       0.96462043       0.93351868       0.39904646 </v>
    <v>       0.63303960       0.26614062       0.40065083 </v>
    <v>       0.50213096      -0.00230747      -0.00032108 </v>
    <v>       0.00054100       0.00021727       0.00102691 </v>
    <v>       0.09852511       0.20222910       0.80002730 </v>
    <v>       0.03527739       0.06703412       0.59813248 </v>
    <v>       0.90143624       0.79850335       0.20032830 </v>
    <v>       0.80184636       0.59740191       0.39926794 </v>
    <v>       0.73318385       0.46755407       0.19875058 </v>
    <v>       0.66364162       0.33608316      -0.00027069 </v>
    <v>       0.36786595       0.73150786       0.60042131 </v>
    <v>       0.13276084       0.26879451       0.39960027 </v>
    <v>       0.93162686       0.86528211       0.80210593 </v>
    <v>       0.56672158       0.13361290       0.19850873 </v>
    <v>       0.40239259       0.79644513       0.19898795 </v>
    <v>       0.43460475       0.86320022       0.79862542 </v>
    <v>       0.29978624       0.60123808       0.40045074 </v>
    <v>       0.86427161       0.73338375       0.59978209 </v>
    <v>       0.46700814       0.93219111       0.40159685 </v>
    <v>       0.16496901       0.33789724       0.00089075 </v>
    <v>       0.26989069       0.53342412       0.79925679 </v>
    <v>       0.19980763       0.39837149       0.59962823 </v>
    <v>       0.06614523       0.13572260       0.20087644 </v>
    <v>       0.76607586       0.53201812       0.80111322 </v>
    <v>       0.69786000       0.40378366       0.60107888 </v>
    <v>       0.59907302       0.20075385       0.79923397 </v>
    <v>       0.53520968       0.06733349       0.60097668 </v>
    <v>       0.33441289       0.66396009       0.00054096 </v>
    <v>       0.23194152       0.46803819       0.19968574 </v>
   </varray>
  </structure>
  <varray name="forces" >
   <v>      -0.02706447       0.38896212       0.12084153 </v>
   <v>       0.08353719      -0.05802227       0.11988438 </v>
   <v>      -0.53010565      -0.25518097       0.43082152 </v>
   <v>       0.17551444      -0.22559785      -0.22037682 </v>
   <v>       0.20602179       0.11058907      -0.27067162 </v>
   <v>      -0.42635017       0.13101653      -0.14761360 </v>
   <v>      -0.19839247      -0.12119133       0.22241913 </v>
   <v>      -0.32459483      -0.11469973       0.31140317 </v>
   <v>      -0.35994068       0.34241947      -0.12727446 </v>
   <v>       0.27215732       0.36162348      -0.31659860 </v>
   <v>      -0.09081914      -0.23184313       0.27137501 </v>
   <v>       0.04769692       0.21454212      -0.31443698 </v>
   <v>       0.52206115      -0.42090587       0.44715028 </v>
   <v>      -0.22724829       0.24401107       0.06161914 </v>
   <v>      -0.51135792      -0.20089753       0.33832925 </v>
   <v>      -0.32157825       0.06080383       0.55215396 </v>
   <v>       0.16827206      -0.09380354      -0.19371143 </v>
   <v>       0.12355827       0.24951177       0.15021978 </v>
   <v>       0.18098453      -0.38128041       0.16395350 </v>
   <v>       0.65015617       0.33413091      -1.00500687 </v>
   <v>      -0.38743928      -0.06641589      -0.12277592 </v>
   <v>      -0.09452684       0.06193682       0.31818028 </v>
   <v>       0.31980376      -0.00700502      -0.50637541 </v>
   <v>       0.25250356      -0.42436194       0.05940991 </v>
   <v>       0.46425847       0.14184189      -0.53602990 </v>
   <v>       0.00046180       0.19076929      -0.01995717 </v>
   <v>       0.06232649      -0.28548695      -0.25922820 </v>
   <v>      -0.13697074      -0.19209393       0.53154756 </v>
   <v>       0.10707481       0.24662799      -0.05925143 </v>
  </varray>
  <varray name="stress" >
   <v>      33.55605107      -3.01167092       5.39222399 </v>
   <v>      -3.01167094      35.85808711       3.28211038 </v>
   <v>       5.39222402       3.28211035      32.40181482 </v>
  </varray>
  <energy>
   <i name="e_fr_energy">   -329.96076013 </i>
   <i name="e_wo_entrp">   -329.95559697 </i>
   <i name="e_0_energy">     -0.01548948 </i>
  </energy>
  <time name="totalsc">  357.02  358.16</time>
 </calculation>
 <calculation>
  <scstep>
   <time name="dav">   18.42   18.48</time>
   <time name="total">   19.03   19.18</time>
   <energy>
    <i name="alphaZ">   1329.41410876 </i>
    <i name="ewald"> -11733.80635226 </i>
    <i name="hartreedc">  -2934.73949584 </i>
    <i name="XCdc">   -832.84600823 </i>
    <i name="pawpsdc">  21634.90256759 </i>
    <i name="pawaedc"> -20145.46949042 </i>
    <i name="eentropy">     -0.00841262 </i>
    <i name="bandstr">   -727.85472336 </i>
    <i name="atom">  13080.25727947 </i>
    <i name="e_fr_energy">   -330.15052691 </i>
    <i name="e_wo_entrp">   -330.14211429 </i>
    <i name="e_0_energy">   -330.14772270 </i>
   </energy>
  </scstep>
  <scstep>
   <time name="dav">   26.19   26.27</time>
   <time name="total">   26.80   26.88</time>
   <energy>
    <i name="e_fr_energy">   -330.59688101 </i>
    <i name="e_wo_entrp">   -330.59109008 </i>
    <i name="e_0_energy">   -330.59495070 </i>
   </energy>
  </scstep>
  <scstep>
   <time name="dav">   25.88   25.92</time>
   <time name="total">   26.52   26.57</time>
   <energy>
    <i name="e_fr_energy">   -330.51205540 </i>
    <i name="e_wo_entrp">   -330.50403886 </i>
    <i name="e_0_energy">   -330.50938322 </i>
   </energy>
  </scstep>
  <scstep>
   <time name="dav">   25.81   25.84</time>
   <time name="total">   26.42   26.45</time>
   <energy>
    <i name="e_fr_energy">   -330.42353252 </i>
    <i name="e_wo_entrp">   -330.41473235 </i>
    <i name="e_0_energy">   -330.42059913 </i>
   </energy>
  </scstep>
  <scstep>
   <time name="dav">   26.07   26.10</time>
   <time name="total">   26.69   26.72</time>
   <energy>
    <i name="e_fr_energy">   -330.40290119 </i>
    <i name="e_wo_entrp">   -330.39285082 </i>
    <i name="e_0_energy">   -330.39955107 </i>
   </energy>
  </scstep>
  <scstep>
   <time name="dav">   26.28   26.30</time>
   <time name="total">   26.89   26.93</time>
   <energy>
    <i name="e_fr_energy">   -330.39554058 </i>
    <i name="e_wo_entrp">   -330.38621684 </i>
    <i name="e_0_energy">   -330.39243267 </i>
   </energy>
  </scstep>
  <scstep>
   <time name="dav">   27.51   27.54</time>
   <time name="total">   28.13   28.16</time>
   <energy>
    <i name="e_fr_energy">   -330.38893529 </i>
    <i name="e_wo_entrp">   -330.37941216 </i>
    <i name="e_0_energy">   -330.38576092 </i>
   </energy>
  </scstep>
  <scstep>
   <time name="dav">   26.03   26.06</time>
   <time name="total">   26.65   26.68</time>
   <energy>
    <i name="e_fr_energy">   -330.38690272 </i>
    <i name="e_wo_entrp">   -330.37707640 </i>
    <i name="e_0_energy">   -330.38362728 </i>
   </energy>
  </scstep>
  <scstep>
   <time name="dav">   24.98   25.01</time>
   <time name="total">   25.62   25.65</time>
   <energy>
    <i name="e_fr_energy">   -330.38634719 </i>
    <i name="e_wo_entrp">   -330.37667859 </i>
    <i name="e_0_energy">   -330.38312432 </i>
   </energy>
  </scstep>
  <scstep>
   <time name="dav">   23.54   23.57</time>
   <time name="total">   24.15   24.18</time>
   <energy>
    <i name="e_fr_energy">   -330.38637559 </i>
    <i name="e_wo_entrp">   -330.37666025 </i>
    <i name="e_0_energy">   -330.38313714 </i>
   </energy>
  </scstep>
  <scstep>
   <time name="dav">   22.94   22.97</time>
   <time name="total">   23.56   23.61</time>
   <energy>
    <i name="e_fr_energy">   -330.38667688 </i>
    <i name="e_wo_entrp">   -330.37699685 </i>
    <i name="e_0_energy">   -330.38345020 </i>
   </energy>
  </scstep>
  <scstep>
   <time name="dav">   22.93   22.95</time>
   <time name="total">   23.54   23.57</time>
   <energy>
    <i name="e_fr_energy">   -330.38642004 </i>
    <i name="e_wo_entrp">   -330.37674307 </i>
    <i name="e_0_energy">   -330.38319438 </i>
   </energy>
  </scstep>
  <scstep>
   <time name="dav">   15.14   15.16</time>
   <time name="total">   15.17   15.19</time>
   <energy>
    <i name="alphaZ">   1329.41410876 </i>
    <i name="ewald"> -11733.80635226 </i>
    <i name="hartreedc">  -2949.37086324 </i>
    <i name="XCdc">   -832.29422563 </i>
    <i name="pawpsdc">  21256.88183965 </i>
    <i name="pawaedc"> -19768.13217040 </i>
    <i name="eentropy">     -0.00969405 </i>
    <i name="bandstr">   -713.32628124 </i>
    <i name="atom">  13080.25727947 </i>
    <i name="e_fr_energy">   -330.38635894 </i>
    <i name="e_wo_entrp">   -330.37666489 </i>
    <i name="e_0_energy">   -330.38312759 </i>
   </energy>
  </scstep>
  <structure>
   <crystal>
    <varray name="basis" >
     <v>      -3.17389283      -3.17788709      -3.19420063 </v>
     <v>       1.52782300       1.55195331      -7.88938838 </v>
     <v>       7.93225914      -7.97670168      -1.56264147 </v>
    </varray>
    <i name="volume">    476.97152847 </i>
    <varray name="rec_basis" >
     <v>      -0.13702379      -0.12619880      -0.05136047 </v>
     <v>       0.04300736       0.06351927      -0.10592880 </v>
     <v>       0.06295729      -0.06272963      -0.00014778 </v>
    </varray>
   </crystal>
   <varray name="positions" >
    <v>       0.96091073       0.93407695       0.39724035 </v>
    <v>       0.63240020       0.26520431       0.40155387 </v>
    <v>       0.50705915      -0.00746149      -0.00124694 </v>
    <v>       0.00160112       0.00101772       0.00286491 </v>
    <v>       0.09617317       0.20584913       0.80027621 </v>
    <v>       0.03882210       0.06756494       0.59518895 </v>
    <v>       0.90385102       0.79571307       0.20043715 </v>
    <v>       0.80506948       0.59309699       0.39812958 </v>
    <v>       0.73351554       0.46907035       0.19601970 </v>
    <v>       0.65850538       0.34103379      -0.00071211 </v>
    <v>       0.36995121       0.72814529       0.60111742 </v>
    <v>       0.13160813       0.27248586       0.39886362 </v>
    <v>       0.92858792       0.86215787       0.80615134 </v>
    <v>       0.56666630       0.13383115       0.19609803 </v>
    <v>       0.40739446       0.79068810       0.19736731 </v>
    <v>       0.43603627       0.85759775       0.79651816 </v>
    <v>       0.29954690       0.60314075       0.40145834 </v>
    <v>       0.86008446       0.73362144       0.59929855 </v>
    <v>       0.46785712       0.92993684       0.40430999 </v>
    <v>       0.16053748       0.34766408       0.00241959 </v>
    <v>       0.27523950       0.53321583       0.79785454 </v>
    <v>       0.19922813       0.39567941       0.59893460 </v>
    <v>       0.06505855       0.14030517       0.20241291 </v>
    <v>       0.76614247       0.53002526       0.80366407 </v>
    <v>       0.69396967       0.41030046       0.60278672 </v>
    <v>       0.59740057       0.20194699       0.79811681 </v>
    <v>       0.53837091       0.06836845       0.60264673 </v>
    <v>       0.33594699       0.65882332       0.00114261 </v>
    <v>       0.22913173       0.47023356       0.19908698 </v>
   </varray>
  </structure>
  <varray name="forces" >
   <v>      -0.09387195       0.17108054       0.00372241 </v>
   <v>      -0.03608034       0.08893970      -0.00368536 </v>
   <v>      -0.47221537      -0.03423116       0.21910102 </v>
   <v>       0.01989815      -0.11340191      -0.25318097 </v>
   <v>       0.07206162      -0.13432586       0.03982948 </v>
   <v>       0.08894866      -0.12402582      -0.03776494 </v>
   <v>      -0.10842353       0.01992426       0.00010227 </v>
   <v>      -0.02406624      -0.03058654      -0.01053912 </v>
   <v>      -0.16088258       0.04014342       0.06471870 </v>
   <v>      -0.03322015       0.02396585       0.01257683 </v>
   <v>       0.00233102       0.06463789       0.05890563 </v>
   <v>      -0.00357657       0.08821491      -0.03510049 </v>
   <v>       0.22068109      -0.14574534       0.16065124 </v>
   <v>      -0.01310148       0.05596935       0.10722652 </v>
   <v>      -0.03684904      -0.12042300      -0.13475144 </v>
   <v>       0.24477211       0.19577300       0.01875618 </v>
   <v>      -0.06039943      -0.03877894       0.03990889 </v>
   <v>       0.06203536       0.06532900      -0.04769950 </v>
   <v>      -0.00266090      -0.10218191       0.08509193 </v>
   <v>       0.37872943       0.38217884      -0.55900717 </v>
   <v>      -0.19515618       0.01339828       0.16726071 </v>
   <v>      -0.07502633       0.06148876       0.12539675 </v>
   <v>       0.14308090       0.06313832      -0.24846572 </v>
   <v>       0.01195999      -0.29365580      -0.20893757 </v>
   <v>      -0.00249890      -0.01245901       0.09186888 </v>
   <v>      -0.05928795      -0.12575380       0.14866293 </v>
   <v>       0.04693117      -0.09276148      -0.01181837 </v>
   <v>      -0.00506718       0.16574109       0.14889613 </v>
   <v>       0.09095464      -0.13159263       0.05827414 </v>
  </varray>
  <varray name="stress" >
   <v>      13.41818189      -0.26643208       1.11979998 </v>
   <v>      -0.26643210      10.07516035       0.89660755 </v>
   <v>       1.11979998       0.89660758      11.72254319 </v>
  </varray>
  <energy>
   <i name="e_fr_energy">   -330.38635894 </i>
   <i name="e_wo_entrp">   -330.38312759 </i>
   <i name="e_0_energy">     -0.00969405 </i>
  </energy>
  <time name="totalsc">  336.91  337.67</time>
 </calculation>
 <calculation>
  <scstep>
   <time name="dav">   18.52   18.55</time>
   <time name="total">   19.15   19.18</time>
   <energy>
    <i name="alphaZ">   1324.90521612 </i>
    <i name="ewald"> -11739.71375160 </i>
    <i name="hartreedc">  -2927.24852052 </i>
    <i name="XCdc">   -832.80141161 </i>
    <i name="pawpsdc">  21256.86092465 </i>
    <i name="pawaedc"> -19768.12256948 </i>
    <i name="eentropy">     -0.00792425 </i>
    <i name="bandstr">   -724.52030856 </i>
    <i name="atom">  13080.25727947 </i>
    <i name="e_fr_energy">   -330.39106578 </i>
    <i name="e_wo_entrp">   -330.38314153 </i>
    <i name="e_0_energy">   -330.38842436 </i>
   </energy>
  </scstep>
  <scstep>
   <time name="dav">   26.05   26.08</time>
   <time name="total">   26.67   26.70</time>
   <energy>
    <i name="e_fr_energy">   -330.43405458 </i>
    <i name="e_wo_entrp">   -330.42664057 </i>
    <i name="e_0_energy">   -330.43158325 </i>
   </energy>
  </scstep>
  <scstep>
   <time name="dav">   25.71   25.74</time>
   <time name="total">   26.32   26.36</time>
   <energy>
    <i name="e_fr_energy">   -330.42357394 </i>
    <i name="e_wo_entrp">   -330.41530774 </i>
    <i name="e_0_energy">   -330.42081854 </i>
   </energy>
  </scstep>
  <scstep>
   <time name="dav">   25.74   25.77</time>
   <time name="total">   26.35   26.38</time>
   <energy>
    <i name="e_fr_energy">   -330.41625581 </i>
    <i name="e_wo_entrp">   -330.40849397 </i>
    <i name="e_0_energy">   -330.41366853 </i>
   </energy>
  </scstep>
  <scstep>
   <time name="dav">   25.61   25.64</time>
   <time name="total">   26.23   26.26</time>
   <energy>
    <i name="e_fr_energy">   -330.41440872 </i>
    <i name="e_wo_entrp">   -330.40606886 </i>
    <i name="e_0_energy">   -330.41162877 </i>
   </energy>
  </scstep>
  <scstep>
   <time name="dav">   26.35   26.38</time>
   <time name="total">   26.96   26.99</time>
   <energy>
    <i name="e_fr_energy">   -330.41360752 </i>
    <i name="e_wo_entrp">   -330.40569798 </i>
    <i name="e_0_energy">   -330.41097101 </i>
   </energy>
  </scstep>
  <scstep>
   <time name="dav">   27.45   27.48</time>
   <time name="total">   28.06   28.09</time>
   <energy>
    <i name="e_fr_energy">   -330.41298595 </i>
    <i name="e_wo_entrp">   -330.40488811 </i>
    <i name="e_0_energy">   -330.41028667 </i>
   </energy>
  </scstep>
  <scstep>
   <time name="dav">   23.52   23.55</time>
   <time name="total">   24.15   24.19</time>
   <energy>
    <i name="e_fr_energy">   -330.41273208 </i>
    <i name="e_wo_entrp">   -330.40457885 </i>
    <i name="e_0_energy">   -330.41001434 </i>
   </energy>
  </scstep>
  <scstep>
   <time name="dav">   20.75   20.78</time>
   <time name="total">   20.78   20.81</time>
   <energy>
    <i name="alphaZ">   1324.90521612 </i>
    <i name="ewald"> -11739.71375160 </i>
    <i name="hartreedc">  -2932.53800725 </i>
    <i name="XCdc">   -832.61066057 </i>
    <i name="pawpsdc">  21156.41288858 </i>
    <i name="pawaedc"> -19667.58262887 </i>
    <i name="eentropy">     -0.00811163 </i>
    <i name="bandstr">   -719.53491284 </i>
    <i name="atom">  13080.25727947 </i>
    <i name="e_fr_energy">   -330.41268861 </i>
    <i name="e_wo_entrp">   -330.40457698 </i>
    <i name="e_0_energy">   -330.40998473 </i>
   </energy>
  </scstep>
  <structure>
   <crystal>
    <varray name="basis" >
     <v>      -3.17876064      -3.18338372      -3.20310088 </v>
     <v>       1.51827332       1.54725942      -7.89221335 </v>
     <v>       7.94383934      -7.99687404      -1.56007089 </v>
    </varray>
    <i name="volume">    478.59474905 </i>
    <varray name="rec_basis" >
     <v>      -0.13691515      -0.12604790      -0.05105075 </v>
     <v>       0.04314400       0.06352767      -0.10595277 </v>
     <v>       0.06285061      -0.06258038      -0.00017786 </v>
    </varray>
   </crystal>
   <varray name="positions" >
    <v>       0.95973393       0.93425486       0.39666788 </v>
    <v>       0.63219847       0.26490631       0.40184000 </v>
    <v>       0.50863426      -0.00911130      -0.00154234 </v>
    <v>       0.00193436       0.00127503       0.00344802 </v>
    <v>       0.09541924       0.20700706       0.80035635 </v>
    <v>       0.03994824       0.06773009       0.59425546 </v>
    <v>       0.90462289       0.79482064       0.20047072 </v>
    <v>       0.80610198       0.59171893       0.39776712 </v>
    <v>       0.73361995       0.46955185       0.19515407 </v>
    <v>       0.65686580       0.34261724      -0.00085038 </v>
    <v>       0.37061921       0.72707073       0.60133707 </v>
    <v>       0.13123542       0.27366508       0.39863117 </v>
    <v>       0.92762666       0.86116497       0.80743347 </v>
    <v>       0.56665030       0.13389837       0.19533356 </v>
    <v>       0.40899475       0.78884484       0.19685138 </v>
    <v>       0.43650373       0.85580473       0.79584809 </v>
    <v>       0.29946623       0.60374989       0.40177848 </v>
    <v>       0.85875572       0.73369849       0.59914544 </v>
    <v>       0.46812889       0.92921903       0.40516971 </v>
    <v>       0.15911004       0.35078834       0.00290762 </v>
    <v>       0.27693836       0.53314574       0.79740955 </v>
    <v>       0.19905032       0.39481866       0.59871382 </v>
    <v>       0.06470308       0.14177154       0.20290164 </v>
    <v>       0.76616558       0.52939112       0.80447244 </v>
    <v>       0.69272045       0.41238617       0.60333050 </v>
    <v>       0.59686835       0.20232771       0.79776294 </v>
    <v>       0.53937052       0.06869972       0.60317657 </v>
    <v>       0.33644380       0.65718193       0.00133179 </v>
    <v>       0.22823613       0.47093553       0.19889787 </v>
   </varray>
  </structure>
  <varray name="forces" >
   <v>      -0.10612161       0.09279613      -0.03168249 </v>
   <v>      -0.07815216       0.13667735      -0.03805568 </v>
   <v>      -0.45411327       0.03912478       0.15431246 </v>
   <v>      -0.02107639      -0.08081549      -0.25313424 </v>
   <v>       0.02789260      -0.21515120       0.14070530 </v>
   <v>       0.23370352      -0.19172762      -0.00205852 </v>
   <v>      -0.07653502       0.06756850      -0.06835417 </v>
   <v>       0.07869946       0.00917150      -0.12881965 </v>
   <v>      -0.09946764      -0.05734306       0.13538697 </v>
   <v>      -0.14260900      -0.09233609       0.12913487 </v>
   <v>       0.04725673       0.18471798      -0.03053656 </v>
   <v>      -0.02932165       0.03815981       0.06735750 </v>
   <v>       0.13734035      -0.04916975       0.06001784 </v>
   <v>       0.04185640      -0.01872724       0.10369916 </v>
   <v>       0.09860514      -0.08489375      -0.26608869 </v>
   <v>       0.42078211       0.21097878      -0.15515458 </v>
   <v>      -0.12782356      -0.03476034       0.09957884 </v>
   <v>       0.04027617       0.01335597      -0.10027571 </v>
   <v>      -0.05790815      -0.02461442       0.06988060 </v>
   <v>       0.28549167       0.40074052      -0.42032189 </v>
   <v>      -0.12155891       0.03987885       0.25669645 </v>
   <v>      -0.06255470       0.05601155       0.06403098 </v>
   <v>       0.09430597       0.08777005      -0.17246052 </v>
   <v>      -0.06258531      -0.23543583      -0.29005072 </v>
   <v>      -0.15449093      -0.07538048       0.30173369 </v>
   <v>      -0.07251014      -0.22195167       0.19689511 </v>
   <v>       0.02905442      -0.02785251       0.07426851 </v>
   <v>       0.04602630       0.29042586       0.00519371 </v>
   <v>       0.08553761      -0.25721815       0.09810145 </v>
  </varray>
  <varray name="stress" >
   <v>       8.17955201       0.74733610      -0.40103430 </v>
   <v>       0.74733609       2.84806108      -0.19133240 </v>
   <v>      -0.40103440      -0.19133252       6.63730047 </v>
  </varray>
  <energy>
   <i name="e_fr_energy">   -330.41268861 </i>
   <i name="e_wo_entrp">   -330.40998473 </i>
   <i name="e_0_energy">     -0.00811163 </i>
  </energy>
  <time name="totalsc">  243.06  243.61</time>
 </calculation>
 <calculation>
  <scstep>
   <time name="dav">   18.74   18.78</time>
   <time name="total">   19.36   19.69</time>
   <energy>
    <i name="alphaZ">   1315.11863370 </i>
    <i name="ewald"> -11708.03864247 </i>
    <i name="hartreedc">  -2928.04666207 </i>
    <i name="XCdc">   -833.56265514 </i>
    <i name="pawpsdc">  21155.22787851 </i>
    <i name="pawaedc"> -19666.55520202 </i>
    <i name="eentropy">     -0.00659830 </i>
    <i name="bandstr">   -744.86005219 </i>
    <i name="atom">  13080.25727947 </i>
    <i name="e_fr_energy">   -330.46602052 </i>
    <i name="e_wo_entrp">   -330.45942222 </i>
    <i name="e_0_energy">   -330.46382108 </i>
   </energy>
  </scstep>
  <scstep>
   <time name="dav">   25.31   25.37</time>
   <time name="total">   25.93   25.98</time>
   <energy>
    <i name="e_fr_energy">   -330.51074557 </i>
    <i name="e_wo_entrp">   -330.50299947 </i>
    <i name="e_0_energy">   -330.50816353 </i>
   </energy>
  </scstep>
  <scstep>
   <time name="dav">   26.02   26.08</time>
   <time name="total">   26.64   26.70</time>
   <energy>
    <i name="e_fr_energy">   -330.50906025 </i>
    <i name="e_wo_entrp">   -330.50380308 </i>
    <i name="e_0_energy">   -330.50730786 </i>
   </energy>
  </scstep>
  <scstep>
   <time name="dav">   25.68   25.75</time>
   <time name="total">   26.30   26.37</time>
   <energy>
    <i name="e_fr_energy">   -330.48363166 </i>
    <i name="e_wo_entrp">   -330.47674228 </i>
    <i name="e_0_energy">   -330.48133520 </i>
   </energy>
  </scstep>
  <scstep>
   <time name="dav">   25.53   25.59</time>
   <time name="total">   26.14   26.20</time>
   <energy>
    <i name="e_fr_energy">   -330.47515231 </i>
    <i name="e_wo_entrp">   -330.46838431 </i>
    <i name="e_0_energy">   -330.47289631 </i>
   </energy>
  </scstep>
  <scstep>
   <time name="dav">   26.14   26.20</time>
   <time name="total">   26.76   26.82</time>
   <energy>
    <i name="e_fr_energy">   -330.47283454 </i>
    <i name="e_wo_entrp">   -330.46603685 </i>
    <i name="e_0_energy">   -330.47056864 </i>
   </energy>
  </scstep>
  <scstep>
   <time name="dav">   25.94   26.00</time>
   <time name="total">   26.56   26.63</time>
   <energy>
    <i name="e_fr_energy">   -330.47286412 </i>
    <i name="e_wo_entrp">   -330.46615574 </i>
    <i name="e_0_energy">   -330.47062799 </i>
   </energy>
  </scstep>
  <scstep>
   <time name="dav">   23.21   23.27</time>
   <time name="total">   23.83   23.88</time>
   <energy>
    <i name="e_fr_energy">   -330.47261515 </i>
    <i name="e_wo_entrp">   -330.46577361 </i>
    <i name="e_0_energy">   -330.47033464 </i>
   </energy>
  </scstep>
  <scstep>
   <time name="dav">   20.74   20.79</time>
   <time name="total">   20.77   20.83</time>
   <energy>
    <i name="alphaZ">   1315.11863370 </i>
    <i name="ewald"> -11708.03864247 </i>
    <i name="hartreedc">  -2941.62645859 </i>
    <i name="XCdc">   -833.15474203 </i>
    <i name="pawpsdc">  20901.03986915 </i>
    <i name="pawaedc"> -19411.81926196 </i>
[...]
       <r>    4.6102    1.0000 </r>
       <r>    4.6594    1.0000 </r>
       <r>    4.7008    1.0000 </r>
       <r>    4.7512    1.0000 </r>
       <r>    4.7831    1.0000 </r>
       <r>    4.8342    1.0000 </r>
       <r>    4.8454    1.0000 </r>
       <r>    4.9351    1.0000 </r>
       <r>    4.9784    1.0000 </r>
       <r>    5.0668    1.0000 </r>
       <r>    5.0936    1.0000 </r>
       <r>    5.1859    1.0000 </r>
       <r>    5.2288    1.0000 </r>
       <r>    5.2603    1.0000 </r>
       <r>    5.3559    1.0000 </r>
       <r>    5.4270    1.0000 </r>
       <r>    5.4726    1.0000 </r>
       <r>    5.5374    1.0000 </r>
       <r>    5.6161    1.0000 </r>
       <r>    5.6579    1.0000 </r>
       <r>    5.7556    1.0000 </r>
       <r>    5.7940    1.0000 </r>
       <r>    5.8226    1.0000 </r>
       <r>    5.8490    1.0000 </r>
       <r>    5.9737    1.0000 </r>
       <r>    6.0117    1.0000 </r>
       <r>    6.0308    1.0000 </r>
       <r>    6.0862    1.0000 </r>
       <r>    6.1179    1.0000 </r>
       <r>    6.1719    1.0001 </r>
       <r>    6.2284    1.0004 </r>
       <r>    6.2749    1.0011 </r>
       <r>    6.3116    1.0024 </r>
       <r>    6.3980    1.0111 </r>
       <r>    6.4530    1.0222 </r>
       <r>    6.5038    1.0330 </r>
       <r>    6.5623    1.0311 </r>
       <r>    6.6165    0.9904 </r>
       <r>    6.6683    0.8925 </r>
       <r>    6.7797    0.4876 </r>
       <r>    6.8632    0.1696 </r>
       <r>    6.9749   -0.0241 </r>
       <r>    7.0523   -0.0326 </r>
       <r>    7.1052   -0.0211 </r>
       <r>    7.2430   -0.0024 </r>
       <r>    7.2906   -0.0008 </r>
       <r>    7.3628   -0.0001 </r>
       <r>    7.5123   -0.0000 </r>
       <r>    7.6583   -0.0000 </r>
       <r>    7.8080   -0.0000 </r>
       <r>    7.9581   -0.0000 </r>
       <r>    8.0134   -0.0000 </r>
       <r>    8.1526   -0.0000 </r>
       <r>    8.2179   -0.0000 </r>
       <r>    8.4928   -0.0000 </r>
       <r>    8.5862   -0.0000 </r>
       <r>    8.7794   -0.0000 </r>
       <r>    8.8434   -0.0000 </r>
       <r>    8.9018   -0.0000 </r>
       <r>    8.9158   -0.0000 </r>
       <r>    8.9800   -0.0000 </r>
      </set>
     </set>
    </set>
   </array>
  </eigenvalues>
  <separator name="orbital magnetization" >
   <v name="MAGDIPOLOUT">      0.00000000      0.00000000      0.00000000</v>
  </separator>
  <dos>
   <i name="efermi">      6.77682191 </i>
   <total>
    <array>
     <dimension dim="1">gridpoints</dimension>
     <dimension dim="2">spin</dimension>
     <field>energy</field>
     <field>total</field>
     <field>integrated</field>
     <set>
      <set comment="spin 1">
       <r>   -50.2253     0.0000     0.0000 </r>
       <r>   -50.0176     0.0000     0.0000 </r>
       <r>   -49.8098     0.0000     0.0000 </r>
       <r>   -49.6021     0.0000     0.0000 </r>
       <r>   -49.3944     0.0000     0.0000 </r>
       <r>   -49.1866    -0.0000    -0.0000 </r>
       <r>   -48.9789    -0.0000    -0.0000 </r>
       <r>   -48.7711    -0.0000    -0.0000 </r>
       <r>   -48.5634    -0.0000    -0.0000 </r>
       <r>   -48.3557    -0.0000    -0.0000 </r>
       <r>   -48.1479    -0.0000    -0.0000 </r>
       <r>   -47.9402    -0.0030    -0.0006 </r>
       <r>   -47.7324    -0.2232    -0.0470 </r>
       <r>   -47.5247    -0.4377    -0.1379 </r>
       <r>   -47.3169    15.1731     3.0142 </r>
       <r>   -47.1092    31.4008     9.5374 </r>
       <r>   -46.9015    12.2593    12.0842 </r>
       <r>   -46.6937    -0.1961    12.0434 </r>
       <r>   -46.4860    -0.2058    12.0007 </r>
       <r>   -46.2782    -0.0034    12.0000 </r>
       <r>   -46.0705    -0.0000    12.0000 </r>
       <r>   -45.8628    -0.0000    12.0000 </r>
       <r>   -45.6550    -0.0000    12.0000 </r>
       <r>   -45.4473     0.0000    12.0000 </r>
       <r>   -45.2395     0.0000    12.0000 </r>
       <r>   -45.0318     0.0000    12.0000 </r>
       <r>   -44.8240     0.0000    12.0000 </r>
       <r>   -44.6163     0.0000    12.0000 </r>
       <r>   -44.4086     0.0000    12.0000 </r>
       <r>   -44.2008     0.0000    12.0000 </r>
       <r>   -43.9931     0.0000    12.0000 </r>
       <r>   -43.7853     0.0000    12.0000 </r>
       <r>   -43.5776     0.0000    12.0000 </r>
       <r>   -43.3699     0.0000    12.0000 </r>
       <r>   -43.1621     0.0000    12.0000 </r>
       <r>   -42.9544     0.0000    12.0000 </r>
       <r>   -42.7466     0.0000    12.0000 </r>
       <r>   -42.5389     0.0000    12.0000 </r>
       <r>   -42.3311     0.0000    12.0000 </r>
       <r>   -42.1234     0.0000    12.0000 </r>
       <r>   -41.9157     0.0000    12.0000 </r>
       <r>   -41.7079     0.0000    12.0000 </r>
       <r>   -41.5002     0.0000    12.0000 </r>
       <r>   -41.2924     0.0000    12.0000 </r>
       <r>   -41.0847     0.0000    12.0000 </r>
       <r>   -40.8770     0.0000    12.0000 </r>
       <r>   -40.6692     0.0000    12.0000 </r>
       <r>   -40.4615     0.0000    12.0000 </r>
       <r>   -40.2537     0.0000    12.0000 </r>
       <r>   -40.0460     0.0000    12.0000 </r>
       <r>   -39.8382     0.0000    12.0000 </r>
       <r>   -39.6305     0.0000    12.0000 </r>
       <r>   -39.4228     0.0000    12.0000 </r>
       <r>   -39.2150     0.0000    12.0000 </r>
       <r>   -39.0073     0.0000    12.0000 </r>
       <r>   -38.7995     0.0000    12.0000 </r>
       <r>   -38.5918     0.0000    12.0000 </r>
       <r>   -38.3841     0.0000    12.0000 </r>
       <r>   -38.1763     0.0000    12.0000 </r>
       <r>   -37.9686     0.0000    12.0000 </r>
       <r>   -37.7608     0.0000    12.0000 </r>
       <r>   -37.5531     0.0000    12.0000 </r>
       <r>   -37.3453     0.0000    12.0000 </r>
       <r>   -37.1376     0.0000    12.0000 </r>
       <r>   -36.9299     0.0000    12.0000 </r>
       <r>   -36.7221     0.0000    12.0000 </r>
       <r>   -36.5144     0.0000    12.0000 </r>
       <r>   -36.3066     0.0000    12.0000 </r>
       <r>   -36.0989     0.0000    12.0000 </r>
       <r>   -35.8912     0.0000    12.0000 </r>
       <r>   -35.6834     0.0000    12.0000 </r>
       <r>   -35.4757     0.0000    12.0000 </r>
       <r>   -35.2679     0.0000    12.0000 </r>
       <r>   -35.0602     0.0000    12.0000 </r>
       <r>   -34.8524     0.0000    12.0000 </r>
       <r>   -34.6447     0.0000    12.0000 </r>
       <r>   -34.4370     0.0000    12.0000 </r>
       <r>   -34.2292     0.0000    12.0000 </r>
       <r>   -34.0215     0.0000    12.0000 </r>
       <r>   -33.8137     0.0000    12.0000 </r>
       <r>   -33.6060     0.0000    12.0000 </r>
       <r>   -33.3982     0.0000    12.0000 </r>
       <r>   -33.1905     0.0000    12.0000 </r>
       <r>   -32.9828     0.0000    12.0000 </r>
       <r>   -32.7750     0.0000    12.0000 </r>
       <r>   -32.5673     0.0000    12.0000 </r>
       <r>   -32.3595     0.0000    12.0000 </r>
       <r>   -32.1518     0.0000    12.0000 </r>
       <r>   -31.9441     0.0000    12.0000 </r>
       <r>   -31.7363     0.0000    12.0000 </r>
       <r>   -31.5286     0.0000    12.0000 </r>
       <r>   -31.3208     0.0000    12.0000 </r>
       <r>   -31.1131     0.0000    12.0000 </r>
       <r>   -30.9053     0.0000    12.0000 </r>
       <r>   -30.6976     0.0000    12.0000 </r>
       <r>   -30.4899     0.0000    12.0000 </r>
       <r>   -30.2821     0.0000    12.0000 </r>
       <r>   -30.0744     0.0000    12.0000 </r>
       <r>   -29.8666     0.0000    12.0000 </r>
       <r>   -29.6589     0.0000    12.0000 </r>
       <r>   -29.4512     0.0000    12.0000 </r>
       <r>   -29.2434     0.0000    12.0000 </r>
       <r>   -29.0357     0.0000    12.0000 </r>
       <r>   -28.8279     0.0000    12.0000 </r>
       <r>   -28.6202     0.0000    12.0000 </r>
       <r>   -28.4124     0.0000    12.0000 </r>
       <r>   -28.2047     0.0000    12.0000 </r>
       <r>   -27.9970     0.0000    12.0000 </r>
       <r>   -27.7892     0.0000    12.0000 </r>
       <r>   -27.5815     0.0000    12.0000 </r>
       <r>   -27.3737     0.0000    12.0000 </r>
       <r>   -27.1660     0.0000    12.0000 </r>
       <r>   -26.9583     0.0000    12.0000 </r>
       <r>   -26.7505     0.0000    12.0000 </r>
       <r>   -26.5428     0.0000    12.0000 </r>
       <r>   -26.3350     0.0000    12.0000 </r>
       <r>   -26.1273     0.0000    12.0000 </r>
       <r>   -25.9195     0.0000    12.0000 </r>
       <r>   -25.7118    -0.0000    12.0000 </r>
       <r>   -25.5041    -0.0000    12.0000 </r>
       <r>   -25.2963    -0.0000    12.0000 </r>
       <r>   -25.0886    -0.0000    12.0000 </r>
       <r>   -24.8808    -0.0000    12.0000 </r>
       <r>   -24.6731    -0.0002    12.0000 </r>
       <r>   -24.4654    -0.0218    11.9954 </r>
       <r>   -24.2576    -0.1937    11.9552 </r>
       <r>   -24.0499     1.4006    12.2462 </r>
       <r>   -23.8421     9.2135    14.1602 </r>
       <r>   -23.6344    23.2655    18.9934 </r>
       <r>   -23.4266    46.6412    28.6828 </r>
       <r>   -23.2189    50.3702    39.1467 </r>
       <r>   -23.0112    22.5864    43.8389 </r>
       <r>   -22.8034    18.4014    47.6616 </r>
       <r>   -22.5957     2.1166    48.1013 </r>
       <r>   -22.3879    -0.4704    48.0036 </r>
       <r>   -22.1802    -0.0173    48.0000 </r>
       <r>   -21.9725    -0.0001    48.0000 </r>
       <r>   -21.7647    -0.0000    48.0000 </r>
       <r>   -21.5570    -0.0000    48.0000 </r>
       <r>   -21.3492     0.0000    48.0000 </r>
       <r>   -21.1415     0.0000    48.0000 </r>
       <r>   -20.9337     0.0000    48.0000 </r>
       <r>   -20.7260     0.0000    48.0000 </r>
       <r>   -20.5183     0.0000    48.0000 </r>
       <r>   -20.3105     0.0000    48.0000 </r>
       <r>   -20.1028     0.0000    48.0000 </r>
       <r>   -19.8950     0.0000    48.0000 </r>
       <r>   -19.6873     0.0000    48.0000 </r>
       <r>   -19.4796     0.0000    48.0000 </r>
       <r>   -19.2718     0.0000    48.0000 </r>
       <r>   -19.0641     0.0000    48.0000 </r>
       <r>   -18.8563     0.0000    48.0000 </r>
       <r>   -18.6486     0.0000    48.0000 </r>
       <r>   -18.4408     0.0000    48.0000 </r>
       <r>   -18.2331     0.0000    48.0000 </r>
       <r>   -18.0254     0.0000    48.0000 </r>
       <r>   -17.8176     0.0000    48.0000 </r>
       <r>   -17.6099     0.0000    48.0000 </r>
       <r>   -17.4021     0.0000    48.0000 </r>
       <r>   -17.1944     0.0000    48.0000 </r>
       <r>   -16.9867     0.0000    48.0000 </r>
       <r>   -16.7789     0.0000    48.0000 </r>
       <r>   -16.5712     0.0000    48.0000 </r>
       <r>   -16.3634     0.0000    48.0000 </r>
       <r>   -16.1557     0.0000    48.0000 </r>
       <r>   -15.9479     0.0000    48.0000 </r>
       <r>   -15.7402     0.0000    48.0000 </r>
       <r>   -15.5325     0.0000    48.0000 </r>
       <r>   -15.3247     0.0000    48.0000 </r>
       <r>   -15.1170     0.0000    48.0000 </r>
       <r>   -14.9092     0.0000    48.0000 </r>
       <r>   -14.7015     0.0000    48.0000 </r>
       <r>   -14.4937     0.0000    48.0000 </r>
       <r>   -14.2860     0.0000    48.0000 </r>
       <r>   -14.0783     0.0000    48.0000 </r>
       <r>   -13.8705     0.0000    48.0000 </r>
       <r>   -13.6628     0.0000    48.0000 </r>
       <r>   -13.4550     0.0000    48.0000 </r>
       <r>   -13.2473     0.0000    48.0000 </r>
       <r>   -13.0396     0.0000    48.0000 </r>
       <r>   -12.8318     0.0000    48.0000 </r>
       <r>   -12.6241     0.0000    48.0000 </r>
       <r>   -12.4163     0.0000    48.0000 </r>
       <r>   -12.2086     0.0000    48.0000 </r>
       <r>   -12.0008     0.0000    48.0000 </r>
       <r>   -11.7931     0.0000    48.0000 </r>
       <r>   -11.5854     0.0000    48.0000 </r>
       <r>   -11.3776     0.0000    48.0000 </r>
       <r>   -11.1699     0.0000    48.0000 </r>
       <r>   -10.9621     0.0000    48.0000 </r>
       <r>   -10.7544     0.0000    48.0000 </r>
       <r>   -10.5467     0.0000    48.0000 </r>
       <r>   -10.3389     0.0000    48.0000 </r>
       <r>   -10.1312     0.0000    48.0000 </r>
       <r>    -9.9234     0.0000    48.0000 </r>
       <r>    -9.7157     0.0000    48.0000 </r>
       <r>    -9.5079     0.0000    48.0000 </r>
       <r>    -9.3002     0.0000    48.0000 </r>
       <r>    -9.0925     0.0000    48.0000 </r>
       <r>    -8.8847     0.0000    48.0000 </r>
       <r>    -8.6770     0.0000    48.0000 </r>
       <r>    -8.4692     0.0000    48.0000 </r>
       <r>    -8.2615     0.0000    48.0000 </r>
       <r>    -8.0538     0.0000    48.0000 </r>
       <r>    -7.8460     0.0000    48.0000 </r>
       <r>    -7.6383     0.0000    48.0000 </r>
       <r>    -7.4305     0.0000    48.0000 </r>
       <r>    -7.2228     0.0000    48.0000 </r>
       <r>    -7.0150     0.0000    48.0000 </r>
       <r>    -6.8073     0.0000    48.0000 </r>
       <r>    -6.5996     0.0000    48.0000 </r>
       <r>    -6.3918     0.0000    48.0000 </r>
       <r>    -6.1841     0.0000    48.0000 </r>
       <r>    -5.9763     0.0000    48.0000 </r>
       <r>    -5.7686     0.0000    48.0000 </r>
       <r>    -5.5609     0.0000    48.0000 </r>
       <r>    -5.3531     0.0000    48.0000 </r>
       <r>    -5.1454     0.0000    48.0000 </r>
       <r>    -4.9376     0.0000    48.0000 </r>
       <r>    -4.7299     0.0000    48.0000 </r>
       <r>    -4.5221     0.0000    48.0000 </r>
       <r>    -4.3144     0.0000    48.0000 </r>
       <r>    -4.1067     0.0000    48.0000 </r>
       <r>    -3.8989     0.0000    48.0000 </r>
       <r>    -3.6912     0.0000    48.0000 </r>
       <r>    -3.4834     0.0000    48.0000 </r>
       <r>    -3.2757     0.0000    48.0000 </r>
       <r>    -3.0680     0.0000    48.0000 </r>
       <r>    -2.8602     0.0000    48.0000 </r>
       <r>    -2.6525     0.0000    48.0000 </r>
       <r>    -2.4447     0.0000    48.0000 </r>
       <r>    -2.2370    -0.0000    48.0000 </r>
       <r>    -2.0292    -0.0000    48.0000 </r>
       <r>    -1.8215    -0.0000    48.0000 </r>
       <r>    -1.6138    -0.0000    48.0000 </r>
       <r>    -1.4060    -0.0000    48.0000 </r>
       <r>    -1.1983    -0.0000    48.0000 </r>
       <r>    -0.9905    -0.0002    48.0000 </r>
       <r>    -0.7828    -0.0067    47.9986 </r>
       <r>    -0.5751     0.0079    48.0002 </r>
       <r>    -0.3673     0.3149    48.0656 </r>
       <r>    -0.1596     0.9933    48.2720 </r>
       <r>     0.0482     1.4828    48.5800 </r>
       <r>     0.2559     1.8598    48.9664 </r>
       <r>     0.4637     1.5892    49.2965 </r>
       <r>     0.6714     3.0968    49.9398 </r>
       <r>     0.8791     3.5144    50.6699 </r>
       <r>     1.0869     3.0694    51.3076 </r>
       <r>     1.2946     2.8575    51.9012 </r>
       <r>     1.5024     4.3793    52.8110 </r>
       <r>     1.7101     3.8230    53.6052 </r>
       <r>     1.9178     4.3924    54.5176 </r>
       <r>     2.1256     7.4145    56.0579 </r>
       <r>     2.3333    10.7093    58.2827 </r>
       <r>     2.5411    15.3503    61.4716 </r>
       <r>     2.7488    18.8340    65.3842 </r>
       <r>     2.9566    22.2866    70.0141 </r>
       <r>     3.1643    28.0589    75.8431 </r>
       <r>     3.3720    30.3356    82.1450 </r>
       <r>     3.5798    29.5899    88.2921 </r>
       <r>     3.7875    29.4041    94.4005 </r>
       <r>     3.9953    31.1969   100.8814 </r>
       <r>     4.2030    29.5224   107.0145 </r>
       <r>     4.4108    24.3415   112.0712 </r>
       <r>     4.6185    27.8486   117.8565 </r>
       <r>     4.8262    37.9698   125.7444 </r>
       <r>     5.0340    39.5884   133.9686 </r>
       <r>     5.2417    39.0720   142.0855 </r>
       <r>     5.4495    37.5660   149.8895 </r>
       <r>     5.6572    36.3691   157.4449 </r>
       <r>     5.8649    36.5079   165.0291 </r>
       <r>     6.0727    38.9047   173.1112 </r>
       <r>     6.2804    40.2368   181.4701 </r>
       <r>     6.4882    38.0817   189.3812 </r>
       <r>     6.6959    34.0571   196.4563 </r>
       <r>     6.9037    30.1310   202.7158 </r>
       <r>     7.1114    25.4219   207.9970 </r>
       <r>     7.3191    20.5157   212.2589 </r>
       <r>     7.5269    17.2132   215.8349 </r>
       <r>     7.7346    15.3379   219.0212 </r>
       <r>     7.9424    16.4345   222.4353 </r>
       <r>     8.1501    19.3686   226.4590 </r>
       <r>     8.3578    21.4892   230.9232 </r>
       <r>     8.5656    19.8241   235.0415 </r>
       <r>     8.7733    13.8539   237.9195 </r>
       <r>     8.9811     6.9481   239.3629 </r>
       <r>     9.1888     2.7316   239.9304 </r>
       <r>     9.3966     0.3856   240.0105 </r>
       <r>     9.6043    -0.0430   240.0016 </r>
       <r>     9.8120    -0.0075   240.0000 </r>
       <r>    10.0198    -0.0001   240.0000 </r>
       <r>    10.2275    -0.0000   240.0000 </r>
       <r>    10.4353    -0.0000   240.0000 </r>
       <r>    10.6430    -0.0000   240.0000 </r>
       <r>    10.8507     0.0000   240.0000 </r>
       <r>    11.0585     0.0000   240.0000 </r>
       <r>    11.2662     0.0000   240.0000 </r>
       <r>    11.4740     0.0000   240.0000 </r>
       <r>    11.6817     0.0000   240.0000 </r>
       <r>    11.8895     0.0000   240.0000 </r>
       <r>    12.0972     0.0000   240.0000 </r>
      </set>
     </set>
    </array>
   </total>
  </dos>
 </calculation>
 <structure name="finalpos" >
  <crystal>
   <varray name="basis" >
    <v>      -3.19060195      -3.18219133      -3.21383750 </v>
    <v>       1.52025022       1.51278715      -7.88139818 </v>
    <v>       7.99039066      -7.99133511      -1.58471692 </v>
   </varray>
   <i name="volume">    479.22826444 </i>
   <varray name="rec_basis" >
    <v>      -0.13642817      -0.12638296      -0.05057421 </v>
    <v>       0.04306920       0.06413649      -0.10626277 </v>
    <v>       0.06247956      -0.06266793       0.00002301 </v>
   </varray>
  </crystal>
  <varray name="positions" >
   <v>       0.96099692       0.93395511       0.39535749 </v>
   <v>       0.63270721       0.26283043       0.40076694 </v>
   <v>       0.51996489      -0.01284725      -0.00402855 </v>
   <v>       0.00769229       0.00698216       0.00420920 </v>
   <v>       0.09812698       0.20451988       0.80273729 </v>
   <v>       0.03916693       0.06343542       0.59693790 </v>
   <v>       0.90760330       0.79772268       0.19911680 </v>
   <v>       0.80723744       0.59087530       0.39878749 </v>
   <v>       0.73256966       0.47121983       0.19576141 </v>
   <v>       0.65444893       0.34432736      -0.00158629 </v>
   <v>       0.36868021       0.72482375       0.60086724 </v>
   <v>       0.13085981       0.27168467       0.39867723 </v>
   <v>       0.92765054       0.85461053       0.81112083 </v>
   <v>       0.56555194       0.13356223       0.19491519 </v>
   <v>       0.40999031       0.79344185       0.19834055 </v>
   <v>       0.43074550       0.85706097       0.79690116 </v>
   <v>       0.30204880       0.60126647       0.40126834 </v>
   <v>       0.85806998       0.73176799       0.59962328 </v>
   <v>       0.46954128       0.92646419       0.40601574 </v>
   <v>       0.13527257       0.37883665       0.00037254 </v>
   <v>       0.27959549       0.52765177       0.79373820 </v>
   <v>       0.20047194       0.38858817       0.59740906 </v>
   <v>       0.05829158       0.15176075       0.20186816 </v>
   <v>       0.76964938       0.52900144       0.80447407 </v>
   <v>       0.69521738       0.40529758       0.60302996 </v>
   <v>       0.60189606       0.19689799       0.79836296 </v>
   <v>       0.53935394       0.06418575       0.60391078 </v>
   <v>       0.33335745       0.66134088       0.00004356 </v>
   <v>       0.22990796       0.47206879       0.20100147 </v>
  </varray>
 </structure>
</modeling>
