SQS with 1 vacancy for VFE and VRV      
           1
    -3.190000   -3.190000   -3.190000
     1.595000    1.595000   -7.975000
     7.975000   -7.975000   -1.595000
   Nb   Mo   Ta   Ti   W 
   6   6   5   6   6
Direct configuration=     1
   0.96666667  0.93333333  0.40000000
   0.63333333  0.26666667  0.40000000
   0.50000000  0.00000000  0.00000000
   0.00000000  0.00000000  0.00000000
   0.10000000  0.20000000  0.80000000
   0.03333333  0.06666667  0.60000000
   0.90000000  0.80000000  0.20000000
   0.80000000  0.60000000  0.40000000
   0.73333333  0.46666667  0.20000000
   0.66666667  0.33333333  0.00000000
   0.36666667  0.73333333  0.60000000
   0.13333333  0.26666667  0.40000000
   0.93333333  0.86666667  0.80000000
   0.56666667  0.13333333  0.20000000
   0.40000000  0.80000000  0.20000000
   0.43333333  0.86666667  0.80000000
   0.30000000  0.60000000  0.40000000
   0.86666667  0.73333333  0.60000000
   0.46666667  0.93333333  0.40000000
   0.16666667  0.33333333  0.00000000
   0.26666667  0.53333333  0.80000000
   0.20000000  0.40000000  0.60000000
   0.06666667  0.13333333  0.20000000
   0.76666667  0.53333333  0.80000000
   0.70000000  0.40000000  0.60000000
   0.60000000  0.20000000  0.80000000
   0.53333333  0.06666667  0.60000000
   0.33333333  0.66666667  0.00000000
   0.23333333  0.46666667  0.20000000
SQS with 1 vacancy for VFE and VRV      
           1
    -3.138768   -3.142074   -3.151302
     1.534141    1.548705   -7.820679
     7.845897   -7.874517   -1.555296
   Nb   Mo   Ta   Ti   W 
   6   6   5   6   6
Direct configuration=     2
   0.96329301  0.93363950  0.39842834
   0.63285023  0.26579778  0.40107270
   0.50353147 -0.00382680 -0.00053224
   0.00088776  0.00036299  0.00169340
   0.09755222  0.20369510  0.80004760
   0.03654366  0.06726643  0.59692053
   0.90237805  0.79751974  0.20053952
   0.80306521  0.59569057  0.39878985
   0.73308482  0.46813266  0.19794073
   0.66165928  0.33789201 -0.00044289
   0.36865573  0.73030890  0.60069260
   0.13237614  0.27019139  0.39934315
   0.93052091  0.86438230  0.80347151
   0.56676009  0.13379113  0.19754128
   0.40397347  0.79410369  0.19832709
   0.43545789  0.86091693  0.79772965
   0.29963778  0.60205315  0.40074453
   0.86271619  0.73341899  0.59964127
   0.46723248  0.93144617  0.40263186
   0.16383325  0.34090015  0.00147376
   0.27198668  0.53347718  0.79877387
   0.19969462  0.39730076  0.59938538
   0.06578795  0.13729569  0.20144770
   0.76569728  0.53115896  0.80183442
   0.69644148  0.40627530  0.60178329
   0.59846830  0.20124739  0.79873785
   0.53642104  0.06777269  0.60161071
   0.33513035  0.66218298  0.00088903
   0.23102935  0.46893960  0.19948351
SQS with 1 vacancy for VFE and VRV      
           1
    -3.158640   -3.160664   -3.166312
     1.557747    1.566662   -7.880536
     7.895973   -7.913492   -1.570696
   Nb   Mo   Ta   Ti   W 
   6   6   5   6   6
Direct configuration=     3
   0.96462043  0.93351868  0.39904646
   0.63303960  0.26614062  0.40065083
   0.50213096 -0.00230747 -0.00032108
   0.00054100  0.00021727  0.00102691
   0.09852511  0.20222910  0.80002730
   0.03527739  0.06703412  0.59813248
   0.90143624  0.79850335  0.20032830
   0.80184636  0.59740191  0.39926794
   0.73318385  0.46755407  0.19875058
   0.66364162  0.33608316 -0.00027069
   0.36786595  0.73150786  0.60042131
   0.13276084  0.26879451  0.39960027
   0.93162686  0.86528211  0.80210593
   0.56672158  0.13361290  0.19850873
   0.40239259  0.79644513  0.19898795
   0.43460475  0.86320022  0.79862542
   0.29978624  0.60123808  0.40045074
   0.86427161  0.73338375  0.59978209
   0.46700814  0.93219111  0.40159685
   0.16496901  0.33789724  0.00089075
   0.26989069  0.53342412  0.79925679
   0.19980763  0.39837149  0.59962823
   0.06614523  0.13572260  0.20087644
   0.76607586  0.53201812  0.80111322
   0.69786000  0.40378366  0.60107888
   0.59907302  0.20075385  0.79923397
   0.53520968  0.06733349  0.60097668
   0.33441289  0.66396009  0.00054096
   0.23194152  0.46803819  0.19968574
SQS with 1 vacancy for VFE and VRV      
           1
    -3.173893   -3.177887   -3.194201
     1.527823    1.551953   -7.889388
     7.932259   -7.976702   -1.562641
   Nb   Mo   Ta   Ti   W 
   6   6   5   6   6
Direct configuration=     4
   0.96091073  0.93407695  0.39724035
   0.63240020  0.26520431  0.40155387
   0.50705915 -0.00746149 -0.00124694
   0.00160112  0.00101772  0.00286491
   0.09617317  0.20584913  0.80027621
   0.03882210  0.06756494  0.59518895
   0.90385102  0.79571307  0.20043715
   0.80506948  0.59309699  0.39812958
   0.73351554  0.46907035  0.19601970
   0.65850538  0.34103379 -0.00071211
   0.36995121  0.72814529  0.60111742
   0.13160813  0.27248586  0.39886362
   0.92858792  0.86215787  0.80615134
   0.56666630  0.13383115  0.19609803
   0.40739446  0.79068810  0.19736731
   0.43603627  0.85759775  0.79651816
   0.29954690  0.60314075  0.40145834
   0.86008446  0.73362144  0.59929855
   0.46785712  0.92993684  0.40430999
   0.16053748  0.34766408  0.00241959
   0.27523950  0.53321583  0.79785454
   0.19922813  0.39567941  0.59893460
   0.06505855  0.14030517  0.20241291
   0.76614247  0.53002526  0.80366407
   0.69396967  0.41030046  0.60278672
   0.59740057  0.20194699  0.79811681
   0.53837091  0.06836845  0.60264673
   0.33594699  0.65882332  0.00114261
   0.22913173  0.47023356  0.19908698
SQS with 1 vacancy for VFE and VRV      
           1
    -3.178761   -3.183384   -3.203101
     1.518273    1.547259   -7.892213
     7.943839   -7.996874   -1.560071
   Nb   Mo   Ta   Ti   W 
   6   6   5   6   6
Direct configuration=     5
   0.95973393  0.93425486  0.39666788
   0.63219847  0.26490631  0.40184000
   0.50863426 -0.00911130 -0.00154234
   0.00193436  0.00127503  0.00344802
   0.09541924  0.20700706  0.80035635
   0.03994824  0.06773009  0.59425546
   0.90462289  0.79482064  0.20047072
   0.80610198  0.59171893  0.39776712
   0.73361995  0.46955185  0.19515407
   0.65686580  0.34261724 -0.00085038
   0.37061921  0.72707073  0.60133707
   0.13123542  0.27366508  0.39863117
   0.92762666  0.86116497  0.80743347
   0.56665030  0.13389837  0.19533356
   0.40899475  0.78884484  0.19685138
   0.43650373  0.85580473  0.79584809
   0.29946623  0.60374989  0.40177848
   0.85875572  0.73369849  0.59914544
   0.46812889  0.92921903  0.40516971
   0.15911004  0.35078834  0.00290762
   0.27693836  0.53314574  0.79740955
   0.19905032  0.39481866  0.59871382
   0.06470308  0.14177154  0.20290164
   0.76616558  0.52939112  0.80447244
   0.69272045  0.41238617  0.60333050
   0.59686835  0.20232771  0.79776294
   0.53937052  0.06869972  0.60317657
   0.33644380  0.65718193  0.00133179
   0.22823613  0.47093553  0.19889787
SQS with 1 vacancy for VFE and VRV      
           1
    -3.190114   -3.188273   -3.211756
     1.524048    1.549626   -7.913878
     7.968911   -8.005507   -1.564637
   Nb   Mo   Ta   Ti   W 
   6   6   5   6   6
Direct configuration=     6
   0.95979197  0.93445435  0.39612603
   0.63200016  0.26524100  0.40134381
   0.51071178 -0.01057657 -0.00277948
   0.00297943  0.00210962  0.00365231
   0.09597291  0.20605462  0.80095599
   0.03975772  0.06767299  0.59520349
   0.90491104  0.79505364  0.20012239
   0.80599489  0.59227010  0.39790276
   0.73417293  0.46873127  0.19496462
   0.65766192  0.34177173 -0.00098881
   0.36958666  0.72762771  0.60102419
   0.13103376  0.27354805  0.39844317
   0.92692219  0.86092907  0.80801471
   0.56631131  0.13350093  0.19540607
   0.40957203  0.78971748  0.19725094
   0.43357862  0.85749805  0.79629930
   0.30011251  0.60309798  0.40158098
   0.85854455  0.73422066  0.59919719
   0.46844631  0.92870200  0.40517167
   0.15631528  0.35430129  0.00268052
   0.27704692  0.53197378  0.79696937
   0.19896437  0.39450334  0.59840205
   0.06407700  0.14300301  0.20296768
   0.76823433  0.52983819  0.80497430
   0.69319158  0.41089972  0.60318729
   0.59790104  0.20088145  0.79809043
   0.53930248  0.06840567  0.60336699
   0.33481113  0.65779529  0.00075498
   0.22875986  0.47010690  0.19971507
SQS with 1 vacancy for VFE and VRV      
           1
    -3.194762   -3.190275   -3.215298
     1.526412    1.550595   -7.922745
     7.979173   -8.009040   -1.566506
   Nb   Mo   Ta   Ti   W 
   6   6   5   6   6
Direct configuration=     7
   0.95981519  0.93453601  0.39590472
   0.63191877  0.26537784  0.40114109
   0.51155884 -0.01117428 -0.00328430
   0.00340624  0.00245017  0.00373584
   0.09619945  0.20566556  0.80120108
   0.03968076  0.06764929  0.59559067
   0.90502837  0.79514888  0.19998014
   0.80595128  0.59249503  0.39795810
   0.73439852  0.46839636  0.19488740
   0.65798680  0.34142662 -0.00104514
   0.36916487  0.72785525  0.60089618
   0.13095128  0.27350036  0.39836636
   0.92663511  0.86083257  0.80825202
   0.56617298  0.13333869  0.19543566
   0.40980803  0.79007349  0.19741415
   0.43238488  0.85818921  0.79648295
   0.30037617  0.60283192  0.40150048
   0.85845838  0.73443379  0.59921824
   0.46857589  0.92849094  0.40517257
   0.15517415  0.35573550  0.00258699
   0.27709087  0.53149556  0.79678971
   0.19892902  0.39437476  0.59827473
   0.06382146  0.14350570  0.20299444
   0.76907929  0.53002038  0.80517958
   0.69338380  0.41029300  0.60312901
   0.59832290  0.20029090  0.79822449
   0.53927487  0.06828557  0.60344477
   0.33414411  0.65804598  0.00051907
   0.22897437  0.46976829  0.20004901
SQS with 1 vacancy for VFE and VRV      
           1
    -3.193268   -3.185363   -3.212562
     1.525337    1.546501   -7.913951
     7.974763   -7.995225   -1.565969
   Nb   Mo   Ta   Ti   W 
   6   6   5   6   6
Direct configuration=     8
   0.95986609  0.93465340  0.39557669
   0.63189108  0.26548703  0.40088413
   0.51297486 -0.01205748 -0.00395768
   0.00408375  0.00295874  0.00389829
   0.09650710  0.20521004  0.80158732
   0.03948091  0.06758058  0.59609507
   0.90531168  0.79529902  0.19979452
   0.80593298  0.59274705  0.39805011
   0.73460295  0.46799080  0.19480422
   0.65827067  0.34106049 -0.00111173
   0.36863151  0.72808461  0.60075875
   0.13080080  0.27344019  0.39828657
   0.92615233  0.86063063  0.80860527
   0.56605548  0.13298474  0.19543075
   0.41009083  0.79051085  0.19760215
   0.43078717  0.85897503  0.79667841
   0.30076669  0.60249166  0.40134346
   0.85823955  0.73474563  0.59927800
   0.46876303  0.92818314  0.40520169
   0.15332556  0.35808093  0.00241574
   0.27739980  0.53074932  0.79644721
   0.19888681  0.39407058  0.59807049
   0.06330268  0.14437125  0.20303443
   0.77011569  0.53028057  0.80546189
   0.69367762  0.40946809  0.60309866
   0.59898494  0.19947321  0.79839342
   0.53920303  0.06811447  0.60355411
   0.33317578  0.65836409  0.00021972
   0.22938529  0.46938466  0.20049835
SQS with 1 vacancy for VFE and VRV      
           1
    -3.190881   -3.177507   -3.208188
     1.523617    1.539953   -7.899888
     7.967710   -7.973131   -1.565110
   Nb   Mo   Ta   Ti   W 
   6   6   5   6   6
Direct configuration=     9
   0.95994692  0.93484171  0.39505146
   0.63184624  0.26566214  0.40047267
   0.51524071 -0.01347124 -0.00503510
   0.00516844  0.00377285  0.00415846
   0.09700045  0.20448020  0.80220597
   0.03916197  0.06747006  0.59690262
   0.90576480  0.79553959  0.19949737
   0.80590376  0.59315051  0.39819735
   0.73493020  0.46734146  0.19467124
   0.65872510  0.34047426 -0.00121813
   0.36777737  0.72845209  0.60053844
   0.13055978  0.27334393  0.39815879
   0.92538021  0.86030697  0.80917075
   0.56586748  0.13241799  0.19542296
   0.41054376  0.79121095  0.19790312
   0.42822963  0.86023336  0.79699059
   0.30139167  0.60194692  0.40109229
   0.85788924  0.73524494  0.59937351
   0.46906278  0.92769023  0.40524848
   0.15036518  0.36183701  0.00214021
   0.27789395  0.52955471  0.79589915
   0.19881896  0.39358372  0.59774356
   0.06247198  0.14575726  0.20309801
   0.77177523  0.53069678  0.80591417
   0.69414821  0.40814718  0.60305043
   0.60004534  0.19816361  0.79866436
   0.53908827  0.06784039  0.60372920
   0.33162498  0.65887390 -0.00026001
   0.23004407  0.46876985  0.20121806
SQS with 1 vacancy for VFE and VRV      
           1
    -3.189241   -3.177267   -3.207594
     1.521986    1.536633   -7.894410
     7.966811   -7.974394   -1.566151
   Nb   Mo   Ta   Ti   W 
   6   6   5   6   6
Direct configuration=    10
   0.96001283  0.93486470  0.39507748
   0.63204368  0.26540365  0.40054485
   0.51574323 -0.01364731 -0.00481012
   0.00531319  0.00386079  0.00425548
   0.09695383  0.20474834  0.80227404
   0.03899663  0.06735365  0.59672909
   0.90595943  0.79554977  0.19946104
   0.80595880  0.59304835  0.39822596
   0.73472773  0.46758183  0.19465757
   0.65832392  0.34077587 -0.00115751
   0.36791461  0.72826932  0.60063545
   0.13056296  0.27326004  0.39826009
   0.92535858  0.85993014  0.80927791
   0.56599128  0.13219766  0.19530483
   0.41050147  0.79105909  0.19777124
   0.42860133  0.85965904  0.79683020
   0.30142391  0.60206558  0.40109571
   0.85773138  0.73520241  0.59941384
   0.46902883  0.92768638  0.40530690
   0.14973839  0.36259039  0.00205648
   0.27834645  0.52947139  0.79570595
   0.19880808  0.39339185  0.59771889
   0.06218349  0.14600926  0.20309315
   0.77141795  0.53073425  0.80594852
   0.69419440  0.40826529  0.60312634
   0.60007954  0.19837296  0.79864131
   0.53898430  0.06780057  0.60366847
   0.33158814  0.65880890 -0.00019749
   0.23017832  0.46901917  0.20108431
SQS with 1 vacancy for VFE and VRV      
           1
    -3.184817   -3.176619   -3.205992
     1.517588    1.527675   -7.879630
     7.964386   -7.977802   -1.568959
   Nb   Mo   Ta   Ti   W 
   6   6   5   6   6
Direct configuration=    11
   0.96019067  0.93492677  0.39514764
   0.63257671  0.26470563  0.40073958
   0.51709936 -0.01412279 -0.00420320
   0.00570364  0.00409824  0.00451719
   0.09682768  0.20547241  0.80245763
   0.03855070  0.06703931  0.59626099
   0.90648471  0.79557726  0.19936295
   0.80610740  0.59277248  0.39830317
   0.73418110  0.46823093  0.19462065
   0.65724087  0.34159033 -0.00099395
   0.36828507  0.72777577  0.60089717
   0.13057153  0.27303351  0.39853342
   0.92530048  0.85891259  0.80956711
   0.56632569  0.13160269  0.19498616
   0.41038764  0.79064903  0.19741549
   0.42960516  0.85810817  0.79639757
   0.30151079  0.60238599  0.40110491
   0.85730537  0.73508757  0.59952272
   0.46893715  0.92767597  0.40546454
   0.14804619  0.36462479  0.00183052
   0.27956790  0.52924639  0.79518464
   0.19877893  0.39287375  0.59765240
   0.06140470  0.14668974  0.20308003
   0.77045367  0.53083544  0.80604126
   0.69431887  0.40858425  0.60333111
   0.60017163  0.19893828  0.79857905
   0.53870382  0.06769306  0.60350468
   0.33148872  0.65863337 -0.00002879
   0.23054049  0.46969239  0.20072337
SQS with 1 vacancy for VFE and VRV      
           1
    -3.187093   -3.180018   -3.209006
     1.518116    1.526273   -7.883477
     7.973116   -7.987859   -1.571947
   Nb   Mo   Ta   Ti   W 
   6   6   5   6   6
Direct configuration=    12
   0.96028153  0.93492590  0.39519845
   0.63270933  0.26443386  0.40078067
   0.51767553 -0.01433151 -0.00402782
   0.00591049  0.00425855  0.00457235
   0.09687360  0.20568809  0.80252663
   0.03840083  0.06687548  0.59615300
   0.90669033  0.79559556  0.19931809
   0.80620988  0.59263661  0.39833550
   0.73400952  0.46852296  0.19463094
   0.65681190  0.34191077 -0.00093321
   0.36841533  0.72754493  0.60097336
   0.13061193  0.27293766  0.39862155
   0.92534113  0.85845734  0.80968554
   0.56638252  0.13142644  0.19488933
   0.41038633  0.79055443  0.19732951
   0.42988235  0.85767688  0.79629694
   0.30156682  0.60244927  0.40112281
   0.85717148  0.73500797  0.59954725
   0.46890543  0.92765651  0.40551425
   0.14721741  0.36557534  0.00170858
   0.27996480  0.52914219  0.79497886
   0.19882515  0.39264020  0.59764532
   0.06108267  0.14701777  0.20303248
   0.77012052  0.53084496  0.80605388
   0.69438191  0.40865142  0.60337875
   0.60023585  0.19908391  0.79857857
   0.53855833  0.06759814  0.60346137
   0.33142836  0.65864063  0.00000838
   0.23061540  0.46991110  0.20061867
SQS with 1 vacancy for VFE and VRV      
           1
    -3.189134   -3.183067   -3.211709
     1.518590    1.525016   -7.886927
     7.980947   -7.996881   -1.574627
   Nb   Mo   Ta   Ti   W 
   6   6   5   6   6
Direct configuration=    13
   0.96036294  0.93492512  0.39524397
   0.63282823  0.26419017  0.40081750
   0.51819189 -0.01451867 -0.00387071
   0.00609581  0.00440228  0.00462174
   0.09691468  0.20588148  0.80258843
   0.03826659  0.06672858  0.59605628
   0.90687460  0.79561196  0.19927790
   0.80630175  0.59251477  0.39836447
   0.73385567  0.46878480  0.19464014
   0.65642738  0.34219809 -0.00087880
   0.36853212  0.72733794  0.60104163
   0.13064815  0.27285171  0.39870051
   0.92537765  0.85804914  0.80979169
   0.56643353  0.13126841  0.19480260
   0.41038520  0.79046960  0.19725249
   0.43013089  0.85729015  0.79620682
   0.30161700  0.60250602  0.40113884
   0.85705151  0.73493659  0.59956923
   0.46887700  0.92763906  0.40555880
   0.14647446  0.36642766  0.00159928
   0.28032056  0.52904877  0.79479448
   0.19886664  0.39243078  0.59763901
   0.06079401  0.14731189  0.20298987
   0.76982195  0.53085350  0.80606520
   0.69443837  0.40871165  0.60342142
   0.60029337  0.19921450  0.79857811
   0.53842798  0.06751303  0.60342259
   0.33137425  0.65864714  0.00004168
   0.23068250  0.47010721  0.20052485
SQS with 1 vacancy for VFE and VRV      
           1
    -3.189323   -3.183127   -3.211828
     1.518926    1.524126   -7.886553
     7.982229   -7.996956   -1.575561
   Nb   Mo   Ta   Ti   W 
   6   6   5   6   6
Direct configuration=    14
   0.96040050  0.93489103  0.39526289
   0.63277666  0.26412163  0.40078712
   0.51845976 -0.01461034 -0.00394006
   0.00624851  0.00454362  0.00457719
   0.09702102  0.20587113  0.80261047
   0.03824357  0.06662802  0.59613746
   0.90696726  0.79563887  0.19928153
   0.80641106  0.59241296  0.39837302
   0.73383930  0.46889616  0.19469826
   0.65629496  0.34229875 -0.00089096
   0.36854102  0.72722264  0.60101438
   0.13067585  0.27285075  0.39868437
   0.92545058  0.85785401  0.80984618
   0.56636750  0.13127980  0.19481986
   0.41044665  0.79054142  0.19731320
   0.43001488  0.85741469  0.79627693
   0.30168119  0.60241384  0.40114733
   0.85703230  0.73487282  0.59955744
   0.46888718  0.92760718  0.40556172
   0.14597167  0.36700104  0.00151696
   0.28034231  0.52897661  0.79472829
   0.19899193  0.39227016  0.59764412
   0.06061901  0.14754793  0.20292683
   0.76980542  0.53079339  0.80601692
   0.69446887  0.40862230  0.60340001
   0.60040893  0.19907909  0.79858803
   0.53835313  0.06741868  0.60346419
   0.33132493  0.65876414  0.00001473
   0.23062070  0.47011099  0.20058159
SQS with 1 vacancy for VFE and VRV      
           1
    -3.189891   -3.183306   -3.212186
     1.519932    1.521458   -7.885431
     7.986072   -7.997179   -1.578364
   Nb   Mo   Ta   Ti   W 
   6   6   5   6   6
Direct configuration=    15
   0.96051319  0.93478874  0.39531964
   0.63262193  0.26391603  0.40069597
   0.51926332 -0.01488534 -0.00414807
   0.00670655  0.00496769  0.00444354
   0.09734004  0.20584008  0.80267659
   0.03817454  0.06632628  0.59638100
   0.90724523  0.79571961  0.19929242
   0.80673901  0.59210748  0.39839870
   0.73379022  0.46923025  0.19487258
   0.65589772  0.34260076 -0.00092746
   0.36856776  0.72687675  0.60093266
   0.13075895  0.27284789  0.39863596
   0.92566941  0.85726856  0.81000968
   0.56616944  0.13131397  0.19487163
   0.41063102  0.79075689  0.19749529
   0.42966688  0.85778829  0.79648720
   0.30187376  0.60213728  0.40117281
   0.85697468  0.73468149  0.59952209
   0.46891773  0.92751154  0.40557050
   0.14446324  0.36872135  0.00126989
   0.28040756  0.52876013  0.79452977
   0.19936778  0.39178825  0.59765951
   0.06009396  0.14825614  0.20273768
   0.76975582  0.53061307  0.80587213
   0.69456037  0.40835424  0.60333581
   0.60075564  0.19867283  0.79861781
   0.53812863  0.06713559  0.60358900
   0.33117697  0.65911519 -0.00006615
   0.23043534  0.47012233  0.20075180
SQS with 1 vacancy for VFE and VRV      
           1
    -3.191028   -3.183663   -3.212900
     1.521944    1.516121   -7.883186
     7.993758   -7.997626   -1.583970
   Nb   Mo   Ta   Ti   W 
   6   6   5   6   6
Direct configuration=    16
   0.96073861  0.93458406  0.39543317
   0.63231251  0.26350479  0.40051382
   0.52087018 -0.01543530 -0.00456382
   0.00762232  0.00581616  0.00417614
   0.09797805  0.20577789  0.80280884
   0.03803676  0.06572244  0.59686810
   0.90780110  0.79588110  0.19931417
   0.80739493  0.59149636  0.39845019
   0.73369208  0.46989842  0.19522098
   0.65510323  0.34320495 -0.00100059
   0.36862125  0.72618487  0.60076942
   0.13092509  0.27284220  0.39853918
   0.92610730  0.85609723  0.81033688
   0.56577338  0.13138227  0.19497512
   0.41099977  0.79118775  0.19785930
   0.42897099  0.85853548  0.79690745
   0.30225895  0.60158399  0.40122389
   0.85685948  0.73429877  0.59945148
   0.46897885  0.92732021  0.40558809
   0.14144607  0.37216303  0.00077499
   0.28053795  0.52832725  0.79413293
   0.20011955  0.39082417  0.59769051
   0.05904365  0.14967307  0.20235913
   0.76965659  0.53025247  0.80558270
   0.69474337  0.40781806  0.60320758
   0.60144911  0.19786009  0.79867757
   0.53767984  0.06656916  0.60383868
   0.33088093  0.65981754 -0.00022803
   0.23006478  0.47014484  0.20109211
SQS with 1 vacancy for VFE and VRV      
           1
    -3.188685   -3.181272   -3.210931
     1.520819    1.513999   -7.877372
     7.988670   -7.991731   -1.583663
   Nb   Mo   Ta   Ti   W 
   6   6   5   6   6
Direct configuration=    17
   0.96082494  0.93450229  0.39542001
   0.63246223  0.26335638  0.40056638
   0.52126951 -0.01536828 -0.00448347
   0.00777952  0.00611476  0.00419439
   0.09798276  0.20568935  0.80283696
   0.03801951  0.06547636  0.59695228
   0.90798131  0.79610136  0.19932716
   0.80741971  0.59140581  0.39854178
   0.73351534  0.47001438  0.19532359
   0.65495329  0.34336024 -0.00107374
   0.36852957  0.72612593  0.60076818
   0.13079879  0.27260290  0.39856214
   0.92636580  0.85574112  0.81046996
   0.56577614  0.13148776  0.19489244
   0.41085586  0.79149872  0.19795013
   0.42908863  0.85833731  0.79682325
   0.30232287  0.60149350  0.40119708
   0.85687089  0.73405577  0.59945299
   0.46899284  0.92719445  0.40565997
   0.14024934  0.37342791  0.00060387
   0.28051557  0.52815448  0.79399338
   0.20035414  0.39045714  0.59768347
   0.05865271  0.15013707  0.20225174
   0.76952664  0.53024494  0.80544211
   0.69491879  0.40736867  0.60315442
   0.60173617  0.19764135  0.79864443
   0.53782090  0.06623566  0.60389351
   0.33092744  0.66014035 -0.00018735
   0.23015547  0.47033566  0.20113894
SQS with 1 vacancy for VFE and VRV      
           1
    -3.188365   -3.180945   -3.210661
     1.520665    1.513708   -7.876577
     7.987973   -7.990925   -1.583621
   Nb   Mo   Ta   Ti   W 
   6   6   5   6   6
Direct configuration=    18
   0.96083676  0.93449110  0.39541821
   0.63248273  0.26333605  0.40057358
   0.52132418 -0.01535910 -0.00447246
   0.00780104  0.00615565  0.00419689
   0.09798341  0.20567722  0.80284082
   0.03801716  0.06544266  0.59696381
   0.90800598  0.79613152  0.19932894
   0.80742310  0.59139341  0.39855432
   0.73349114  0.47003026  0.19533764
   0.65493276  0.34338151 -0.00108376
   0.36851702  0.72611786  0.60076801
   0.13078150  0.27257013  0.39856529
   0.92640120  0.85569236  0.81048818
   0.56577651  0.13150221  0.19488111
   0.41083615  0.79154130  0.19796256
   0.42910474  0.85831017  0.79681172
   0.30233162  0.60148111  0.40119341
   0.85687246  0.73402250  0.59945320
   0.46899476  0.92717723  0.40566981
   0.14008546  0.37360112  0.00058043
   0.28051251  0.52813082  0.79397427
   0.20038627  0.39040688  0.59768251
   0.05859918  0.15020061  0.20223703
   0.76950885  0.53024391  0.80542286
   0.69494281  0.40730713  0.60314715
   0.60177547  0.19761140  0.79863990
   0.53784022  0.06618999  0.60390102
   0.33093381  0.66018455 -0.00018178
   0.23016789  0.47036179  0.20114535
SQS with 1 vacancy for VFE and VRV      
           1
    -3.189173   -3.181792   -3.211938
     1.520736    1.513750   -7.879038
     7.990039   -7.993169   -1.584177
   Nb   Mo   Ta   Ti   W 
   6   6   5   6   6
Direct configuration=    19
   0.96088459  0.93444878  0.39538969
   0.63271018  0.26322709  0.40067884
   0.52138079 -0.01510984 -0.00426812
   0.00779461  0.00634833  0.00427585
   0.09788869  0.20554990  0.80284199
   0.03807857  0.06522491  0.59694195
   0.90806897  0.79640730  0.19931361
   0.80727777  0.59142212  0.39867127
   0.73327897  0.47007445  0.19537210
   0.65491811  0.34346647 -0.00117257
   0.36837039  0.72614342  0.60083268
   0.13063413  0.27222244  0.39865073
   0.92668764  0.85542153  0.81058790
   0.56582451  0.13170891  0.19474895
   0.41055591  0.79192626  0.19798218
   0.42940602  0.85788854  0.79664076
   0.30235998  0.60145138  0.40119626
   0.85702305  0.73368550  0.59948968
   0.46902412  0.92704491  0.40577018
   0.13911311  0.37456178  0.00045847
   0.28036123  0.52799144  0.79390402
   0.20049305  0.39015141  0.59766679
   0.05836152  0.15049226  0.20215570
   0.76942159  0.53028492  0.80529960
   0.69515509  0.40679768  0.60310049
   0.60191196  0.19756152  0.79859789
   0.53817639  0.06585252  0.60388621
   0.33114138  0.66044671 -0.00010034
   0.23036435  0.47064069  0.20108726
SQS with 1 vacancy for VFE and VRV      
           1
    -3.190040   -3.182701   -3.213307
     1.520812    1.513796   -7.881680
     7.992257   -7.995577   -1.584774
   Nb   Mo   Ta   Ti   W 
   6   6   5   6   6
Direct configuration=    20
   0.96093592  0.93440337  0.39535910
   0.63295425  0.26311017  0.40079180
   0.52144148 -0.01484239 -0.00404886
   0.00778768  0.00655509  0.00436058
   0.09778707  0.20541328  0.80284324
   0.03814449  0.06499126  0.59691850
   0.90813653  0.79670321  0.19929717
   0.80712181  0.59145293  0.39879675
   0.73305131  0.47012188  0.19540906
   0.65490238  0.34355763 -0.00126786
   0.36821304  0.72617085  0.60090207
   0.13047605  0.27184938  0.39874241
   0.92699502  0.85513091  0.81069489
   0.56587598  0.13193070  0.19460715
   0.41025517  0.79233934  0.19800323
   0.42972936  0.85743612  0.79645733
   0.30239042  0.60141947  0.40119931
   0.85718467  0.73332389  0.59952883
   0.46905564  0.92690293  0.40587788
   0.13806969  0.37559262  0.00032761
   0.28019892  0.52784189  0.79382864
   0.20060766  0.38987728  0.59764991
   0.05810650  0.15080522  0.20206843
   0.76932797  0.53032892  0.80516734
   0.69538292  0.40625103  0.60305043
   0.60205842  0.19750800  0.79855281
   0.53853713  0.06549040  0.60387031
   0.33136408  0.66072800 -0.00001296
   0.23057511  0.47093995  0.20102493
SQS with 1 vacancy for VFE and VRV      
           1
    -3.189553   -3.182156   -3.213247
     1.520118    1.513264   -7.880803
     7.990961   -7.994416   -1.584461
   Nb   Mo   Ta   Ti   W 
   6   6   5   6   6
Direct configuration=    21
   0.96095021  0.93430969  0.39533584
   0.63298044  0.26298170  0.40082782
   0.52120649 -0.01442764 -0.00397335
   0.00776988  0.00669523  0.00438367
   0.09781467  0.20520088  0.80281945
   0.03837090  0.06463059  0.59690009
   0.90807355  0.79695544  0.19927434
   0.80704461  0.59138698  0.39885912
   0.73286153  0.47030652  0.19545275
   0.65482405  0.34372299 -0.00137585
   0.36822088  0.72596943  0.60090538
   0.13054631  0.27167419  0.39877701
   0.92710291  0.85502830  0.81074782
   0.56580364  0.13233151  0.19461897
   0.41009277  0.79263472  0.19808407
   0.43005006  0.85726065  0.79645647
   0.30232724  0.60142622  0.40120698
   0.85741640  0.73291339  0.59956974
   0.46914296  0.92677105  0.40596414
   0.13725198  0.37645055  0.00032421
   0.28002960  0.52776690  0.79379437
   0.20058744  0.38959644  0.59760234
   0.05808232  0.15103501  0.20201696
   0.76935931  0.53012444  0.80499747
   0.69545606  0.40592446  0.60304384
   0.60203515  0.19739322  0.79851563
   0.53889036  0.06515204  0.60383747
   0.33180550  0.66089378  0.00004979
   0.23056944  0.47122466  0.20098342
SQS with 1 vacancy for VFE and VRV      
           1
    -3.188093   -3.180520   -3.213066
     1.518036    1.511667   -7.878173
     7.987073   -7.990933   -1.583522
   Nb   Mo   Ta   Ti   W 
   6   6   5   6   6
Direct configuration=    22
   0.96099312  0.93402859  0.39526607
   0.63305908  0.26259622  0.40093589
   0.52050125 -0.01318314 -0.00374676
   0.00771643  0.00711573  0.00445298
   0.09789757  0.20456357  0.80274805
   0.03905035  0.06354836  0.59684483
   0.90788448  0.79771225  0.19920587
   0.80681301  0.59118910  0.39904628
   0.73229204  0.47086056  0.19558382
   0.65458897  0.34421916 -0.00169984
   0.36824448  0.72536508  0.60091533
   0.13075719  0.27114855  0.39888084
   0.92742666  0.85472039  0.81090663
   0.56558645  0.13353417  0.19465445
   0.40960540  0.79352103  0.19832665
   0.43101236  0.85673410  0.79645391
   0.30213766  0.60144647  0.40123000
   0.85811182  0.73168167  0.59969249
   0.46940500  0.92637535  0.40622293
   0.13479821  0.37902486  0.00031404
   0.27952158  0.52754189  0.79369152
   0.20052690  0.38875379  0.59745961
   0.05800969  0.15172449  0.20186254
   0.76945343  0.52951087  0.80448780
   0.69567563  0.40494458  0.60302407
   0.60196538  0.19704883  0.79840408
   0.53995032  0.06413677  0.60373893
   0.33312991  0.66139112  0.00023810
   0.23055233  0.47207892  0.20085889
SQS with 1 vacancy for VFE and VRV      
           1
    -3.193829   -3.185673   -3.217441
     1.521948    1.514636   -7.890585
     8.000092   -8.001672   -1.586524
   Nb   Mo   Ta   Ti   W 
   6   6   5   6   6
Direct configuration=    23
   0.96100340  0.93399205  0.39534298
   0.63279121  0.26276375  0.40079944
   0.52014984 -0.01299495 -0.00395973
   0.00772232  0.00704653  0.00427244