  30  30   0   0
  0.1716406E+02  0.5629165E-09  0.8443748E-09  0.1160482E-08  0.5000000E-15
  1.000000000000000E-004
  CAR 
 Nb - Mo - Ta - Ti - V SQS               
     10.68320623    -51.00205061  301      5.92636115      1.00000000
    -51.002  0.0000E+00  0.0000E+00
    -50.796  0.0000E+00  0.0000E+00
    -50.591  0.0000E+00  0.0000E+00
    -50.385  0.0000E+00  0.0000E+00
    -50.180  0.0000E+00  0.0000E+00
    -49.974 -0.1366E-32 -0.2808E-33
    -49.768 -0.3872E-25 -0.7961E-26
    -49.563 -0.1272E-18 -0.2616E-19
    -49.357 -0.4872E-13 -0.1002E-13
    -49.151 -0.2263E-08 -0.4652E-09
    -48.946 -0.1239E-04 -0.2548E-05
    -48.740 -0.7767E-02 -0.1600E-02
    -48.535 -0.4907E+00 -0.1025E+00
    -48.329  0.1450E+00 -0.7268E-01
    -48.123  0.2885E+02  0.5859E+01
    -47.918  0.2930E+02  0.1188E+02
    -47.712  0.1140E+01  0.1212E+02
    -47.507 -0.5612E+00  0.1200E+02
    -47.301 -0.1562E-01  0.1200E+02
    -47.095 -0.4596E-04  0.1200E+02
    -46.890 -0.1564E-07  0.1200E+02
    -46.684 -0.6238E-12  0.1200E+02
    -46.478  0.0000E+00  0.1200E+02
    -46.273  0.0000E+00  0.1200E+02
    -46.067  0.0000E+00  0.1200E+02
    -45.862  0.0000E+00  0.1200E+02
    -45.656  0.0000E+00  0.1200E+02
    -45.450  0.0000E+00  0.1200E+02
    -45.245  0.0000E+00  0.1200E+02
    -45.039  0.0000E+00  0.1200E+02
    -44.834  0.0000E+00  0.1200E+02
    -44.628  0.0000E+00  0.1200E+02
    -44.422  0.0000E+00  0.1200E+02
    -44.217  0.0000E+00  0.1200E+02
    -44.011  0.0000E+00  0.1200E+02
    -43.805  0.0000E+00  0.1200E+02
    -43.600  0.0000E+00  0.1200E+02
    -43.394  0.0000E+00  0.1200E+02
    -43.189  0.0000E+00  0.1200E+02
    -42.983  0.0000E+00  0.1200E+02
    -42.777  0.0000E+00  0.1200E+02
    -42.572  0.0000E+00  0.1200E+02
    -42.366  0.0000E+00  0.1200E+02
    -42.160  0.0000E+00  0.1200E+02
    -41.955  0.0000E+00  0.1200E+02
    -41.749  0.0000E+00  0.1200E+02
    -41.544  0.0000E+00  0.1200E+02
    -41.338  0.0000E+00  0.1200E+02
    -41.132  0.0000E+00  0.1200E+02
    -40.927  0.0000E+00  0.1200E+02
    -40.721  0.0000E+00  0.1200E+02
    -40.516  0.0000E+00  0.1200E+02
    -40.310  0.0000E+00  0.1200E+02
    -40.104  0.0000E+00  0.1200E+02
    -39.899  0.0000E+00  0.1200E+02
    -39.693  0.0000E+00  0.1200E+02
    -39.487  0.0000E+00  0.1200E+02
    -39.282  0.0000E+00  0.1200E+02
    -39.076  0.0000E+00  0.1200E+02
    -38.871  0.0000E+00  0.1200E+02
    -38.665  0.0000E+00  0.1200E+02
    -38.459  0.0000E+00  0.1200E+02
    -38.254  0.0000E+00  0.1200E+02
    -38.048  0.0000E+00  0.1200E+02
    -37.843  0.0000E+00  0.1200E+02
    -37.637  0.0000E+00  0.1200E+02
    -37.431  0.0000E+00  0.1200E+02
    -37.226  0.0000E+00  0.1200E+02
    -37.020  0.0000E+00  0.1200E+02
    -36.814  0.0000E+00  0.1200E+02
    -36.609  0.0000E+00  0.1200E+02
    -36.403  0.0000E+00  0.1200E+02
    -36.198  0.0000E+00  0.1200E+02
    -35.992  0.0000E+00  0.1200E+02
    -35.786  0.0000E+00  0.1200E+02
    -35.581  0.0000E+00  0.1200E+02
    -35.375  0.0000E+00  0.1200E+02
    -35.170  0.0000E+00  0.1200E+02
    -34.964  0.0000E+00  0.1200E+02
    -34.758  0.0000E+00  0.1200E+02
    -34.553  0.0000E+00  0.1200E+02
    -34.347  0.0000E+00  0.1200E+02
    -34.141  0.0000E+00  0.1200E+02
    -33.936  0.0000E+00  0.1200E+02
    -33.730  0.0000E+00  0.1200E+02
    -33.525  0.0000E+00  0.1200E+02
    -33.319  0.0000E+00  0.1200E+02
    -33.113  0.0000E+00  0.1200E+02
    -32.908  0.0000E+00  0.1200E+02
    -32.702  0.0000E+00  0.1200E+02
    -32.496  0.0000E+00  0.1200E+02
    -32.291  0.0000E+00  0.1200E+02
    -32.085  0.0000E+00  0.1200E+02
    -31.880  0.0000E+00  0.1200E+02
    -31.674  0.0000E+00  0.1200E+02
    -31.468  0.0000E+00  0.1200E+02
    -31.263  0.0000E+00  0.1200E+02
    -31.057  0.0000E+00  0.1200E+02
    -30.852  0.0000E+00  0.1200E+02
    -30.646  0.0000E+00  0.1200E+02
    -30.440  0.0000E+00  0.1200E+02
    -30.235  0.0000E+00  0.1200E+02
    -30.029  0.0000E+00  0.1200E+02
    -29.823  0.0000E+00  0.1200E+02
    -29.618  0.0000E+00  0.1200E+02
    -29.412  0.0000E+00  0.1200E+02
    -29.207  0.0000E+00  0.1200E+02
    -29.001  0.0000E+00  0.1200E+02
    -28.795  0.0000E+00  0.1200E+02
    -28.590  0.0000E+00  0.1200E+02
    -28.384  0.0000E+00  0.1200E+02
    -28.179  0.0000E+00  0.1200E+02
    -27.973  0.0000E+00  0.1200E+02
    -27.767  0.0000E+00  0.1200E+02
    -27.562  0.0000E+00  0.1200E+02
    -27.356  0.0000E+00  0.1200E+02
    -27.150  0.0000E+00  0.1200E+02
    -26.945  0.0000E+00  0.1200E+02
    -26.739  0.0000E+00  0.1200E+02
    -26.534 -0.1823E-32  0.1200E+02
    -26.328 -0.3835E-25  0.1200E+02
    -26.122 -0.9586E-19  0.1200E+02
    -25.917 -0.2767E-13  0.1200E+02
    -25.711 -0.9709E-09  0.1200E+02
    -25.505 -0.4089E-05  0.1200E+02
    -25.300 -0.2109E-02  0.1200E+02
    -25.094 -0.1296E+00  0.1197E+02
    -24.889 -0.3219E+00  0.1191E+02
    -24.683  0.7856E+01  0.1352E+02
    -24.477  0.2065E+02  0.1777E+02
    -24.272  0.4995E+02  0.2804E+02
    -24.066  0.6304E+02  0.4100E+02
    -23.861  0.2644E+02  0.4644E+02
    -23.655  0.7430E+01  0.4797E+02
    -23.449  0.3447E+00  0.4804E+02
    -23.244 -0.1733E+00  0.4800E+02
    -23.038 -0.8202E-02  0.4800E+02
    -22.832 -0.3995E-04  0.4800E+02
    -22.627 -0.2191E-07  0.4800E+02
    -22.421 -0.1380E-11  0.4800E+02
    -22.216  0.0000E+00  0.4800E+02
    -22.010  0.0000E+00  0.4800E+02
    -21.804  0.0000E+00  0.4800E+02
    -21.599  0.0000E+00  0.4800E+02
    -21.393  0.0000E+00  0.4800E+02
    -21.188  0.0000E+00  0.4800E+02
    -20.982  0.0000E+00  0.4800E+02
    -20.776  0.0000E+00  0.4800E+02
    -20.571  0.0000E+00  0.4800E+02
    -20.365  0.0000E+00  0.4800E+02
    -20.159  0.0000E+00  0.4800E+02
    -19.954  0.0000E+00  0.4800E+02
    -19.748  0.0000E+00  0.4800E+02
    -19.543  0.0000E+00  0.4800E+02
    -19.337  0.0000E+00  0.4800E+02
    -19.131  0.0000E+00  0.4800E+02
    -18.926  0.0000E+00  0.4800E+02
    -18.720  0.0000E+00  0.4800E+02
    -18.514  0.0000E+00  0.4800E+02
    -18.309  0.0000E+00  0.4800E+02
    -18.103  0.0000E+00  0.4800E+02
    -17.898  0.0000E+00  0.4800E+02
    -17.692  0.0000E+00  0.4800E+02
    -17.486  0.0000E+00  0.4800E+02
    -17.281  0.0000E+00  0.4800E+02
    -17.075  0.0000E+00  0.4800E+02
    -16.870  0.0000E+00  0.4800E+02
    -16.664  0.0000E+00  0.4800E+02
    -16.458  0.0000E+00  0.4800E+02
    -16.253  0.0000E+00  0.4800E+02
    -16.047  0.0000E+00  0.4800E+02
    -15.841  0.0000E+00  0.4800E+02
    -15.636  0.0000E+00  0.4800E+02
    -15.430  0.0000E+00  0.4800E+02
    -15.225  0.0000E+00  0.4800E+02
    -15.019  0.0000E+00  0.4800E+02
    -14.813  0.0000E+00  0.4800E+02
    -14.608  0.0000E+00  0.4800E+02
    -14.402  0.0000E+00  0.4800E+02
    -14.197  0.0000E+00  0.4800E+02
    -13.991  0.0000E+00  0.4800E+02
    -13.785  0.0000E+00  0.4800E+02
    -13.580  0.0000E+00  0.4800E+02
    -13.374  0.0000E+00  0.4800E+02
    -13.168  0.0000E+00  0.4800E+02
    -12.963  0.0000E+00  0.4800E+02
    -12.757  0.0000E+00  0.4800E+02
    -12.552  0.0000E+00  0.4800E+02
    -12.346  0.0000E+00  0.4800E+02
    -12.140  0.0000E+00  0.4800E+02
    -11.935  0.0000E+00  0.4800E+02
    -11.729  0.0000E+00  0.4800E+02
    -11.523  0.0000E+00  0.4800E+02
    -11.318  0.0000E+00  0.4800E+02
    -11.112  0.0000E+00  0.4800E+02
    -10.907  0.0000E+00  0.4800E+02
    -10.701  0.0000E+00  0.4800E+02
    -10.495  0.0000E+00  0.4800E+02
    -10.290  0.0000E+00  0.4800E+02
    -10.084  0.0000E+00  0.4800E+02
     -9.879  0.0000E+00  0.4800E+02
     -9.673  0.0000E+00  0.4800E+02
     -9.467  0.0000E+00  0.4800E+02
     -9.262  0.0000E+00  0.4800E+02
     -9.056  0.0000E+00  0.4800E+02
     -8.850  0.0000E+00  0.4800E+02
     -8.645  0.0000E+00  0.4800E+02
     -8.439  0.0000E+00  0.4800E+02
     -8.234  0.0000E+00  0.4800E+02
     -8.028  0.0000E+00  0.4800E+02
     -7.822  0.0000E+00  0.4800E+02
     -7.617  0.0000E+00  0.4800E+02
     -7.411  0.0000E+00  0.4800E+02
     -7.206  0.0000E+00  0.4800E+02
     -7.000  0.0000E+00  0.4800E+02
     -6.794  0.0000E+00  0.4800E+02
     -6.589  0.0000E+00  0.4800E+02
     -6.383  0.0000E+00  0.4800E+02
     -6.177  0.0000E+00  0.4800E+02
     -5.972  0.0000E+00  0.4800E+02
     -5.766  0.0000E+00  0.4800E+02
     -5.561  0.0000E+00  0.4800E+02
     -5.355  0.0000E+00  0.4800E+02
     -5.149  0.0000E+00  0.4800E+02
     -4.944  0.0000E+00  0.4800E+02
     -4.738  0.0000E+00  0.4800E+02
     -4.532  0.0000E+00  0.4800E+02
     -4.327  0.0000E+00  0.4800E+02
     -4.121  0.0000E+00  0.4800E+02
     -3.916  0.0000E+00  0.4800E+02
     -3.710  0.0000E+00  0.4800E+02
     -3.504  0.0000E+00  0.4800E+02
     -3.299  0.0000E+00  0.4800E+02
     -3.093  0.0000E+00  0.4800E+02
     -2.888  0.0000E+00  0.4800E+02
     -2.682  0.0000E+00  0.4800E+02
     -2.476  0.0000E+00  0.4800E+02
     -2.271 -0.9593E-29  0.4800E+02
     -2.065 -0.4733E-22  0.4800E+02
     -1.859 -0.2792E-16  0.4800E+02
     -1.654 -0.1896E-11  0.4800E+02
     -1.448 -0.1577E-07  0.4800E+02
     -1.243 -0.1555E-04  0.4800E+02
     -1.037 -0.1763E-02  0.4800E+02
     -0.831 -0.1662E-01  0.4800E+02
     -0.626  0.1208E+00  0.4802E+02
     -0.420  0.7310E+00  0.4817E+02
     -0.215  0.1578E+01  0.4850E+02
     -0.009  0.2089E+01  0.4893E+02
      0.197  0.1646E+01  0.4926E+02
      0.402  0.2286E+01  0.4973E+02
      0.608  0.3354E+01  0.5042E+02
      0.814  0.3718E+01  0.5119E+02
      1.019  0.2750E+01  0.5175E+02
      1.225  0.4012E+01  0.5258E+02
      1.430  0.4915E+01  0.5359E+02
      1.636  0.5265E+01  0.5467E+02
      1.842  0.6875E+01  0.5608E+02
      2.047  0.8082E+01  0.5775E+02
      2.253  0.1058E+02  0.5992E+02
      2.459  0.1859E+02  0.6374E+02
      2.664  0.2403E+02  0.6869E+02
      2.870  0.2780E+02  0.7440E+02
      3.075  0.3106E+02  0.8079E+02
      3.281  0.3191E+02  0.8735E+02
      3.487  0.3376E+02  0.9429E+02
      3.692  0.3373E+02  0.1012E+03
      3.898  0.2999E+02  0.1074E+03
      4.103  0.2356E+02  0.1122E+03
      4.309  0.2907E+02  0.1182E+03
      4.515  0.4108E+02  0.1267E+03
      4.720  0.4869E+02  0.1367E+03
      4.926  0.5009E+02  0.1470E+03
      5.132  0.4774E+02  0.1568E+03
      5.337  0.4654E+02  0.1664E+03
      5.543  0.5143E+02  0.1769E+03
      5.748  0.5643E+02  0.1885E+03
      5.954  0.5263E+02  0.1994E+03
      6.160  0.4454E+02  0.2085E+03
      6.365  0.3258E+02  0.2152E+03
      6.571  0.1899E+02  0.2191E+03
      6.776  0.1366E+02  0.2219E+03
      6.982  0.1537E+02  0.2251E+03
      7.188  0.1872E+02  0.2289E+03
      7.393  0.2206E+02  0.2335E+03
      7.599  0.2006E+02  0.2376E+03
      7.805  0.1025E+02  0.2397E+03
      8.010  0.1695E+01  0.2401E+03
      8.216 -0.2311E+00  0.2400E+03
      8.421 -0.2399E-01  0.2400E+03
      8.627 -0.2404E-03  0.2400E+03
      8.833 -0.3098E-06  0.2400E+03
      9.038 -0.5064E-10  0.2400E+03
      9.244 -0.1019E-14  0.2400E+03
      9.450  0.0000E+00  0.2400E+03
      9.655  0.0000E+00  0.2400E+03
      9.861  0.0000E+00  0.2400E+03
     10.066  0.0000E+00  0.2400E+03
     10.272  0.0000E+00  0.2400E+03
     10.478  0.0000E+00  0.2400E+03
     10.683  0.0000E+00  0.2400E+03
