   30   30    1    1
  0.1716406E+02  0.5629165E-09  0.8443748E-09  0.1160482E-08  0.5000000E-15
  1.000000000000000E-004
  CAR 
 Nb - Mo - Ta - Ti - V SQS               
    198     63    120
 
  0.0000000E+00  0.0000000E+00  0.0000000E+00  0.8000000E-02
    1      -48.198175   1.000000
    2      -48.178568   1.000000
    3      -48.146703   1.000000
    4      -48.110710   1.000000
    5      -48.085715   1.000000
    6      -47.988938   1.000000
    7      -24.779157   1.000000
    8      -24.662728   1.000000
    9      -24.535342   1.000000
   10      -24.501195   1.000000
   11      -24.325649   1.000000
   12      -24.314890   1.000000
   13      -24.311735   1.000000
   14      -24.272747   1.000000
   15      -24.260121   1.000000
   16      -24.244172   1.000000
   17      -24.231040   1.000000
   18      -24.189183   1.000000
   19      -24.139390   1.000000
   20      -24.127946   1.000000
   21      -24.024141   1.000000
   22      -24.008219   1.000000
   23      -23.888046   1.000000
   24      -23.691780   1.000000
   25       -0.656970   1.000000
   26        0.568707   1.000000
   27        0.918099   1.000000
   28        1.747977   1.000000
   29        1.933088   1.000000
   30        2.005022   1.000000
   31        2.147010   1.000000
   32        2.283767   1.000000
   33        2.314039   1.000000
   34        2.377515   1.000000
   35        2.449578   1.000000
   36        2.529483   1.000000
   37        2.595352   1.000000
   38        2.615535   1.000000
   39        2.757325   1.000000
   40        2.849333   1.000000
   41        2.889847   1.000000
   42        3.027825   1.000000
   43        3.119045   1.000000
   44        3.143154   1.000000
   45        3.176170   1.000000
   46        3.247935   1.000000
   47        3.322274   1.000000
   48        3.349452   1.000000
   49        3.426131   1.000000
   50        3.495344   1.000000
   51        3.565700   1.000000
   52        3.645235   1.000000
   53        3.699333   1.000000
   54        3.735201   1.000000
   55        3.874188   1.000000
   56        3.921826   1.000000
   57        3.997041   1.000000
   58        4.029160   1.000000
   59        4.207089   1.000000
   60        4.240512   1.000000
   61        4.312537   1.000000
   62        4.357030   1.000000
   63        4.364779   1.000000
   64        4.440236   1.000000
   65        4.445751   1.000000
   66        4.531424   1.000000
   67        4.550114   1.000000
   68        4.624988   1.000000
   69        4.650558   1.000000
   70        4.691002   1.000000
   71        4.739007   1.000000
   72        4.763925   1.000000
   73        4.827253   1.000000
   74        4.869122   1.000000
   75        4.884985   1.000000
   76        4.892025   1.000000
   77        4.921677   1.000000
   78        5.021580   1.000000
   79        5.083384   1.000000
   80        5.163951   1.000000
   81        5.284988   1.000028
   82        5.357612   1.000218
   83        5.405541   1.000718
   84        5.433497   1.001356
   85        5.461709   1.002459
   86        5.522672   1.007529
   87        5.577616   1.016685
   88        5.600638   1.021748
   89        5.613225   1.024654
   90        5.631899   1.028867
   91        5.639332   1.030419
   92        5.691958   1.034998
   93        5.720633   1.027850
   94        5.759636   0.998157
   95        5.900791   0.607224
   96        5.942450   0.432165
   97        5.997808   0.218006
   98        6.034998   0.107111
   99        6.051922   0.067899
  100        6.118551  -0.020586
  101        6.166533  -0.035367
  102        6.201107  -0.032688
  103        6.304535  -0.011191
  104        6.333421  -0.007121
  105        6.348365  -0.005514
  106        6.398624  -0.002104
  107        6.598569  -0.000011
  108        6.737410  -0.000000
  109        6.752059  -0.000000
  110        6.833285  -0.000000
  111        7.275615  -0.000000
  112        7.424352  -0.000000
  113        7.541564  -0.000000
  114        7.603165  -0.000000
  115        7.656472  -0.000000
  116        7.696938  -0.000000
  117        7.713371  -0.000000
  118        7.741877  -0.000000
  119        7.810187  -0.000000
  120        7.832499  -0.000000
 
  0.2000000E+00 -0.1387779E-16  0.1734723E-16  0.1600000E-01
    1      -48.197114   1.000000
    2      -48.174354   1.000000
    3      -48.144608   1.000000
    4      -48.109927   1.000000
    5      -48.085026   1.000000
    6      -47.997432   1.000000
    7      -24.703543   1.000000
    8      -24.649989   1.000000
    9      -24.530086   1.000000
   10      -24.496015   1.000000
   11      -24.327942   1.000000
   12      -24.315881   1.000000
   13      -24.307054   1.000000
   14      -24.273881   1.000000
   15      -24.259109   1.000000
   16      -24.246847   1.000000
   17      -24.232793   1.000000
   18      -24.190832   1.000000
   19      -24.147423   1.000000
   20      -24.129776   1.000000
   21      -24.028550   1.000000
   22      -24.012066   1.000000
   23      -23.889412   1.000000
   24      -23.794302   1.000000
   25       -0.366073   1.000000
   26        0.825762   1.000000
   27        1.165609   1.000000
   28        1.752362   1.000000
   29        2.129938   1.000000
   30        2.231909   1.000000
   31        2.298608   1.000000
   32        2.437445   1.000000
   33        2.468729   1.000000
   34        2.503415   1.000000
   35        2.617420   1.000000
   36        2.683292   1.000000
   37        2.748331   1.000000
   38        2.822542   1.000000
   39        2.909609   1.000000
   40        2.952448   1.000000
   41        2.996563   1.000000
   42        3.016205   1.000000
   43        3.116222   1.000000
   44        3.170926   1.000000
   45        3.272378   1.000000
   46        3.316857   1.000000
   47        3.391955   1.000000
   48        3.467538   1.000000
   49        3.509428   1.000000
   50        3.543098   1.000000
   51        3.633909   1.000000
   52        3.706682   1.000000
   53        3.753786   1.000000
   54        3.824131   1.000000
   55        3.888019   1.000000
   56        3.963991   1.000000
   57        4.029685   1.000000
   58        4.112857   1.000000
   59        4.232207   1.000000
   60        4.281116   1.000000
   61        4.338900   1.000000
   62        4.464272   1.000000
   63        4.474744   1.000000
   64        4.550116   1.000000
   65        4.583292   1.000000
   66        4.607007   1.000000
   67        4.649028   1.000000
   68        4.716837   1.000000
   69        4.726044   1.000000
   70        4.736356   1.000000
   71        4.809228   1.000000
   72        4.834784   1.000000
   73        4.889303   1.000000
   74        4.898267   1.000000
   75        4.982707   1.000000
   76        5.007689   1.000000
   77        5.024225   1.000000
   78        5.049591   1.000000
   79        5.086466   1.000000
   80        5.135033   1.000000
   81        5.138562   1.000000
   82        5.232590   1.000005
   83        5.274417   1.000020
   84        5.333725   1.000115
   85        5.356068   1.000209
   86        5.400418   1.000636
   87        5.425564   1.001138
   88        5.515509   1.006683
   89        5.596284   1.020756
   90        5.629079   1.028253
   91        5.656144   1.033399
   92        5.690173   1.035144
   93        5.736090   1.019315
   94        5.766468   0.989911
   95        5.859407   0.766474
   96        5.874893   0.709990
   97        5.899427   0.612829
   98        5.947052   0.412965
   99        5.999481   0.212334
  100        6.032630   0.113174
  101        6.063341   0.045509
  102        6.115220  -0.018339
  103        6.161076  -0.035026
  104        6.196064  -0.033475
  105        6.224179  -0.028135
  106        6.271991  -0.017338
  107        6.313815  -0.009739
  108        6.482658  -0.000301
  109        6.540848  -0.000062
  110        6.645945  -0.000002
  111        6.915796  -0.000000
  112        7.005831  -0.000000
  113        7.053774  -0.000000
  114        7.108775  -0.000000
  115        7.204449  -0.000000
  116        7.347892  -0.000000
  117        7.400756  -0.000000
  118        7.453434  -0.000000
  119        7.470153  -0.000000
  120        7.513683  -0.000000
 
  0.4000000E+00 -0.2775558E-16  0.3469447E-16  0.1600000E-01
    1      -48.195798   1.000000
    2      -48.168025   1.000000
    3      -48.139597   1.000000
    4      -48.107806   1.000000
    5      -48.083006   1.000000
    6      -48.013663   1.000000
    7      -24.671938   1.000000
    8      -24.546675   1.000000
    9      -24.509456   1.000000
   10      -24.400352   1.000000
   11      -24.332363   1.000000
   12      -24.318381   1.000000
   13      -24.298177   1.000000
   14      -24.274731   1.000000
   15      -24.257687   1.000000
   16      -24.246805   1.000000
   17      -24.235742   1.000000
   18      -24.193206   1.000000
   19      -24.165249   1.000000
   20      -24.133165   1.000000
   21      -24.080217   1.000000
   22      -24.029975   1.000000
   23      -24.001662   1.000000
   24      -23.884970   1.000000
   25        0.422058   1.000000
   26        1.328912   1.000000
   27        1.651144   1.000000
   28        1.866383   1.000000
   29        1.946235   1.000000
   30        2.333611   1.000000
   31        2.385199   1.000000
   32        2.558004   1.000000
   33        2.669899   1.000000
   34        2.778221   1.000000
   35        2.887902   1.000000
   36        2.904861   1.000000
   37        3.012898   1.000000
   38        3.052736   1.000000
   39        3.153552   1.000000
   40        3.200566   1.000000
   41        3.240619   1.000000
   42        3.274700   1.000000
   43        3.320194   1.000000
   44        3.386437   1.000000
   45        3.474074   1.000000
   46        3.508877   1.000000
   47        3.559747   1.000000
   48        3.581530   1.000000
   49        3.692234   1.000000
   50        3.720765   1.000000
   51        3.846462   1.000000
   52        3.897181   1.000000
   53        3.953319   1.000000
   54        4.033790   1.000000
   55        4.113373   1.000000
   56        4.160184   1.000000
   57        4.229908   1.000000
   58        4.266472   1.000000
   59        4.293275   1.000000
   60        4.343582   1.000000
   61        4.382425   1.000000
   62        4.422312   1.000000
   63        4.467135   1.000000
   64        4.502197   1.000000
   65        4.523071   1.000000
   66        4.612629   1.000000
   67        4.631045   1.000000
   68        4.659008   1.000000
   69        4.699922   1.000000
   70        4.744919   1.000000
   71        4.801921   1.000000
   72        4.843502   1.000000
   73        4.874649   1.000000
   74        4.920915   1.000000
   75        4.979692   1.000000
   76        5.023018   1.000000
   77        5.079349   1.000000
   78        5.102472   1.000000
   79        5.124902   1.000000
   80        5.155161   1.000000
   81        5.234596   1.000006
   82        5.289625   1.000032
   83        5.320907   1.000080
   84        5.361093   1.000239
   85        5.402522   1.000669
   86        5.448274   1.001863
   87        5.488389   1.004129
   88        5.522132   1.007462
   89        5.569823   1.015106
   90        5.587054   1.018699
   91        5.615668   1.025219
   92        5.639825   1.030518
   93        5.678835   1.035433
   94        5.701131   1.033751
   95        5.713175   1.030686
   96        5.779570   0.971171
   97        5.820422   0.885970
   98        5.867372   0.737972
   99        5.909378   0.571576
  100        5.925384   0.504137
  101        5.965818   0.336594
  102        6.008196   0.183776
  103        6.021508   0.143518
  104        6.095811  -0.001167
  105        6.105225  -0.010400
  106        6.167609  -0.035404
  107        6.221429  -0.028736
  108        6.243600  -0.023705
  109        6.273841  -0.016948
  110        6.335744  -0.006850
  111        6.369795  -0.003727
  112        6.413422  -0.001539
  113        6.681344  -0.000001
  114        6.797384  -0.000000
  115        6.818301  -0.000000
  116        6.927019  -0.000000
  117        7.008438  -0.000000
  118        7.029367  -0.000000
  119        7.134669  -0.000000
  120        7.222335  -0.000000
 
  0.0000000E+00  0.2000000E+00 -0.1387779E-16  0.1600000E-01
    1      -48.198071   1.000000
    2      -48.178487   1.000000
    3      -48.146688   1.000000
    4      -48.110876   1.000000
    5      -48.085750   1.000000
    6      -47.988937   1.000000
    7      -24.779159   1.000000
    8      -24.662008   1.000000
    9      -24.532755   1.000000
   10      -24.500558   1.000000
   11      -24.325757   1.000000
   12      -24.314966   1.000000
   13      -24.311737   1.000000
   14      -24.272793   1.000000
   15      -24.260101   1.000000
   16      -24.244079   1.000000
   17      -24.231005   1.000000
   18      -24.189136   1.000000
   19      -24.139401   1.000000
   20      -24.127991   1.000000
   21      -24.025692   1.000000
   22      -24.010881   1.000000
   23      -23.888310   1.000000
   24      -23.691782   1.000000
   25       -0.534826   1.000000
   26        0.629742   1.000000
   27        1.032031   1.000000
   28        1.246753   1.000000
   29        1.855039   1.000000
   30        2.090431   1.000000
   31        2.169840   1.000000
   32        2.320497   1.000000
   33        2.349115   1.000000
   34        2.424653   1.000000
   35        2.483465   1.000000
   36        2.562645   1.000000
   37        2.606111   1.000000
   38        2.682574   1.000000
   39        2.773302   1.000000
   40        2.806902   1.000000
   41        2.845659   1.000000
   42        2.946309   1.000000
   43        3.066300   1.000000
   44        3.146811   1.000000
   45        3.217403   1.000000
   46        3.264846   1.000000
   47        3.315344   1.000000
   48        3.417486   1.000000
   49        3.433905   1.000000
   50        3.504694   1.000000
   51        3.570169   1.000000
   52        3.645595   1.000000
   53        3.676613   1.000000
   54        3.715221   1.000000
   55        3.788937   1.000000
   56        3.865629   1.000000
   57        3.976838   1.000000
   58        4.137325   1.000000
   59        4.223225   1.000000
   60        4.279880   1.000000
   61        4.323286   1.000000
   62        4.414012   1.000000
   63        4.446403   1.000000
   64        4.494896   1.000000
   65        4.532389   1.000000
   66        4.567813   1.000000
   67        4.612767   1.000000
   68        4.670158   1.000000
   69        4.681191   1.000000
   70        4.714112   1.000000
   71        4.761525   1.000000
   72        4.794114   1.000000
   73        4.826854   1.000000
   74        4.880738   1.000000
   75        4.926010   1.000000
   76        4.944825   1.000000
   77        4.991805   1.000000
   78        5.005224   1.000000
   79        5.114230   1.000000
   80        5.136470   1.000000
   81        5.297566   1.000041
   82        5.319386   1.000077
   83        5.374273   1.000335
   84        5.408084   1.000762
   85        5.438960   1.001527
   86        5.472859   1.003070
   87        5.502366   1.005323
   88        5.552341   1.011886
   89        5.577804   1.016724
   90        5.607881   1.023417
   91        5.636259   1.029790
   92        5.685776   1.035382
   93        5.720008   1.028118
   94        5.749874   1.008236
   95        5.801133   0.931399
   96        5.815073   0.899509
   97        5.871661   0.722135
   98        5.940720   0.439414
   99        5.991118   0.241266
  100        6.167418  -0.035398
  101        6.262819  -0.019326
  102        6.284284  -0.014834
  103        6.318721  -0.009027
  104        6.423079  -0.001246
  105        6.429569  -0.001078
  106        6.452986  -0.000626
  107        6.572411  -0.000024
  108        6.742051  -0.000000
  109        6.824358  -0.000000
  110        6.865777  -0.000000
  111        6.989396  -0.000000
  112        7.057089  -0.000000
  113        7.137707  -0.000000
  114        7.417482  -0.000000
  115        7.487484  -0.000000
  116        7.607498  -0.000000
  117        7.631194  -0.000000
  118        7.680554  -0.000000
  119        7.720493  -0.000000
  120        7.777040  -0.000000
 
  0.2000000E+00  0.2000000E+00 -0.2081668E-16  0.1600000E-01
    1      -48.197224   1.000000
    2      -48.174429   1.000000
    3      -48.144612   1.000000
    4      -48.109768   1.000000
    5      -48.084995   1.000000
    6      -47.997433   1.000000
    7      -24.703657   1.000000
    8      -24.650612   1.000000
    9      -24.532832   1.000000
   10      -24.496378   1.000000
   11      -24.327941   1.000000
   12      -24.315898   1.000000
   13      -24.307022   1.000000
   14      -24.273908   1.000000
   15      -24.259072   1.000000
   16      -24.246808   1.000000
   17      -24.232799   1.000000
   18      -24.190855   1.000000
   19      -24.147391   1.000000
   20      -24.129746   1.000000
   21      -24.027351   1.000000
   22      -24.009170   1.000000
   23      -23.889165   1.000000
   24      -23.794296   1.000000
   25       -0.361638   1.000000
   26        0.788679   1.000000
   27        1.194026   1.000000
   28        1.732964   1.000000
   29        2.106891   1.000000
   30        2.200726   1.000000
   31        2.263881   1.000000
   32        2.368021   1.000000
   33        2.408598   1.000000
   34        2.484002   1.000000
   35        2.545238   1.000000
   36        2.625999   1.000000
   37        2.728217   1.000000
   38        2.777844   1.000000
   39        2.849209   1.000000
   40        2.905744   1.000000
   41        3.005405   1.000000
   42        3.025919   1.000000
   43        3.190791   1.000000
   44        3.237619   1.000000
   45        3.278197   1.000000
   46        3.346110   1.000000
   47        3.426158   1.000000
   48        3.471978   1.000000
   49        3.555208   1.000000
   50        3.609148   1.000000
   51        3.631520   1.000000
   52        3.717904   1.000000
   53        3.814160   1.000000
   54        3.869909   1.000000
   55        3.921015   1.000000
   56        3.984885   1.000000
   57        4.069167   1.000000
   58        4.159283   1.000000
   59        4.241751   1.000000
   60        4.312964   1.000000
   61        4.365622   1.000000
   62        4.380773   1.000000
   63        4.463900   1.000000
   64        4.480504   1.000000
   65        4.514740   1.000000
   66        4.600140   1.000000
   67        4.626785   1.000000
   68        4.658724   1.000000
   69        4.704151   1.000000
   70        4.720083   1.000000
   71        4.754165   1.000000
   72        4.777328   1.000000
   73        4.797711   1.000000
   74        4.848677   1.000000
   75        4.883764   1.000000
   76        4.949356   1.000000
   77        5.010410   1.000000
   78        5.038632   1.000000
   79        5.097640   1.000000
   80        5.178371   1.000001
   81        5.223903   1.000004
   82        5.274490   1.000020
   83        5.339500   1.000134
   84        5.359568   1.000229
   85        5.390163   1.000497
   86        5.464041   1.002577
   87        5.507919   1.005868
   88        5.544597   1.010613
   89        5.575295   1.016206
   90        5.618923   1.025967
   91        5.648586   1.032171
   92        5.679856   1.035449
   93        5.710748   1.031447
   94        5.731445   1.022284
   95        5.821137   0.884105
   96        5.841239   0.826551
   97        5.917508   0.537421
   98        5.945118   0.421017
   99        6.024665   0.134596
  100        6.063460   0.045293
  101        6.110368  -0.014715
  102        6.141205  -0.031214
  103        6.188378  -0.034461
  104        6.239418  -0.024673
  105        6.280875  -0.015508
  106        6.290136  -0.013716
  107        6.346246  -0.005722
  108        6.394053  -0.002311
  109        6.467305  -0.000442
  110        6.567234  -0.000028
  111        6.645917  -0.000002
  112        6.892658  -0.000000
  113        7.288534  -0.000000
  114        7.386208  -0.000000
  115        7.452808  -0.000000
  116        7.483226  -0.000000
  117        7.617062  -0.000000
  118        7.678293  -0.000000
  119        7.713524  -0.000000
  120        7.760271  -0.000000
 
  0.4000000E+00  0.2000000E+00  0.0000000E+00  0.1600000E-01
    1      -48.195995   1.000000
    2      -48.168153   1.000000
    3      -48.139565   1.000000
    4      -48.107550   1.000000
    5      -48.082968   1.000000
    6      -48.013665   1.000000
    7      -24.672868   1.000000
    8      -24.549181   1.000000
    9      -24.512401   1.000000
   10      -24.400333   1.000000
   11      -24.332345   1.000000
   12      -24.318392   1.000000
   13      -24.298132   1.000000
   14      -24.274740   1.000000
   15      -24.257665   1.000000
   16      -24.246764   1.000000
   17      -24.235764   1.000000
   18      -24.193255   1.000000
   19      -24.165178   1.000000
   20      -24.133133   1.000000
   21      -24.080196   1.000000
   22      -24.024756   1.000000
   23      -24.000033   1.000000
   24      -23.884629   1.000000
   25        0.330955   1.000000
   26        1.275310   1.000000
   27        1.625838   1.000000
   28        1.833211   1.000000
   29        1.979833   1.000000
   30        2.113053   1.000000
   31        2.452983   1.000000
   32        2.640500   1.000000
   33        2.686353   1.000000
   34        2.796767   1.000000
   35        2.863296   1.000000
   36        2.932780   1.000000
   37        2.999772   1.000000
   38        3.038650   1.000000
   39        3.066852   1.000000
   40        3.200464   1.000000
   41        3.274380   1.000000
   42        3.315944   1.000000
   43        3.378677   1.000000
   44        3.407001   1.000000
   45        3.462933   1.000000
   46        3.507895   1.000000
   47        3.572631   1.000000
   48        3.648171   1.000000
   49        3.690200   1.000000
   50        3.758833   1.000000
   51        3.806591   1.000000
   52        3.879583   1.000000
   53        3.941984   1.000000
   54        3.969065   1.000000
   55        4.025436   1.000000
   56        4.082402   1.000000
   57        4.130356   1.000000
   58        4.207987   1.000000
   59        4.266713   1.000000
   60        4.383763   1.000000
   61        4.405957   1.000000
   62        4.426214   1.000000
   63        4.484578   1.000000
   64        4.530628   1.000000
   65        4.569384   1.000000
   66        4.617656   1.000000
   67        4.655028   1.000000
   68        4.692974   1.000000
   69        4.732343   1.000000
   70        4.773848   1.000000
   71        4.817751   1.000000
   72        4.836882   1.000000
   73        4.869830   1.000000
   74        4.936992   1.000000
   75        4.963802   1.000000
   76        5.005902   1.000000
   77        5.022955   1.000000
   78        5.120487   1.000000
   79        5.161814   1.000000
   80        5.209554   1.000002
   81        5.235811   1.000006
   82        5.276184   1.000021
   83        5.328982   1.000100
   84        5.341725   1.000143
   85        5.363834   1.000256
   86        5.392446   1.000525
   87        5.451824   1.002007
   88        5.469857   1.002894
   89        5.517965   1.006964
   90        5.559709   1.013186
   91        5.582711   1.017759
   92        5.603107   1.022315
   93        5.634036   1.029324
   94        5.681379   1.035458
   95        5.696806   1.034446
   96        5.730979   1.022562
   97        5.760891   0.996718
   98        5.793011   0.947725
   99        5.804969   0.923113
  100        5.847856   0.805512
  101        5.892535   0.640883
  102        5.937039   0.454890
  103        5.977521   0.291178
  104        6.019231   0.150108
  105        6.061409   0.049070
  106        6.088764   0.006942
  107        6.207963  -0.031476
  108        6.307561  -0.010702
  109        6.353939  -0.004994
  110        6.430352  -0.001059
  111        6.498392  -0.000200
  112        6.815878  -0.000000
  113        6.927157  -0.000000
  114        6.985063  -0.000000
  115        7.055301  -0.000000
  116        7.161781  -0.000000
  117        7.221844  -0.000000
  118        7.279660  -0.000000
  119        7.348657  -0.000000
  120        7.394343  -0.000000
 
 -0.4000000E+00  0.2000000E+00  0.0000000E+00  0.1600000E-01
    1      -48.195795   1.000000
    2      -48.168024   1.000000
    3      -48.139597   1.000000
    4      -48.107810   1.000000
    5      -48.083006   1.000000
    6      -48.013663   1.000000
    7      -24.671928   1.000000
    8      -24.546667   1.000000
    9      -24.509437   1.000000
   10      -24.400355   1.000000
   11      -24.332446   1.000000
   12      -24.318381   1.000000
   13      -24.298194   1.000000
   14      -24.274747   1.000000
   15      -24.257608   1.000000
   16      -24.246788   1.000000
   17      -24.235732   1.000000
   18      -24.193199   1.000000
   19      -24.165244   1.000000
   20      -24.133166   1.000000
   21      -24.080216   1.000000
   22      -24.030007   1.000000
   23      -24.001688   1.000000
   24      -23.884978   1.000000
   25        0.675399   1.000000
   26        1.306315   1.000000
   27        1.430435   1.000000
   28        1.713468   1.000000
   29        2.001790   1.000000
   30        2.224254   1.000000
   31        2.306983   1.000000
   32        2.455403   1.000000
   33        2.674638   1.000000
   34        2.811991   1.000000
   35        2.901822   1.000000
   36        2.991080   1.000000
   37        3.024058   1.000000
   38        3.077908   1.000000
   39        3.127275   1.000000
   40        3.171052   1.000000
   41        3.235255   1.000000
   42        3.272555   1.000000
   43        3.351308   1.000000
   44        3.416089   1.000000
   45        3.469841   1.000000
   46        3.550604   1.000000
   47        3.594286   1.000000
   48        3.660144   1.000000
   49        3.742603   1.000000
   50        3.790170   1.000000
   51        3.819876   1.000000
   52        3.882112   1.000000
   53        3.921477   1.000000
   54        4.017756   1.000000
   55        4.097758   1.000000
   56        4.214704   1.000000
   57        4.268163   1.000000
   58        4.300940   1.000000
   59        4.315242   1.000000
   60        4.339859   1.000000
   61        4.363217   1.000000
   62        4.417342   1.000000
   63        4.433696   1.000000
   64        4.510369   1.000000
   65        4.528500   1.000000
   66        4.584438   1.000000
   67        4.644638   1.000000
   68        4.689020   1.000000
   69        4.695810   1.000000
   70        4.727336   1.000000
   71        4.744720   1.000000
   72        4.839938   1.000000
   73        4.873780   1.000000
   74        4.896834   1.000000
   75        4.962820   1.000000
   76        4.989653   1.000000
   77        5.024013   1.000000
   78        5.050359   1.000000
   79        5.150043   1.000000
   80        5.196952   1.000002
   81        5.210806   1.000003
   82        5.266308   1.000016
   83        5.276299   1.000022
   84        5.323191   1.000085
   85        5.430791   1.001278
   86        5.457952   1.002277
   87        5.493701   1.004554
   88        5.519263   1.007116
   89        5.563596   1.013906
   90        5.578353   1.016838
   91        5.631233   1.028723
   92        5.649822   1.032386
   93        5.686808   1.035342
   94        5.724551   1.026041
   95        5.750901   1.007267
   96        5.796114   0.941682
   97        5.829893   0.860246
   98        5.843284   0.820154
   99        5.890411   0.649427
  100        5.936791   0.455933
  101        5.974579   0.302400
  102        6.010097   0.177773
  103        6.062559   0.046939
  104        6.096894  -0.002321
  105        6.109337  -0.013890
  106        6.135900  -0.029395
  107        6.176715  -0.035349
  108        6.197199  -0.033306
  109        6.280079  -0.015668
  110        6.336384  -0.006777
  111        6.461485  -0.000510
  112        6.484261  -0.000289
  113        6.516519  -0.000123
  114        6.623421  -0.000005
  115        6.892402  -0.000000
  116        7.041986  -0.000000
  117        7.227362  -0.000000
  118        7.239227  -0.000000
  119        7.290950  -0.000000
  120        7.339643  -0.000000
 
 -0.2000000E+00  0.2000000E+00  0.1040834E-16  0.1600000E-01
    1      -48.196929   1.000000
    2      -48.174227   1.000000
    3      -48.144600   1.000000
    4      -48.110196   1.000000
    5      -48.085077   1.000000
    6      -47.997430   1.000000
    7      -24.703359   1.000000
    8      -24.648987   1.000000
    9      -24.525575   1.000000
   10      -24.495225   1.000000
   11      -24.328103   1.000000
   12      -24.315895   1.000000
   13      -24.307130   1.000000
   14      -24.273911   1.000000
   15      -24.259065   1.000000
   16      -24.246761   1.000000
   17      -24.232738   1.000000
   18      -24.190763   1.000000
   19      -24.147469   1.000000
   20      -24.129827   1.000000
   21      -24.031628   1.000000
   22      -24.015932   1.000000
   23      -23.889816   1.000000
   24      -23.794310   1.000000
   25       -0.142214   1.000000
   26        0.926447   1.000000
   27        1.168343   1.000000
   28        1.363837   1.000000
   29        1.913393   1.000000
   30        2.285249   1.000000
   31        2.395519   1.000000
   32        2.485713   1.000000
   33        2.543869   1.000000
   34        2.592658   1.000000
   35        2.710022   1.000000
   36        2.725309   1.000000
   37        2.744490   1.000000
   38        2.836594   1.000000
   39        2.850832   1.000000
   40        2.921740   1.000000
   41        2.954714   1.000000
   42        3.016417   1.000000
   43        3.083175   1.000000
   44        3.145891   1.000000
   45        3.228044   1.000000
   46        3.279812   1.000000
   47        3.369065   1.000000