 vasp.5.4.4.18Apr17-6-g9f103f2a35 (build Aug 09 2018 16:20:53) complex          
  
 executed on             LinuxIFC date 2020.04.28  21:35:07
 running on   32 total cores
 distrk:  each k-point on   32 cores,    1 groups
 distr:  one band on NCORES_PER_BAND=   4 cores,    8 groups


--------------------------------------------------------------------------------------------------------


 INCAR:
 POTCAR:    PAW_PBE Nb_sv 25May2007               
 POTCAR:    PAW_PBE Mo 08Apr2002                  
 POTCAR:    PAW_PBE Ta 17Jan2003                  
 POTCAR:    PAW_PBE Ti 08Apr2002                  
 POTCAR:    PAW_PBE V 08Apr2002                   
 POTCAR:    PAW_PBE Nb_sv 25May2007               
   VRHFIN =Nb: 4p5s4d                                                           
   LEXCH  = PE                                                                  
   EATOM  =  1555.1913 eV,  114.3033 Ry                                         
                                                                                
   TITEL  = PAW_PBE Nb_sv 25May2007                                             
   LULTRA =        F    use ultrasoft PP ?                                      
   IUNSCR =        1    unscreen: 0-lin 1-nonlin 2-no                           
   RPACOR =    1.800    partial core radius                                     
   POMASS =   92.910; ZVAL   =   13.000    mass and valenz                      
   RCORE  =    2.400    outmost cutoff radius                                   
   RWIGS  =    2.400; RWIGS  =    1.270    wigner-seitz radius (au A)           
   ENMAX  =  293.235; ENMIN  =  219.927 eV                                      
   ICORE  =        3    local potential                                         
   LCOR   =        T    correct aug charges                                     
   LPAW   =        T    paw PP                                                  
   EAUG   =  455.659                                                            
   DEXC   =    0.000                                                            
   RMAX   =    2.456    core radius for proj-oper                               
   RAUG   =    1.300    factor for augmentation sphere                          
   RDEP   =    2.451    radius for radial grids                                 
   RDEPT  =    1.956    core radius for aug-charge                              
                                                                                
   Atomic configuration                                                         
   11 entries                                                                   
     n  l   j            E        occ.                                          
     1  0  0.50    -18805.2457   2.0000                                         
     2  0  0.50     -2630.2869   2.0000                                         
     2  1  1.50     -2348.4046   6.0000                                         
     3  0  0.50      -438.8757   2.0000                                         
     3  1  1.50      -346.7588   6.0000                                         
     3  2  2.50      -196.2560  10.0000                                         
     4  0  0.50       -58.3859   2.0000                                         
     5  0  0.50        -3.9816   1.0000                                         
     4  1  1.50       -34.5141   6.0000                                         
     4  2  2.50        -3.0408   4.0000                                         
     4  3  2.50        -1.3606   0.0000                                         
   Description                                                                  
     l       E           TYP  RCUT    TYP  RCUT                                 
     0    -58.3859094     23  2.200                                             
     0     -3.9816262     23  2.200                                             
     1    -34.5140738     23  2.200                                             
     1     13.6058260     23  2.200                                             
     2     -3.0408010     23  2.200                                             
     2     -0.1283038     23  2.200                                             
     3     -1.3605826     23  2.400                                             
  local pseudopotential read in
  partial core-charges read in
  partial kinetic energy density read in
  atomic valenz-charges read in
  non local Contribution for L=           0  read in
    real space projection operators read in
  non local Contribution for L=           0  read in
    real space projection operators read in
  non local Contribution for L=           1  read in
    real space projection operators read in
  non local Contribution for L=           1  read in
    real space projection operators read in
  non local Contribution for L=           2  read in
    real space projection operators read in
  non local Contribution for L=           2  read in
    real space projection operators read in
    PAW grid and wavefunctions read in
 
   number of l-projection  operators is LMAX  =           6
   number of lm-projection operators is LMMAX =          18
 
 POTCAR:    PAW_PBE Mo 08Apr2002                  
   VRHFIN =Mo: 4p5s4d                                                           
   LEXCH  = PE                                                                  
   EATOM  =   217.5176 eV,   15.9871 Ry                                         
                                                                                
   TITEL  = PAW_PBE Mo 08Apr2002                                                
   LULTRA =        F    use ultrasoft PP ?                                      
   IUNSCR =        1    unscreen: 0-lin 1-nonlin 2-no                           
   RPACOR =    2.200    partial core radius                                     
   POMASS =   95.940; ZVAL   =    6.000    mass and valenz                      
   RCORE  =    2.750    outmost cutoff radius                                   
   RWIGS  =    2.750; RWIGS  =    1.455    wigner-seitz radius (au A)           
   ENMAX  =  224.584; ENMIN  =  168.438 eV                                      
   RCLOC  =    2.111    cutoff for local pot                                    
   LCOR   =        T    correct aug charges                                     
   LPAW   =        T    paw PP                                                  
   EAUG   =  345.278                                                            
   DEXC   =    0.000                                                            
   RMAX   =    2.821    core radius for proj-oper                               
   RAUG   =    1.300    factor for augmentation sphere                          
   RDEP   =    2.815    radius for radial grids                                 
   RDEPT  =    2.211    core radius for aug-charge                              
                                                                                
   Atomic configuration                                                         
   12 entries                                                                   
     n  l   j            E        occ.                                          
     1  0  0.50    -19819.0341   2.0000                                         
     2  0  0.50     -2799.0127   2.0000                                         
     2  1  1.50     -2502.0276   6.0000                                         
     3  0  0.50      -476.4448   2.0000                                         
     3  1  1.50      -379.1496   6.0000                                         
     3  2  2.50      -220.9367  10.0000                                         
     4  0  0.50       -64.3378   2.0000                                         
     4  1  1.50       -38.4773   6.0000                                         
     4  2  2.50        -3.7535   5.0000                                         
     5  0  0.50        -4.0862   1.0000                                         
     5  1  0.50        -2.7701   0.0000                                         
     4  3  2.50        -1.3606   0.0000                                         
   Description                                                                  
     l       E           TYP  RCUT    TYP  RCUT                                 
     2     -3.7534765     23  2.500                                             
     2     -5.1140591     23  2.500                                             
     0     -4.0861560     23  2.600                                             
     0     13.6058260     23  2.600                                             
     1      5.4423304     23  2.750                                             
     1     27.2116520     23  2.750                                             
  local pseudopotential read in
  partial core-charges read in
  partial kinetic energy density read in
  atomic valenz-charges read in
  non local Contribution for L=           2  read in
    real space projection operators read in
  non local Contribution for L=           2  read in
    real space projection operators read in
  non local Contribution for L=           0  read in
    real space projection operators read in
  non local Contribution for L=           0  read in
    real space projection operators read in
  non local Contribution for L=           1  read in
    real space projection operators read in
  non local Contribution for L=           1  read in
    real space projection operators read in
    PAW grid and wavefunctions read in
 
   number of l-projection  operators is LMAX  =           6
   number of lm-projection operators is LMMAX =          18
 
 POTCAR:    PAW_PBE Ta 17Jan2003                  
   VRHFIN =Ta:  6s5d                                                            
   LEXCH  = PE                                                                  
   EATOM  =   130.6506 eV,    9.6025 Ry                                         
                                                                                
   TITEL  = PAW_PBE Ta 17Jan2003                                                
   LULTRA =        F    use ultrasoft PP ?                                      
   IUNSCR =        1    unscreen: 0-lin 1-nonlin 2-no                           
   RPACOR =    2.330    partial core radius                                     
   POMASS =  180.948; ZVAL   =    5.000    mass and valenz                      
   RCORE  =    2.900    outmost cutoff radius                                   
   RWIGS  =    2.840; RWIGS  =    1.503    wigner-seitz radius (au A)           
   ENMAX  =  223.667; ENMIN  =  167.750 eV                                      
   RCLOC  =    2.205    cutoff for local pot                                    
   LCOR   =        T    correct aug charges                                     
   LPAW   =        T    paw PP                                                  
   EAUG   =  332.075                                                            
   DEXC   =    0.000                                                            
   RMAX   =    2.970    core radius for proj-oper                               
   RAUG   =    1.300    factor for augmentation sphere                          
   RDEP   =    3.060    radius for radial grids                                 
   RDEPT  =    2.354    core radius for aug-charge                              
                                                                                
   Atomic configuration                                                         
   16 entries                                                                   
     n  l   j            E        occ.                                          
     1  0  0.50    -67341.2807   2.0000                                         
     2  0  0.50    -11566.9376   2.0000                                         
     2  1  1.50    -10134.1182   6.0000                                         
     3  0  0.50     -2648.5620   2.0000                                         
     3  1  1.50     -2222.6012   6.0000                                         
     3  2  2.50     -1726.3120  10.0000                                         
     4  0  0.50      -538.6961   2.0000                                         
     4  1  1.50      -399.0129   6.0000                                         
     4  2  2.50      -220.3959  10.0000                                         
     4  3  3.50       -23.0374  14.0000                                         
     5  0  0.50       -71.2901   2.0000                                         
     5  1  1.50       -37.8225   6.0000                                         
     5  2  2.50        -2.6455   4.0000                                         
     6  0  0.50        -4.9623   1.0000                                         
     6  1  1.50        -1.3606   0.0000                                         
     5  3  2.50        -1.3606   0.0000                                         
   Description                                                                  
     l       E           TYP  RCUT    TYP  RCUT                                 
     2     -2.6455043     23  2.500                                             
     2     -0.6258895     23  2.500                                             
     0     -4.9622780     23  2.500                                             
     0      4.7531321     23  2.500                                             
     1     -1.3605826     23  2.900                                             
     1     27.2116520     23  2.900                                             
  local pseudopotential read in
  partial core-charges read in
  partial kinetic energy density read in
  atomic valenz-charges read in
  non local Contribution for L=           2  read in
    real space projection operators read in
  non local Contribution for L=           2  read in
    real space projection operators read in
  non local Contribution for L=           0  read in
    real space projection operators read in
  non local Contribution for L=           0  read in
    real space projection operators read in
  non local Contribution for L=           1  read in
    real space projection operators read in
  non local Contribution for L=           1  read in
    real space projection operators read in
    PAW grid and wavefunctions read in
 
   number of l-projection  operators is LMAX  =           6
   number of lm-projection operators is LMMAX =          18
 
 POTCAR:    PAW_PBE Ti 08Apr2002                  
   VRHFIN =Ti: d3 s1                                                            
   LEXCH  = PE                                                                  
   EATOM  =    94.7928 eV,    6.9671 Ry                                         
                                                                                
   TITEL  = PAW_PBE Ti 08Apr2002                                                
   LULTRA =        F    use ultrasoft PP ?                                      
   IUNSCR =        1    unscreen: 0-lin 1-nonlin 2-no                           
   RPACOR =    2.200    partial core radius                                     
   POMASS =   47.880; ZVAL   =    4.000    mass and valenz                      
   RCORE  =    2.800    outmost cutoff radius                                   
   RWIGS  =    2.500; RWIGS  =    1.323    wigner-seitz radius (au A)           
   ENMAX  =  178.330; ENMIN  =  133.747 eV                                      
   RCLOC  =    2.215    cutoff for local pot                                    
   LCOR   =        T    correct aug charges                                     
   LPAW   =        T    paw PP                                                  
   EAUG   =  328.883                                                            
   DEXC   =    0.000                                                            
   RMAX   =    2.868    core radius for proj-oper                               
   RAUG   =    1.300    factor for augmentation sphere                          
   RDEP   =    2.885    radius for radial grids                                 
   RDEPT  =    2.320    core radius for aug-charge                              
                                                                                
   Atomic configuration                                                         
    9 entries                                                                   
     n  l   j            E        occ.                                          
     1  0  0.50     -4865.3608   2.0000                                         
     2  0  0.50      -533.1367   2.0000                                         
     2  1  1.50      -440.5031   6.0000                                         
     3  0  0.50       -59.3186   2.0000                                         
     3  1  1.50       -35.7012   6.0000                                         
     3  2  2.50        -1.9157   3.0000                                         
     4  0  0.50        -3.7291   1.0000                                         
     4  1  1.50        -4.0817   0.0000                                         
     4  3  2.50        -1.3606   0.0000                                         
   Description                                                                  
     l       E           TYP  RCUT    TYP  RCUT                                 
     2     -1.9156924     23  2.800                                             
     2     -0.4062961     23  2.800                                             
     0     -3.7290832     23  2.800                                             
     0     20.4087390     23  2.800                                             
     1     -5.4423304     23  2.800                                             
  local pseudopotential read in
  partial core-charges read in
  partial kinetic energy density read in
  atomic valenz-charges read in
  non local Contribution for L=           2  read in
    real space projection operators read in
  non local Contribution for L=           2  read in
    real space projection operators read in
  non local Contribution for L=           0  read in
    real space projection operators read in
  non local Contribution for L=           0  read in
    real space projection operators read in
  non local Contribution for L=           1  read in
    real space projection operators read in
    PAW grid and wavefunctions read in
 
   number of l-projection  operators is LMAX  =           5
   number of lm-projection operators is LMMAX =          15
 
 POTCAR:    PAW_PBE V 08Apr2002                   
   VRHFIN =V: p6 d4 s1                                                          
   LEXCH  = PE                                                                  
   EATOM  =   170.8679 eV,   12.5584 Ry                                         
                                                                                
   TITEL  = PAW_PBE V 08Apr2002                                                 
   LULTRA =        F    use ultrasoft PP ?                                      
   IUNSCR =        1    unscreen: 0-lin 1-nonlin 2-no                           
   RPACOR =    2.000    partial core radius                                     
   POMASS =   50.941; ZVAL   =    5.000    mass and valenz                      
   RCORE  =    2.700    outmost cutoff radius                                   
   RWIGS  =    2.500; RWIGS  =    1.323    wigner-seitz radius (au A)           
   ENMAX  =  192.543; ENMIN  =  144.408 eV                                      
   RCLOC  =    1.779    cutoff for local pot                                    
   LCOR   =        T    correct aug charges                                     
   LPAW   =        T    paw PP                                                  
   EAUG   =  358.662                                                            
   DEXC   =    0.000                                                            
   RMAX   =    2.768    core radius for proj-oper                               
   RAUG   =    1.300    factor for augmentation sphere                          
   RDEP   =    2.762    radius for radial grids                                 
   RDEPT  =    2.240    core radius for aug-charge                              
                                                                                
   Atomic configuration                                                         
    9 entries                                                                   
     n  l   j            E        occ.                                          
     1  0  0.50     -5360.7193   2.0000                                         
     2  0  0.50      -598.4546   2.0000                                         
     2  1  1.50      -499.0155   6.0000                                         
     3  0  0.50       -66.5711   2.0000                                         
     3  1  1.50       -40.5282   6.0000                                         
     3  2  2.50        -2.4291   4.0000                                         
     4  0  0.50        -3.8743   1.0000                                         
     4  1  0.50        -2.7212   0.0000                                         
     4  3  2.50        -1.3606   0.0000                                         
   Description                                                                  
     l       E           TYP  RCUT    TYP  RCUT                                 
     2     -2.4290901     23  2.700                                             
     2     -3.7896727     23  2.700                                             
     0     -3.8742752     23  2.700                                             
     0     27.2116520     23  2.700                                             
     1     -2.7211652     23  2.700                                             
     1     27.2116520     23  2.700                                             
  local pseudopotential read in
  partial core-charges read in
  partial kinetic energy density read in
  atomic valenz-charges read in
  non local Contribution for L=           2  read in
    real space projection operators read in
  non local Contribution for L=           2  read in
    real space projection operators read in
  non local Contribution for L=           0  read in
    real space projection operators read in
  non local Contribution for L=           0  read in
    real space projection operators read in
  non local Contribution for L=           1  read in
    real space projection operators read in
  non local Contribution for L=           1  read in
    real space projection operators read in
    PAW grid and wavefunctions read in
 
   number of l-projection  operators is LMAX  =           6
   number of lm-projection operators is LMMAX =          18
 
 Optimization of the real space projectors (new method)

 maximal supplied QI-value         = 15.68
 optimisation between [QCUT,QGAM] = [ 12.55, 25.10] = [ 44.09,176.36] Ry 
 Optimized for a Real-space Cutoff    1.56 Angstroem

   l    n(q)    QCUT    max X(q) W(low)/X(q) W(high)/X(q)  e(spline) 
   0     12    12.548    10.201    0.21E-04    0.36E-05    0.83E-07
   0     12    12.548     8.174    0.31E-04    0.62E-05    0.15E-06
   1     11    12.548     3.488    0.79E-05    0.23E-04    0.21E-06
   1     11    12.548     4.917    0.56E-04    0.13E-03    0.11E-05
   2     11    12.548   153.744    0.25E-03    0.10E-03    0.15E-05
   2     11    12.548   126.342    0.25E-03    0.10E-03    0.15E-05
 Optimization of the real space projectors (new method)

 maximal supplied QI-value         = 13.61
 optimisation between [QCUT,QGAM] = [ 12.52, 25.04] = [ 43.88,175.51] Ry 
 Optimized for a Real-space Cutoff    1.56 Angstroem

   l    n(q)    QCUT    max X(q) W(low)/X(q) W(high)/X(q)  e(spline) 
   2     11    12.518    80.908    0.42E-03    0.30E-03    0.14E-05
   2     11    12.518    79.000    0.42E-03    0.30E-03    0.14E-05
   0     12    12.518    52.066    0.58E-04    0.50E-04    0.55E-06
   0     12    12.518    24.514    0.48E-04    0.41E-04    0.46E-06
   1     11    12.518    16.033    0.62E-04    0.13E-03    0.37E-06
   1     11    12.518    11.179    0.47E-04    0.10E-03    0.31E-06
 Optimization of the real space projectors (new method)

 maximal supplied QI-value         = 12.85
 optimisation between [QCUT,QGAM] = [ 12.46, 25.06] = [ 43.51,175.83] Ry 
 Optimized for a Real-space Cutoff    1.56 Angstroem

   l    n(q)    QCUT    max X(q) W(low)/X(q) W(high)/X(q)  e(spline) 
   2     11    12.465    62.315    0.36E-03    0.20E-03    0.15E-05
   2     11    12.465    52.185    0.36E-03    0.20E-03    0.15E-05
   0     12    12.465   103.837    0.22E-04    0.37E-05    0.56E-06
   0     12    12.465    59.728    0.20E-04    0.34E-05    0.51E-06
   1     11    12.465    13.958    0.44E-03    0.81E-03    0.81E-05
   1     11    12.465     8.441    0.31E-03    0.56E-03    0.56E-05
 Optimization of the real space projectors (new method)

 maximal supplied QI-value         = 13.42
 optimisation between [QCUT,QGAM] = [ 12.48, 25.09] = [ 43.60,176.28] Ry 
 Optimized for a Real-space Cutoff    1.56 Angstroem

   l    n(q)    QCUT    max X(q) W(low)/X(q) W(high)/X(q)  e(spline) 
   2     11    12.478    49.363    0.45E-03    0.34E-03    0.89E-06
   2     11    12.478    47.669    0.44E-03    0.33E-03    0.87E-06
   0     12    12.478    26.374    0.17E-03    0.37E-04    0.21E-05
   0     12    12.478    11.549    0.13E-03    0.31E-04    0.17E-05
   1     11    12.478     9.492    0.91E-05    0.64E-04    0.34E-06
 Optimization of the real space projectors (new method)

 maximal supplied QI-value         = 13.98
 optimisation between [QCUT,QGAM] = [ 12.45, 25.03] = [ 43.38,175.46] Ry 
 Optimized for a Real-space Cutoff    1.56 Angstroem

   l    n(q)    QCUT    max X(q) W(low)/X(q) W(high)/X(q)  e(spline) 
   2     11    12.446    96.114    0.19E-03    0.47E-04    0.85E-06
   2     11    12.446    88.986    0.19E-03    0.46E-04    0.86E-06
   0     12    12.446    20.919    0.37E-04    0.64E-04    0.43E-06
   0     12    12.446     9.593    0.25E-04    0.48E-04    0.33E-06
   1     11    12.446    11.615    0.75E-04    0.30E-04    0.59E-06
   1     11    12.446     7.031    0.53E-04    0.23E-04    0.40E-06

 ----------------------------------------------------------------------------- 
|                                                                             |
|  ADVICE TO THIS USER RUNNING 'VASP/VAMP'   (HEAR YOUR MASTER'S VOICE ...):  |
|                                                                             |
|      You enforced a specific xc-type in the INCAR file,                     |
|      a different type was found on the POTCAR file                          |
|          I HOPE YOU KNOW, WHAT YOU ARE  DOING                               |
|                                                                             |
 ----------------------------------------------------------------------------- 

  PAW_PBE Nb_sv 25May2007               :
 energy of atom  1       EATOM=-1555.1913
 kinetic energy error for atom=    0.0037 (will be added to EATOM!!)
  PAW_PBE Mo 08Apr2002                  :
 energy of atom  2       EATOM= -217.5176
 kinetic energy error for atom=    0.0005 (will be added to EATOM!!)
  PAW_PBE Ta 17Jan2003                  :
 energy of atom  3       EATOM= -130.6506
 kinetic energy error for atom=    0.0004 (will be added to EATOM!!)
  PAW_PBE Ti 08Apr2002                  :
 energy of atom  4       EATOM=  -94.7928
 kinetic energy error for atom=    0.0001 (will be added to EATOM!!)
  PAW_PBE V 08Apr2002                   :
 energy of atom  5       EATOM= -170.8679
 kinetic energy error for atom=    0.0002 (will be added to EATOM!!)
 
 
 POSCAR: Nb - Mo - Ta - Ti - V SQS-30 BCC        
  positions in direct lattice
  No initial velocities read in
 exchange correlation table for  LEXCH =       14
   RHO(1)=    0.500       N(1)  =     2000
   RHO(2)=  100.500       N(2)  =     4000

 VTST: version 3.2, (02/03/18)

 CHAIN: initializing optimizer
 
 OPT: Using VASP Conjugate-Gradient optimizer
 CHAIN: Read ICHAIN            0
 
 POSCAR: Nb - Mo - Ta - Ti - V SQS-30 BCC        
  positions in direct lattice
  No initial velocities read in
 


--------------------------------------------------------------------------------------------------------


 ion  position               nearest neighbor table
   1  0.967  0.933  0.400-  18 2.81   7 2.81  24 2.81  20 2.81  20 2.81  19 2.81   6 2.81   2 2.81
                            16 3.25   8 3.25  15 3.25  11 3.25  12 3.25
   2  0.633  0.267  0.400-  18 2.81  26 2.81   9 2.81  12 2.81  12 2.81  28 2.81  15 2.81   1 2.81
                             8 3.25
   3  0.500  0.000  0.000-  13 2.81  21 2.81  17 2.81  15 2.81   4 2.81   4 2.81  27 2.81  16 2.81
                            10 3.25  14 3.25   7 3.25
   4  0.000  0.000  0.000-  10 2.81  29 2.81  24 2.81  14 2.81   3 2.81   3 2.81   7 2.81   5 2.81
                            15 3.25  13 3.25  17 3.25  16 3.25
   5  0.100  0.200  0.800-  25 2.81  17 2.81   6 2.81  21 2.81  23 2.81  27 2.81  27 2.81   4 2.81
                            10 3.25  14 3.25
   6  0.033  0.067  0.600-  26 2.81   5 2.81  14 2.81  28 2.81  28 2.81  12 2.81   1 2.81  11 2.81
                            17 3.25
   7  0.900  0.800  0.200-  30 2.81  15 2.81   1 2.81  13 2.81   8 2.81  16 2.81  16 2.81   4 2.81
                             9 3.25  20 3.25  24 3.25  29 3.25  18 3.25   3 3.25
   8  0.800  0.600  0.400-  20 2.81  12 2.81   9 2.81  19 2.81   7 2.81  18 2.81  18 2.81  26 2.81
                            30 3.25   1 3.25  11 3.25   2 3.25  16 3.25  23 3.25
   9  0.733  0.467  0.200-  16 2.81   8 2.81   2 2.81  30 2.81  30 2.81  13 2.81  10 2.81  24 2.81
                             7 3.25  18 3.25  12 3.25  29 3.25  15 3.25  21 3.25
  10  0.667  0.333  0.000-   4 2.81  27 2.81  21 2.81  21 2.81  25 2.81  15 2.81   9 2.81  29 2.81
                             3 3.25   5 3.25  22 3.25  24 3.25  13 3.25  30 3.25
  11  0.367  0.733  0.600-  26 2.81  18 2.81  22 2.81  19 2.81  19 2.81  20 2.81  17 2.81   6 2.81
                             8 3.25  23 3.25  25 3.25   1 3.25  28 3.25  14 3.25
  12  0.133  0.267  0.400-   8 2.81  23 2.81  30 2.81   2 2.81   2 2.81   6 2.81  24 2.81  20 2.81
                            18 3.25  26 3.25   9 3.25  28 3.25  15 3.25   1 3.25
  13  0.833  0.667  0.000-   3 2.81   7 2.81  29 2.81  29 2.81   9 2.81  14 2.81  25 2.81  21 2.81
                             4 3.25  16 3.25  30 3.25  17 3.25  10 3.25  22 3.25
  14  0.933  0.867  0.800-  27 2.81   4 2.81   6 2.81  17 2.81  13 2.81  17 2.81  19 2.81  22 2.81
                             3 3.25   5 3.25  28 3.25  29 3.25  11 3.25  25 3.25
  15  0.567  0.133  0.200-   7 2.81   3 2.81  24 2.81  20 2.81  10 2.81  24 2.81   2 2.81  30 2.81
                             4 3.25  16 3.25   1 3.25  21 3.25  12 3.25   9 3.25
  16  0.400  0.800  0.200-   9 2.81  24 2.81  20 2.81  29 2.81  18 2.81   7 2.81   7 2.81   3 2.81
                            30 3.25   1 3.25  13 3.25  15 3.25   8 3.25   4 3.25
  17  0.433  0.867  0.800-   5 2.81   3 2.81  28 2.81  14 2.81  29 2.81  14 2.81  11 2.81  25 2.81
                            27 3.25   4 3.25   6 3.25  13 3.25  19 3.25  22 3.25
  18  0.300  0.600  0.400-   1 2.81   2 2.81  30 2.81  11 2.81  16 2.81   8 2.81   8 2.81  23 2.81
                            20 3.25   9 3.25  12 3.25  19 3.25   7 3.25  26 3.25
  19  0.867  0.733  0.600-  23 2.81   8 2.81  25 2.81  11 2.81  11 2.81   1 2.81  14 2.81  28 2.81
                            18 3.25  17 3.25
  20  0.467  0.933  0.400-   8 2.81  16 2.81  15 2.81   1 2.81   1 2.81  11 2.81  28 2.81  12 2.81
                             7 3.25  18 3.25
  21  0.167  0.333  0.000-   3 2.81   5 2.81  10 2.81  10 2.81  22 2.81  24 2.81  30 2.81  13 2.81
                            15 3.25   9 3.25
  22  0.267  0.533  0.800-  27 2.81  23 2.81  11 2.81  25 2.81  25 2.81  21 2.81  29 2.81  14 2.81
                            10 3.25  13 3.25  17 3.25
  23  0.200  0.400  0.600-  28 2.81  19 2.81  22 2.81  12 2.81   5 2.81  26 2.81  26 2.81  18 2.81
                            11 3.25   8 3.25
  24  0.067  0.133  0.200-  16 2.81   4 2.81  15 2.81   1 2.81  15 2.81  21 2.81  12 2.81   9 2.81
                             7 3.25  10 3.25
  25  0.767  0.533  0.800-   5 2.81  26 2.81  19 2.81  22 2.81  22 2.81  10 2.81  13 2.81  17 2.81
                            11 3.25  14 3.25
  26  0.700  0.400  0.600-   6 2.81  11 2.81  25 2.81   2 2.81  27 2.81  23 2.81  23 2.81   8 2.81
                            12 3.25  18 3.25
  27  0.600  0.200  0.800-  22 2.81  14 2.81  28 2.81  10 2.81  26 2.81   5 2.81   5 2.81   3 2.81
                            17 3.25
  28  0.533  0.067  0.600-  23 2.81  27 2.81  17 2.81   6 2.81   6 2.81   2 2.81  20 2.81  19 2.81
                            14 3.25  12 3.25  11 3.25
  29  0.333  0.667  0.000-   4 2.81  16 2.81  13 2.81  13 2.81  30 2.81  17 2.81  22 2.81  10 2.81
                             7 3.25   9 3.25  14 3.25
  30  0.233  0.467  0.200-   7 2.81  18 2.81  12 2.81   9 2.81   9 2.81  29 2.81  21 2.81  15 2.81
                            16 3.25   8 3.25  13 3.25  10 3.25
 
  LATTYP: Found a triclinic cell.
 ALAT       =     5.6291651246
 B/A-ratio  =     2.8722813233
 C/A-ratio  =     2.0615528128
 COS(alpha) =     0.0140733444
 COS(beta)  =     0.0808452083
 COS(gamma) =     0.8703882798
  
  Lattice vectors:
  
 A1 = (   3.2500000000,   3.2500000000,   3.2500000000)
 A2 = (  11.3750000000,  11.3750000000,   1.6250000000)
 A3 = (  -8.1250000000,   8.1250000000,   1.6250000000)


Analysis of symmetry for initial positions (statically):
=====================================================================
 Subroutine PRICEL returns:
 Original cell was already a primitive cell.
 

 Routine SETGRP: Setting up the symmetry group for a 
 triclinic supercell.


 Subroutine GETGRP returns: Found  1 space group operations
 (whereof  1 operations were pure point group operations)
 out of a pool of  2 trial point group operations.


The static configuration has the point symmetry C_1 .


Analysis of symmetry for dynamics (positions and initial velocities):
=====================================================================
 Subroutine PRICEL returns:
 Original cell was already a primitive cell.
 

 Routine SETGRP: Setting up the symmetry group for a 
 triclinic supercell.


 Subroutine GETGRP returns: Found  1 space group operations
 (whereof  1 operations were pure point group operations)
 out of a pool of  2 trial point group operations.


The dynamic configuration has the point symmetry C_1 .


 Subroutine INISYM returns: Found  1 space group operations
 (whereof  1 operations are pure point group operations),
 and found     1 'primitive' translations

 
 
 KPOINTS: k-points                                

Automatic generation of k-mesh.
Space group operators:
 irot       det(A)        alpha          n_x          n_y          n_z        tau_x        tau_y        tau_z
    1     1.000000     0.000000     1.000000     0.000000     0.000000     0.000000     0.000000     0.000000
 
 Subroutine IBZKPT returns following result:
 ===========================================
 
 Found     63 irreducible k-points:
 
 Following reciprocal coordinates:
            Coordinates               Weight
  0.000000  0.000000  0.000000      1.000000
  0.200000 -0.000000  0.000000      2.000000
  0.400000 -0.000000  0.000000      2.000000
  0.000000  0.200000 -0.000000      2.000000
  0.200000  0.200000 -0.000000      2.000000
  0.400000  0.200000  0.000000      2.000000
 -0.400000  0.200000  0.000000      2.000000
 -0.200000  0.200000  0.000000      2.000000
  0.000000  0.400000 -0.000000      2.000000
  0.200000  0.400000 -0.000000      2.000000
  0.400000  0.400000 -0.000000      2.000000
 -0.400000  0.400000  0.000000      2.000000
 -0.200000  0.400000 -0.000000      2.000000
  0.000000  0.000000  0.200000      2.000000
  0.200000 -0.000000  0.200000      2.000000
  0.400000 -0.000000  0.200000      2.000000
 -0.400000  0.000000  0.200000      2.000000
 -0.200000  0.000000  0.200000      2.000000
 -0.000000  0.200000  0.200000      2.000000
  0.200000  0.200000  0.200000      2.000000
  0.400000  0.200000  0.200000      2.000000
 -0.400000  0.200000  0.200000      2.000000
 -0.200000  0.200000  0.200000      2.000000
 -0.000000  0.400000  0.200000      2.000000
  0.200000  0.400000  0.200000      2.000000
  0.400000  0.400000  0.200000      2.000000
 -0.400000  0.400000  0.200000      2.000000
 -0.200000  0.400000  0.200000      2.000000
  0.000000 -0.400000  0.200000      2.000000
  0.200000 -0.400000  0.200000      2.000000
  0.400000 -0.400000  0.200000      2.000000
 -0.400000 -0.400000  0.200000      2.000000
 -0.200000 -0.400000  0.200000      2.000000
  0.000000 -0.200000  0.200000      2.000000
  0.200000 -0.200000  0.200000      2.000000
  0.400000 -0.200000  0.200000      2.000000
 -0.400000 -0.200000  0.200000      2.000000
 -0.200000 -0.200000  0.200000      2.000000
  0.000000  0.000000  0.400000      2.000000
  0.200000 -0.000000  0.400000      2.000000
  0.400000 -0.000000  0.400000      2.000000
 -0.400000  0.000000  0.400000      2.000000
 -0.200000  0.000000  0.400000      2.000000
  0.000000  0.200000  0.400000      2.000000
  0.200000  0.200000  0.400000      2.000000
  0.400000  0.200000  0.400000      2.000000
 -0.400000  0.200000  0.400000      2.000000
 -0.200000  0.200000  0.400000      2.000000
 -0.000000  0.400000  0.400000      2.000000
  0.200000  0.400000  0.400000      2.000000
  0.400000  0.400000  0.400000      2.000000
 -0.400000  0.400000  0.400000      2.000000
 -0.200000  0.400000  0.400000      2.000000
  0.000000 -0.400000  0.400000      2.000000
  0.200000 -0.400000  0.400000      2.000000
  0.400000 -0.400000  0.400000      2.000000
 -0.400000 -0.400000  0.400000      2.000000
 -0.200000 -0.400000  0.400000      2.000000
  0.000000 -0.200000  0.400000      2.000000
  0.200000 -0.200000  0.400000      2.000000
  0.400000 -0.200000  0.400000      2.000000
 -0.400000 -0.200000  0.400000      2.000000
 -0.200000 -0.200000  0.400000      2.000000
 
 Following cartesian coordinates:
            Coordinates               Weight
  0.000000  0.000000  0.000000      1.000000
 -0.086667 -0.080000 -0.033333      2.000000
 -0.173333 -0.160000 -0.066667      2.000000
  0.026667  0.040000 -0.066667      2.000000
 -0.060000 -0.040000 -0.100000      2.000000
 -0.146667 -0.120000 -0.133333      2.000000
  0.200000  0.200000  0.000000      2.000000
  0.113333  0.120000 -0.033333      2.000000
  0.053333  0.080000 -0.133333      2.000000
 -0.033333 -0.000000 -0.166667      2.000000
 -0.120000 -0.080000 -0.200000      2.000000
  0.226667  0.240000 -0.066667      2.000000
  0.140000  0.160000 -0.100000      2.000000
  0.040000 -0.040000  0.000000      2.000000
 -0.046667 -0.120000 -0.033333      2.000000
 -0.133333 -0.200000 -0.066667      2.000000
  0.213333  0.120000  0.066667      2.000000
  0.126667  0.040000  0.033333      2.000000
  0.066667  0.000000 -0.066667      2.000000
 -0.020000 -0.080000 -0.100000      2.000000
 -0.106667 -0.160000 -0.133333      2.000000
  0.240000  0.160000  0.000000      2.000000
  0.153333  0.080000 -0.033333      2.000000
  0.093333  0.040000 -0.133333      2.000000
  0.006667 -0.040000 -0.166667      2.000000
 -0.080000 -0.120000 -0.200000      2.000000
  0.266667  0.200000 -0.066667      2.000000
  0.180000  0.120000 -0.100000      2.000000
 -0.013333 -0.120000  0.133333      2.000000
 -0.100000 -0.200000  0.100000      2.000000
 -0.186667 -0.280000  0.066667      2.000000
  0.160000  0.040000  0.200000      2.000000
  0.073333 -0.040000  0.166667      2.000000
  0.013333 -0.080000  0.066667      2.000000
 -0.073333 -0.160000  0.033333      2.000000
 -0.160000 -0.240000  0.000000      2.000000
  0.186667  0.080000  0.133333      2.000000
  0.100000 -0.000000  0.100000      2.000000
  0.080000 -0.080000  0.000000      2.000000
 -0.006667 -0.160000 -0.033333      2.000000
 -0.093333 -0.240000 -0.066667      2.000000
  0.253333  0.080000  0.066667      2.000000
  0.166667  0.000000  0.033333      2.000000
  0.106667 -0.040000 -0.066667      2.000000
  0.020000 -0.120000 -0.100000      2.000000
 -0.066667 -0.200000 -0.133333      2.000000
  0.280000  0.120000  0.000000      2.000000
  0.193333  0.040000 -0.033333      2.000000
  0.133333  0.000000 -0.133333      2.000000
  0.046667 -0.080000 -0.166667      2.000000
 -0.040000 -0.160000 -0.200000      2.000000
  0.306667  0.160000 -0.066667      2.000000
  0.220000  0.080000 -0.100000      2.000000
  0.026667 -0.160000  0.133333      2.000000
 -0.060000 -0.240000  0.100000      2.000000
 -0.146667 -0.320000  0.066667      2.000000
  0.200000 -0.000000  0.200000      2.000000
  0.113333 -0.080000  0.166667      2.000000
  0.053333 -0.120000  0.066667      2.000000
 -0.033333 -0.200000  0.033333      2.000000
 -0.120000 -0.280000  0.000000      2.000000
  0.226667  0.040000  0.133333      2.000000
  0.140000 -0.040000  0.100000      2.000000
 


--------------------------------------------------------------------------------------------------------




 Dimension of arrays:
   k-points           NKPTS =     63   k-points in BZ     NKDIM =     63   number of bands    NBANDS=    120
   number of dos      NEDOS =    301   number of ions     NIONS =     30
   non local maximal  LDIM  =      6   non local SUM 2l+1 LMDIM =     18
   total plane-waves  NPLWV = 136080
   max r-space proj   IRMAX =   4255   max aug-charges    IRDMAX=  18449
   dimension x,y,z NGX =    36 NGY =   54 NGZ =   70
   dimension x,y,z NGXF=    72 NGYF=  108 NGZF=  140
   support grid    NGXF=    72 NGYF=  108 NGZF=  140
   ions per type =               6   6   6   6   6
   NGX,Y,Z   is equivalent  to a cutoff of  10.63, 10.63, 10.03 a.u.
   NGXF,Y,Z  is equivalent  to a cutoff of  21.26, 21.26, 20.06 a.u.

 SYSTEM =  Nb - Mo - Ta - Ti - V SQS               
 POSCAR =  Nb - Mo - Ta - Ti - V SQS-30 BCC        

 Startparameter for this run:
   NWRITE =      2    write-flag & timer
   PREC   = normal    normal or accurate (medium, high low for compatibility)
   ISTART =      1    job   : 0-new  1-cont  2-samecut
   ICHARG =      1    charge: 1-file 2-atom 10-const
   ISPIN  =      1    spin polarized calculation?
   LNONCOLLINEAR =      F non collinear calculations
   LSORBIT =      F    spin-orbit coupling
   INIWAV =      1    electr: 0-lowe 1-rand  2-diag
   LASPH  =      F    aspherical Exc in radial PAW
   METAGGA=      F    non-selfconsistent MetaGGA calc.

 Electronic Relaxation 1
   ENCUT  =  600.0 eV  44.10 Ry    6.64 a.u.  11.24 16.86 23.18*2*pi/ulx,y,z
   ENINI  =  600.0     initial cutoff
   ENAUG  =  455.7 eV  augmentation charge cutoff
   NELM   =    100;   NELMIN=  2; NELMDL=  0     # of ELM steps 
   EDIFF  = 0.1E-03   stopping-criterion for ELM
   LREAL  =      T    real-space projection
   NLSPLINE    = F    spline interpolate recip. space projectors
   LCOMPAT=      F    compatible to vasp.4.4
   GGA_COMPAT  = T    GGA compatible to vasp.4.4-vasp.4.6
   LMAXPAW     = -100 max onsite density
   LMAXMIX     =    2 max onsite mixed and CHGCAR
   VOSKOWN=      0    Vosko Wilk Nusair interpolation
   ROPT   =   -0.00050  -0.00050  -0.00050  -0.00050
   ROPT   =   -0.00050
 Ionic relaxation
   EDIFFG = 0.1E-02   stopping-criterion for IOM
   NSW    =      0    number of steps for IOM
   NBLOCK =      1;   KBLOCK =      1    inner block; outer block 
   IBRION =     -1    ionic relax: 0-MD 1-quasi-New 2-CG
   NFREE  =      1    steps in history (QN), initial steepest desc. (CG)
   ISIF   =      2    stress and relaxation
   IWAVPR =     10    prediction:  0-non 1-charg 2-wave 3-comb
   ISYM   =      2    0-nonsym 1-usesym 2-fastsym
   LCORR  =      T    Harris-Foulkes like correction to forces

   POTIM  = 0.5000    time-step for ionic-motion
   TEIN   =    0.0    initial temperature
   TEBEG  =    0.0;   TEEND  =   0.0 temperature during run
   SMASS  =  -3.00    Nose mass-parameter (am)
   estimated Nose-frequenzy (Omega)   =  0.10E-29 period in steps =****** mass=  -0.724E-27a.u.
   SCALEE = 1.0000    scale energy and forces
   NPACO  =    256;   APACO  = 16.0  distance and # of slots for P.C.
   PSTRESS=    0.0 pullay stress

  Mass of Ions in am
   POMASS =  92.91 95.94180.95 47.88 50.94
  Ionic Valenz
   ZVAL   =  13.00  6.00  5.00  4.00  5.00
  Atomic Wigner-Seitz radii
   RWIGS  =  -1.00 -1.00 -1.00 -1.00 -1.00
  virtual crystal weights 
   VCA    =   1.00  1.00  1.00  1.00  1.00
   NELECT =     198.0000    total number of electrons
   NUPDOWN=      -1.0000    fix difference up-down

 DOS related values:
   EMIN   =  10.00;   EMAX   =-10.00  energy-range for DOS
   EFERMI =   0.00
   ISMEAR =     1;   SIGMA  =   0.20  broadening in eV -4-tet -1-fermi 0-gaus

 Electronic relaxation 2 (details)
   IALGO  =     38    algorithm
   LDIAG  =      T    sub-space diagonalisation (order eigenvalues)
   LSUBROT=      F    optimize rotation matrix (better conditioning)
   TURBO    =      0    0=normal 1=particle mesh
   IRESTART =      0    0=no restart 2=restart with 2 vectors
   NREBOOT  =      0    no. of reboots
   NMIN     =      0    reboot dimension
   EREF     =   0.00    reference energy to select bands
   IMIX   =      4    mixing-type and parameters
     AMIX     =   0.40;   BMIX     =  1.00
     AMIX_MAG =   1.60;   BMIX_MAG =  1.00
     AMIN     =   0.10
     WC   =   100.;   INIMIX=   1;  MIXPRE=   1;  MAXMIX= -45

 Intra band minimization:
   WEIMIN = 0.0000     energy-eigenvalue tresh-hold
   EBREAK =  0.21E-06  absolut break condition
   DEPER  =   0.30     relativ break condition  

   TIME   =   0.40     timestep for ELM

  volume/ion in A,a.u.               =      17.16       115.83
  Fermi-wavevector in a.u.,A,eV,Ry     =   1.190464  2.249650 19.282225  1.417204
  Thomas-Fermi vector in A             =   2.326548
 
 Write flags
   LWAVE        =      T    write WAVECAR
   LDOWNSAMPLE  =      F    k-point downsampling of WAVECAR
   LCHARG       =      T    write CHGCAR
   LVTOT        =      F    write LOCPOT, total local potential
   LVHAR        =      F    write LOCPOT, Hartree potential only
   LELF         =      F    write electronic localiz. function (ELF)
   LORBIT       =      0    0 simple, 1 ext, 2 COOP (PROOUT), +10 PAW based schemes


 Dipole corrections
   LMONO  =      F    monopole corrections only (constant potential shift)
   LDIPOL =      F    correct potential (dipole corrections)
   IDIPOL =      0    1-x, 2-y, 3-z, 4-all directions 
   EPSILON=  1.0000000 bulk dielectric constant

 Exchange correlation treatment:
   GGA     =    PS    GGA type
   LEXCH   =    14    internal setting for exchange type
   VOSKOWN=      0    Vosko Wilk Nusair interpolation
   LHFCALC =     F    Hartree Fock is set to
   LHFONE  =     F    Hartree Fock one center treatment
   AEXX    =    0.0000 exact exchange contribution

 Linear response parameters
   LEPSILON=     F    determine dielectric tensor
   LRPA    =     F    only Hartree local field effects (RPA)
   LNABLA  =     F    use nabla operator in PAW spheres
   LVEL    =     F    velocity operator in full k-point grid
   LINTERFAST=   F  fast interpolation
   KINTER  =     0    interpolate to denser k-point grid
   CSHIFT  =0.1000    complex shift for real part using Kramers Kronig
   OMEGAMAX=  -1.0    maximum frequency
   DEG_THRESHOLD= 0.2000000E-02 threshold for treating states as degnerate
   RTIME   =   -0.100 relaxation time in fs
  (WPLASMAI=    0.000 imaginary part of plasma frequency in eV, 0.658/RTIME)
   DFIELD  = 0.0000000 0.0000000 0.0000000 field for delta impulse in time
 
 Orbital magnetization related:
   ORBITALMAG=     F  switch on orbital magnetization
   LCHIMAG   =     F  perturbation theory with respect to B field
   DQ        =  0.001000  dq finite difference perturbation B field
   LLRAUG    =     F  two centre corrections for induced B field



--------------------------------------------------------------------------------------------------------


 Static calculation
 charge density and potential will be updated during run
 non-spin polarized calculation
 Variant of blocked Davidson
 Davidson routine will perform the subspace rotation
 perform sub-space diagonalisation
    after iterative eigenvector-optimisation
 modified Broyden-mixing scheme, WC =      100.0
 initial mixing is a Kerker type mixing with AMIX =  0.4000 and BMIX =      1.0000
 Hartree-type preconditioning will be used
 using additional bands           21
 real space projection scheme for non local part
 use partial core corrections
 calculate Harris-corrections to forces 
   (improved forces if not selfconsistent)
 use gradient corrections 
 use of overlap-Matrix (Vanderbilt PP)
 Methfessel and Paxton  Order N= 1 SIGMA  =   0.20


--------------------------------------------------------------------------------------------------------


  energy-cutoff  :      600.00
  volume of cell :      514.92
      direct lattice vectors                 reciprocal lattice vectors
    -3.250000000 -3.250000000 -3.250000000    -0.133333333 -0.123076923 -0.051282051
     1.625000000  1.625000000 -8.125000000     0.041025641  0.061538462 -0.102564103
     8.125000000 -8.125000000 -1.625000000     0.061538462 -0.061538462  0.000000000

  length of vectors
     5.629165125  8.443747687 11.604821196     0.188561808  0.126449518  0.087028527


 
 old parameters found on file WAVECAR:
  energy-cutoff  :      600.00
  volume of cell :      514.92
      direct lattice vectors                 reciprocal lattice vectors
    -3.250000000 -3.250000000 -3.250000000    -0.133333333 -0.123076923 -0.051282051
     1.625000000  1.625000000 -8.125000000     0.041025641  0.061538462 -0.102564103
     8.125000000 -8.125000000 -1.625000000     0.061538462 -0.061538462  0.000000000

  length of vectors

 
 k-points in units of 2pi/SCALE and weight: k-points                                
   0.00000000  0.00000000  0.00000000       0.008
  -0.08666667 -0.08000000 -0.03333333       0.016
  -0.17333333 -0.16000000 -0.06666667       0.016
   0.02666667  0.04000000 -0.06666667       0.016
  -0.06000000 -0.04000000 -0.10000000       0.016
  -0.14666667 -0.12000000 -0.13333333       0.016
   0.20000000  0.20000000  0.00000000       0.016
   0.11333333  0.12000000 -0.03333333       0.016
   0.05333333  0.08000000 -0.13333333       0.016
  -0.03333333 -0.00000000 -0.16666667       0.016
  -0.12000000 -0.08000000 -0.20000000       0.016
   0.22666667  0.24000000 -0.06666667       0.016
   0.14000000  0.16000000 -0.10000000       0.016
   0.04000000 -0.04000000  0.00000000       0.016
  -0.04666667 -0.12000000 -0.03333333       0.016
  -0.13333333 -0.20000000 -0.06666667       0.016
   0.21333333  0.12000000  0.06666667       0.016
   0.12666667  0.04000000  0.03333333       0.016
   0.06666667  0.00000000 -0.06666667       0.016
  -0.02000000 -0.08000000 -0.10000000       0.016
  -0.10666667 -0.16000000 -0.13333333       0.016
   0.24000000  0.16000000  0.00000000       0.016
   0.15333333  0.08000000 -0.03333333       0.016
   0.09333333  0.04000000 -0.13333333       0.016
   0.00666667 -0.04000000 -0.16666667       0.016
  -0.08000000 -0.12000000 -0.20000000       0.016
   0.26666667  0.20000000 -0.06666667       0.016
   0.18000000  0.12000000 -0.10000000       0.016
  -0.01333333 -0.12000000  0.13333333       0.016
  -0.10000000 -0.20000000  0.10000000       0.016
  -0.18666667 -0.28000000  0.06666667       0.016
   0.16000000  0.04000000  0.20000000       0.016
   0.07333333 -0.04000000  0.16666667       0.016
   0.01333333 -0.08000000  0.06666667       0.016
  -0.07333333 -0.16000000  0.03333333       0.016
  -0.16000000 -0.24000000  0.00000000       0.016
   0.18666667  0.08000000  0.13333333       0.016
   0.10000000 -0.00000000  0.10000000       0.016
   0.08000000 -0.08000000  0.00000000       0.016
  -0.00666667 -0.16000000 -0.03333333       0.016
  -0.09333333 -0.24000000 -0.06666667       0.016
   0.25333333  0.08000000  0.06666667       0.016
   0.16666667  0.00000000  0.03333333       0.016
   0.10666667 -0.04000000 -0.06666667       0.016
   0.02000000 -0.12000000 -0.10000000       0.016
  -0.06666667 -0.20000000 -0.13333333       0.016
   0.28000000  0.12000000  0.00000000       0.016
   0.19333333  0.04000000 -0.03333333       0.016
   0.13333333  0.00000000 -0.13333333       0.016
   0.04666667 -0.08000000 -0.16666667       0.016
  -0.04000000 -0.16000000 -0.20000000       0.016
   0.30666667  0.16000000 -0.06666667       0.016
   0.22000000  0.08000000 -0.10000000       0.016
   0.02666667 -0.16000000  0.13333333       0.016
  -0.06000000 -0.24000000  0.10000000       0.016
  -0.14666667 -0.32000000  0.06666667       0.016
   0.20000000 -0.00000000  0.20000000       0.016
   0.11333333 -0.08000000  0.16666667       0.016
   0.05333333 -0.12000000  0.06666667       0.016
  -0.03333333 -0.20000000  0.03333333       0.016
  -0.12000000 -0.28000000  0.00000000       0.016
   0.22666667  0.04000000  0.13333333       0.016
   0.14000000 -0.04000000  0.10000000       0.016
 
 k-points in reciprocal lattice and weights: k-points                                
   0.00000000  0.00000000  0.00000000       0.008
   0.20000000 -0.00000000  0.00000000       0.016
   0.40000000 -0.00000000  0.00000000       0.016
   0.00000000  0.20000000 -0.00000000       0.016
   0.20000000  0.20000000 -0.00000000       0.016
   0.40000000  0.20000000  0.00000000       0.016
  -0.40000000  0.20000000  0.00000000       0.016
  -0.20000000  0.20000000  0.00000000       0.016
   0.00000000  0.40000000 -0.00000000       0.016
   0.20000000  0.40000000 -0.00000000       0.016
   0.40000000  0.40000000 -0.00000000       0.016
  -0.40000000  0.40000000  0.00000000       0.016
  -0.20000000  0.40000000 -0.00000000       0.016
   0.00000000  0.00000000  0.20000000       0.016
   0.20000000 -0.00000000  0.20000000       0.016
   0.40000000 -0.00000000  0.20000000       0.016
  -0.40000000  0.00000000  0.20000000       0.016
  -0.20000000  0.00000000  0.20000000       0.016
  -0.00000000  0.20000000  0.20000000       0.016
   0.20000000  0.20000000  0.20000000       0.016
   0.40000000  0.20000000  0.20000000       0.016
  -0.40000000  0.20000000  0.20000000       0.016
  -0.20000000  0.20000000  0.20000000       0.016
  -0.00000000  0.40000000  0.20000000       0.016
   0.20000000  0.40000000  0.20000000       0.016
   0.40000000  0.40000000  0.20000000       0.016
  -0.40000000  0.40000000  0.20000000       0.016
  -0.20000000  0.40000000  0.20000000       0.016
   0.00000000 -0.40000000  0.20000000       0.016
   0.20000000 -0.40000000  0.20000000       0.016
   0.40000000 -0.40000000  0.20000000       0.016
  -0.40000000 -0.40000000  0.20000000       0.016
  -0.20000000 -0.40000000  0.20000000       0.016
   0.00000000 -0.20000000  0.20000000       0.016
   0.20000000 -0.20000000  0.20000000       0.016
   0.40000000 -0.20000000  0.20000000       0.016
  -0.40000000 -0.20000000  0.20000000       0.016
  -0.20000000 -0.20000000  0.20000000       0.016
   0.00000000  0.00000000  0.40000000       0.016
   0.20000000 -0.00000000  0.40000000       0.016
   0.40000000 -0.00000000  0.40000000       0.016
  -0.40000000  0.00000000  0.40000000       0.016
  -0.20000000  0.00000000  0.40000000       0.016
   0.00000000  0.20000000  0.40000000       0.016
   0.20000000  0.20000000  0.40000000       0.016
   0.40000000  0.20000000  0.40000000       0.016
  -0.40000000  0.20000000  0.40000000       0.016
  -0.20000000  0.20000000  0.40000000       0.016
  -0.00000000  0.40000000  0.40000000       0.016
   0.20000000  0.40000000  0.40000000       0.016
   0.40000000  0.40000000  0.40000000       0.016
  -0.40000000  0.40000000  0.40000000       0.016
  -0.20000000  0.40000000  0.40000000       0.016
   0.00000000 -0.40000000  0.40000000       0.016
   0.20000000 -0.40000000  0.40000000       0.016
   0.40000000 -0.40000000  0.40000000       0.016
  -0.40000000 -0.40000000  0.40000000       0.016
  -0.20000000 -0.40000000  0.40000000       0.016
   0.00000000 -0.20000000  0.40000000       0.016
   0.20000000 -0.20000000  0.40000000       0.016
   0.40000000 -0.20000000  0.40000000       0.016
  -0.40000000 -0.20000000  0.40000000       0.016
  -0.20000000 -0.20000000  0.40000000       0.016
 
 position of ions in fractional coordinates (direct lattice) 
   0.96666667  0.93333333  0.40000000
   0.63333333  0.26666667  0.40000000
   0.50000000  0.00000000  0.00000000
   0.00000000  0.00000000  0.00000000
   0.10000000  0.20000000  0.80000000
   0.03333333  0.06666667  0.60000000
   0.90000000  0.80000000  0.20000000
   0.80000000  0.60000000  0.40000000
   0.73333333  0.46666667  0.20000000
   0.66666667  0.33333333  0.00000000
   0.36666667  0.73333333  0.60000000
   0.13333333  0.26666667  0.40000000
   0.83333333  0.66666667  0.00000000
   0.93333333  0.86666667  0.80000000
   0.56666667  0.13333333  0.20000000
   0.40000000  0.80000000  0.20000000
   0.43333333  0.86666667  0.80000000
   0.30000000  0.60000000  0.40000000
   0.86666667  0.73333333  0.60000000
   0.46666667  0.93333333  0.40000000
   0.16666667  0.33333333  0.00000000
   0.26666667  0.53333333  0.80000000
   0.20000000  0.40000000  0.60000000
   0.06666667  0.13333333  0.20000000
   0.76666667  0.53333333  0.80000000
   0.70000000  0.40000000  0.60000000
   0.60000000  0.20000000  0.80000000
   0.53333333  0.06666667  0.60000000
   0.33333333  0.66666667  0.00000000
   0.23333333  0.46666667  0.20000000
 
 position of ions in cartesian coordinates  (Angst):
   1.62499998 -4.87500002-11.37499998
   1.62500002 -4.87499998 -4.87500002
  -1.62500000 -1.62500000 -1.62500000
   0.00000000  0.00000000  0.00000000
   6.50000000 -6.50000000 -3.25000000
   4.87500002 -4.87499998 -1.62500002
   0.00000000 -3.25000000 -9.75000000
   1.62500000 -4.87500000 -8.12500000
   0.00000002 -3.24999998 -6.50000002
  -1.62500002 -1.62500002 -4.87499998
   4.87499998 -4.87500002 -8.12499998
   3.25000002 -3.24999998 -3.25000002
  -1.62499998 -1.62499998 -8.12500002
   4.87500002 -8.12499998-11.37500002
  -0.00000002 -3.25000002 -3.24999998
   1.62500000 -1.62500000 -8.12500000
   6.50000002 -6.49999998 -9.75000002
   3.25000000 -3.25000000 -6.50000000
   3.24999998 -6.50000002 -9.74999998
   3.24999998 -3.25000002 -9.74999998
  -0.00000002 -0.00000002 -3.24999998
   6.49999998 -6.50000002 -6.49999998
   4.87500000 -4.87500000 -4.87500000
   1.62499998 -1.62500002 -1.62499998
   4.87499998 -8.12500002 -8.12499998
   3.25000000 -6.50000000 -6.50000000
   4.87500000 -8.12500000 -4.87500000
   3.25000002 -6.49999998 -3.25000002
   0.00000002  0.00000002 -6.50000002
   1.62500002 -1.62499998 -4.87500002
 


--------------------------------------------------------------------------------------------------------


 k-point  1 :   0.0000 0.0000 0.0000  plane waves:   17175
 k-point  2 :   0.2000-0.0000 0.0000  plane waves:   17173
 k-point  3 :   0.4000-0.0000 0.0000  plane waves:   17189
 k-point  4 :   0.0000 0.2000-0.0000  plane waves:   17178
 k-point  5 :   0.2000 0.2000-0.0000  plane waves:   17165
 k-point  6 :   0.4000 0.2000 0.0000  plane waves:   17172
 k-point  7 :  -0.4000 0.2000 0.0000  plane waves:   17197
 k-point  8 :  -0.2000 0.2000 0.0000  plane waves:   17170
 k-point  9 :   0.0000 0.4000-0.0000  plane waves:   17206
 k-point 10 :   0.2000 0.4000-0.0000  plane waves:   17186
 k-point 11 :   0.4000 0.4000-0.0000  plane waves:   17188
 k-point 12 :  -0.4000 0.4000 0.0000  plane waves:   17184
 k-point 13 :  -0.2000 0.4000-0.0000  plane waves:   17190
 k-point 14 :   0.0000 0.0000 0.2000  plane waves:   17182
 k-point 15 :   0.2000-0.0000 0.2000  plane waves:   17163
 k-point 16 :   0.4000-0.0000 0.2000  plane waves:   17176
 k-point 17 :  -0.4000 0.0000 0.2000  plane waves:   17180
 k-point 18 :  -0.2000 0.0000 0.2000  plane waves:   17172
 k-point 19 :  -0.0000 0.2000 0.2000  plane waves:   17170
 k-point 20 :   0.2000 0.2000 0.2000  plane waves:   17154
 k-point 21 :   0.4000 0.2000 0.2000  plane waves:   17191
 k-point 22 :  -0.4000 0.2000 0.2000  plane waves:   17172
 k-point 23 :  -0.2000 0.2000 0.2000  plane waves:   17183
 k-point 24 :  -0.0000 0.4000 0.2000  plane waves:   17209
 k-point 25 :   0.2000 0.4000 0.2000  plane waves:   17169
 k-point 26 :   0.4000 0.4000 0.2000  plane waves:   17180
 k-point 27 :  -0.4000 0.4000 0.2000  plane waves:   17206
 k-point 28 :  -0.2000 0.4000 0.2000  plane waves:   17200
 k-point 29 :   0.0000-0.4000 0.2000  plane waves:   17201
 k-point 30 :   0.2000-0.4000 0.2000  plane waves:   17197
 k-point 31 :   0.4000-0.4000 0.2000  plane waves:   17193
 k-point 32 :  -0.4000-0.4000 0.2000  plane waves:   17194
 k-point 33 :  -0.2000-0.4000 0.2000  plane waves:   17186
 k-point 34 :   0.0000-0.2000 0.2000  plane waves:   17191
 k-point 35 :   0.2000-0.2000 0.2000  plane waves:   17161
 k-point 36 :   0.4000-0.2000 0.2000  plane waves:   17176
 k-point 37 :  -0.4000-0.2000 0.2000  plane waves:   17192
 k-point 38 :  -0.2000-0.2000 0.2000  plane waves:   17163
 k-point 39 :   0.0000 0.0000 0.4000  plane waves:   17157
 k-point 40 :   0.2000-0.0000 0.4000  plane waves:   17171
 k-point 41 :   0.4000-0.0000 0.4000  plane waves:   17188
 k-point 42 :  -0.4000 0.0000 0.4000  plane waves:   17188
 k-point 43 :  -0.2000 0.0000 0.4000  plane waves:   17149
 k-point 44 :   0.0000 0.2000 0.4000  plane waves:   17191
 k-point 45 :   0.2000 0.2000 0.4000  plane waves:   17156
 k-point 46 :   0.4000 0.2000 0.4000  plane waves:   17182
 k-point 47 :  -0.4000 0.2000 0.4000  plane waves:   17196
 k-point 48 :  -0.2000 0.2000 0.4000  plane waves:   17198
 k-point 49 :  -0.0000 0.4000 0.4000  plane waves:   17199
 k-point 50 :   0.2000 0.4000 0.4000  plane waves:   17186
 k-point 51 :   0.4000 0.4000 0.4000  plane waves:   17181
 k-point 52 :  -0.4000 0.4000 0.4000  plane waves:   17191
 k-point 53 :  -0.2000 0.4000 0.4000  plane waves:   17212
 k-point 54 :   0.0000-0.4000 0.4000  plane waves:   17192
 k-point 55 :   0.2000-0.4000 0.4000  plane waves:   17205
 k-point 56 :   0.4000-0.4000 0.4000  plane waves:   17188
 k-point 57 :  -0.4000-0.4000 0.4000  plane waves:   17174
 k-point 58 :  -0.2000-0.4000 0.4000  plane waves:   17178
 k-point 59 :   0.0000-0.2000 0.4000  plane waves:   17182
 k-point 60 :   0.2000-0.2000 0.4000  plane waves:   17171
 k-point 61 :   0.4000-0.2000 0.4000  plane waves:   17203
 k-point 62 :  -0.4000-0.2000 0.4000  plane waves:   17198
 k-point 63 :  -0.2000-0.2000 0.4000  plane waves:   17180

 maximum and minimum number of plane-waves per node :      4338     4250

 maximum number of plane-waves:     17212
 maximum index in each direction: 
   IXMAX=   11   IYMAX=   17   IZMAX=   23
   IXMIN=  -11   IYMIN=  -17   IZMIN=  -23


 real space projection operators:
  total allocation   :      16664.02 KBytes
  max/ min on nodes  :       4167.30       4164.84


 parallel 3D FFT for wavefunctions:
    minimum data exchange during FFTs selected (reduces bandwidth)
 parallel 3D FFT for charge:
    minimum data exchange during FFTs selected (reduces bandwidth)


 total amount of memory used by VASP MPI-rank0   112682. kBytes
=======================================================================

   base      :      30000. kBytes
   nonlr-proj:       7275. kBytes
   fftplans  :       2508. kBytes
   grid      :       5038. kBytes
   one-center:        124. kBytes
   wavefun   :      67737. kBytes
 
     INWAV:  cpu time    6.1514: real time    9.9298
 Broyden mixing: mesh for mixing (old mesh)
   NGX = 23   NGY = 33   NGZ = 47
  (NGX  = 72   NGY  =108   NGZ  =140)
  gives a total of  35673 points

 initial charge density was supplied:
 number of electron     197.9999999 magnetization 
 keeping initial charge density in first step


--------------------------------------------------------------------------------------------------------


 Maximum index for non-local projection operator         1038
 Maximum index for augmentation-charges         1446 (set IRDMAX)


--------------------------------------------------------------------------------------------------------


 First call to EWALD:  gamma=   0.221
 Maximum number of real-space cells 4x 3x 2
 Maximum number of reciprocal cells 2x 3x 4

    FEWALD:  cpu time    0.0022: real time    0.0032


--------------------------------------- Iteration      1(   1)  ---------------------------------------


    POTLOK:  cpu time    0.0292: real time    0.0499
    SETDIJ:  cpu time    0.0058: real time    0.0058
     EDDAV:  cpu time   31.2925: real time   31.3977
       DOS:  cpu time    0.0040: real time    0.0040
    CHARGE:  cpu time    0.6480: real time    0.6485
    MIXING:  cpu time    0.0017: real time    0.0017
    --------------------------------------------
      LOOP:  cpu time   31.9812: real time   32.1077

 eigenvalue-minimisations  : 26856
 total energy-change (2. order) :-0.3739620E+03  (-0.1382860E+01)
 number of electron     197.9999999 magnetization 
 augmentation part       33.9952493 magnetization 

 Broyden mixing:
  rms(total) = 0.62651E+01    rms(broyden)= 0.62651E+01
  rms(prec ) = 0.88028E+01
  weight for this iteration     100.00

 Free energy of the ion-electron system (eV)
  ---------------------------------------------------
  alpha Z        PSCENC =      1130.67016471
  Ewald energy   TEWEN  =    -11215.03825910
  -Hartree energ DENC   =     -2981.52354352
  -exchange      EXHF   =         0.00000000
  -V(xc)+E(xc)   XCENC  =      -896.90831822
  PAW double counting   =     17327.07527293   -15834.76883358
  entropy T*S    EENTRO =        -0.01789357
  eigenvalues    EBANDS =      -909.35856237
  atomic energy  EATOM  =     13005.90793652
  Solvation  Ediel_sol  =         0.00000000
  ---------------------------------------------------
  free energy    TOTEN  =      -373.96203619 eV

  energy without entropy =     -373.94414262  energy(sigma->0) =     -373.95607167


--------------------------------------------------------------------------------------------------------




--------------------------------------- Iteration      1(   2)  ---------------------------------------


    POTLOK:  cpu time    0.0261: real time    0.0275
    SETDIJ:  cpu time    0.0053: real time    0.0053
     EDDAV:  cpu time   30.8494: real time   30.8815
       DOS:  cpu time    0.0044: real time    0.0045
    CHARGE:  cpu time    0.6468: real time    0.6473
    MIXING:  cpu time    0.0012: real time    0.0013
    --------------------------------------------
      LOOP:  cpu time   31.5334: real time   31.5673

 eigenvalue-minimisations  : 26152
 total energy-change (2. order) :-0.9036321E+02  (-0.2413792E+03)
 number of electron     197.9999987 magnetization 
 augmentation part       49.8948077 magnetization 

 Broyden mixing:
  rms(total) = 0.11504E+02    rms(broyden)= 0.11504E+02
  rms(prec ) = 0.15984E+02
  weight for this iteration     100.00

 eigenvalues of (default mixing * dielectric matrix)
  average eigenvalue GAMMA=   0.2586
  0.2586

 Free energy of the ion-electron system (eV)
  ---------------------------------------------------
  alpha Z        PSCENC =      1130.67016471
  Ewald energy   TEWEN  =    -11215.03825910
  -Hartree energ DENC   =     -3151.71583526
  -exchange      EXHF   =         0.00000000
  -V(xc)+E(xc)   XCENC  =      -890.39732603
  PAW double counting   =     17477.05748883   -15972.86530963
  entropy T*S    EENTRO =        -0.00147773
  eigenvalues    EBANDS =      -847.94262621
  atomic energy  EATOM  =     13005.90793652
  Solvation  Ediel_sol  =         0.00000000
  ---------------------------------------------------
  free energy    TOTEN  =      -464.32524389 eV

  energy without entropy =     -464.32376616  energy(sigma->0) =     -464.32475132


--------------------------------------------------------------------------------------------------------




--------------------------------------- Iteration      1(   3)  ---------------------------------------


    POTLOK:  cpu time    0.0269: real time    0.0334
    SETDIJ:  cpu time    0.0060: real time    0.0060
     EDDAV:  cpu time   33.2395: real time   33.2755
       DOS:  cpu time    0.0040: real time    0.0040
    CHARGE:  cpu time    0.6535: real time    0.6541
    MIXING:  cpu time    0.0012: real time    0.0012
    --------------------------------------------
      LOOP:  cpu time   33.9312: real time   33.9741

 eigenvalue-minimisations  : 28200
 total energy-change (2. order) : 0.9546704E+02  (-0.1230915E+03)
 number of electron     198.0000007 magnetization 
 augmentation part       31.3843825 magnetization 

 Broyden mixing:
  rms(total) = 0.45323E+01    rms(broyden)= 0.45322E+01
  rms(prec ) = 0.69233E+01
  weight for this iteration     100.00

 eigenvalues of (default mixing * dielectric matrix)
  average eigenvalue GAMMA=   0.4618
  0.6381  0.2856

 Free energy of the ion-electron system (eV)
  ---------------------------------------------------
  alpha Z        PSCENC =      1130.67016471
  Ewald energy   TEWEN  =    -11215.03825910
  -Hartree energ DENC   =     -3097.07473991
  -exchange      EXHF   =         0.00000000
  -V(xc)+E(xc)   XCENC  =      -892.93506753
  PAW double counting   =     17517.58675394   -16026.61733037
  entropy T*S    EENTRO =         0.00161217
  eigenvalues    EBANDS =      -791.35927557
  atomic energy  EATOM  =     13005.90793652
  Solvation  Ediel_sol  =         0.00000000
  ---------------------------------------------------
  free energy    TOTEN  =      -368.85820514 eV

  energy without entropy =     -368.85981731  energy(sigma->0) =     -368.85874253


--------------------------------------------------------------------------------------------------------




--------------------------------------- Iteration      1(   4)  ---------------------------------------


    POTLOK:  cpu time    0.0248: real time    0.0254
    SETDIJ:  cpu time    0.0053: real time    0.0053
     EDDAV:  cpu time   30.5383: real time   30.5698
       DOS:  cpu time    0.0042: real time    0.0042
    CHARGE:  cpu time    0.6463: real time    0.6468
    MIXING:  cpu time    0.0011: real time    0.0011
    --------------------------------------------
      LOOP:  cpu time   31.2200: real time   31.2526

 eigenvalue-minimisations  : 26088
 total energy-change (2. order) : 0.4329607E+02  (-0.2261297E+02)
 number of electron     197.9999994 magnetization 
 augmentation part       34.2796026 magnetization 

 Broyden mixing:
  rms(total) = 0.35114E+01    rms(broyden)= 0.35114E+01
  rms(prec ) = 0.49468E+01
  weight for this iteration     100.00

 eigenvalues of (default mixing * dielectric matrix)
  average eigenvalue GAMMA=   0.4224
  0.6443  0.3591  0.2638

 Free energy of the ion-electron system (eV)
  ---------------------------------------------------
  alpha Z        PSCENC =      1130.67016471
  Ewald energy   TEWEN  =    -11215.03825910
  -Hartree energ DENC   =     -3048.31604251
  -exchange      EXHF   =         0.00000000
  -V(xc)+E(xc)   XCENC  =      -894.05281492
  PAW double counting   =     17495.47700778   -16003.36169166
  entropy T*S    EENTRO =         0.00612933
  eigenvalues    EBANDS =      -796.85456986
  atomic energy  EATOM  =     13005.90793652
  Solvation  Ediel_sol  =         0.00000000
  ---------------------------------------------------
  free energy    TOTEN  =      -325.56213970 eV

  energy without entropy =     -325.56826903  energy(sigma->0) =     -325.56418281


--------------------------------------------------------------------------------------------------------




--------------------------------------- Iteration      1(   5)  ---------------------------------------


    POTLOK:  cpu time    0.0257: real time    0.0318
    SETDIJ:  cpu time    0.0053: real time    0.0053
     EDDAV:  cpu time   30.7006: real time   30.7324
       DOS:  cpu time    0.0039: real time    0.0039
    CHARGE:  cpu time    0.6465: real time    0.6469
    MIXING:  cpu time    0.0011: real time    0.0011
    --------------------------------------------
      LOOP:  cpu time   31.3832: real time   31.4215

 eigenvalue-minimisations  : 26240
 total energy-change (2. order) : 0.4370231E+01  (-0.1329687E+02)
 number of electron     198.0000000 magnetization 
 augmentation part       32.8126504 magnetization 

 Broyden mixing:
  rms(total) = 0.25777E+01    rms(broyden)= 0.25777E+01
  rms(prec ) = 0.34618E+01
  weight for this iteration     100.00

 eigenvalues of (default mixing * dielectric matrix)
  average eigenvalue GAMMA=   0.5519
  1.1493  0.4294  0.4294  0.1995

 Free energy of the ion-electron system (eV)
  ---------------------------------------------------
  alpha Z        PSCENC =      1130.67016471
  Ewald energy   TEWEN  =    -11215.03825910
  -Hartree energ DENC   =     -3044.75582256
  -exchange      EXHF   =         0.00000000
  -V(xc)+E(xc)   XCENC  =      -893.99413321
  PAW double counting   =     17440.35445595   -15947.45645188
  entropy T*S    EENTRO =        -0.01930956
  eigenvalues    EBANDS =      -796.86049000
  atomic energy  EATOM  =     13005.90793652
  Solvation  Ediel_sol  =         0.00000000
  ---------------------------------------------------
  free energy    TOTEN  =      -321.19190912 eV

  energy without entropy =     -321.17259957  energy(sigma->0) =     -321.18547261


--------------------------------------------------------------------------------------------------------




--------------------------------------- Iteration      1(   6)  ---------------------------------------


    POTLOK:  cpu time    0.0266: real time    0.0268
    SETDIJ:  cpu time    0.0053: real time    0.0053
     EDDAV:  cpu time   28.0588: real time   28.0883
       DOS:  cpu time    0.0043: real time    0.0043
    CHARGE:  cpu time    0.6470: real time    0.6475
    MIXING:  cpu time    0.0012: real time    0.0012
    --------------------------------------------
      LOOP:  cpu time   28.7432: real time   28.7734

 eigenvalue-minimisations  : 23624
 total energy-change (2. order) :-0.2433185E+01  (-0.9062554E+01)
 number of electron     197.9999999 magnetization 
 augmentation part       33.8020342 magnetization 

 Broyden mixing:
  rms(total) = 0.23104E+01    rms(broyden)= 0.23104E+01
  rms(prec ) = 0.32673E+01
  weight for this iteration     100.00

 eigenvalues of (default mixing * dielectric matrix)
  average eigenvalue GAMMA=   0.6862
  1.9960  0.4982  0.4982  0.2502  0.1883

 Free energy of the ion-electron system (eV)
  ---------------------------------------------------
  alpha Z        PSCENC =      1130.67016471
  Ewald energy   TEWEN  =    -11215.03825910
  -Hartree energ DENC   =     -3026.22369982
  -exchange      EXHF   =         0.00000000
  -V(xc)+E(xc)   XCENC  =      -893.88832375
  PAW double counting   =     17443.24155434   -15948.38052583
  entropy T*S    EENTRO =        -0.00792622
  eigenvalues    EBANDS =      -819.90601534
  atomic energy  EATOM  =     13005.90793652
  Solvation  Ediel_sol  =         0.00000000
  ---------------------------------------------------
  free energy    TOTEN  =      -323.62509449 eV

  energy without entropy =     -323.61716827  energy(sigma->0) =     -323.62245241


--------------------------------------------------------------------------------------------------------




--------------------------------------- Iteration      1(   7)  ---------------------------------------


    POTLOK:  cpu time    0.0428: real time    0.0486
    SETDIJ:  cpu time    0.0063: real time    0.0063
     EDDAV:  cpu time   31.0114: real time   31.0435
       DOS:  cpu time    0.0042: real time    0.0042
    CHARGE:  cpu time    0.6466: real time    0.6471
    MIXING:  cpu time    0.0012: real time    0.0012
    --------------------------------------------
      LOOP:  cpu time   31.7126: real time   31.7510

 eigenvalue-minimisations  : 26408
 total energy-change (2. order) : 0.1144571E+01  (-0.5354413E+01)
 number of electron     197.9999997 magnetization 
 augmentation part       32.9367446 magnetization 

 Broyden mixing:
  rms(total) = 0.21766E+01    rms(broyden)= 0.21766E+01
  rms(prec ) = 0.32303E+01
  weight for this iteration     100.00

 eigenvalues of (default mixing * dielectric matrix)
  average eigenvalue GAMMA=   0.6597
  2.2386  0.5280  0.5280  0.2382  0.2382  0.1869

 Free energy of the ion-electron system (eV)
  ---------------------------------------------------
  alpha Z        PSCENC =      1130.67016471
  Ewald energy   TEWEN  =    -11215.03825910
  -Hartree energ DENC   =     -3008.37318259
  -exchange      EXHF   =         0.00000000
  -V(xc)+E(xc)   XCENC  =      -894.01027587
  PAW double counting   =     17457.31214627   -15959.92202526
  entropy T*S    EENTRO =         0.00475108
  eigenvalues    EBANDS =      -839.03177948
  atomic energy  EATOM  =     13005.90793652
  Solvation  Ediel_sol  =         0.00000000
  ---------------------------------------------------
  free energy    TOTEN  =      -322.48052372 eV

  energy without entropy =     -322.48527480  energy(sigma->0) =     -322.48210741


--------------------------------------------------------------------------------------------------------




--------------------------------------- Iteration      1(   8)  ---------------------------------------


    POTLOK:  cpu time    0.0253: real time    0.0258
    SETDIJ:  cpu time    0.0053: real time    0.0053
     EDDAV:  cpu time   28.9757: real time   29.0057
       DOS:  cpu time    0.0042: real time    0.0042
    CHARGE:  cpu time    0.6462: real time    0.6467
    MIXING:  cpu time    0.0013: real time    0.0013
    --------------------------------------------
      LOOP:  cpu time   29.6580: real time   29.6890

 eigenvalue-minimisations  : 24464
 total energy-change (2. order) : 0.4270312E+00  (-0.6394019E+01)
 number of electron     197.9999995 magnetization 
 augmentation part       33.7760720 magnetization 

 Broyden mixing:
  rms(total) = 0.18538E+01    rms(broyden)= 0.18538E+01
  rms(prec ) = 0.31976E+01
  weight for this iteration     100.00

 eigenvalues of (default mixing * dielectric matrix)
  average eigenvalue GAMMA=   0.6667
  2.5082  0.5930  0.5930  0.3024  0.3024  0.2053  0.1627

 Free energy of the ion-electron system (eV)
  ---------------------------------------------------
  alpha Z        PSCENC =      1130.67016471
  Ewald energy   TEWEN  =    -11215.03825910
  -Hartree energ DENC   =     -3009.72487572
  -exchange      EXHF   =         0.00000000
  -V(xc)+E(xc)   XCENC  =      -893.64308443
  PAW double counting   =     17483.49403386   -15983.77742267
  entropy T*S    EENTRO =        -0.00735093
  eigenvalues    EBANDS =      -839.93463474
  atomic energy  EATOM  =     13005.90793652
  Solvation  Ediel_sol  =         0.00000000
  ---------------------------------------------------
  free energy    TOTEN  =      -322.05349249 eV

  energy without entropy =     -322.04614157  energy(sigma->0) =     -322.05104218


--------------------------------------------------------------------------------------------------------




--------------------------------------- Iteration      1(   9)  ---------------------------------------


    POTLOK:  cpu time    0.0356: real time    0.0427
    SETDIJ:  cpu time    0.0053: real time    0.0053
     EDDAV:  cpu time   30.8632: real time   30.8946
       DOS:  cpu time    0.0042: real time    0.0042
    CHARGE:  cpu time    0.6468: real time    0.6473
[...]
    114       7.0965     -0.00000
    115       7.1527     -0.00000
    116       7.2042     -0.00000
    117       7.2692     -0.00000
    118       7.3339     -0.00000
    119       7.3697     -0.00000
    120       7.3993     -0.00000

 k-point    63 :      -0.2000   -0.2000    0.4000
  band No.  band energies     occupation 
      1     -48.1971      2.00000
      2     -48.1746      2.00000
      3     -48.1445      2.00000
      4     -48.1098      2.00000
      5     -48.0850      2.00000
      6     -47.9974      2.00000
      7     -24.7032      2.00000
      8     -24.6509      2.00000
      9     -24.5328      2.00000
     10     -24.4969      2.00000
     11     -24.3279      2.00000
     12     -24.3154      2.00000
     13     -24.3068      2.00000
     14     -24.2740      2.00000
     15     -24.2593      2.00000
     16     -24.2473      2.00000
     17     -24.2332      2.00000
     18     -24.1902      2.00000
     19     -24.1475      2.00000
     20     -24.1296      2.00000
     21     -24.0270      2.00000
     22     -24.0090      2.00000
     23     -23.8896      2.00000
     24     -23.7943      2.00000
     25      -0.1224      2.00000
     26       0.1459      2.00000
     27       1.6911      2.00000
     28       1.9071      2.00000
     29       2.0071      2.00000
     30       2.1852      2.00000
     31       2.3075      2.00000
     32       2.3431      2.00000
     33       2.4492      2.00000
     34       2.5259      2.00000
     35       2.5499      2.00000
     36       2.6624      2.00000
     37       2.6910      2.00000
     38       2.7314      2.00000
     39       2.8469      2.00000
     40       2.9260      2.00000
     41       2.9432      2.00000
     42       2.9904      2.00000
     43       3.0827      2.00000
     44       3.1304      2.00000
     45       3.2724      2.00000
     46       3.2930      2.00000
     47       3.4585      2.00000
     48       3.5025      2.00000
     49       3.5790      2.00000
     50       3.6163      2.00000
     51       3.6670      2.00000
     52       3.7135      2.00000
     53       3.7577      2.00000
     54       3.8481      2.00000
     55       3.9030      2.00000
     56       3.9789      2.00000
     57       4.1131      2.00000
     58       4.1880      2.00000
     59       4.2643      2.00000
     60       4.3435      2.00000
     61       4.3656      2.00000
     62       4.4161      2.00000
     63       4.4316      2.00000
     64       4.4701      2.00000
     65       4.5288      2.00000
     66       4.5583      2.00000
     67       4.6067      2.00000
     68       4.6617      2.00000
     69       4.7033      2.00000
     70       4.7154      2.00000
     71       4.8106      2.00000
     72       4.8585      2.00000
     73       4.8972      2.00000
     74       4.9183      2.00000
     75       5.0028      2.00000
     76       5.0432      2.00000
     77       5.0776      2.00000
     78       5.1010      2.00000
     79       5.1503      2.00000
     80       5.1827      2.00000
     81       5.2468      2.00002
     82       5.2724      2.00004
     83       5.3314      2.00022
     84       5.3699      2.00060
     85       5.4074      2.00150
     86       5.4295      2.00248
     87       5.4906      2.00860
     88       5.5045      2.01105
     89       5.5363      2.01872
     90       5.5662      2.02880
     91       5.5821      2.03526
     92       5.6117      2.04862
     93       5.6682      2.06970
     94       5.6900      2.07031
     95       5.7101      2.06326
     96       5.7410      2.03151
     97       5.7594      1.99675
     98       5.8058      1.84246
     99       5.8224      1.76175
    100       5.9442      0.85000
    101       5.9819      0.54977
    102       6.1016     -0.01420
    103       6.1299     -0.05370
    104       6.1716     -0.07092
    105       6.2154     -0.06003
    106       6.2624     -0.03884
    107       6.3424     -0.01224
    108       6.4099     -0.00332
    109       6.7579     -0.00000
    110       6.8332     -0.00000
    111       6.8887     -0.00000
    112       6.9382     -0.00000
    113       6.9597     -0.00000
    114       7.4490     -0.00000
    115       7.5043     -0.00000
    116       7.5580     -0.00000
    117       7.6439     -0.00000
    118       7.6680     -0.00000
    119       7.7194     -0.00000
    120       7.7701     -0.00000


--------------------------------------------------------------------------------------------------------


 soft charge-density along one line, spin component           1
         0         1         2         3         4         5         6         7         8         9
 total charge-density along one line
 
 pseudopotential strength for first ion, spin component:           1
  5.607 -21.313   0.002   0.001  -0.000  -0.005  -0.002   0.002
-21.313  10.160   0.003   0.002  -0.001  -0.000  -0.000   0.000
  0.002   0.003 -10.735  -0.001   0.004   7.053   0.001  -0.004
  0.001   0.002  -0.001 -10.733  -0.007   0.001   7.051   0.007
 -0.000  -0.001   0.004  -0.007 -10.736  -0.004   0.007   7.054
 -0.005  -0.000   7.053   0.001  -0.004   7.268  -0.001   0.003
 -0.002  -0.000   0.001   7.051   0.007  -0.001   7.270  -0.004
  0.002   0.000  -0.004   0.007   7.054   0.003  -0.004   7.268
  0.003   0.001  -0.001  -0.000   0.002   0.001   0.000  -0.003
 -0.001  -0.000   0.001   0.002  -0.000  -0.001  -0.003   0.000
  0.001   0.000  -0.001   0.001   0.000   0.001  -0.001  -0.000
 -0.005  -0.002  -0.000  -0.001   0.001   0.000   0.001  -0.001
 -0.000  -0.000  -0.002   0.000  -0.000   0.002  -0.000   0.001
  0.003   0.001  -0.001  -0.000   0.002   0.001   0.001  -0.003
 -0.001  -0.000   0.001   0.003  -0.000  -0.002  -0.004   0.001
  0.001   0.001  -0.001   0.001   0.000   0.002  -0.002  -0.001
 -0.006  -0.003  -0.000  -0.001   0.001   0.001   0.001  -0.002
 -0.000  -0.000  -0.002   0.000  -0.001   0.003  -0.000   0.001
 total augmentation occupancy for first ion, spin component:           1
  1.996  -0.039  -0.000  -0.000   0.000  -0.000  -0.000   0.000   0.006  -0.004   0.001  -0.008  -0.001  -0.005   0.003  -0.001
 -0.039   1.478  -0.002  -0.001   0.003   0.002  -0.000  -0.003   0.015  -0.022  -0.016  -0.034  -0.003  -0.005   0.008   0.006
 -0.000  -0.002   1.998   0.000  -0.000  -0.027  -0.001   0.000   0.007  -0.004  -0.000   0.005  -0.003  -0.004   0.002   0.001
 -0.000  -0.001   0.000   1.998  -0.000  -0.001  -0.027   0.001   0.004  -0.001   0.001   0.006   0.001  -0.003   0.000  -0.001
  0.000   0.003  -0.000  -0.000   1.998   0.000   0.001  -0.027  -0.005   0.005  -0.001  -0.001   0.001   0.002  -0.003   0.000
 -0.000   0.002  -0.027  -0.001   0.000   0.063   0.001  -0.000  -0.005   0.004  -0.000  -0.004   0.002   0.003  -0.002   0.000
 -0.000  -0.000  -0.001  -0.027   0.001   0.001   0.062  -0.004   0.000  -0.006  -0.003  -0.005   0.000   0.000   0.001   0.001
  0.000  -0.003   0.000   0.001  -0.027  -0.000  -0.004   0.063   0.003  -0.004   0.004  -0.001  -0.003  -0.000   0.001  -0.002
  0.006   0.015   0.007   0.004  -0.005  -0.005   0.000   0.003   2.358  -0.232  -0.042  -0.016  -0.008  -0.844   0.098   0.016
 -0.004  -0.022  -0.004  -0.001   0.005   0.004  -0.006  -0.004  -0.232   2.379  -0.016   0.031   0.024   0.098  -0.847   0.006
  0.001  -0.016  -0.000   0.001  -0.001  -0.000  -0.003   0.004  -0.042  -0.016   2.152  -0.011   0.013   0.015   0.006  -0.845
 -0.008  -0.034   0.005   0.006  -0.001  -0.004  -0.005  -0.001  -0.016   0.031  -0.011   2.367  -0.024   0.005  -0.009   0.015
 -0.001  -0.003  -0.003   0.001   0.001   0.002   0.000  -0.003  -0.008   0.024   0.013  -0.024   2.161   0.002  -0.010  -0.007
 -0.005  -0.005  -0.004  -0.003   0.002   0.003   0.000  -0.000  -0.844   0.098   0.015   0.005   0.002   0.317  -0.041  -0.005
  0.003   0.008   0.002   0.000  -0.003  -0.002   0.001   0.001   0.098  -0.847   0.006  -0.009  -0.010  -0.041   0.317  -0.002
 -0.001   0.006   0.001  -0.001   0.000   0.000   0.001  -0.002   0.016   0.006  -0.845   0.015  -0.007  -0.005  -0.002   0.341
  0.008   0.034  -0.003  -0.004   0.001   0.001   0.003  -0.001   0.005  -0.009   0.014  -0.841   0.028  -0.002   0.004  -0.010
  0.001   0.004   0.003  -0.000  -0.000  -0.000  -0.000   0.003   0.002  -0.010  -0.007   0.029  -0.850  -0.000   0.004   0.003


------------------------ aborting loop because EDIFF is reached ----------------------------------------


    CHARGE:  cpu time    0.6567: real time    0.6571
    FORLOC:  cpu time    0.0070: real time    0.0070
    FORNL :  cpu time    4.2015: real time    4.2042
    STRESS:  cpu time   12.6642: real time   12.6724
    FORCOR:  cpu time    0.0343: real time    0.0344
    FORHAR:  cpu time    0.0125: real time    0.0125
    MIXING:  cpu time    0.0028: real time    0.0028
    OFIELD:  cpu time    0.0001: real time    0.0001

  FORCE on cell =-STRESS in cart. coord.  units (eV):
  Direction    XX          YY          ZZ          XY          YZ          ZX
  --------------------------------------------------------------------------------------
  Alpha Z  1130.67016  1130.67016  1130.67016
  Ewald   -3699.07123 -3390.20594 -4125.78989  -125.54916   433.98266   300.24557
  Hartree  1062.28641  1305.31718   658.11732  -107.18141   393.45304   295.47895
  E(xc)    -875.83599  -875.60247  -875.73410    -0.08234    -0.04775    -0.38241
  Local    -400.62746  -953.08279   430.45863   232.71799  -827.62585  -594.06768
  n-local  -282.61140  -282.71311  -282.42597     0.53770     0.06136     1.26038
  augment   334.05591   334.01679   333.83379     0.01293     0.01157    -0.29041
  Kinetic  2687.03051  2686.80370  2686.38225    -1.24236     0.10117    -1.84595
  Fock        0.00000     0.00000     0.00000     0.00000     0.00000     0.00000
  -------------------------------------------------------------------------------------
  Total     -44.10309   -44.79647   -44.48780    -0.78665    -0.06381     0.39843
  in kB    -137.22658  -139.38402  -138.42361    -2.44765    -0.19854     1.23972
  external pressure =     -138.34 kB  Pullay stress =        0.00 kB


 VOLUME and BASIS-vectors are now :
 -----------------------------------------------------------------------------
  energy-cutoff  :      600.00
  volume of cell :      514.92
      direct lattice vectors                 reciprocal lattice vectors
    -3.250000000 -3.250000000 -3.250000000    -0.133333333 -0.123076923 -0.051282051
     1.625000000  1.625000000 -8.125000000     0.041025641  0.061538462 -0.102564103
     8.125000000 -8.125000000 -1.625000000     0.061538462 -0.061538462  0.000000000

  length of vectors
     5.629165125  8.443747687 11.604821196     0.188561808  0.126449518  0.087028527


 FORCES acting on ions
    electron-ion (+dipol)            ewald-force                    non-local-force                 convergence-correction
 -----------------------------------------------------------------------------------------------
   0.144E+03 0.391E+02 -.184E+03   -.144E+03 -.385E+02 0.185E+03   0.311E+00 -.212E+00 -.817E-01   -.975E-01 0.714E-01 0.961E-01
   -.769E+02 -.179E+03 0.106E+03   0.771E+02 0.179E+03 -.106E+03   0.107E+00 -.673E-01 -.221E+00   -.333E-01 0.118E+00 -.190E-01
   -.238E+02 0.773E+02 -.263E+02   0.236E+02 -.770E+02 0.264E+02   0.889E-01 0.118E-01 -.304E+00   -.111E-01 -.388E-01 0.126E+00
   -.581E+02 0.101E+03 -.762E+02   0.584E+02 -.100E+03 0.762E+02   -.339E-01 -.248E-01 -.136E+00   -.106E+00 -.141E+00 0.149E+00
   -.225E+02 -.104E+03 0.241E+03   0.222E+02 0.105E+03 -.241E+03   0.103E+00 0.333E+00 -.309E+00   0.143E+00 -.111E+00 0.195E-03
   0.339E+01 0.733E+02 -.263E+02   -.407E+01 -.732E+02 0.261E+02   0.318E+00 0.849E-01 -.417E-01   0.595E-01 -.350E-01 0.178E-01
   0.114E+02 0.458E+02 -.882E+02   -.111E+02 -.460E+02 0.881E+02   -.957E-01 -.224E+00 0.172E+00   -.966E-01 0.114E-01 0.331E-01
   -.156E+02 0.563E+01 0.122E+02   0.152E+02 -.582E+01 -.119E+02   -.252E+00 -.553E-01 0.245E+00   -.245E-01 0.458E-01 -.233E-01
   0.382E+02 -.479E+02 0.407E+02   -.382E+02 0.481E+02 -.405E+02   -.495E-01 -.151E-02 -.919E-01   -.214E-01 0.103E+00 -.325E-01
   -.798E+02 -.609E+02 0.103E+03   0.796E+02 0.610E+02 -.103E+03   0.234E+00 0.972E-01 -.219E+00   0.610E-01 0.623E-01 -.583E-01
   0.305E+02 0.888E+02 -.676E+02   -.304E+02 -.888E+02 0.680E+02   -.136E+00 -.197E+00 -.136E+00   -.141E-01 -.293E-01 -.705E-03
   0.363E+02 -.489E+02 0.822E+02   -.364E+02 0.490E+02 -.825E+02   0.254E+00 0.363E-01 -.285E+00   -.487E-01 0.515E-01 -.316E-01
   0.525E+02 0.355E+02 -.763E+02   -.523E+02 -.354E+02 0.762E+02   0.463E-01 -.444E+00 0.392E+00   0.708E-02 -.178E-01 -.843E-03
   0.501E+02 0.217E+02 -.126E+03   -.497E+02 -.216E+02 0.126E+03   -.108E+00 0.228E+00 0.776E-01   0.513E-01 -.787E-01 0.154E-01
   -.362E+02 -.346E+02 0.121E+02   0.358E+02 0.348E+02 -.121E+02   0.438E-01 0.177E+00 -.863E-01   -.175E-01 0.353E-01 0.186E-03
   0.363E+00 0.576E+02 -.432E+02   -.663E+00 -.576E+02 0.435E+02   -.322E+00 -.136E+00 0.346E+00   -.660E-01 0.535E-01 0.587E-01
   0.956E+02 0.455E+02 -.935E+02   -.960E+02 -.454E+02 0.939E+02   -.402E+00 -.656E-01 0.122E+00   0.683E-01 -.943E-01 0.458E-01
   -.505E+01 0.495E+01 -.360E+01   0.530E+01 -.503E+01 0.315E+01   0.968E-01 -.222E+00 0.167E+00   -.466E-01 0.512E-01 -.196E-02
   -.159E+02 0.446E+02 -.616E+02   0.160E+02 -.444E+02 0.618E+02   -.131E+00 0.607E-01 0.196E+00   0.115E-01 -.189E-02 0.161E-01
   0.290E+02 0.891E+01 -.361E+02   -.285E+02 -.917E+01 0.362E+02   0.537E-01 -.180E+00 0.819E-01   -.442E-01 0.120E-01 0.160E-01
   -.519E+02 -.165E+02 0.901E+02   0.520E+02 0.163E+02 -.903E+02   -.146E+00 0.551E-01 -.114E+00   0.174E-01 -.389E-02 -.502E-01
   -.663E+01 -.792E+01 0.195E+02   0.649E+01 0.801E+01 -.197E+02   -.223E+00 0.149E-01 -.392E-01   0.654E-01 -.685E-01 -.354E-01
   -.263E+02 -.231E+02 0.730E+02   0.259E+02 0.232E+02 -.725E+02   0.681E-01 -.490E-01 0.222E-01   0.140E-01 0.332E-02 -.127E-01
   0.425E+01 -.520E+01 0.525E+02   -.382E+01 0.491E+01 -.530E+02   0.222E+00 0.115E+00 -.254E+00   -.358E-01 0.186E-01 0.359E-02
   -.217E+02 -.340E+02 0.447E+02   0.216E+02 0.336E+02 -.446E+02   0.166E+00 0.193E-02 0.382E+00   0.833E-01 -.325E-01 -.707E-02
   -.786E+02 -.326E+02 0.862E+02   0.791E+02 0.328E+02 -.867E+02   -.379E-01 0.814E-01 0.116E+00   0.198E-01 -.283E-02 -.199E-01
   -.186E+02 -.720E+02 0.576E+02   0.185E+02 0.721E+02 -.577E+02   0.701E-01 0.666E-01 -.377E-01   0.394E-01 -.451E-01 -.103E-01
   -.179E+02 0.262E+02 -.337E+02   0.181E+02 -.267E+02 0.334E+02   0.284E-01 0.893E-01 -.147E+00   0.365E-02 -.271E-01 0.885E-02
   0.455E+02 0.326E+02 -.826E+02   -.456E+02 -.326E+02 0.828E+02   -.662E-01 -.161E+00 0.212E+00   0.256E-01 -.230E-01 0.840E-02
   0.146E+02 -.401E+02 0.475E+01   -.143E+02 0.400E+02 -.474E+01   0.106E+00 0.776E-01 -.103E+00   -.643E-01 0.836E-01 -.656E-01
 -----------------------------------------------------------------------------------------------
   -.246E+00 0.560E+00 -.155E+00   -.391E-13 0.711E-14 -.348E-12   0.312E+00 -.509E+00 -.742E-01   -.567E-01 -.286E-01 0.226E+00
 
 
 POSITION                                       TOTAL-FORCE (eV/Angst)
 -----------------------------------------------------------------------------------
      1.62500     -4.87500    -11.37500        -0.047215      0.439617      0.247878
      1.62500     -4.87500     -4.87500         0.211296     -0.050486     -0.000978
     -1.62500     -1.62500     -1.62500        -0.144352      0.261262     -0.100292
      0.00000      0.00000      0.00000         0.244412      0.009633      0.012258
      6.50000     -6.50000     -3.25000        -0.066005      0.520193     -0.305490
      4.87500     -4.87500     -1.62500        -0.305103      0.192713     -0.277217
      0.00000     -3.25000     -9.75000         0.071843     -0.454456      0.108283
      1.62500     -4.87500     -8.12500        -0.633687     -0.200627      0.585872
      0.00000     -3.25000     -6.50000        -0.074955      0.318682      0.008834
     -1.62500     -1.62500     -4.87500         0.167502      0.291986     -0.485216
      4.87500     -4.87500     -8.12500        -0.044926     -0.249778      0.239793
      3.25000     -3.25000     -3.25000         0.163960      0.182357     -0.592812
     -1.62500     -1.62500     -8.12500         0.228045     -0.387413      0.288838
      4.87500     -8.12500    -11.37500         0.306729      0.254615     -0.143403
     -0.00000     -3.25000     -3.25000        -0.360851      0.420210     -0.112739
      1.62500     -1.62500     -8.12500        -0.688388     -0.146892      0.690528
      6.50000     -6.50000     -9.75000        -0.734087     -0.057056      0.579871
      3.25000     -3.25000     -6.50000         0.301217     -0.250663     -0.289085
      3.25000     -6.50000     -9.75000         0.038561      0.239028      0.372799
      3.25000     -3.25000     -9.75000         0.502496     -0.428676      0.167297
     -0.00000     -0.00000     -3.25000        -0.012192     -0.165981     -0.322221
      6.50000     -6.50000     -6.50000        -0.292190      0.029394     -0.315288
      4.87500     -4.87500     -4.87500        -0.308097     -0.011732      0.518709
      1.62500     -1.62500     -1.62500         0.612064     -0.161103     -0.745031
      4.87500     -8.12500     -8.12500         0.131024     -0.419093      0.469131
      3.25000     -6.50000     -6.50000         0.449492      0.205448     -0.394945
      4.87500     -8.12500     -4.87500         0.019805      0.125574     -0.096326
      3.25000     -6.50000     -3.25000         0.185945     -0.458529     -0.408616
      0.00000      0.00000     -6.50000        -0.218566     -0.194355      0.457509
      1.62500     -1.62500     -4.87500         0.296225      0.146129     -0.157940
 -----------------------------------------------------------------------------------
    total drift:                                0.009396      0.022727     -0.003115


--------------------------------------------------------------------------------------------------------



  FREE ENERGIE OF THE ION-ELECTRON SYSTEM (eV)
  ---------------------------------------------------
  free  energy   TOTEN  =      -316.94462785 eV

  energy  without entropy=     -316.93627185  energy(sigma->0) =     -316.94184252
 


--------------------------------------------------------------------------------------------------------


    POTLOK:  cpu time    0.0296: real time    0.0296


--------------------------------------------------------------------------------------------------------


 stress matrix after NEB project (eV)
    -44.10309     -0.78665      0.39843
     -0.78665    -44.79647     -0.06381
      0.39843     -0.06381    -44.48780
  FORCES: max atom, RMS     0.986045    0.574077
  FORCE total and by dimension    3.144348    0.745031
  Stress total and by dimension   77.022939   44.796466
 writing wavefunctions
     LOOP+:  cpu time  783.8288: real time  789.5863
    4ORBIT:  cpu time    0.0000: real time    0.0000

 total amount of memory used by VASP MPI-rank0   112682. kBytes
=======================================================================

   base      :      30000. kBytes
   nonlr-proj:       7275. kBytes
   fftplans  :       2508. kBytes
   grid      :       5038. kBytes
   one-center:        124. kBytes
   wavefun   :      67737. kBytes
 
  
  
 General timing and accounting informations for this job:
 ========================================================
  
                  Total CPU time used (sec):      794.203
                            User time (sec):      785.872
                          System time (sec):        8.331
                         Elapsed time (sec):      805.219
  
                   Maximum memory used (kb):      172552.
                   Average memory used (kb):           0.
  
                          Minor page faults:        39479
                          Major page faults:            0
                 Voluntary context switches:         2610
