 running on   32 total cores
 distrk:  each k-point on   32 cores,    1 groups
 distr:  one band on    4 cores,    8 groups
 using from now: INCAR     
 vasp.5.4.4.18Apr17-6-g9f103f2a35 (build Aug 09 2018 16:20:53) complex          
  
 POSCAR found type information on POSCAR  Nb Mo Ta Ti V 
 POSCAR found :  5 types and      30 ions
 scaLAPACK will be used

 ----------------------------------------------------------------------------- 
|                                                                             |
|  ADVICE TO THIS USER RUNNING 'VASP/VAMP'   (HEAR YOUR MASTER'S VOICE ...):  |
|                                                                             |
|      You enforced a specific xc-type in the INCAR file,                     |
|      a different type was found on the POTCAR file                          |
|          I HOPE YOU KNOW, WHAT YOU ARE  DOING                               |
|                                                                             |
 ----------------------------------------------------------------------------- 

 LDA part: xc-table for Pade appr. of Perdew
 POSCAR found type information on POSCAR  Nb Mo Ta Ti V 
 POSCAR found :  5 types and      30 ions
 found WAVECAR, reading the header
 POSCAR, INCAR and KPOINTS ok, starting setup
 FFT: planning ...
 reading WAVECAR
 the WAVECAR file was read successfully
 charge-density read from file: Nb                                      
 entering main loop
       N       E                     dE             d eps       ncg     rms          rms(c)
DAV:   1    -0.373962036190E+03   -0.37396E+03   -0.13829E+01 26856   0.106E+01    0.627E+01
DAV:   2    -0.464325243891E+03   -0.90363E+02   -0.24138E+03 26152   0.253E+02    0.115E+02
DAV:   3    -0.368858205141E+03    0.95467E+02   -0.12309E+03 28200   0.184E+02    0.453E+01
DAV:   4    -0.325562139701E+03    0.43296E+02   -0.22613E+02 26088   0.472E+01    0.351E+01
DAV:   5    -0.321191909125E+03    0.43702E+01   -0.13297E+02 26240   0.484E+01    0.258E+01
DAV:   6    -0.323625094488E+03   -0.24332E+01   -0.90626E+01 23624   0.490E+01    0.231E+01
DAV:   7    -0.322480523721E+03    0.11446E+01   -0.53544E+01 26408   0.244E+01    0.218E+01
DAV:   8    -0.322053492494E+03    0.42703E+00   -0.63940E+01 24464   0.408E+01    0.185E+01
DAV:   9    -0.317928757991E+03    0.41247E+01   -0.20025E+01 26224   0.182E+01    0.106E+01
DAV:  10    -0.317696309281E+03    0.23245E+00   -0.14049E+01 26328   0.139E+01    0.966E+00
DAV:  11    -0.317388124647E+03    0.30818E+00   -0.69287E+00 26008   0.955E+00    0.747E+00
DAV:  12    -0.317237615614E+03    0.15051E+00   -0.32844E+00 24616   0.775E+00    0.611E+00
DAV:  13    -0.317118691274E+03    0.11892E+00   -0.12477E+00 26664   0.394E+00    0.514E+00
DAV:  14    -0.317046943429E+03    0.71748E-01   -0.12976E+00 25824   0.435E+00    0.400E+00
DAV:  15    -0.316999775369E+03    0.47168E-01   -0.82874E-01 24800   0.388E+00    0.323E+00
DAV:  16    -0.316990974495E+03    0.88009E-02   -0.41023E-01 25712   0.257E+00    0.287E+00
DAV:  17    -0.316963462977E+03    0.27512E-01   -0.20101E-01 24104   0.192E+00    0.208E+00
DAV:  18    -0.316963950084E+03   -0.48711E-03   -0.12878E-01 24872   0.140E+00    0.188E+00
DAV:  19    -0.316952084310E+03    0.11866E-01   -0.51919E-02 26192   0.829E-01    0.117E+00
DAV:  20    -0.316948187682E+03    0.38966E-02   -0.58037E-02 25216   0.924E-01    0.682E-01
DAV:  21    -0.316945369313E+03    0.28184E-02   -0.20661E-02 25568   0.461E-01    0.373E-01
DAV:  22    -0.316944916989E+03    0.45232E-03   -0.73940E-03 24368   0.248E-01    0.184E-01
DAV:  23    -0.316944731527E+03    0.18546E-03   -0.34584E-03 23368   0.188E-01    0.117E-01
DAV:  24    -0.316944675777E+03    0.55750E-04   -0.16907E-03 21680   0.141E-01    0.104E-01
DAV:  25    -0.316944627850E+03    0.47927E-04   -0.45985E-04 14568   0.801E-02
   1 F= -.31694463E+03 E0= -.31694184E+03  d E =-.835600E-02
 writing wavefunctions
VASP is done!
