<?xml version="1.0" encoding="ISO-8859-1"?>
<modeling>
 <generator>
  <i name="program" type="string">vasp </i>
  <i name="version" type="string">5.4.4.18Apr17-6-g9f103f2a35  </i>
  <i name="subversion" type="string">(build Aug 09 2018 16:20:53) complex            parallel </i>
  <i name="platform" type="string">LinuxIFC </i>
  <i name="date" type="string">2020 04 28 </i>
  <i name="time" type="string">21:35:07 </i>
 </generator>
 <incar>
  <i type="string" name="SYSTEM"> Nb - Mo - Ta - Ti - V SQS</i>
  <i type="string" name="PREC">normal</i>
  <i type="int" name="ICHARG">     1</i>
  <i type="int" name="NELM">   100</i>
  <i type="int" name="IBRION">     2</i>
  <i name="ENCUT">    600.00000000</i>
  <i type="string" name="LREAL"> Auto</i>
  <i type="int" name="ISMEAR">     1</i>
  <i name="SIGMA">      0.20000000</i>
  <v type="int" name="KPOINT_BSE">    -1     0     0     0</v>
  <i type="int" name="NELM">   100</i>
  <i type="string" name="GGA"> PS</i>
 </incar>
 <structure name="primitive_cell" >
  <crystal>
   <varray name="basis" >
    <v>      -3.25000000      -3.25000000      -3.25000000 </v>
    <v>       1.62500000       1.62500000      -8.12500000 </v>
    <v>       8.12500000      -8.12500000      -1.62500000 </v>
   </varray>
   <i name="volume">    514.92187500 </i>
   <varray name="rec_basis" >
    <v>      -0.13333333      -0.12307692      -0.05128205 </v>
    <v>       0.04102564       0.06153846      -0.10256410 </v>
    <v>       0.06153846      -0.06153846       0.00000000 </v>
   </varray>
  </crystal>
  <varray name="positions" >
   <v>      -0.03333333      -0.06666667       0.40000000 </v>
   <v>       0.30000000      -0.40000000       0.40000000 </v>
   <v>      -0.10000000      -0.20000000       0.20000000 </v>
   <v>       0.06666667       0.13333333       0.20000000 </v>
   <v>       0.46666667      -0.06666667       0.40000000 </v>
   <v>      -0.13333333      -0.26666667      -0.40000000 </v>
   <v>       0.03333333       0.06666667      -0.40000000 </v>
   <v>      -0.36666667       0.26666667       0.40000000 </v>
   <v>       0.40000000      -0.20000000       0.20000000 </v>
   <v>      -0.20000000      -0.40000000       0.40000000 </v>
   <v>      -0.43333333       0.13333333       0.20000000 </v>
   <v>       0.36666667      -0.26666667      -0.40000000 </v>
   <v>       0.13333333       0.26666667       0.40000000 </v>
   <v>      -0.46666667       0.06666667      -0.40000000 </v>
   <v>       0.23333333       0.46666667       0.20000000 </v>
   <v>       0.20000000       0.40000000      -0.40000000 </v>
   <v>       0.00000000       0.00000000       0.00000000 </v>
   <v>      -0.06666667      -0.13333333      -0.20000000 </v>
   <v>      -0.30000000       0.40000000      -0.40000000 </v>
   <v>      -0.26666667       0.46666667       0.20000000 </v>
   <v>       0.33333333      -0.33333333       0.00000000 </v>
   <v>       0.43333333      -0.13333333      -0.20000000 </v>
   <v>      -0.50000000       0.00000000       0.00000000 </v>
   <v>       0.26666667      -0.46666667      -0.20000000 </v>
   <v>      -0.33333333       0.33333333       0.00000000 </v>
   <v>      -0.40000000       0.20000000      -0.20000000 </v>
   <v>      -0.16666667      -0.33333333       0.00000000 </v>
   <v>      -0.23333333      -0.46666667      -0.20000000 </v>
   <v>       0.16666667       0.33333333       0.00000000 </v>
   <v>       0.10000000       0.20000000      -0.20000000 </v>
  </varray>
 </structure>
 <varray name="primitive_index" >
  <v type="int" >        1 </v>
  <v type="int" >       18 </v>
  <v type="int" >        7 </v>
  <v type="int" >       24 </v>
  <v type="int" >       20 </v>
  <v type="int" >       19 </v>
  <v type="int" >        6 </v>
  <v type="int" >        2 </v>
  <v type="int" >       16 </v>
  <v type="int" >        8 </v>
  <v type="int" >       15 </v>
  <v type="int" >       11 </v>
  <v type="int" >       12 </v>
  <v type="int" >       28 </v>
  <v type="int" >       30 </v>
  <v type="int" >       23 </v>
  <v type="int" >        4 </v>
  <v type="int" >       14 </v>
  <v type="int" >       26 </v>
  <v type="int" >        9 </v>
  <v type="int" >       29 </v>
  <v type="int" >       17 </v>
  <v type="int" >        3 </v>
  <v type="int" >       22 </v>
  <v type="int" >       10 </v>
  <v type="int" >       27 </v>
  <v type="int" >       13 </v>
  <v type="int" >       25 </v>
  <v type="int" >       21 </v>
  <v type="int" >        5 </v>
 </varray>
 <kpoints>
  <generation param="Gamma">
   <v type="int" name="divisions">       5        5        5 </v>
   <v name="usershift">      0.00000000       0.00000000       0.00000000 </v>
   <v name="genvec1">      0.20000000       0.00000000       0.00000000 </v>
   <v name="genvec2">      0.00000000       0.20000000      -0.00000000 </v>
   <v name="genvec3">      0.00000000       0.00000000       0.20000000 </v>
   <v name="shift">      0.00000000       0.00000000       0.00000000 </v>
  </generation>
  <varray name="kpointlist" >
   <v>       0.00000000       0.00000000       0.00000000 </v>
   <v>       0.20000000      -0.00000000       0.00000000 </v>
   <v>       0.40000000      -0.00000000       0.00000000 </v>
   <v>       0.00000000       0.20000000      -0.00000000 </v>
   <v>       0.20000000       0.20000000      -0.00000000 </v>
   <v>       0.40000000       0.20000000       0.00000000 </v>
   <v>      -0.40000000       0.20000000       0.00000000 </v>
   <v>      -0.20000000       0.20000000       0.00000000 </v>
   <v>       0.00000000       0.40000000      -0.00000000 </v>
   <v>       0.20000000       0.40000000      -0.00000000 </v>
   <v>       0.40000000       0.40000000      -0.00000000 </v>
   <v>      -0.40000000       0.40000000       0.00000000 </v>
   <v>      -0.20000000       0.40000000      -0.00000000 </v>
   <v>       0.00000000       0.00000000       0.20000000 </v>
   <v>       0.20000000      -0.00000000       0.20000000 </v>
   <v>       0.40000000      -0.00000000       0.20000000 </v>
   <v>      -0.40000000       0.00000000       0.20000000 </v>
   <v>      -0.20000000       0.00000000       0.20000000 </v>
   <v>      -0.00000000       0.20000000       0.20000000 </v>
   <v>       0.20000000       0.20000000       0.20000000 </v>
   <v>       0.40000000       0.20000000       0.20000000 </v>
   <v>      -0.40000000       0.20000000       0.20000000 </v>
   <v>      -0.20000000       0.20000000       0.20000000 </v>
   <v>      -0.00000000       0.40000000       0.20000000 </v>
   <v>       0.20000000       0.40000000       0.20000000 </v>
   <v>       0.40000000       0.40000000       0.20000000 </v>
   <v>      -0.40000000       0.40000000       0.20000000 </v>
   <v>      -0.20000000       0.40000000       0.20000000 </v>
   <v>       0.00000000      -0.40000000       0.20000000 </v>
   <v>       0.20000000      -0.40000000       0.20000000 </v>
   <v>       0.40000000      -0.40000000       0.20000000 </v>
   <v>      -0.40000000      -0.40000000       0.20000000 </v>
   <v>      -0.20000000      -0.40000000       0.20000000 </v>
   <v>       0.00000000      -0.20000000       0.20000000 </v>
   <v>       0.20000000      -0.20000000       0.20000000 </v>
   <v>       0.40000000      -0.20000000       0.20000000 </v>
   <v>      -0.40000000      -0.20000000       0.20000000 </v>
   <v>      -0.20000000      -0.20000000       0.20000000 </v>
   <v>       0.00000000       0.00000000       0.40000000 </v>
   <v>       0.20000000      -0.00000000       0.40000000 </v>
   <v>       0.40000000      -0.00000000       0.40000000 </v>
   <v>      -0.40000000       0.00000000       0.40000000 </v>
   <v>      -0.20000000       0.00000000       0.40000000 </v>
   <v>       0.00000000       0.20000000       0.40000000 </v>
   <v>       0.20000000       0.20000000       0.40000000 </v>
   <v>       0.40000000       0.20000000       0.40000000 </v>
   <v>      -0.40000000       0.20000000       0.40000000 </v>
   <v>      -0.20000000       0.20000000       0.40000000 </v>
   <v>      -0.00000000       0.40000000       0.40000000 </v>
   <v>       0.20000000       0.40000000       0.40000000 </v>
   <v>       0.40000000       0.40000000       0.40000000 </v>
   <v>      -0.40000000       0.40000000       0.40000000 </v>
   <v>      -0.20000000       0.40000000       0.40000000 </v>
   <v>       0.00000000      -0.40000000       0.40000000 </v>
   <v>       0.20000000      -0.40000000       0.40000000 </v>
   <v>       0.40000000      -0.40000000       0.40000000 </v>
   <v>      -0.40000000      -0.40000000       0.40000000 </v>
   <v>      -0.20000000      -0.40000000       0.40000000 </v>
   <v>       0.00000000      -0.20000000       0.40000000 </v>
   <v>       0.20000000      -0.20000000       0.40000000 </v>
   <v>       0.40000000      -0.20000000       0.40000000 </v>
   <v>      -0.40000000      -0.20000000       0.40000000 </v>
   <v>      -0.20000000      -0.20000000       0.40000000 </v>
  </varray>
  <varray name="weights" >
   <v>       0.00800000 </v>
   <v>       0.01600000 </v>
   <v>       0.01600000 </v>
   <v>       0.01600000 </v>
   <v>       0.01600000 </v>
   <v>       0.01600000 </v>
   <v>       0.01600000 </v>
   <v>       0.01600000 </v>
   <v>       0.01600000 </v>
   <v>       0.01600000 </v>
   <v>       0.01600000 </v>
   <v>       0.01600000 </v>
   <v>       0.01600000 </v>
   <v>       0.01600000 </v>
   <v>       0.01600000 </v>
   <v>       0.01600000 </v>
   <v>       0.01600000 </v>
   <v>       0.01600000 </v>
   <v>       0.01600000 </v>
   <v>       0.01600000 </v>
   <v>       0.01600000 </v>
   <v>       0.01600000 </v>
   <v>       0.01600000 </v>
   <v>       0.01600000 </v>
   <v>       0.01600000 </v>
   <v>       0.01600000 </v>
   <v>       0.01600000 </v>
   <v>       0.01600000 </v>
   <v>       0.01600000 </v>
   <v>       0.01600000 </v>
   <v>       0.01600000 </v>
   <v>       0.01600000 </v>
   <v>       0.01600000 </v>
   <v>       0.01600000 </v>
   <v>       0.01600000 </v>
   <v>       0.01600000 </v>
   <v>       0.01600000 </v>
   <v>       0.01600000 </v>
   <v>       0.01600000 </v>
   <v>       0.01600000 </v>
   <v>       0.01600000 </v>
   <v>       0.01600000 </v>
   <v>       0.01600000 </v>
   <v>       0.01600000 </v>
   <v>       0.01600000 </v>
   <v>       0.01600000 </v>
   <v>       0.01600000 </v>
   <v>       0.01600000 </v>
   <v>       0.01600000 </v>
   <v>       0.01600000 </v>
   <v>       0.01600000 </v>
   <v>       0.01600000 </v>
   <v>       0.01600000 </v>
   <v>       0.01600000 </v>
   <v>       0.01600000 </v>
   <v>       0.01600000 </v>
   <v>       0.01600000 </v>
   <v>       0.01600000 </v>
   <v>       0.01600000 </v>
   <v>       0.01600000 </v>
   <v>       0.01600000 </v>
   <v>       0.01600000 </v>
   <v>       0.01600000 </v>
  </varray>
 </kpoints>
 <parameters>
  <separator name="general" >
   <i type="string" name="SYSTEM">Nb - Mo - Ta - Ti - V SQS</i>
   <i type="logical" name="LCOMPAT"> F  </i>
  </separator>
  <separator name="electronic" >
   <i type="string" name="PREC">normal</i>
   <i name="ENMAX">    600.00000000</i>
   <i name="ENAUG">    455.65900000</i>
   <i name="EDIFF">      0.00010000</i>
   <i type="int" name="IALGO">    38</i>
   <i type="int" name="IWAVPR">    10</i>
   <i type="int" name="NBANDS">   120</i>
   <i name="NELECT">    198.00000000</i>
   <i type="int" name="TURBO">     0</i>
   <i type="int" name="IRESTART">     0</i>
   <i type="int" name="NREBOOT">     0</i>
   <i type="int" name="NMIN">     0</i>
   <i name="EREF">      0.00000000</i>
   <separator name="electronic smearing" >
    <i type="int" name="ISMEAR">     1</i>
    <i name="SIGMA">      0.20000000</i>
    <i name="KSPACING">      0.50000000</i>
    <i type="logical" name="KGAMMA"> T  </i>
   </separator>
   <separator name="electronic projectors" >
    <i type="logical" name="LREAL"> T  </i>
    <v name="ROPT">     -0.00050000     -0.00050000     -0.00050000     -0.00050000     -0.00050000</v>
    <i type="int" name="LMAXPAW">  -100</i>
    <i type="int" name="LMAXMIX">     2</i>
    <i type="logical" name="NLSPLINE"> F  </i>
   </separator>
   <separator name="electronic startup" >
    <i type="int" name="ISTART">     1</i>
    <i type="int" name="ICHARG">     1</i>
    <i type="int" name="INIWAV">     1</i>
   </separator>
   <separator name="electronic spin" >
    <i type="int" name="ISPIN">     1</i>
    <i type="logical" name="LNONCOLLINEAR"> F  </i>
    <v name="MAGMOM">      1.00000000      1.00000000      1.00000000      1.00000000      1.00000000      1.00000000      1.00000000      1.00000000      1.00000000      1.00000000      1.00000000      1.00000000      1.00000000      1.00000000      1.00000000      1.00000000      1.00000000      1.00000000      1.00000000      1.00000000
      1.00000000      1.00000000      1.00000000      1.00000000      1.00000000      1.00000000      1.00000000      1.00000000      1.00000000      1.00000000</v>
    <i name="NUPDOWN">     -1.00000000</i>
    <i type="logical" name="LSORBIT"> F  </i>
    <v name="SAXIS">      0.00000000      0.00000000      1.00000000</v>
    <i type="logical" name="LSPIRAL"> F  </i>
    <v name="QSPIRAL">      0.00000000      0.00000000      0.00000000</v>
    <i type="logical" name="LZEROZ"> F  </i>
   </separator>
   <separator name="electronic exchange-correlation" >
    <i type="logical" name="LASPH"> F  </i>
    <i type="logical" name="LMETAGGA"> F  </i>
   </separator>
   <separator name="electronic convergence" >
    <i type="int" name="NELM">   100</i>
    <i type="int" name="NELMDL">     0</i>
    <i type="int" name="NELMIN">     2</i>
    <i name="ENINI">    600.00000000</i>
    <separator name="electronic convergence detail" >
     <i type="logical" name="LDIAG"> T  </i>
     <i type="logical" name="LSUBROT"> F  </i>
     <i name="WEIMIN">      0.00000000</i>
     <i name="EBREAK">      0.00000021</i>
     <i name="DEPER">      0.30000000</i>
     <i type="int" name="NRMM">     4</i>
     <i name="TIME">      0.40000000</i>
    </separator>
   </separator>
   <separator name="electronic mixer" >
    <i name="AMIX">      0.40000000</i>
    <i name="BMIX">      1.00000000</i>
    <i name="AMIN">      0.10000000</i>
    <i name="AMIX_MAG">      1.60000000</i>
    <i name="BMIX_MAG">      1.00000000</i>
    <separator name="electronic mixer details" >
     <i type="int" name="IMIX">     4</i>
     <i type="logical" name="MIXFIRST"> F  </i>
     <i type="int" name="MAXMIX">   -45</i>
     <i name="WC">    100.00000000</i>
     <i type="int" name="INIMIX">     1</i>
     <i type="int" name="MIXPRE">     1</i>
     <i type="int" name="MREMOVE">     5</i>
    </separator>
   </separator>
   <separator name="electronic dipolcorrection" >
    <i type="logical" name="LDIPOL"> F  </i>
    <i type="logical" name="LMONO"> F  </i>
    <i type="int" name="IDIPOL">     0</i>
    <i name="EPSILON">      1.00000000</i>
    <v name="DIPOL">   -100.00000000   -100.00000000   -100.00000000</v>
    <i name="EFIELD">      0.00000000</i>
   </separator>
  </separator>
  <separator name="grids" >
   <i type="int" name="NGX">    36</i>
   <i type="int" name="NGY">    54</i>
   <i type="int" name="NGZ">    70</i>
   <i type="int" name="NGXF">    72</i>
   <i type="int" name="NGYF">   108</i>
   <i type="int" name="NGZF">   140</i>
   <i type="logical" name="ADDGRID"> F  </i>
  </separator>
  <separator name="ionic" >
   <i type="int" name="NSW">     0</i>
   <i type="int" name="IBRION">    -1</i>
   <i type="int" name="MDALGO">     0</i>
   <i type="int" name="ISIF">     2</i>
   <i name="PSTRESS">      0.00000000</i>
   <i name="EDIFFG">      0.00100000</i>
   <i type="int" name="NFREE">     1</i>
   <i name="POTIM">      0.50000000</i>
   <i name="SMASS">     -3.00000000</i>
   <i name="SCALEE">      1.00000000</i>
  </separator>
  <separator name="ionic md" >
   <i name="TEBEG">      0.00010000</i>
   <i name="TEEND">      0.00010000</i>
   <i type="int" name="NBLOCK">     1</i>
   <i type="int" name="KBLOCK">     1</i>
   <i type="int" name="NPACO">   256</i>
   <i name="APACO">     16.00000000</i>
  </separator>
  <separator name="symmetry" >
   <i type="int" name="ISYM">     2</i>
   <i name="SYMPREC">      0.00001000</i>
  </separator>
  <separator name="dos" >
   <i type="int" name="LORBIT">     0</i>
   <v name="RWIGS">     -1.00000000     -1.00000000     -1.00000000     -1.00000000     -1.00000000</v>
   <i type="int" name="NEDOS">   301</i>
   <i name="EMIN">     10.00000000</i>
   <i name="EMAX">    -10.00000000</i>
   <i name="EFERMI">      0.00000000</i>
  </separator>
  <separator name="writing" >
   <i type="int" name="NWRITE">     2</i>
   <i type="logical" name="LWAVE"> T  </i>
   <i type="logical" name="LDOWNSAMPLE"> F  </i>
   <i type="logical" name="LCHARG"> T  </i>
   <i type="logical" name="LPARD"> F  </i>
   <i type="logical" name="LVTOT"> F  </i>
   <i type="logical" name="LVHAR"> F  </i>
   <i type="logical" name="LELF"> F  </i>
   <i type="logical" name="LOPTICS"> F  </i>
   <v name="STM">      0.00000000      0.00000000      0.00000000      0.00000000      0.00000000      0.00000000      0.00000000</v>
  </separator>
  <separator name="performance" >
   <i type="int" name="NPAR">     8</i>
   <i type="int" name="NSIM">     4</i>
   <i type="int" name="NBLK">    -1</i>
   <i type="logical" name="LPLANE"> T  </i>
   <i type="logical" name="LSCALAPACK"> T  </i>
   <i type="logical" name="LSCAAWARE"> F  </i>
   <i type="logical" name="LSCALU"> F  </i>
   <i type="logical" name="LASYNC"> F  </i>
   <i type="logical" name="LORBITALREAL"> F  </i>
  </separator>
  <separator name="miscellaneous" >
   <i type="int" name="IDIOT">     3</i>
   <i type="int" name="ISPECIAL">     0</i>
   <i type="logical" name="LMUSIC"> F  </i>
   <v name="POMASS">     92.91000000     95.94000000    180.94800000     47.88000000     50.94100000</v>
   <v name="DARWINR">      0.00000000      0.00000000      0.00000000      0.00000000      0.00000000</v>
   <v name="DARWINV">      1.00000000      1.00000000      1.00000000      1.00000000      1.00000000</v>
   <i type="logical" name="LCORR"> T  </i>
  </separator>
  <i type="logical" name="GGA_COMPAT"> T  </i>
  <i type="logical" name="LBERRY"> F  </i>
  <i type="int" name="ICORELEVEL">     0</i>
  <i type="logical" name="LDAU"> F  </i>
  <i type="int" name="I_CONSTRAINED_M">     0</i>
  <separator name="electronic exchange-correlation" >
   <i type="string" name="GGA">PS</i>
   <i type="int" name="VOSKOWN">     0</i>
   <i type="logical" name="LHFCALC"> F  </i>
   <i type="string" name="PRECFOCK"></i>
   <i type="logical" name="LSYMGRAD"> F  </i>
   <i type="logical" name="LHFONE"> F  </i>
   <i type="logical" name="LRHFCALC"> F  </i>
   <i type="logical" name="LTHOMAS"> F  </i>
   <i type="logical" name="LMODELHF"> F  </i>
   <i name="ENCUT4O">     -1.00000000</i>
   <i type="int" name="EXXOEP">     0</i>
   <i type="int" name="FOURORBIT">     0</i>
   <i name="AEXX">      0.00000000</i>
   <i name="HFALPHA">      0.00000000</i>
   <i name="MCALPHA">      0.00000000</i>
   <i name="ALDAX">      1.00000000</i>
   <i name="AGGAX">      1.00000000</i>
   <i name="ALDAC">      1.00000000</i>
   <i name="AGGAC">      1.00000000</i>
   <i type="int" name="NKREDX">     1</i>
   <i type="int" name="NKREDY">     1</i>
   <i type="int" name="NKREDZ">     1</i>
   <i type="logical" name="SHIFTRED"> F  </i>
   <i type="logical" name="ODDONLY"> F  </i>
   <i type="logical" name="EVENONLY"> F  </i>
   <i type="int" name="LMAXFOCK">     0</i>
   <i type="int" name="NMAXFOCKAE">     0</i>
   <i type="logical" name="LFOCKAEDFT"> F  </i>
   <i name="HFSCREEN">      0.00000000</i>
   <i name="HFSCREENC">      0.00000000</i>
   <i type="int" name="NBANDSGWLOW">     0</i>
  </separator>
  <separator name="vdW DFT" >
   <i type="logical" name="LUSE_VDW"> F  </i>
   <i name="Zab_VDW">     -0.84910000</i>
   <i name="PARAM1">      0.12340000</i>
   <i name="PARAM2">      1.00000000</i>
   <i name="PARAM3">      0.00000000</i>
  </separator>
  <separator name="model GW" >
   <i type="int" name="MODEL_GW">     0</i>
   <i name="MODEL_EPS0">     10.29843750</i>
   <i name="MODEL_ALPHA">      1.00000000</i>
  </separator>
  <separator name="linear response parameters" >
   <i type="logical" name="LEPSILON"> F  </i>
   <i type="logical" name="LRPA"> F  </i>
   <i type="logical" name="LNABLA"> F  </i>
   <i type="logical" name="LVEL"> F  </i>
   <i type="int" name="KINTER">     0</i>
   <i name="CSHIFT">      0.10000000</i>
   <i name="OMEGAMAX">     -1.00000000</i>
   <i name="DEG_THRESHOLD">      0.00200000</i>
   <i name="RTIME">     -0.10000000</i>
   <i name="WPLASMAI">      0.00000000</i>
   <v name="DFIELD">      0.00000000      0.00000000      0.00000000</v>
   <v name="WPLASMA">      0.00000000      0.00000000      0.00000000      0.00000000      0.00000000      0.00000000      0.00000000      0.00000000      0.00000000</v>
  </separator>
  <separator name="orbital magnetization" >
   <i type="logical" name="NUCIND"> F  </i>
   <v name="MAGPOS">      0.00000000      0.00000000      0.00000000</v>
   <i type="logical" name="LNICSALL"> T  </i>
   <i type="logical" name="ORBITALMAG"> F  </i>
   <i type="logical" name="LMAGBLOCH"> F  </i>
   <i type="logical" name="LCHIMAG"> F  </i>
   <i type="logical" name="LGAUGE"> T  </i>
   <i type="int" name="MAGATOM">     0</i>
   <v name="MAGDIPOL">      0.00000000      0.00000000      0.00000000</v>
   <v name="AVECCONST">      0.00000000      0.00000000      0.00000000</v>
  </separator>
  <separator name="response functions" >
   <i type="logical" name="LADDER"> F  </i>
   <i type="logical" name="LRPAFORCE"> F  </i>
   <i type="logical" name="LFXC"> F  </i>
   <i type="logical" name="LHARTREE"> T  </i>
   <i type="int" name="IBSE">     0</i>
   <v type="int" name="KPOINT">    -1     0     0     0</v>
   <i type="logical" name="LTCTE"> F  </i>
   <i type="logical" name="LTETE"> F  </i>
   <i type="logical" name="LTRIPLET"> F  </i>
   <i type="logical" name="LFXCEPS"> F  </i>
   <i type="logical" name="LFXHEG"> F  </i>
   <i type="int" name="NATURALO">     2</i>
   <i type="logical" name="L2ORDER"> F  </i>
   <i type="logical" name="LMP2LT"> F  </i>
   <i type="logical" name="LUSEW"> F  </i>
   <i name="ENCUTGW">     -2.00000000</i>
   <i name="ENCUTGWSOFT">     -2.00000000</i>
   <i name="ENCUTLF">     -1.00000000</i>
   <i type="int" name="LMAXMP2">    -1</i>
   <i name="SCISSOR">      0.00000000</i>
   <i type="int" name="NOMEGA">     0</i>
   <i type="int" name="NOMEGAR">     0</i>
   <i type="int" name="NBANDSGW">    -1</i>
   <i type="int" name="NBANDSO">    -1</i>
   <i type="int" name="NBANDSV">    -1</i>
   <i type="int" name="NELM">   100</i>
   <i type="int" name="NELMHF">     1</i>
   <i type="int" name="DIM">     3</i>
   <i type="int" name="ANTIRES">     0</i>
   <i name="OMEGAMAX">    -30.00000000</i>
   <i name="OMEGAMIN">    -30.00000000</i>
   <i name="OMEGATL">   -200.00000000</i>
   <i type="int" name="OMEGAGRID">   140</i>
   <i name="CSHIFT">     -0.10000000</i>
   <i type="logical" name="SELFENERGY"> F  </i>
   <i type="logical" name="LSPECTRAL"> F  </i>
   <i type="logical" name="LSPECTRALGW"> F  </i>
   <i type="logical" name="LSINGLES"> F  </i>
   <i type="logical" name="LFERMIGW"> F  </i>
   <i type="logical" name="ODDONLYGW"> F  </i>
   <i type="logical" name="EVENONLYGW"> F  </i>
   <i type="int" name="NKREDLFX">     1</i>
   <i type="int" name="NKREDLFY">     1</i>
   <i type="int" name="NKREDLFZ">     1</i>
   <i type="int" name="MAXMEM">  2800</i>
   <i type="int" name="TELESCOPE">     0</i>
   <i type="int" name="TAUPAR">     1</i>
   <i type="int" name="OMEGAPAR">    -1</i>
   <i name="LAMBDA">      1.00000000</i>
  </separator>
  <separator name="External order field" >
   <i name="OFIELD_KAPPA">      0.00000000</i>
   <v name="OFIELD_K">      0.00000000      0.00000000      0.00000000</v>
   <i name="OFIELD_Q6_NEAR">      0.00000000</i>
   <i name="OFIELD_Q6_FAR">      0.00000000</i>
   <i name="OFIELD_A">      0.00000000</i>
  </separator>
  <separator name="solvation model" >
   <i type="logical" name="LSOL"> F  </i>
  </separator>
 </parameters>
 <atominfo>
  <atoms>      30 </atoms>
  <types>       5 </types>
  <array name="atoms" >
   <dimension dim="1">ion</dimension>
   <field type="string">element</field>
   <field type="int">atomtype</field>
   <set>
    <rc><c>Nb</c><c>   1</c></rc>
    <rc><c>Nb</c><c>   1</c></rc>
    <rc><c>Nb</c><c>   1</c></rc>
    <rc><c>Nb</c><c>   1</c></rc>
    <rc><c>Nb</c><c>   1</c></rc>
    <rc><c>Nb</c><c>   1</c></rc>
    <rc><c>Mo</c><c>   2</c></rc>
    <rc><c>Mo</c><c>   2</c></rc>
    <rc><c>Mo</c><c>   2</c></rc>
    <rc><c>Mo</c><c>   2</c></rc>
    <rc><c>Mo</c><c>   2</c></rc>
    <rc><c>Mo</c><c>   2</c></rc>
    <rc><c>Ta</c><c>   3</c></rc>
    <rc><c>Ta</c><c>   3</c></rc>
    <rc><c>Ta</c><c>   3</c></rc>
    <rc><c>Ta</c><c>   3</c></rc>
    <rc><c>Ta</c><c>   3</c></rc>
    <rc><c>Ta</c><c>   3</c></rc>
    <rc><c>Ti</c><c>   4</c></rc>
    <rc><c>Ti</c><c>   4</c></rc>
    <rc><c>Ti</c><c>   4</c></rc>
    <rc><c>Ti</c><c>   4</c></rc>
    <rc><c>Ti</c><c>   4</c></rc>
    <rc><c>Ti</c><c>   4</c></rc>
    <rc><c>V </c><c>   5</c></rc>
    <rc><c>V </c><c>   5</c></rc>
    <rc><c>V </c><c>   5</c></rc>
    <rc><c>V </c><c>   5</c></rc>
    <rc><c>V </c><c>   5</c></rc>
    <rc><c>V </c><c>   5</c></rc>
   </set>
  </array>
  <array name="atomtypes" >
   <dimension dim="1">type</dimension>
   <field type="int">atomspertype</field>
   <field type="string">element</field>
   <field>mass</field>
   <field>valence</field>
   <field type="string">pseudopotential</field>
   <set>
    <rc><c>   6</c><c>Nb</c><c>     92.91000000</c><c>     13.00000000</c><c>  PAW_PBE Nb_sv 25May2007               </c></rc>
    <rc><c>   6</c><c>Mo</c><c>     95.94000000</c><c>      6.00000000</c><c>  PAW_PBE Mo 08Apr2002                  </c></rc>
    <rc><c>   6</c><c>Ta</c><c>    180.94800000</c><c>      5.00000000</c><c>  PAW_PBE Ta 17Jan2003                  </c></rc>
    <rc><c>   6</c><c>Ti</c><c>     47.88000000</c><c>      4.00000000</c><c>  PAW_PBE Ti 08Apr2002                  </c></rc>
    <rc><c>   6</c><c>V </c><c>     50.94100000</c><c>      5.00000000</c><c>  PAW_PBE V 08Apr2002                   </c></rc>
   </set>
  </array>
 </atominfo>
 <structure name="initialpos" >
  <crystal>
   <varray name="basis" >
    <v>      -3.25000000      -3.25000000      -3.25000000 </v>
    <v>       1.62500000       1.62500000      -8.12500000 </v>
    <v>       8.12500000      -8.12500000      -1.62500000 </v>
   </varray>
   <i name="volume">    514.92187500 </i>
   <varray name="rec_basis" >
    <v>      -0.13333333      -0.12307692      -0.05128205 </v>
    <v>       0.04102564       0.06153846      -0.10256410 </v>
    <v>       0.06153846      -0.06153846       0.00000000 </v>
   </varray>
  </crystal>
  <varray name="positions" >
   <v>       0.96666667       0.93333333       0.40000000 </v>
   <v>       0.63333333       0.26666667       0.40000000 </v>
   <v>       0.50000000       0.00000000       0.00000000 </v>
   <v>       0.00000000       0.00000000       0.00000000 </v>
   <v>       0.10000000       0.20000000       0.80000000 </v>
   <v>       0.03333333       0.06666667       0.60000000 </v>
   <v>       0.90000000       0.80000000       0.20000000 </v>
   <v>       0.80000000       0.60000000       0.40000000 </v>
   <v>       0.73333333       0.46666667       0.20000000 </v>
   <v>       0.66666667       0.33333333       0.00000000 </v>
   <v>       0.36666667       0.73333333       0.60000000 </v>
   <v>       0.13333333       0.26666667       0.40000000 </v>
   <v>       0.83333333       0.66666667       0.00000000 </v>
   <v>       0.93333333       0.86666667       0.80000000 </v>
   <v>       0.56666667       0.13333333       0.20000000 </v>
   <v>       0.40000000       0.80000000       0.20000000 </v>
   <v>       0.43333333       0.86666667       0.80000000 </v>
   <v>       0.30000000       0.60000000       0.40000000 </v>
   <v>       0.86666667       0.73333333       0.60000000 </v>
   <v>       0.46666667       0.93333333       0.40000000 </v>
   <v>       0.16666667       0.33333333       0.00000000 </v>
   <v>       0.26666667       0.53333333       0.80000000 </v>
   <v>       0.20000000       0.40000000       0.60000000 </v>
   <v>       0.06666667       0.13333333       0.20000000 </v>
   <v>       0.76666667       0.53333333       0.80000000 </v>
   <v>       0.70000000       0.40000000       0.60000000 </v>
   <v>       0.60000000       0.20000000       0.80000000 </v>
   <v>       0.53333333       0.06666667       0.60000000 </v>
   <v>       0.33333333       0.66666667       0.00000000 </v>
   <v>       0.23333333       0.46666667       0.20000000 </v>
  </varray>
 </structure>
 <calculation>
  <scstep>
   <time name="dav">   31.29   31.40</time>
   <time name="total">   31.98   32.11</time>
   <energy>
    <i name="alphaZ">   1130.67016471 </i>
    <i name="ewald"> -11215.03825910 </i>
    <i name="hartreedc">  -2981.52354352 </i>
    <i name="XCdc">   -896.90831822 </i>
    <i name="pawpsdc">  17327.07527293 </i>
    <i name="pawaedc"> -15834.76883358 </i>
    <i name="eentropy">     -0.01789357 </i>
    <i name="bandstr">   -909.35856237 </i>
    <i name="atom">  13005.90793652 </i>
    <i name="e_fr_energy">   -373.96203619 </i>
    <i name="e_wo_entrp">   -373.94414262 </i>
    <i name="e_0_energy">   -373.95607167 </i>
   </energy>
  </scstep>
  <scstep>
   <time name="dav">   30.85   30.88</time>
   <time name="total">   31.53   31.57</time>
   <energy>
    <i name="e_fr_energy">   -464.32524389 </i>
    <i name="e_wo_entrp">   -464.32376616 </i>
    <i name="e_0_energy">   -464.32475132 </i>
   </energy>
  </scstep>
  <scstep>
   <time name="dav">   33.24   33.28</time>
   <time name="total">   33.93   33.97</time>
   <energy>
    <i name="e_fr_energy">   -368.85820514 </i>
    <i name="e_wo_entrp">   -368.85981731 </i>
    <i name="e_0_energy">   -368.85874253 </i>
   </energy>
  </scstep>
  <scstep>
   <time name="dav">   30.54   30.57</time>
   <time name="total">   31.22   31.25</time>
   <energy>
    <i name="e_fr_energy">   -325.56213970 </i>
    <i name="e_wo_entrp">   -325.56826903 </i>
    <i name="e_0_energy">   -325.56418281 </i>
   </energy>
  </scstep>
  <scstep>
   <time name="dav">   30.70   30.73</time>
   <time name="total">   31.38   31.42</time>
   <energy>
    <i name="e_fr_energy">   -321.19190912 </i>
    <i name="e_wo_entrp">   -321.17259957 </i>
    <i name="e_0_energy">   -321.18547261 </i>
   </energy>
  </scstep>
  <scstep>
   <time name="dav">   28.06   28.09</time>
   <time name="total">   28.74   28.77</time>
   <energy>
    <i name="e_fr_energy">   -323.62509449 </i>
    <i name="e_wo_entrp">   -323.61716827 </i>
    <i name="e_0_energy">   -323.62245241 </i>
   </energy>
  </scstep>
  <scstep>
   <time name="dav">   31.01   31.04</time>
   <time name="total">   31.71   31.75</time>
   <energy>
    <i name="e_fr_energy">   -322.48052372 </i>
    <i name="e_wo_entrp">   -322.48527480 </i>
    <i name="e_0_energy">   -322.48210741 </i>
   </energy>
  </scstep>
  <scstep>
   <time name="dav">   28.98   29.01</time>
   <time name="total">   29.66   29.69</time>
   <energy>
    <i name="e_fr_energy">   -322.05349249 </i>
    <i name="e_wo_entrp">   -322.04614157 </i>
    <i name="e_0_energy">   -322.05104218 </i>
   </energy>
  </scstep>
  <scstep>
   <time name="dav">   30.86   30.89</time>
   <time name="total">   31.56   31.60</time>
   <energy>
    <i name="e_fr_energy">   -317.92875799 </i>
    <i name="e_wo_entrp">   -317.93150095 </i>
    <i name="e_0_energy">   -317.92967231 </i>
   </energy>
  </scstep>
  <scstep>
   <time name="dav">   30.94   30.97</time>
   <time name="total">   31.62   31.66</time>
   <energy>
    <i name="e_fr_energy">   -317.69630928 </i>
    <i name="e_wo_entrp">   -317.68568944 </i>
    <i name="e_0_energy">   -317.69276933 </i>
   </energy>
  </scstep>
  <scstep>
   <time name="dav">   30.64   30.68</time>
   <time name="total">   31.35   31.39</time>
   <energy>
    <i name="e_fr_energy">   -317.38812465 </i>
    <i name="e_wo_entrp">   -317.38700110 </i>
    <i name="e_0_energy">   -317.38775013 </i>
   </energy>
  </scstep>
  <scstep>
   <time name="dav">   29.13   29.16</time>
   <time name="total">   29.82   29.85</time>
   <energy>
    <i name="e_fr_energy">   -317.23761561 </i>
    <i name="e_wo_entrp">   -317.22766652 </i>
    <i name="e_0_energy">   -317.23429925 </i>
   </energy>
  </scstep>
  <scstep>
   <time name="dav">   31.39   31.42</time>
   <time name="total">   32.09   32.13</time>
   <energy>
    <i name="e_fr_energy">   -317.11869127 </i>
    <i name="e_wo_entrp">   -317.11095959 </i>
    <i name="e_0_energy">   -317.11611405 </i>
   </energy>
  </scstep>
  <scstep>
   <time name="dav">   30.34   30.37</time>
   <time name="total">   31.02   31.07</time>
   <energy>
    <i name="e_fr_energy">   -317.04694343 </i>
    <i name="e_wo_entrp">   -317.04488613 </i>
    <i name="e_0_energy">   -317.04625766 </i>
   </energy>
  </scstep>
  <scstep>
   <time name="dav">   29.31   29.35</time>
   <time name="total">   30.00   30.04</time>
   <energy>
    <i name="e_fr_energy">   -316.99977537 </i>
    <i name="e_wo_entrp">   -316.99072067 </i>
    <i name="e_0_energy">   -316.99675714 </i>
   </energy>
  </scstep>
  <scstep>
   <time name="dav">   30.47   30.51</time>
   <time name="total">   31.16   31.20</time>
   <energy>
    <i name="e_fr_energy">   -316.99097450 </i>
    <i name="e_wo_entrp">   -316.98388411 </i>
    <i name="e_0_energy">   -316.98861103 </i>
   </energy>
  </scstep>
  <scstep>
   <time name="dav">   28.98   29.01</time>
   <time name="total">   29.67   29.70</time>
   <energy>
    <i name="e_fr_energy">   -316.96346298 </i>
    <i name="e_wo_entrp">   -316.95521763 </i>
    <i name="e_0_energy">   -316.96071453 </i>
   </energy>
  </scstep>
  <scstep>
   <time name="dav">   29.93   29.95</time>
   <time name="total">   30.63   30.66</time>
   <energy>
    <i name="e_fr_energy">   -316.96395008 </i>
    <i name="e_wo_entrp">   -316.95572419 </i>
    <i name="e_0_energy">   -316.96120812 </i>
   </energy>
  </scstep>
  <scstep>
   <time name="dav">   31.29   31.32</time>
   <time name="total">   31.99   32.03</time>
   <energy>
    <i name="e_fr_energy">   -316.95208431 </i>
    <i name="e_wo_entrp">   -316.94409680 </i>
    <i name="e_0_energy">   -316.94942181 </i>
   </energy>
  </scstep>
  <scstep>
   <time name="dav">   29.94   29.96</time>
   <time name="total">   30.63   30.66</time>
   <energy>
    <i name="e_fr_energy">   -316.94818768 </i>
    <i name="e_wo_entrp">   -316.94070721 </i>
    <i name="e_0_energy">   -316.94569419 </i>
   </energy>
  </scstep>
  <scstep>
   <time name="dav">   30.27   30.29</time>
   <time name="total">   30.96   30.99</time>
   <energy>
    <i name="e_fr_energy">   -316.94536931 </i>
    <i name="e_wo_entrp">   -316.93720079 </i>
    <i name="e_0_energy">   -316.94264647 </i>
   </energy>
  </scstep>
  <scstep>
   <time name="dav">   29.11   29.13</time>
   <time name="total">   29.80   29.83</time>
   <energy>
    <i name="e_fr_energy">   -316.94491699 </i>
    <i name="e_wo_entrp">   -316.93694037 </i>
    <i name="e_0_energy">   -316.94225812 </i>
   </energy>
  </scstep>
  <scstep>
   <time name="dav">   28.07   28.10</time>
   <time name="total">   28.76   28.80</time>
   <energy>
    <i name="e_fr_energy">   -316.94473153 </i>
    <i name="e_wo_entrp">   -316.93639368 </i>
    <i name="e_0_energy">   -316.94195224 </i>
   </energy>
  </scstep>
  <scstep>
   <time name="dav">   26.35   26.37</time>
   <time name="total">   27.04   27.06</time>
   <energy>
    <i name="e_fr_energy">   -316.94467578 </i>
    <i name="e_wo_entrp">   -316.93642955 </i>
    <i name="e_0_energy">   -316.94192704 </i>
   </energy>
  </scstep>
  <scstep>
   <time name="dav">   19.36   19.39</time>
   <time name="total">   19.40   19.42</time>
   <energy>
    <i name="alphaZ">   1130.67016471 </i>
    <i name="ewald"> -11215.03825910 </i>
    <i name="hartreedc">  -3025.26135715 </i>
    <i name="XCdc">   -892.96212907 </i>
    <i name="pawpsdc">  17365.07643941 </i>
    <i name="pawaedc"> -15855.16709143 </i>
    <i name="eentropy">     -0.00835600 </i>
    <i name="bandstr">   -830.16197575 </i>
    <i name="atom">  13005.90793652 </i>
    <i name="e_fr_energy">   -316.94462785 </i>
    <i name="e_wo_entrp">   -316.93627185 </i>
    <i name="e_0_energy">   -316.94184252 </i>
   </energy>
  </scstep>
  <structure>
   <crystal>
    <varray name="basis" >
     <v>      -3.25000000      -3.25000000      -3.25000000 </v>
     <v>       1.62500000       1.62500000      -8.12500000 </v>
     <v>       8.12500000      -8.12500000      -1.62500000 </v>
    </varray>
    <i name="volume">    514.92187500 </i>
    <varray name="rec_basis" >
     <v>      -0.13333333      -0.12307692      -0.05128205 </v>
     <v>       0.04102564       0.06153846      -0.10256410 </v>
     <v>       0.06153846      -0.06153846       0.00000000 </v>
    </varray>
   </crystal>
   <varray name="positions" >
    <v>       0.96666667       0.93333333       0.40000000 </v>
    <v>       0.63333333       0.26666667       0.40000000 </v>
    <v>       0.50000000       0.00000000       0.00000000 </v>
    <v>       0.00000000       0.00000000       0.00000000 </v>
    <v>       0.10000000       0.20000000       0.80000000 </v>
    <v>       0.03333333       0.06666667       0.60000000 </v>
    <v>       0.90000000       0.80000000       0.20000000 </v>
    <v>       0.80000000       0.60000000       0.40000000 </v>
    <v>       0.73333333       0.46666667       0.20000000 </v>
    <v>       0.66666667       0.33333333       0.00000000 </v>
    <v>       0.36666667       0.73333333       0.60000000 </v>
    <v>       0.13333333       0.26666667       0.40000000 </v>
    <v>       0.83333333       0.66666667       0.00000000 </v>
    <v>       0.93333333       0.86666667       0.80000000 </v>
    <v>       0.56666667       0.13333333       0.20000000 </v>
    <v>       0.40000000       0.80000000       0.20000000 </v>
    <v>       0.43333333       0.86666667       0.80000000 </v>
    <v>       0.30000000       0.60000000       0.40000000 </v>
    <v>       0.86666667       0.73333333       0.60000000 </v>
    <v>       0.46666667       0.93333333       0.40000000 </v>
    <v>       0.16666667       0.33333333       0.00000000 </v>
    <v>       0.26666667       0.53333333       0.80000000 </v>
    <v>       0.20000000       0.40000000       0.60000000 </v>
    <v>       0.06666667       0.13333333       0.20000000 </v>
    <v>       0.76666667       0.53333333       0.80000000 </v>
    <v>       0.70000000       0.40000000       0.60000000 </v>
    <v>       0.60000000       0.20000000       0.80000000 </v>
    <v>       0.53333333       0.06666667       0.60000000 </v>
    <v>       0.33333333       0.66666667       0.00000000 </v>
    <v>       0.23333333       0.46666667       0.20000000 </v>
   </varray>
  </structure>
  <varray name="forces" >
   <v>      -0.04721541       0.43961719       0.24787756 </v>
   <v>       0.21129648      -0.05048647      -0.00097788 </v>
   <v>      -0.14435204       0.26126236      -0.10029231 </v>
   <v>       0.24441213       0.00963301       0.01225788 </v>
   <v>      -0.06600497       0.52019262      -0.30548975 </v>
   <v>      -0.30510346       0.19271256      -0.27721688 </v>
   <v>       0.07184282      -0.45445567       0.10828325 </v>
   <v>      -0.63368704      -0.20062653       0.58587191 </v>
   <v>      -0.07495502       0.31868198       0.00883373 </v>
   <v>       0.16750163       0.29198630      -0.48521590 </v>
   <v>      -0.04492637      -0.24977827       0.23979267 </v>
   <v>       0.16396006       0.18235682      -0.59281232 </v>
   <v>       0.22804473      -0.38741317       0.28883801 </v>
   <v>       0.30672887       0.25461489      -0.14340325 </v>
   <v>      -0.36085050       0.42021000      -0.11273869 </v>
   <v>      -0.68838765      -0.14689236       0.69052831 </v>
   <v>      -0.73408663      -0.05705647       0.57987070 </v>
   <v>       0.30121678      -0.25066292      -0.28908466 </v>
   <v>       0.03856063       0.23902770       0.37279911 </v>
   <v>       0.50249576      -0.42867577       0.16729664 </v>
   <v>      -0.01219226      -0.16598051      -0.32222111 </v>
   <v>      -0.29219031       0.02939404      -0.31528805 </v>
   <v>      -0.30809743      -0.01173190       0.51870897 </v>
   <v>       0.61206393      -0.16110261      -0.74503061 </v>
   <v>       0.13102369      -0.41909293       0.46913145 </v>
   <v>       0.44949205       0.20544771      -0.39494476 </v>
   <v>       0.01980539       0.12557416      -0.09632632 </v>
   <v>       0.18594544      -0.45852935      -0.40861601 </v>
   <v>      -0.21856633      -0.19435508       0.45750865 </v>
   <v>       0.29622503       0.14612869      -0.15794034 </v>
  </varray>
  <varray name="stress" >
   <v>    -137.22657572      -2.44764505       1.23972045 </v>
   <v>      -2.44764523    -139.38402159      -0.19854068 </v>
   <v>       1.23972046      -0.19854067    -138.42360907 </v>
  </varray>
  <energy>
   <i name="e_fr_energy">   -316.94462785 </i>
   <i name="e_wo_entrp">   -316.94184252 </i>
   <i name="e_0_energy">     -0.00835600 </i>
  </energy>
  <time name="totalsc">  783.83  789.59</time>
  <eigenvalues>
   <array>
    <dimension dim="1">band</dimension>
    <dimension dim="2">kpoint</dimension>
    <dimension dim="3">spin</dimension>
    <field>eigene</field>
    <field>occ</field>
    <set>
     <set comment="spin 1">
      <set comment="kpoint 1">
       <r>  -48.1982    1.0000 </r>
       <r>  -48.1786    1.0000 </r>
       <r>  -48.1467    1.0000 </r>
       <r>  -48.1107    1.0000 </r>
       <r>  -48.0857    1.0000 </r>
       <r>  -47.9889    1.0000 </r>
       <r>  -24.7792    1.0000 </r>
       <r>  -24.6627    1.0000 </r>
       <r>  -24.5353    1.0000 </r>
       <r>  -24.5012    1.0000 </r>
       <r>  -24.3256    1.0000 </r>
       <r>  -24.3149    1.0000 </r>
       <r>  -24.3117    1.0000 </r>
       <r>  -24.2727    1.0000 </r>
       <r>  -24.2601    1.0000 </r>
       <r>  -24.2442    1.0000 </r>
       <r>  -24.2310    1.0000 </r>
       <r>  -24.1892    1.0000 </r>
       <r>  -24.1394    1.0000 </r>
       <r>  -24.1279    1.0000 </r>
       <r>  -24.0241    1.0000 </r>
       <r>  -24.0082    1.0000 </r>
       <r>  -23.8880    1.0000 </r>
       <r>  -23.6918    1.0000 </r>
       <r>   -0.6570    1.0000 </r>
       <r>    0.5687    1.0000 </r>
       <r>    0.9181    1.0000 </r>
       <r>    1.7480    1.0000 </r>
       <r>    1.9331    1.0000 </r>
       <r>    2.0050    1.0000 </r>
       <r>    2.1470    1.0000 </r>
       <r>    2.2838    1.0000 </r>
       <r>    2.3140    1.0000 </r>
       <r>    2.3775    1.0000 </r>
       <r>    2.4496    1.0000 </r>
       <r>    2.5295    1.0000 </r>
       <r>    2.5954    1.0000 </r>
       <r>    2.6155    1.0000 </r>
       <r>    2.7573    1.0000 </r>
       <r>    2.8493    1.0000 </r>
       <r>    2.8898    1.0000 </r>
       <r>    3.0278    1.0000 </r>
       <r>    3.1190    1.0000 </r>
       <r>    3.1432    1.0000 </r>
       <r>    3.1762    1.0000 </r>
       <r>    3.2479    1.0000 </r>
       <r>    3.3223    1.0000 </r>
       <r>    3.3495    1.0000 </r>
       <r>    3.4261    1.0000 </r>
       <r>    3.4953    1.0000 </r>
       <r>    3.5657    1.0000 </r>
       <r>    3.6452    1.0000 </r>
       <r>    3.6993    1.0000 </r>
       <r>    3.7352    1.0000 </r>
       <r>    3.8742    1.0000 </r>
       <r>    3.9218    1.0000 </r>
       <r>    3.9970    1.0000 </r>
       <r>    4.0292    1.0000 </r>
       <r>    4.2071    1.0000 </r>
       <r>    4.2405    1.0000 </r>
       <r>    4.3125    1.0000 </r>
       <r>    4.3570    1.0000 </r>
       <r>    4.3648    1.0000 </r>
       <r>    4.4402    1.0000 </r>
       <r>    4.4458    1.0000 </r>
       <r>    4.5314    1.0000 </r>
       <r>    4.5501    1.0000 </r>
       <r>    4.6250    1.0000 </r>
       <r>    4.6506    1.0000 </r>
       <r>    4.6910    1.0000 </r>
       <r>    4.7390    1.0000 </r>
       <r>    4.7639    1.0000 </r>
       <r>    4.8273    1.0000 </r>
       <r>    4.8691    1.0000 </r>
       <r>    4.8850    1.0000 </r>
       <r>    4.8920    1.0000 </r>
       <r>    4.9217    1.0000 </r>
       <r>    5.0216    1.0000 </r>
       <r>    5.0834    1.0000 </r>
       <r>    5.1640    1.0000 </r>
       <r>    5.2850    1.0000 </r>
       <r>    5.3576    1.0002 </r>
       <r>    5.4055    1.0007 </r>
       <r>    5.4335    1.0014 </r>
       <r>    5.4617    1.0025 </r>
       <r>    5.5227    1.0075 </r>
       <r>    5.5776    1.0167 </r>
       <r>    5.6006    1.0217 </r>
       <r>    5.6132    1.0247 </r>
       <r>    5.6319    1.0289 </r>
       <r>    5.6393    1.0304 </r>
       <r>    5.6920    1.0350 </r>
       <r>    5.7206    1.0278 </r>
       <r>    5.7596    0.9982 </r>
       <r>    5.9008    0.6072 </r>
       <r>    5.9425    0.4322 </r>
       <r>    5.9978    0.2180 </r>
       <r>    6.0350    0.1071 </r>
       <r>    6.0519    0.0679 </r>
       <r>    6.1186   -0.0206 </r>
       <r>    6.1665   -0.0354 </r>
       <r>    6.2011   -0.0327 </r>
       <r>    6.3045   -0.0112 </r>
       <r>    6.3334   -0.0071 </r>
       <r>    6.3484   -0.0055 </r>
       <r>    6.3986   -0.0021 </r>
       <r>    6.5986   -0.0000 </r>
       <r>    6.7374   -0.0000 </r>
       <r>    6.7521   -0.0000 </r>
       <r>    6.8333   -0.0000 </r>
       <r>    7.2756   -0.0000 </r>
       <r>    7.4244   -0.0000 </r>
       <r>    7.5416   -0.0000 </r>
       <r>    7.6032   -0.0000 </r>
       <r>    7.6565   -0.0000 </r>
       <r>    7.6969   -0.0000 </r>
       <r>    7.7134   -0.0000 </r>
       <r>    7.7419   -0.0000 </r>
       <r>    7.8102   -0.0000 </r>
       <r>    7.8325   -0.0000 </r>
      </set>
      <set comment="kpoint 2">
       <r>  -48.1971    1.0000 </r>
       <r>  -48.1744    1.0000 </r>
       <r>  -48.1446    1.0000 </r>
       <r>  -48.1099    1.0000 </r>
       <r>  -48.0850    1.0000 </r>
       <r>  -47.9974    1.0000 </r>
       <r>  -24.7035    1.0000 </r>
       <r>  -24.6500    1.0000 </r>
       <r>  -24.5301    1.0000 </r>
       <r>  -24.4960    1.0000 </r>
       <r>  -24.3279    1.0000 </r>
       <r>  -24.3159    1.0000 </r>
       <r>  -24.3071    1.0000 </r>
       <r>  -24.2739    1.0000 </r>
       <r>  -24.2591    1.0000 </r>
       <r>  -24.2468    1.0000 </r>
       <r>  -24.2328    1.0000 </r>
       <r>  -24.1908    1.0000 </r>
       <r>  -24.1474    1.0000 </r>
       <r>  -24.1298    1.0000 </r>
       <r>  -24.0286    1.0000 </r>
       <r>  -24.0121    1.0000 </r>
       <r>  -23.8894    1.0000 </r>
       <r>  -23.7943    1.0000 </r>
       <r>   -0.3661    1.0000 </r>
       <r>    0.8258    1.0000 </r>
       <r>    1.1656    1.0000 </r>
       <r>    1.7524    1.0000 </r>
       <r>    2.1299    1.0000 </r>
       <r>    2.2319    1.0000 </r>
       <r>    2.2986    1.0000 </r>
       <r>    2.4374    1.0000 </r>
       <r>    2.4687    1.0000 </r>
       <r>    2.5034    1.0000 </r>
       <r>    2.6174    1.0000 </r>
       <r>    2.6833    1.0000 </r>
       <r>    2.7483    1.0000 </r>
       <r>    2.8225    1.0000 </r>
       <r>    2.9096    1.0000 </r>
       <r>    2.9524    1.0000 </r>
       <r>    2.9966    1.0000 </r>
       <r>    3.0162    1.0000 </r>
       <r>    3.1162    1.0000 </r>
       <r>    3.1709    1.0000 </r>
       <r>    3.2724    1.0000 </r>
       <r>    3.3169    1.0000 </r>
       <r>    3.3920    1.0000 </r>
       <r>    3.4675    1.0000 </r>
       <r>    3.5094    1.0000 </r>
       <r>    3.5431    1.0000 </r>
       <r>    3.6339    1.0000 </r>
       <r>    3.7067    1.0000 </r>
       <r>    3.7538    1.0000 </r>
       <r>    3.8241    1.0000 </r>
       <r>    3.8880    1.0000 </r>
       <r>    3.9640    1.0000 </r>
       <r>    4.0297    1.0000 </r>
       <r>    4.1129    1.0000 </r>
       <r>    4.2322    1.0000 </r>
       <r>    4.2811    1.0000 </r>
       <r>    4.3389    1.0000 </r>
       <r>    4.4643    1.0000 </r>
       <r>    4.4747    1.0000 </r>
       <r>    4.5501    1.0000 </r>
       <r>    4.5833    1.0000 </r>
       <r>    4.6070    1.0000 </r>
       <r>    4.6490    1.0000 </r>
       <r>    4.7168    1.0000 </r>
       <r>    4.7260    1.0000 </r>
       <r>    4.7364    1.0000 </r>
       <r>    4.8092    1.0000 </r>
       <r>    4.8348    1.0000 </r>
       <r>    4.8893    1.0000 </r>
       <r>    4.8983    1.0000 </r>
       <r>    4.9827    1.0000 </r>
       <r>    5.0077    1.0000 </r>
       <r>    5.0242    1.0000 </r>
       <r>    5.0496    1.0000 </r>
       <r>    5.0865    1.0000 </r>
       <r>    5.1350    1.0000 </r>
       <r>    5.1386    1.0000 </r>
       <r>    5.2326    1.0000 </r>
       <r>    5.2744    1.0000 </r>
       <r>    5.3337    1.0001 </r>
       <r>    5.3561    1.0002 </r>
       <r>    5.4004    1.0006 </r>
       <r>    5.4256    1.0011 </r>
       <r>    5.5155    1.0067 </r>
       <r>    5.5963    1.0208 </r>
       <r>    5.6291    1.0283 </r>
       <r>    5.6561    1.0334 </r>
       <r>    5.6902    1.0351 </r>
       <r>    5.7361    1.0193 </r>
       <r>    5.7665    0.9899 </r>
       <r>    5.8594    0.7665 </r>
       <r>    5.8749    0.7100 </r>
       <r>    5.8994    0.6128 </r>
       <r>    5.9471    0.4130 </r>
       <r>    5.9995    0.2123 </r>
       <r>    6.0326    0.1132 </r>
       <r>    6.0633    0.0455 </r>
       <r>    6.1152   -0.0183 </r>
       <r>    6.1611   -0.0350 </r>
       <r>    6.1961   -0.0335 </r>
       <r>    6.2242   -0.0281 </r>
       <r>    6.2720   -0.0173 </r>
       <r>    6.3138   -0.0097 </r>
       <r>    6.4827   -0.0003 </r>
       <r>    6.5408   -0.0001 </r>
       <r>    6.6459   -0.0000 </r>
       <r>    6.9158   -0.0000 </r>
       <r>    7.0058   -0.0000 </r>
       <r>    7.0538   -0.0000 </r>
       <r>    7.1088   -0.0000 </r>
       <r>    7.2044   -0.0000 </r>
       <r>    7.3479   -0.0000 </r>
       <r>    7.4008   -0.0000 </r>
       <r>    7.4534   -0.0000 </r>
       <r>    7.4702   -0.0000 </r>
       <r>    7.5137   -0.0000 </r>
      </set>
      <set comment="kpoint 3">
       <r>  -48.1958    1.0000 </r>
       <r>  -48.1680    1.0000 </r>
       <r>  -48.1396    1.0000 </r>
       <r>  -48.1078    1.0000 </r>
       <r>  -48.0830    1.0000 </r>
       <r>  -48.0137    1.0000 </r>
       <r>  -24.6719    1.0000 </r>
       <r>  -24.5467    1.0000 </r>
       <r>  -24.5095    1.0000 </r>
       <r>  -24.4004    1.0000 </r>
       <r>  -24.3324    1.0000 </r>
       <r>  -24.3184    1.0000 </r>
       <r>  -24.2982    1.0000 </r>
       <r>  -24.2747    1.0000 </r>
       <r>  -24.2577    1.0000 </r>
       <r>  -24.2468    1.0000 </r>
       <r>  -24.2357    1.0000 </r>
       <r>  -24.1932    1.0000 </r>
       <r>  -24.1652    1.0000 </r>
       <r>  -24.1332    1.0000 </r>
       <r>  -24.0802    1.0000 </r>
       <r>  -24.0300    1.0000 </r>
       <r>  -24.0017    1.0000 </r>
       <r>  -23.8850    1.0000 </r>
       <r>    0.4221    1.0000 </r>
       <r>    1.3289    1.0000 </r>
       <r>    1.6511    1.0000 </r>
       <r>    1.8664    1.0000 </r>
       <r>    1.9462    1.0000 </r>
       <r>    2.3336    1.0000 </r>
       <r>    2.3852    1.0000 </r>
       <r>    2.5580    1.0000 </r>
       <r>    2.6699    1.0000 </r>
       <r>    2.7782    1.0000 </r>
       <r>    2.8879    1.0000 </r>
       <r>    2.9049    1.0000 </r>
       <r>    3.0129    1.0000 </r>
       <r>    3.0527    1.0000 </r>
       <r>    3.1536    1.0000 </r>
       <r>    3.2006    1.0000 </r>
       <r>    3.2406    1.0000 </r>
       <r>    3.2747    1.0000 </r>
       <r>    3.3202    1.0000 </r>
       <r>    3.3864    1.0000 </r>
       <r>    3.4741    1.0000 </r>
       <r>    3.5089    1.0000 </r>
       <r>    3.5597    1.0000 </r>
       <r>    3.5815    1.0000 </r>
       <r>    3.6922    1.0000 </r>
       <r>    3.7208    1.0000 </r>
       <r>    3.8465    1.0000 </r>
       <r>    3.8972    1.0000 </r>
       <r>    3.9533    1.0000 </r>
       <r>    4.0338    1.0000 </r>
       <r>    4.1134    1.0000 </r>
       <r>    4.1602    1.0000 </r>
       <r>    4.2299    1.0000 </r>
       <r>    4.2665    1.0000 </r>
       <r>    4.2933    1.0000 </r>
       <r>    4.3436    1.0000 </r>
       <r>    4.3824    1.0000 </r>
       <r>    4.4223    1.0000 </r>
       <r>    4.4671    1.0000 </r>
       <r>    4.5022    1.0000 </r>
       <r>    4.5231    1.0000 </r>
       <r>    4.6126    1.0000 </r>
       <r>    4.6310    1.0000 </r>
       <r>    4.6590    1.0000 </r>
       <r>    4.6999    1.0000 </r>
       <r>    4.7449    1.0000 </r>
       <r>    4.8019    1.0000 </r>
       <r>    4.8435    1.0000 </r>
       <r>    4.8746    1.0000 </r>
       <r>    4.9209    1.0000 </r>
       <r>    4.9797    1.0000 </r>
       <r>    5.0230    1.0000 </r>
       <r>    5.0793    1.0000 </r>
       <r>    5.1025    1.0000 </r>
       <r>    5.1249    1.0000 </r>
       <r>    5.1552    1.0000 </r>
       <r>    5.2346    1.0000 </r>
       <r>    5.2896    1.0000 </r>
       <r>    5.3209    1.0001 </r>
       <r>    5.3611    1.0002 </r>
       <r>    5.4025    1.0007 </r>
       <r>    5.4483    1.0019 </r>
       <r>    5.4884    1.0041 </r>
       <r>    5.5221    1.0075 </r>
       <r>    5.5698    1.0151 </r>
       <r>    5.5871    1.0187 </r>
       <r>    5.6157    1.0252 </r>
       <r>    5.6398    1.0305 </r>
       <r>    5.6788    1.0354 </r>
       <r>    5.7011    1.0338 </r>
       <r>    5.7132    1.0307 </r>
       <r>    5.7796    0.9712 </r>
       <r>    5.8204    0.8860 </r>
       <r>    5.8674    0.7380 </r>
       <r>    5.9094    0.5716 </r>
       <r>    5.9254    0.5041 </r>
       <r>    5.9658    0.3366 </r>
       <r>    6.0082    0.1838 </r>
       <r>    6.0215    0.1435 </r>
       <r>    6.0958   -0.0012 </r>
       <r>    6.1052   -0.0104 </r>
       <r>    6.1676   -0.0354 </r>
       <r>    6.2214   -0.0287 </r>
       <r>    6.2436   -0.0237 </r>
       <r>    6.2738   -0.0169 </r>
       <r>    6.3357   -0.0068 </r>
       <r>    6.3698   -0.0037 </r>
       <r>    6.4134   -0.0015 </r>
       <r>    6.6813   -0.0000 </r>
       <r>    6.7974   -0.0000 </r>
       <r>    6.8183   -0.0000 </r>
       <r>    6.9270   -0.0000 </r>
       <r>    7.0084   -0.0000 </r>
       <r>    7.0294   -0.0000 </r>
       <r>    7.1347   -0.0000 </r>
       <r>    7.2223   -0.0000 </r>
      </set>
      <set comment="kpoint 4">
       <r>  -48.1981    1.0000 </r>
       <r>  -48.1785    1.0000 </r>
       <r>  -48.1467    1.0000 </r>
       <r>  -48.1109    1.0000 </r>
       <r>  -48.0857    1.0000 </r>
       <r>  -47.9889    1.0000 </r>
       <r>  -24.7792    1.0000 </r>
       <r>  -24.6620    1.0000 </r>
       <r>  -24.5328    1.0000 </r>
       <r>  -24.5006    1.0000 </r>
       <r>  -24.3258    1.0000 </r>
       <r>  -24.3150    1.0000 </r>
       <r>  -24.3117    1.0000 </r>
       <r>  -24.2728    1.0000 </r>
       <r>  -24.2601    1.0000 </r>
       <r>  -24.2441    1.0000 </r>
       <r>  -24.2310    1.0000 </r>
       <r>  -24.1891    1.0000 </r>
       <r>  -24.1394    1.0000 </r>
       <r>  -24.1280    1.0000 </r>
       <r>  -24.0257    1.0000 </r>
       <r>  -24.0109    1.0000 </r>
       <r>  -23.8883    1.0000 </r>
       <r>  -23.6918    1.0000 </r>
       <r>   -0.5348    1.0000 </r>
       <r>    0.6297    1.0000 </r>
       <r>    1.0320    1.0000 </r>
       <r>    1.2468    1.0000 </r>
       <r>    1.8550    1.0000 </r>
       <r>    2.0904    1.0000 </r>
       <r>    2.1698    1.0000 </r>
       <r>    2.3205    1.0000 </r>
       <r>    2.3491    1.0000 </r>
       <r>    2.4247    1.0000 </r>
       <r>    2.4835    1.0000 </r>
       <r>    2.5626    1.0000 </r>
       <r>    2.6061    1.0000 </r>
       <r>    2.6826    1.0000 </r>
       <r>    2.7733    1.0000 </r>
       <r>    2.8069    1.0000 </r>
       <r>    2.8457    1.0000 </r>
       <r>    2.9463    1.0000 </r>
       <r>    3.0663    1.0000 </r>
       <r>    3.1468    1.0000 </r>
       <r>    3.2174    1.0000 </r>
       <r>    3.2648    1.0000 </r>
       <r>    3.3153    1.0000 </r>
       <r>    3.4175    1.0000 </r>
       <r>    3.4339    1.0000 </r>
       <r>    3.5047    1.0000 </r>
       <r>    3.5702    1.0000 </r>
       <r>    3.6456    1.0000 </r>
       <r>    3.6766    1.0000 </r>
       <r>    3.7152    1.0000 </r>
       <r>    3.7889    1.0000 </r>
       <r>    3.8656    1.0000 </r>
       <r>    3.9768    1.0000 </r>
       <r>    4.1373    1.0000 </r>
       <r>    4.2232    1.0000 </r>
       <r>    4.2799    1.0000 </r>
       <r>    4.3233    1.0000 </r>
       <r>    4.4140    1.0000 </r>
       <r>    4.4464    1.0000 </r>
       <r>    4.4949    1.0000 </r>
       <r>    4.5324    1.0000 </r>
       <r>    4.5678    1.0000 </r>
       <r>    4.6128    1.0000 </r>
       <r>    4.6702    1.0000 </r>
       <r>    4.6812    1.0000 </r>
       <r>    4.7141    1.0000 </r>
       <r>    4.7615    1.0000 </r>
       <r>    4.7941    1.0000 </r>
       <r>    4.8269    1.0000 </r>
       <r>    4.8807    1.0000 </r>
       <r>    4.9260    1.0000 </r>
       <r>    4.9448    1.0000 </r>
       <r>    4.9918    1.0000 </r>
       <r>    5.0052    1.0000 </r>
       <r>    5.1142    1.0000 </r>
       <r>    5.1365    1.0000 </r>
       <r>    5.2976    1.0000 </r>
       <r>    5.3194    1.0001 </r>
       <r>    5.3743    1.0003 </r>
       <r>    5.4081    1.0008 </r>
       <r>    5.4390    1.0015 </r>
       <r>    5.4729    1.0031 </r>
       <r>    5.5024    1.0053 </r>
       <r>    5.5523    1.0119 </r>
       <r>    5.5778    1.0167 </r>
       <r>    5.6079    1.0234 </r>
       <r>    5.6363    1.0298 </r>
       <r>    5.6858    1.0354 </r>
       <r>    5.7200    1.0281 </r>
       <r>    5.7499    1.0082 </r>
       <r>    5.8011    0.9314 </r>
       <r>    5.8151    0.8995 </r>
       <r>    5.8717    0.7221 </r>
       <r>    5.9407    0.4394 </r>
       <r>    5.9911    0.2413 </r>
       <r>    6.1674   -0.0354 </r>
       <r>    6.2628   -0.0193 </r>
       <r>    6.2843   -0.0148 </r>
       <r>    6.3187   -0.0090 </r>
       <r>    6.4231   -0.0012 </r>
       <r>    6.4296   -0.0011 </r>
       <r>    6.4530   -0.0006 </r>
       <r>    6.5724   -0.0000 </r>
       <r>    6.7421   -0.0000 </r>
       <r>    6.8244   -0.0000 </r>
       <r>    6.8658   -0.0000 </r>
       <r>    6.9894   -0.0000 </r>
       <r>    7.0571   -0.0000 </r>
       <r>    7.1377   -0.0000 </r>
       <r>    7.4175   -0.0000 </r>
       <r>    7.4875   -0.0000 </r>
       <r>    7.6075   -0.0000 </r>
       <r>    7.6312   -0.0000 </r>
       <r>    7.6806   -0.0000 </r>
       <r>    7.7205   -0.0000 </r>
       <r>    7.7770   -0.0000 </r>
      </set>
      <set comment="kpoint 5">
       <r>  -48.1972    1.0000 </r>
       <r>  -48.1744    1.0000 </r>
       <r>  -48.1446    1.0000 </r>
       <r>  -48.1098    1.0000 </r>
       <r>  -48.0850    1.0000 </r>
       <r>  -47.9974    1.0000 </r>
       <r>  -24.7037    1.0000 </r>
       <r>  -24.6506    1.0000 </r>
       <r>  -24.5328    1.0000 </r>
       <r>  -24.4964    1.0000 </r>
       <r>  -24.3279    1.0000 </r>
       <r>  -24.3159    1.0000 </r>
       <r>  -24.3070    1.0000 </r>
       <r>  -24.2739    1.0000 </r>
       <r>  -24.2591    1.0000 </r>
       <r>  -24.2468    1.0000 </r>
       <r>  -24.2328    1.0000 </r>
       <r>  -24.1909    1.0000 </r>
       <r>  -24.1474    1.0000 </r>
       <r>  -24.1297    1.0000 </r>
       <r>  -24.0274    1.0000 </r>
       <r>  -24.0092    1.0000 </r>
       <r>  -23.8892    1.0000 </r>
       <r>  -23.7943    1.0000 </r>
       <r>   -0.3616    1.0000 </r>
       <r>    0.7887    1.0000 </r>
       <r>    1.1940    1.0000 </r>
       <r>    1.7330    1.0000 </r>
       <r>    2.1069    1.0000 </r>
       <r>    2.2007    1.0000 </r>
       <r>    2.2639    1.0000 </r>
       <r>    2.3680    1.0000 </r>
       <r>    2.4086    1.0000 </r>
       <r>    2.4840    1.0000 </r>
       <r>    2.5452    1.0000 </r>
       <r>    2.6260    1.0000 </r>
       <r>    2.7282    1.0000 </r>
       <r>    2.7778    1.0000 </r>
       <r>    2.8492    1.0000 </r>
       <r>    2.9057    1.0000 </r>
       <r>    3.0054    1.0000 </r>
       <r>    3.0259    1.0000 </r>
       <r>    3.1908    1.0000 </r>
       <r>    3.2376    1.0000 </r>
       <r>    3.2782    1.0000 </r>
       <r>    3.3461    1.0000 </r>
       <r>    3.4262    1.0000 </r>
       <r>    3.4720    1.0000 </r>
       <r>    3.5552    1.0000 </r>
       <r>    3.6091    1.0000 </r>
       <r>    3.6315    1.0000 </r>
       <r>    3.7179    1.0000 </r>
       <r>    3.8142    1.0000 </r>
       <r>    3.8699    1.0000 </r>
       <r>    3.9210    1.0000 </r>
       <r>    3.9849    1.0000 </r>
       <r>    4.0692    1.0000 </r>
       <r>    4.1593    1.0000 </r>
       <r>    4.2418    1.0000 </r>
       <r>    4.3130    1.0000 </r>
       <r>    4.3656    1.0000 </r>
       <r>    4.3808    1.0000 </r>
       <r>    4.4639    1.0000 </r>
       <r>    4.4805    1.0000 </r>
       <r>    4.5147    1.0000 </r>
       <r>    4.6001    1.0000 </r>
       <r>    4.6268    1.0000 </r>
       <r>    4.6587    1.0000 </r>
       <r>    4.7042    1.0000 </r>
       <r>    4.7201    1.0000 </r>
       <r>    4.7542    1.0000 </r>
       <r>    4.7773    1.0000 </r>
       <r>    4.7977    1.0000 </r>
       <r>    4.8487    1.0000 </r>
       <r>    4.8838    1.0000 </r>
       <r>    4.9494    1.0000 </r>
       <r>    5.0104    1.0000 </r>
       <r>    5.0386    1.0000 </r>
       <r>    5.0976    1.0000 </r>
       <r>    5.1784    1.0000 </r>
       <r>    5.2239    1.0000 </r>
       <r>    5.2745    1.0000 </r>
       <r>    5.3395    1.0001 </r>
       <r>    5.3596    1.0002 </r>
       <r>    5.3902    1.0005 </r>
       <r>    5.4640    1.0026 </r>
       <r>    5.5079    1.0059 </r>
       <r>    5.5446    1.0106 </r>
       <r>    5.5753    1.0162 </r>
       <r>    5.6189    1.0260 </r>
       <r>    5.6486    1.0322 </r>
       <r>    5.6799    1.0354 </r>
       <r>    5.7107    1.0314 </r>
       <r>    5.7314    1.0223 </r>
       <r>    5.8211    0.8841 </r>
       <r>    5.8412    0.8266 </r>
       <r>    5.9175    0.5374 </r>
       <r>    5.9451    0.4210 </r>
       <r>    6.0247    0.1346 </r>
       <r>    6.0635    0.0453 </r>
       <r>    6.1104   -0.0147 </r>
       <r>    6.1412   -0.0312 </r>
       <r>    6.1884   -0.0345 </r>
       <r>    6.2394   -0.0247 </r>
       <r>    6.2809   -0.0155 </r>
       <r>    6.2901   -0.0137 </r>
       <r>    6.3462   -0.0057 </r>
       <r>    6.3941   -0.0023 </r>
       <r>    6.4673   -0.0004 </r>
       <r>    6.5672   -0.0000 </r>
       <r>    6.6459   -0.0000 </r>
       <r>    6.8927   -0.0000 </r>
       <r>    7.2885   -0.0000 </r>
       <r>    7.3862   -0.0000 </r>
       <r>    7.4528   -0.0000 </r>
       <r>    7.4832   -0.0000 </r>
       <r>    7.6171   -0.0000 </r>
       <r>    7.6783   -0.0000 </r>
       <r>    7.7135   -0.0000 </r>
       <r>    7.7603   -0.0000 </r>
      </set>
      <set comment="kpoint 6">
       <r>  -48.1960    1.0000 </r>
       <r>  -48.1682    1.0000 </r>
       <r>  -48.1396    1.0000 </r>
       <r>  -48.1075    1.0000 </r>
       <r>  -48.0830    1.0000 </r>
       <r>  -48.0137    1.0000 </r>
       <r>  -24.6729    1.0000 </r>
       <r>  -24.5492    1.0000 </r>
       <r>  -24.5124    1.0000 </r>
       <r>  -24.4003    1.0000 </r>
       <r>  -24.3323    1.0000 </r>
       <r>  -24.3184    1.0000 </r>
       <r>  -24.2981    1.0000 </r>
       <r>  -24.2747    1.0000 </r>
       <r>  -24.2577    1.0000 </r>
       <r>  -24.2468    1.0000 </r>
       <r>  -24.2358    1.0000 </r>
       <r>  -24.1933    1.0000 </r>
       <r>  -24.1652    1.0000 </r>
       <r>  -24.1331    1.0000 </r>
       <r>  -24.0802    1.0000 </r>
       <r>  -24.0248    1.0000 </r>
       <r>  -24.0000    1.0000 </r>
       <r>  -23.8846    1.0000 </r>
       <r>    0.3310    1.0000 </r>
       <r>    1.2753    1.0000 </r>
       <r>    1.6258    1.0000 </r>
       <r>    1.8332    1.0000 </r>
       <r>    1.9798    1.0000 </r>
       <r>    2.1131    1.0000 </r>
       <r>    2.4530    1.0000 </r>
       <r>    2.6405    1.0000 </r>
       <r>    2.6864    1.0000 </r>
       <r>    2.7968    1.0000 </r>
       <r>    2.8633    1.0000 </r>
       <r>    2.9328    1.0000 </r>
       <r>    2.9998    1.0000 </r>
       <r>    3.0386    1.0000 </r>
       <r>    3.0669    1.0000 </r>
       <r>    3.2005    1.0000 </r>
       <r>    3.2744    1.0000 </r>
       <r>    3.3159    1.0000 </r>
       <r>    3.3787    1.0000 </r>
       <r>    3.4070    1.0000 </r>
       <r>    3.4629    1.0000 </r>
       <r>    3.5079    1.0000 </r>
       <r>    3.5726    1.0000 </r>
       <r>    3.6482    1.0000 </r>
       <r>    3.6902    1.0000 </r>
       <r>    3.7588    1.0000 </r>
       <r>    3.8066    1.0000 </r>
       <r>    3.8796    1.0000 </r>
       <r>    3.9420    1.0000 </r>
       <r>    3.9691    1.0000 </r>
       <r>    4.0254    1.0000 </r>
       <r>    4.0824    1.0000 </r>
       <r>    4.1304    1.0000 </r>
       <r>    4.2080    1.0000 </r>
       <r>    4.2667    1.0000 </r>
       <r>    4.3838    1.0000 </r>
       <r>    4.4060    1.0000 </r>
       <r>    4.4262    1.0000 </r>
       <r>    4.4846    1.0000 </r>
       <r>    4.5306    1.0000 </r>
       <r>    4.5694    1.0000 </r>
       <r>    4.6177    1.0000 </r>
       <r>    4.6550    1.0000 </r>
       <r>    4.6930    1.0000 </r>
       <r>    4.7323    1.0000 </r>
       <r>    4.7738    1.0000 </r>
       <r>    4.8178    1.0000 </r>
       <r>    4.8369    1.0000 </r>
       <r>    4.8698    1.0000 </r>
       <r>    4.9370    1.0000 </r>
       <r>    4.9638    1.0000 </r>
       <r>    5.0059    1.0000 </r>
       <r>    5.0230    1.0000 </r>
       <r>    5.1205    1.0000 </r>
       <r>    5.1618    1.0000 </r>
       <r>    5.2096    1.0000 </r>
       <r>    5.2358    1.0000 </r>
       <r>    5.2762    1.0000 </r>
       <r>    5.3290    1.0001 </r>
       <r>    5.3417    1.0001 </r>
       <r>    5.3638    1.0003 </r>
       <r>    5.3924    1.0005 </r>
       <r>    5.4518    1.0020 </r>
       <r>    5.4699    1.0029 </r>
       <r>    5.5180    1.0070 </r>
       <r>    5.5597    1.0132 </r>
       <r>    5.5827    1.0178 </r>
       <r>    5.6031    1.0223 </r>
       <r>    5.6340    1.0293 </r>
       <r>    5.6814    1.0355 </r>
       <r>    5.6968    1.0344 </r>
       <r>    5.7310    1.0226 </r>
       <r>    5.7609    0.9967 </r>
       <r>    5.7930    0.9477 </r>
       <r>    5.8050    0.9231 </r>
       <r>    5.8479    0.8055 </r>
       <r>    5.8925    0.6409 </r>
       <r>    5.9370    0.4549 </r>
       <r>    5.9775    0.2912 </r>
       <r>    6.0192    0.1501 </r>
       <r>    6.0614    0.0491 </r>
       <r>    6.0888    0.0069 </r>
       <r>    6.2080   -0.0315 </r>
       <r>    6.3076   -0.0107 </r>
       <r>    6.3539   -0.0050 </r>
       <r>    6.4304   -0.0011 </r>
       <r>    6.4984   -0.0002 </r>
       <r>    6.8159   -0.0000 </r>
       <r>    6.9272   -0.0000 </r>
       <r>    6.9851   -0.0000 </r>
       <r>    7.0553   -0.0000 </r>
       <r>    7.1618   -0.0000 </r>
       <r>    7.2218   -0.0000 </r>
       <r>    7.2797   -0.0000 </r>
       <r>    7.3487   -0.0000 </r>
       <r>    7.3943   -0.0000 </r>
      </set>
      <set comment="kpoint 7">
       <r>  -48.1958    1.0000 </r>
       <r>  -48.1680    1.0000 </r>
       <r>  -48.1396    1.0000 </r>
       <r>  -48.1078    1.0000 </r>
       <r>  -48.0830    1.0000 </r>
       <r>  -48.0137    1.0000 </r>
       <r>  -24.6719    1.0000 </r>
       <r>  -24.5467    1.0000 </r>
       <r>  -24.5094    1.0000 </r>
       <r>  -24.4004    1.0000 </r>
       <r>  -24.3324    1.0000 </r>
       <r>  -24.3184    1.0000 </r>
       <r>  -24.2982    1.0000 </r>
       <r>  -24.2747    1.0000 </r>
       <r>  -24.2576    1.0000 </r>
       <r>  -24.2468    1.0000 </r>
       <r>  -24.2357    1.0000 </r>
       <r>  -24.1932    1.0000 </r>
       <r>  -24.1652    1.0000 </r>
       <r>  -24.1332    1.0000 </r>
       <r>  -24.0802    1.0000 </r>
       <r>  -24.0300    1.0000 </r>
       <r>  -24.0017    1.0000 </r>
       <r>  -23.8850    1.0000 </r>
       <r>    0.6754    1.0000 </r>
       <r>    1.3063    1.0000 </r>
       <r>    1.4304    1.0000 </r>
       <r>    1.7135    1.0000 </r>
       <r>    2.0018    1.0000 </r>
       <r>    2.2243    1.0000 </r>
       <r>    2.3070    1.0000 </r>
       <r>    2.4554    1.0000 </r>
       <r>    2.6746    1.0000 </r>
       <r>    2.8120    1.0000 </r>
       <r>    2.9018    1.0000 </r>
       <r>    2.9911    1.0000 </r>
       <r>    3.0241    1.0000 </r>
       <r>    3.0779    1.0000 </r>
       <r>    3.1273    1.0000 </r>
       <r>    3.1711    1.0000 </r>
       <r>    3.2353    1.0000 </r>
       <r>    3.2726    1.0000 </r>
       <r>    3.3513    1.0000 </r>
       <r>    3.4161    1.0000 </r>
       <r>    3.4698    1.0000 </r>
       <r>    3.5506    1.0000 </r>
       <r>    3.5943    1.0000 </r>
       <r>    3.6601    1.0000 </r>
       <r>    3.7426    1.0000 </r>
       <r>    3.7902    1.0000 </r>
       <r>    3.8199    1.0000 </r>
       <r>    3.8821    1.0000 </r>
       <r>    3.9215    1.0000 </r>
       <r>    4.0178    1.0000 </r>
       <r>    4.0978    1.0000 </r>
       <r>    4.2147    1.0000 </r>
       <r>    4.2682    1.0000 </r>
       <r>    4.3009    1.0000 </r>
       <r>    4.3152    1.0000 </r>
       <r>    4.3399    1.0000 </r>
       <r>    4.3632    1.0000 </r>
       <r>    4.4173    1.0000 </r>
       <r>    4.4337    1.0000 </r>
       <r>    4.5104    1.0000 </r>
       <r>    4.5285    1.0000 </r>
       <r>    4.5844    1.0000 </r>
       <r>    4.6446    1.0000 </r>
       <r>    4.6890    1.0000 </r>
       <r>    4.6958    1.0000 </r>
       <r>    4.7273    1.0000 </r>
       <r>    4.7447    1.0000 </r>
       <r>    4.8399    1.0000 </r>
       <r>    4.8738    1.0000 </r>
       <r>    4.8968    1.0000 </r>
       <r>    4.9628    1.0000 </r>
       <r>    4.9897    1.0000 </r>
       <r>    5.0240    1.0000 </r>
       <r>    5.0504    1.0000 </r>
       <r>    5.1500    1.0000 </r>
       <r>    5.1970    1.0000 </r>
       <r>    5.2108    1.0000 </r>
       <r>    5.2663    1.0000 </r>
       <r>    5.2763    1.0000 </r>
       <r>    5.3232    1.0001 </r>
       <r>    5.4308    1.0013 </r>
       <r>    5.4580    1.0023 </r>
       <r>    5.4937    1.0046 </r>
       <r>    5.5193    1.0071 </r>
       <r>    5.5636    1.0139 </r>
       <r>    5.5784    1.0168 </r>
       <r>    5.6312    1.0287 </r>
       <r>    5.6498    1.0324 </r>
       <r>    5.6868    1.0353 </r>
       <r>    5.7246    1.0260 </r>
       <r>    5.7509    1.0073 </r>
       <r>    5.7961    0.9417 </r>
       <r>    5.8299    0.8602 </r>
       <r>    5.8433    0.8202 </r>
       <r>    5.8904    0.6494 </r>
       <r>    5.9368    0.4559 </r>
       <r>    5.9746    0.3024 </r>
       <r>    6.0101    0.1778 </r>
       <r>    6.0626    0.0469 </r>
       <r>    6.0969   -0.0023 </r>
       <r>    6.1093   -0.0139 </r>
       <r>    6.1359   -0.0294 </r>
       <r>    6.1767   -0.0353 </r>
       <r>    6.1972   -0.0333 </r>
       <r>    6.2801   -0.0157 </r>
       <r>    6.3364   -0.0068 </r>
       <r>    6.4615   -0.0005 </r>
       <r>    6.4843   -0.0003 </r>
       <r>    6.5165   -0.0001 </r>
       <r>    6.6234   -0.0000 </r>
       <r>    6.8924   -0.0000 </r>
       <r>    7.0420   -0.0000 </r>
       <r>    7.2274   -0.0000 </r>
       <r>    7.2392   -0.0000 </r>
       <r>    7.2910   -0.0000 </r>
       <r>    7.3396   -0.0000 </r>
      </set>
      <set comment="kpoint 8">
       <r>  -48.1969    1.0000 </r>
       <r>  -48.1742    1.0000 </r>
       <r>  -48.1446    1.0000 </r>
       <r>  -48.1102    1.0000 </r>
       <r>  -48.0851    1.0000 </r>
       <r>  -47.9974    1.0000 </r>
       <r>  -24.7034    1.0000 </r>
       <r>  -24.6490    1.0000 </r>
       <r>  -24.5256    1.0000 </r>
       <r>  -24.4952    1.0000 </r>
       <r>  -24.3281    1.0000 </r>
       <r>  -24.3159    1.0000 </r>
       <r>  -24.3071    1.0000 </r>
       <r>  -24.2739    1.0000 </r>
       <r>  -24.2591    1.0000 </r>
       <r>  -24.2468    1.0000 </r>
       <r>  -24.2327    1.0000 </r>
       <r>  -24.1908    1.0000 </r>
       <r>  -24.1475    1.0000 </r>
       <r>  -24.1298    1.0000 </r>
       <r>  -24.0316    1.0000 </r>
       <r>  -24.0159    1.0000 </r>
       <r>  -23.8898    1.0000 </r>
       <r>  -23.7943    1.0000 </r>
       <r>   -0.1422    1.0000 </r>
       <r>    0.9264    1.0000 </r>
       <r>    1.1683    1.0000 </r>
       <r>    1.3638    1.0000 </r>
       <r>    1.9134    1.0000 </r>
       <r>    2.2852    1.0000 </r>
       <r>    2.3955    1.0000 </r>
       <r>    2.4857    1.0000 </r>
       <r>    2.5439    1.0000 </r>
       <r>    2.5927    1.0000 </r>
       <r>    2.7100    1.0000 </r>
       <r>    2.7253    1.0000 </r>
       <r>    2.7445    1.0000 </r>
       <r>    2.8366    1.0000 </r>
       <r>    2.8508    1.0000 </r>
       <r>    2.9217    1.0000 </r>
       <r>    2.9547    1.0000 </r>
       <r>    3.0164    1.0000 </r>
       <r>    3.0832    1.0000 </r>
       <r>    3.1459    1.0000 </r>
       <r>    3.2280    1.0000 </r>
       <r>    3.2798    1.0000 </r>
       <r>    3.3691    1.0000 </r>
       <r>    3.4303    1.0000 </r>
       <r>    3.5059    1.0000 </r>
       <r>    3.5936    1.0000 </r>
       <r>    3.6224    1.0000 </r>
       <r>    3.6786    1.0000 </r>
       <r>    3.7537    1.0000 </r>
       <r>    3.8541    1.0000 </r>
       <r>    3.8889    1.0000 </r>
       <r>    3.9393    1.0000 </r>
       <r>    4.1327    1.0000 </r>
       <r>    4.1857    1.0000 </r>
       <r>    4.2560    1.0000 </r>
       <r>    4.3197    1.0000 </r>
       <r>    4.3986    1.0000 </r>
       <r>    4.4427    1.0000 </r>
       <r>    4.4745    1.0000 </r>
       <r>    4.5465    1.0000 </r>
       <r>    4.6253    1.0000 </r>
       <r>    4.6440    1.0000 </r>
       <r>    4.6969    1.0000 </r>
       <r>    4.7432    1.0000 </r>
       <r>    4.7636    1.0000 </r>
       <r>    4.7843    1.0000 </r>
       <r>    4.8771    1.0000 </r>
       <r>    4.8878    1.0000 </r>
       <r>    4.9101    1.0000 </r>
       <r>    4.9536    1.0000 </r>
       <r>    4.9851    1.0000 </r>
       <r>    5.0463    1.0000 </r>
       <r>    5.0731    1.0000 </r>
       <r>    5.0863    1.0000 </r>
       <r>    5.1197    1.0000 </r>
       <r>    5.1734    1.0000 </r>
       <r>    5.1929    1.0000 </r>
       <r>    5.2207    1.0000 </r>
       <r>    5.2389    1.0000 </r>
       <r>    5.2958    1.0000 </r>
       <r>    5.3791    1.0004 </r>
       <r>    5.4329    1.0013 </r>
       <r>    5.5000    1.0051 </r>
       <r>    5.5201    1.0072 </r>
       <r>    5.5667    1.0145 </r>
       <r>    5.6005    1.0217 </r>
       <r>    5.6610    1.0341 </r>
       <r>    5.6860    1.0354 </r>
       <r>    5.7086    1.0320 </r>
       <r>    5.7684    0.9874 </r>
       <r>    5.8185    0.8908 </r>
       <r>    5.8278    0.8662 </r>
       <r>    5.8869    0.6634 </r>
       <r>    5.9064    0.5838 </r>
       <r>    5.9518    0.3933 </r>
       <r>    6.0354    0.1061 </r>
       <r>    6.0671    0.0389 </r>
       <r>    6.0911    0.0041 </r>
       <r>    6.1180   -0.0202 </r>
       <r>    6.1500   -0.0334 </r>
       <r>    6.1882   -0.0345 </r>
       <r>    6.2389   -0.0248 </r>
       <r>    6.2718   -0.0174 </r>
       <r>    6.3181   -0.0091 </r>
       <r>    6.4314   -0.0010 </r>
       <r>    6.4703   -0.0004 </r>
       <r>    6.5554   -0.0000 </r>
       <r>    6.7743   -0.0000 </r>
       <r>    6.9200   -0.0000 </r>
       <r>    7.1054   -0.0000 </r>
       <r>    7.1369   -0.0000 </r>
       <r>    7.2253   -0.0000 </r>
       <r>    7.2780   -0.0000 </r>
       <r>    7.3444   -0.0000 </r>
       <r>    7.3920   -0.0000 </r>
       <r>    7.5111   -0.0000 </r>
      </set>
      <set comment="kpoint 9">
       <r>  -48.1979    1.0000 </r>
       <r>  -48.1784    1.0000 </r>
       <r>  -48.1467    1.0000 </r>
       <r>  -48.1111    1.0000 </r>
       <r>  -48.0858    1.0000 </r>
       <r>  -47.9889    1.0000 </r>
       <r>  -24.7792    1.0000 </r>
       <r>  -24.6609    1.0000 </r>
       <r>  -24.5287    1.0000 </r>
       <r>  -24.4992    1.0000 </r>
       <r>  -24.3259    1.0000 </r>
       <r>  -24.3151    1.0000 </r>
       <r>  -24.3117    1.0000 </r>
       <r>  -24.2729    1.0000 </r>
       <r>  -24.2601    1.0000 </r>
       <r>  -24.2439    1.0000 </r>
       <r>  -24.2309    1.0000 </r>
       <r>  -24.1891    1.0000 </r>
       <r>  -24.1394    1.0000 </r>
       <r>  -24.1281    1.0000 </r>
       <r>  -24.0295    1.0000 </r>
       <r>  -24.0140    1.0000 </r>
       <r>  -23.8887    1.0000 </r>
       <r>  -23.6918    1.0000 </r>
       <r>   -0.2153    1.0000 </r>
       <r>    0.5203    1.0000 </r>
       <r>    0.8621    1.0000 </r>
       <r>    1.3372    1.0000 </r>
       <r>    1.6358    1.0000 </r>
       <r>    1.9088    1.0000 </r>
       <r>    2.2643    1.0000 </r>
       <r>    2.2905    1.0000 </r>
       <r>    2.4196    1.0000 </r>
       <r>    2.4468    1.0000 </r>
       <r>    2.5414    1.0000 </r>
       <r>    2.6557    1.0000 </r>
       <r>    2.6658    1.0000 </r>
       <r>    2.7276    1.0000 </r>
       <r>    2.7583    1.0000 </r>
       <r>    2.8073    1.0000 </r>
       <r>    2.8740    1.0000 </r>
       <r>    2.9706    1.0000 </r>
       <r>    3.0293    1.0000 </r>
       <r>    3.1244    1.0000 </r>
       <r>    3.1684    1.0000 </r>
       <r>    3.2178    1.0000 </r>
       <r>    3.2676    1.0000 </r>
       <r>    3.3219    1.0000 </r>
       <r>    3.3831    1.0000 </r>
       <r>    3.4873    1.0000 </r>
       <r>    3.5421    1.0000 </r>
       <r>    3.5827    1.0000 </r>
       <r>    3.6349    1.0000 </r>
       <r>    3.6842    1.0000 </r>
       <r>    3.7419    1.0000 </r>
       <r>    3.8570    1.0000 </r>
       <r>    4.1901    1.0000 </r>
       <r>    4.2574    1.0000 </r>
       <r>    4.3100    1.0000 </r>
       <r>    4.3582    1.0000 </r>
       <r>    4.4042    1.0000 </r>
       <r>    4.4622    1.0000 </r>
       <r>    4.5423    1.0000 </r>
       <r>    4.5790    1.0000 </r>
       <r>    4.5950    1.0000 </r>
       <r>    4.6243    1.0000 </r>
       <r>    4.6822    1.0000 </r>
       <r>    4.7071    1.0000 </r>
       <r>    4.7396    1.0000 </r>
       <r>    4.7715    1.0000 </r>
       <r>    4.7914    1.0000 </r>
       <r>    4.8149    1.0000 </r>
       <r>    4.8572    1.0000 </r>
       <r>    4.9191    1.0000 </r>
       <r>    4.9264    1.0000 </r>
       <r>    4.9584    1.0000 </r>
       <r>    5.0007    1.0000 </r>
       <r>    5.0585    1.0000 </r>
       <r>    5.1090    1.0000 </r>
       <r>    5.2314    1.0000 </r>
       <r>    5.2811    1.0000 </r>
       <r>    5.3702    1.0003 </r>
       <r>    5.3864    1.0005 </r>
       <r>    5.4341    1.0014 </r>
       <r>    5.4540    1.0021 </r>
       <r>    5.5221    1.0075 </r>
[...]
       <r>    4.3656    1.0000 </r>
       <r>    4.4161    1.0000 </r>
       <r>    4.4316    1.0000 </r>
       <r>    4.4701    1.0000 </r>
       <r>    4.5288    1.0000 </r>
       <r>    4.5583    1.0000 </r>
       <r>    4.6067    1.0000 </r>
       <r>    4.6617    1.0000 </r>
       <r>    4.7033    1.0000 </r>
       <r>    4.7154    1.0000 </r>
       <r>    4.8106    1.0000 </r>
       <r>    4.8585    1.0000 </r>
       <r>    4.8972    1.0000 </r>
       <r>    4.9183    1.0000 </r>
       <r>    5.0028    1.0000 </r>
       <r>    5.0432    1.0000 </r>
       <r>    5.0776    1.0000 </r>
       <r>    5.1010    1.0000 </r>
       <r>    5.1503    1.0000 </r>
       <r>    5.1827    1.0000 </r>
       <r>    5.2468    1.0000 </r>
       <r>    5.2724    1.0000 </r>
       <r>    5.3314    1.0001 </r>
       <r>    5.3699    1.0003 </r>
       <r>    5.4074    1.0007 </r>
       <r>    5.4295    1.0012 </r>
       <r>    5.4906    1.0043 </r>
       <r>    5.5045    1.0055 </r>
       <r>    5.5363    1.0094 </r>
       <r>    5.5662    1.0144 </r>
       <r>    5.5821    1.0176 </r>
       <r>    5.6117    1.0243 </r>
       <r>    5.6682    1.0348 </r>
       <r>    5.6900    1.0352 </r>
       <r>    5.7101    1.0316 </r>
       <r>    5.7410    1.0158 </r>
       <r>    5.7594    0.9984 </r>
       <r>    5.8058    0.9212 </r>
       <r>    5.8224    0.8809 </r>
       <r>    5.9442    0.4250 </r>
       <r>    5.9819    0.2749 </r>
       <r>    6.1016   -0.0071 </r>
       <r>    6.1299   -0.0269 </r>
       <r>    6.1716   -0.0355 </r>
       <r>    6.2154   -0.0300 </r>
       <r>    6.2624   -0.0194 </r>
       <r>    6.3424   -0.0061 </r>
       <r>    6.4099   -0.0017 </r>
       <r>    6.7579   -0.0000 </r>
       <r>    6.8332   -0.0000 </r>
       <r>    6.8887   -0.0000 </r>
       <r>    6.9382   -0.0000 </r>
       <r>    6.9597   -0.0000 </r>
       <r>    7.4490   -0.0000 </r>
       <r>    7.5043   -0.0000 </r>
       <r>    7.5580   -0.0000 </r>
       <r>    7.6439   -0.0000 </r>
       <r>    7.6680   -0.0000 </r>
       <r>    7.7194   -0.0000 </r>
       <r>    7.7701   -0.0000 </r>
      </set>
     </set>
    </set>
   </array>
  </eigenvalues>
  <separator name="orbital magnetization" >
   <v name="MAGDIPOLOUT">      0.00000000      0.00000000      0.00000000</v>
  </separator>
  <dos>
   <i name="efermi">      5.92636115 </i>
   <total>
    <array>
     <dimension dim="1">gridpoints</dimension>
     <dimension dim="2">spin</dimension>
     <field>energy</field>
     <field>total</field>
     <field>integrated</field>
     <set>
      <set comment="spin 1">
       <r>   -51.0021     0.0000     0.0000 </r>
       <r>   -50.7964     0.0000     0.0000 </r>
       <r>   -50.5908     0.0000     0.0000 </r>
       <r>   -50.3852     0.0000     0.0000 </r>
       <r>   -50.1796     0.0000     0.0000 </r>
       <r>   -49.9740    -0.0000    -0.0000 </r>
       <r>   -49.7683    -0.0000    -0.0000 </r>
       <r>   -49.5627    -0.0000    -0.0000 </r>
       <r>   -49.3571    -0.0000    -0.0000 </r>
       <r>   -49.1515    -0.0000    -0.0000 </r>
       <r>   -48.9459    -0.0000    -0.0000 </r>
       <r>   -48.7403    -0.0078    -0.0016 </r>
       <r>   -48.5346    -0.4907    -0.1025 </r>
       <r>   -48.3290     0.1450    -0.0727 </r>
       <r>   -48.1234    28.8489     5.8592 </r>
       <r>   -47.9178    29.3018    11.8841 </r>
       <r>   -47.7122     1.1403    12.1186 </r>
       <r>   -47.5066    -0.5612    12.0032 </r>
       <r>   -47.3009    -0.0156    12.0000 </r>
       <r>   -47.0953    -0.0000    12.0000 </r>
       <r>   -46.8897    -0.0000    12.0000 </r>
       <r>   -46.6841    -0.0000    12.0000 </r>
       <r>   -46.4785     0.0000    12.0000 </r>
       <r>   -46.2728     0.0000    12.0000 </r>
       <r>   -46.0672     0.0000    12.0000 </r>
       <r>   -45.8616     0.0000    12.0000 </r>
       <r>   -45.6560     0.0000    12.0000 </r>
       <r>   -45.4504     0.0000    12.0000 </r>
       <r>   -45.2448     0.0000    12.0000 </r>
       <r>   -45.0391     0.0000    12.0000 </r>
       <r>   -44.8335     0.0000    12.0000 </r>
       <r>   -44.6279     0.0000    12.0000 </r>
       <r>   -44.4223     0.0000    12.0000 </r>
       <r>   -44.2167     0.0000    12.0000 </r>
       <r>   -44.0111     0.0000    12.0000 </r>
       <r>   -43.8054     0.0000    12.0000 </r>
       <r>   -43.5998     0.0000    12.0000 </r>
       <r>   -43.3942     0.0000    12.0000 </r>
       <r>   -43.1886     0.0000    12.0000 </r>
       <r>   -42.9830     0.0000    12.0000 </r>
       <r>   -42.7773     0.0000    12.0000 </r>
       <r>   -42.5717     0.0000    12.0000 </r>
       <r>   -42.3661     0.0000    12.0000 </r>
       <r>   -42.1605     0.0000    12.0000 </r>
       <r>   -41.9549     0.0000    12.0000 </r>
       <r>   -41.7493     0.0000    12.0000 </r>
       <r>   -41.5436     0.0000    12.0000 </r>
       <r>   -41.3380     0.0000    12.0000 </r>
       <r>   -41.1324     0.0000    12.0000 </r>
       <r>   -40.9268     0.0000    12.0000 </r>
       <r>   -40.7212     0.0000    12.0000 </r>
       <r>   -40.5156     0.0000    12.0000 </r>
       <r>   -40.3099     0.0000    12.0000 </r>
       <r>   -40.1043     0.0000    12.0000 </r>
       <r>   -39.8987     0.0000    12.0000 </r>
       <r>   -39.6931     0.0000    12.0000 </r>
       <r>   -39.4875     0.0000    12.0000 </r>
       <r>   -39.2819     0.0000    12.0000 </r>
       <r>   -39.0762     0.0000    12.0000 </r>
       <r>   -38.8706     0.0000    12.0000 </r>
       <r>   -38.6650     0.0000    12.0000 </r>
       <r>   -38.4594     0.0000    12.0000 </r>
       <r>   -38.2538     0.0000    12.0000 </r>
       <r>   -38.0481     0.0000    12.0000 </r>
       <r>   -37.8425     0.0000    12.0000 </r>
       <r>   -37.6369     0.0000    12.0000 </r>
       <r>   -37.4313     0.0000    12.0000 </r>
       <r>   -37.2257     0.0000    12.0000 </r>
       <r>   -37.0201     0.0000    12.0000 </r>
       <r>   -36.8144     0.0000    12.0000 </r>
       <r>   -36.6088     0.0000    12.0000 </r>
       <r>   -36.4032     0.0000    12.0000 </r>
       <r>   -36.1976     0.0000    12.0000 </r>
       <r>   -35.9920     0.0000    12.0000 </r>
       <r>   -35.7864     0.0000    12.0000 </r>
       <r>   -35.5807     0.0000    12.0000 </r>
       <r>   -35.3751     0.0000    12.0000 </r>
       <r>   -35.1695     0.0000    12.0000 </r>
       <r>   -34.9639     0.0000    12.0000 </r>
       <r>   -34.7583     0.0000    12.0000 </r>
       <r>   -34.5526     0.0000    12.0000 </r>
       <r>   -34.3470     0.0000    12.0000 </r>
       <r>   -34.1414     0.0000    12.0000 </r>
       <r>   -33.9358     0.0000    12.0000 </r>
       <r>   -33.7302     0.0000    12.0000 </r>
       <r>   -33.5246     0.0000    12.0000 </r>
       <r>   -33.3189     0.0000    12.0000 </r>
       <r>   -33.1133     0.0000    12.0000 </r>
       <r>   -32.9077     0.0000    12.0000 </r>
       <r>   -32.7021     0.0000    12.0000 </r>
       <r>   -32.4965     0.0000    12.0000 </r>
       <r>   -32.2909     0.0000    12.0000 </r>
       <r>   -32.0852     0.0000    12.0000 </r>
       <r>   -31.8796     0.0000    12.0000 </r>
       <r>   -31.6740     0.0000    12.0000 </r>
       <r>   -31.4684     0.0000    12.0000 </r>
       <r>   -31.2628     0.0000    12.0000 </r>
       <r>   -31.0572     0.0000    12.0000 </r>
       <r>   -30.8515     0.0000    12.0000 </r>
       <r>   -30.6459     0.0000    12.0000 </r>
       <r>   -30.4403     0.0000    12.0000 </r>
       <r>   -30.2347     0.0000    12.0000 </r>
       <r>   -30.0291     0.0000    12.0000 </r>
       <r>   -29.8234     0.0000    12.0000 </r>
       <r>   -29.6178     0.0000    12.0000 </r>
       <r>   -29.4122     0.0000    12.0000 </r>
       <r>   -29.2066     0.0000    12.0000 </r>
       <r>   -29.0010     0.0000    12.0000 </r>
       <r>   -28.7954     0.0000    12.0000 </r>
       <r>   -28.5897     0.0000    12.0000 </r>
       <r>   -28.3841     0.0000    12.0000 </r>
       <r>   -28.1785     0.0000    12.0000 </r>
       <r>   -27.9729     0.0000    12.0000 </r>
       <r>   -27.7673     0.0000    12.0000 </r>
       <r>   -27.5617     0.0000    12.0000 </r>
       <r>   -27.3560     0.0000    12.0000 </r>
       <r>   -27.1504     0.0000    12.0000 </r>
       <r>   -26.9448     0.0000    12.0000 </r>
       <r>   -26.7392     0.0000    12.0000 </r>
       <r>   -26.5336    -0.0000    12.0000 </r>
       <r>   -26.3279    -0.0000    12.0000 </r>
       <r>   -26.1223    -0.0000    12.0000 </r>
       <r>   -25.9167    -0.0000    12.0000 </r>
       <r>   -25.7111    -0.0000    12.0000 </r>
       <r>   -25.5055    -0.0000    12.0000 </r>
       <r>   -25.2999    -0.0021    11.9996 </r>
       <r>   -25.0942    -0.1296    11.9729 </r>
       <r>   -24.8886    -0.3219    11.9067 </r>
       <r>   -24.6830     7.8565    13.5221 </r>
       <r>   -24.4774    20.6518    17.7685 </r>
       <r>   -24.2718    49.9541    28.0400 </r>
       <r>   -24.0662    63.0396    41.0020 </r>
       <r>   -23.8605    26.4408    46.4387 </r>
       <r>   -23.6549     7.4301    47.9665 </r>
       <r>   -23.4493     0.3447    48.0373 </r>
       <r>   -23.2437    -0.1733    48.0017 </r>
       <r>   -23.0381    -0.0082    48.0000 </r>
       <r>   -22.8324    -0.0000    48.0000 </r>
       <r>   -22.6268    -0.0000    48.0000 </r>
       <r>   -22.4212    -0.0000    48.0000 </r>
       <r>   -22.2156     0.0000    48.0000 </r>
       <r>   -22.0100     0.0000    48.0000 </r>
       <r>   -21.8044     0.0000    48.0000 </r>
       <r>   -21.5987     0.0000    48.0000 </r>
       <r>   -21.3931     0.0000    48.0000 </r>
       <r>   -21.1875     0.0000    48.0000 </r>
       <r>   -20.9819     0.0000    48.0000 </r>
       <r>   -20.7763     0.0000    48.0000 </r>
       <r>   -20.5707     0.0000    48.0000 </r>
       <r>   -20.3650     0.0000    48.0000 </r>
       <r>   -20.1594     0.0000    48.0000 </r>
       <r>   -19.9538     0.0000    48.0000 </r>
       <r>   -19.7482     0.0000    48.0000 </r>
       <r>   -19.5426     0.0000    48.0000 </r>
       <r>   -19.3370     0.0000    48.0000 </r>
       <r>   -19.1313     0.0000    48.0000 </r>
       <r>   -18.9257     0.0000    48.0000 </r>
       <r>   -18.7201     0.0000    48.0000 </r>
       <r>   -18.5145     0.0000    48.0000 </r>
       <r>   -18.3089     0.0000    48.0000 </r>
       <r>   -18.1032     0.0000    48.0000 </r>
       <r>   -17.8976     0.0000    48.0000 </r>
       <r>   -17.6920     0.0000    48.0000 </r>
       <r>   -17.4864     0.0000    48.0000 </r>
       <r>   -17.2808     0.0000    48.0000 </r>
       <r>   -17.0752     0.0000    48.0000 </r>
       <r>   -16.8695     0.0000    48.0000 </r>
       <r>   -16.6639     0.0000    48.0000 </r>
       <r>   -16.4583     0.0000    48.0000 </r>
       <r>   -16.2527     0.0000    48.0000 </r>
       <r>   -16.0471     0.0000    48.0000 </r>
       <r>   -15.8415     0.0000    48.0000 </r>
       <r>   -15.6358     0.0000    48.0000 </r>
       <r>   -15.4302     0.0000    48.0000 </r>
       <r>   -15.2246     0.0000    48.0000 </r>
       <r>   -15.0190     0.0000    48.0000 </r>
       <r>   -14.8134     0.0000    48.0000 </r>
       <r>   -14.6077     0.0000    48.0000 </r>
       <r>   -14.4021     0.0000    48.0000 </r>
       <r>   -14.1965     0.0000    48.0000 </r>
       <r>   -13.9909     0.0000    48.0000 </r>
       <r>   -13.7853     0.0000    48.0000 </r>
       <r>   -13.5797     0.0000    48.0000 </r>
       <r>   -13.3740     0.0000    48.0000 </r>
       <r>   -13.1684     0.0000    48.0000 </r>
       <r>   -12.9628     0.0000    48.0000 </r>
       <r>   -12.7572     0.0000    48.0000 </r>
       <r>   -12.5516     0.0000    48.0000 </r>
       <r>   -12.3460     0.0000    48.0000 </r>
       <r>   -12.1403     0.0000    48.0000 </r>
       <r>   -11.9347     0.0000    48.0000 </r>
       <r>   -11.7291     0.0000    48.0000 </r>
       <r>   -11.5235     0.0000    48.0000 </r>
       <r>   -11.3179     0.0000    48.0000 </r>
       <r>   -11.1123     0.0000    48.0000 </r>
       <r>   -10.9066     0.0000    48.0000 </r>
       <r>   -10.7010     0.0000    48.0000 </r>
       <r>   -10.4954     0.0000    48.0000 </r>
       <r>   -10.2898     0.0000    48.0000 </r>
       <r>   -10.0842     0.0000    48.0000 </r>
       <r>    -9.8785     0.0000    48.0000 </r>
       <r>    -9.6729     0.0000    48.0000 </r>
       <r>    -9.4673     0.0000    48.0000 </r>
       <r>    -9.2617     0.0000    48.0000 </r>
       <r>    -9.0561     0.0000    48.0000 </r>
       <r>    -8.8505     0.0000    48.0000 </r>
       <r>    -8.6448     0.0000    48.0000 </r>
       <r>    -8.4392     0.0000    48.0000 </r>
       <r>    -8.2336     0.0000    48.0000 </r>
       <r>    -8.0280     0.0000    48.0000 </r>
       <r>    -7.8224     0.0000    48.0000 </r>
       <r>    -7.6168     0.0000    48.0000 </r>
       <r>    -7.4111     0.0000    48.0000 </r>
       <r>    -7.2055     0.0000    48.0000 </r>
       <r>    -6.9999     0.0000    48.0000 </r>
       <r>    -6.7943     0.0000    48.0000 </r>
       <r>    -6.5887     0.0000    48.0000 </r>
       <r>    -6.3830     0.0000    48.0000 </r>
       <r>    -6.1774     0.0000    48.0000 </r>
       <r>    -5.9718     0.0000    48.0000 </r>
       <r>    -5.7662     0.0000    48.0000 </r>
       <r>    -5.5606     0.0000    48.0000 </r>
       <r>    -5.3550     0.0000    48.0000 </r>
       <r>    -5.1493     0.0000    48.0000 </r>
       <r>    -4.9437     0.0000    48.0000 </r>
       <r>    -4.7381     0.0000    48.0000 </r>
       <r>    -4.5325     0.0000    48.0000 </r>
       <r>    -4.3269     0.0000    48.0000 </r>
       <r>    -4.1213     0.0000    48.0000 </r>
       <r>    -3.9156     0.0000    48.0000 </r>
       <r>    -3.7100     0.0000    48.0000 </r>
       <r>    -3.5044     0.0000    48.0000 </r>
       <r>    -3.2988     0.0000    48.0000 </r>
       <r>    -3.0932     0.0000    48.0000 </r>
       <r>    -2.8876     0.0000    48.0000 </r>
       <r>    -2.6819     0.0000    48.0000 </r>
       <r>    -2.4763     0.0000    48.0000 </r>
       <r>    -2.2707    -0.0000    48.0000 </r>
       <r>    -2.0651    -0.0000    48.0000 </r>
       <r>    -1.8595    -0.0000    48.0000 </r>
       <r>    -1.6538    -0.0000    48.0000 </r>
       <r>    -1.4482    -0.0000    48.0000 </r>
       <r>    -1.2426    -0.0000    48.0000 </r>
       <r>    -1.0370    -0.0018    47.9996 </r>
       <r>    -0.8314    -0.0166    47.9962 </r>
       <r>    -0.6258     0.1208    48.0211 </r>
       <r>    -0.4201     0.7310    48.1714 </r>
       <r>    -0.2145     1.5776    48.4958 </r>
       <r>    -0.0089     2.0893    48.9254 </r>
       <r>     0.1967     1.6463    49.2639 </r>
       <r>     0.4023     2.2859    49.7339 </r>
       <r>     0.6079     3.3539    50.4235 </r>
       <r>     0.8136     3.7181    51.1880 </r>
       <r>     1.0192     2.7499    51.7534 </r>
       <r>     1.2248     4.0115    52.5782 </r>
       <r>     1.4304     4.9146    53.5888 </r>
       <r>     1.6360     5.2648    54.6713 </r>
       <r>     1.8417     6.8749    56.0849 </r>
       <r>     2.0473     8.0820    57.7467 </r>
       <r>     2.2529    10.5838    59.9229 </r>
       <r>     2.4585    18.5863    63.7446 </r>
       <r>     2.6641    24.0314    68.6859 </r>
       <r>     2.8697    27.7956    74.4011 </r>
       <r>     3.0754    31.0581    80.7872 </r>
       <r>     3.2810    31.9058    87.3476 </r>
       <r>     3.4866    33.7580    94.2889 </r>
       <r>     3.6922    33.7296   101.2243 </r>
       <r>     3.8978    29.9894   107.3906 </r>
       <r>     4.1034    23.5570   112.2344 </r>
       <r>     4.3091    29.0663   118.2109 </r>
       <r>     4.5147    41.0758   126.6568 </r>
       <r>     4.7203    48.6887   136.6680 </r>
       <r>     4.9259    50.0914   146.9677 </r>
       <r>     5.1315    47.7437   156.7847 </r>
       <r>     5.3372    46.5428   166.3547 </r>
       <r>     5.5428    51.4295   176.9295 </r>
       <r>     5.7484    56.4293   188.5323 </r>
       <r>     5.9540    52.6295   199.3539 </r>
       <r>     6.1596    44.5361   208.5113 </r>
       <r>     6.3652    32.5823   215.2108 </r>
       <r>     6.5709    18.9931   219.1161 </r>
       <r>     6.7765    13.6633   221.9255 </r>
       <r>     6.9821    15.3661   225.0850 </r>
       <r>     7.1877    18.7217   228.9345 </r>
       <r>     7.3933    22.0635   233.4712 </r>
       <r>     7.5989    20.0591   237.5957 </r>
       <r>     7.8046    10.2533   239.7040 </r>
       <r>     8.0102     1.6951   240.0525 </r>
       <r>     8.2158    -0.2311   240.0050 </r>
       <r>     8.4214    -0.0240   240.0000 </r>
       <r>     8.6270    -0.0002   240.0000 </r>
       <r>     8.8326    -0.0000   240.0000 </r>
       <r>     9.0383    -0.0000   240.0000 </r>
       <r>     9.2439    -0.0000   240.0000 </r>
       <r>     9.4495     0.0000   240.0000 </r>
       <r>     9.6551     0.0000   240.0000 </r>
       <r>     9.8607     0.0000   240.0000 </r>
       <r>    10.0664     0.0000   240.0000 </r>
       <r>    10.2720     0.0000   240.0000 </r>
       <r>    10.4776     0.0000   240.0000 </r>
       <r>    10.6832     0.0000   240.0000 </r>
      </set>
     </set>
    </array>
   </total>
  </dos>
 </calculation>
 <structure name="finalpos" >
  <crystal>
   <varray name="basis" >
    <v>      -3.25000000      -3.25000000      -3.25000000 </v>
    <v>       1.62500000       1.62500000      -8.12500000 </v>
    <v>       8.12500000      -8.12500000      -1.62500000 </v>
   </varray>
   <i name="volume">    514.92187500 </i>
   <varray name="rec_basis" >
    <v>      -0.13333333      -0.12307692      -0.05128205 </v>
    <v>       0.04102564       0.06153846      -0.10256410 </v>
    <v>       0.06153846      -0.06153846       0.00000000 </v>
   </varray>
  </crystal>
  <varray name="positions" >
   <v>       0.96666667       0.93333333       0.40000000 </v>
   <v>       0.63333333       0.26666667       0.40000000 </v>
   <v>       0.50000000       0.00000000       0.00000000 </v>
   <v>       0.00000000       0.00000000       0.00000000 </v>
   <v>       0.10000000       0.20000000       0.80000000 </v>
   <v>       0.03333333       0.06666667       0.60000000 </v>
   <v>       0.90000000       0.80000000       0.20000000 </v>
   <v>       0.80000000       0.60000000       0.40000000 </v>
   <v>       0.73333333       0.46666667       0.20000000 </v>
   <v>       0.66666667       0.33333333       0.00000000 </v>
   <v>       0.36666667       0.73333333       0.60000000 </v>
   <v>       0.13333333       0.26666667       0.40000000 </v>
   <v>       0.83333333       0.66666667       0.00000000 </v>
   <v>       0.93333333       0.86666667       0.80000000 </v>
   <v>       0.56666667       0.13333333       0.20000000 </v>
   <v>       0.40000000       0.80000000       0.20000000 </v>
   <v>       0.43333333       0.86666667       0.80000000 </v>
   <v>       0.30000000       0.60000000       0.40000000 </v>
   <v>       0.86666667       0.73333333       0.60000000 </v>
   <v>       0.46666667       0.93333333       0.40000000 </v>
   <v>       0.16666667       0.33333333       0.00000000 </v>
   <v>       0.26666667       0.53333333       0.80000000 </v>
   <v>       0.20000000       0.40000000       0.60000000 </v>
   <v>       0.06666667       0.13333333       0.20000000 </v>
   <v>       0.76666667       0.53333333       0.80000000 </v>
   <v>       0.70000000       0.40000000       0.60000000 </v>
   <v>       0.60000000       0.20000000       0.80000000 </v>
   <v>       0.53333333       0.06666667       0.60000000 </v>
   <v>       0.33333333       0.66666667       0.00000000 </v>
   <v>       0.23333333       0.46666667       0.20000000 </v>
  </varray>
 </structure>
</modeling>
