  29  29   0   0
  0.1679057E+02  0.5525242E-09  0.8287863E-09  0.1139058E-08  0.5000000E-15
  1.000000000000000E-004
  CAR 
 SQS with 1 vacancy for VFE and VRV      
     12.02296717    -50.13501883  301      6.75620713      1.00000000
    -50.135  0.0000E+00  0.0000E+00
    -49.928  0.0000E+00  0.0000E+00
    -49.721  0.0000E+00  0.0000E+00
    -49.513  0.0000E+00  0.0000E+00
    -49.306  0.0000E+00  0.0000E+00
    -49.099 -0.2993E-35 -0.6202E-36
    -48.892 -0.1437E-27 -0.2977E-28
    -48.685 -0.6374E-21 -0.1321E-21
    -48.477 -0.3235E-15 -0.6703E-16
    -48.270 -0.1905E-10 -0.3947E-11
    -48.063 -0.1295E-06 -0.2683E-07
    -47.856 -0.9755E-04 -0.2024E-04
    -47.649 -0.7216E-02 -0.1515E-02
    -47.442 -0.3909E-02 -0.2325E-02
    -47.234  0.4590E+00  0.9278E-01
    -47.027  0.5913E+00  0.2153E+00
    -46.820  0.1327E+00  0.2428E+00
    -46.613 -0.1163E-01  0.2404E+00
    -46.406 -0.1807E-02  0.2400E+00
    -46.198 -0.1612E-04  0.2400E+00
    -45.991 -0.1436E-07  0.2400E+00
    -45.784 -0.1385E-11  0.2400E+00
    -45.577  0.0000E+00  0.2400E+00
    -45.370  0.0000E+00  0.2400E+00
    -45.162  0.0000E+00  0.2400E+00
    -44.955  0.0000E+00  0.2400E+00
    -44.748  0.0000E+00  0.2400E+00
    -44.541  0.0000E+00  0.2400E+00
    -44.334  0.0000E+00  0.2400E+00
    -44.126  0.0000E+00  0.2400E+00
    -43.919  0.0000E+00  0.2400E+00
    -43.712  0.0000E+00  0.2400E+00
    -43.505  0.0000E+00  0.2400E+00
    -43.298  0.0000E+00  0.2400E+00
    -43.090  0.0000E+00  0.2400E+00
    -42.883  0.0000E+00  0.2400E+00
    -42.676  0.0000E+00  0.2400E+00
    -42.469  0.0000E+00  0.2400E+00
    -42.262  0.0000E+00  0.2400E+00
    -42.054  0.0000E+00  0.2400E+00
    -41.847  0.0000E+00  0.2400E+00
    -41.640  0.0000E+00  0.2400E+00
    -41.433  0.0000E+00  0.2400E+00
    -41.226  0.0000E+00  0.2400E+00
    -41.019  0.0000E+00  0.2400E+00
    -40.811  0.0000E+00  0.2400E+00
    -40.604  0.0000E+00  0.2400E+00
    -40.397  0.0000E+00  0.2400E+00
    -40.190  0.0000E+00  0.2400E+00
    -39.983  0.0000E+00  0.2400E+00
    -39.775  0.0000E+00  0.2400E+00
    -39.568  0.0000E+00  0.2400E+00
    -39.361  0.0000E+00  0.2400E+00
    -39.154  0.0000E+00  0.2400E+00
    -38.947  0.0000E+00  0.2400E+00
    -38.739  0.0000E+00  0.2400E+00
    -38.532  0.0000E+00  0.2400E+00
    -38.325  0.0000E+00  0.2400E+00
    -38.118  0.0000E+00  0.2400E+00
    -37.911  0.0000E+00  0.2400E+00
    -37.703  0.0000E+00  0.2400E+00
    -37.496  0.0000E+00  0.2400E+00
    -37.289  0.0000E+00  0.2400E+00
    -37.082  0.0000E+00  0.2400E+00
    -36.875  0.0000E+00  0.2400E+00
    -36.667  0.0000E+00  0.2400E+00
    -36.460  0.0000E+00  0.2400E+00
    -36.253  0.0000E+00  0.2400E+00
    -36.046  0.0000E+00  0.2400E+00
    -35.839  0.0000E+00  0.2400E+00
    -35.631  0.0000E+00  0.2400E+00
    -35.424  0.0000E+00  0.2400E+00
    -35.217  0.0000E+00  0.2400E+00
    -35.010  0.0000E+00  0.2400E+00
    -34.803  0.0000E+00  0.2400E+00
    -34.596  0.0000E+00  0.2400E+00
    -34.388  0.0000E+00  0.2400E+00
    -34.181  0.0000E+00  0.2400E+00
    -33.974  0.0000E+00  0.2400E+00
    -33.767  0.0000E+00  0.2400E+00
    -33.560  0.0000E+00  0.2400E+00
    -33.352  0.0000E+00  0.2400E+00
    -33.145  0.0000E+00  0.2400E+00
    -32.938  0.0000E+00  0.2400E+00
    -32.731  0.0000E+00  0.2400E+00
    -32.524  0.0000E+00  0.2400E+00
    -32.316  0.0000E+00  0.2400E+00
    -32.109  0.0000E+00  0.2400E+00
    -31.902  0.0000E+00  0.2400E+00
    -31.695  0.0000E+00  0.2400E+00
    -31.488  0.0000E+00  0.2400E+00
    -31.280  0.0000E+00  0.2400E+00
    -31.073  0.0000E+00  0.2400E+00
    -30.866  0.0000E+00  0.2400E+00
    -30.659  0.0000E+00  0.2400E+00
    -30.452  0.0000E+00  0.2400E+00
    -30.244  0.0000E+00  0.2400E+00
    -30.037  0.0000E+00  0.2400E+00
    -29.830  0.0000E+00  0.2400E+00
    -29.623  0.0000E+00  0.2400E+00
    -29.416  0.0000E+00  0.2400E+00
    -29.208  0.0000E+00  0.2400E+00
    -29.001  0.0000E+00  0.2400E+00
    -28.794  0.0000E+00  0.2400E+00
    -28.587  0.0000E+00  0.2400E+00
    -28.380  0.0000E+00  0.2400E+00
    -28.173  0.0000E+00  0.2400E+00
    -27.965  0.0000E+00  0.2400E+00
    -27.758  0.0000E+00  0.2400E+00
    -27.551  0.0000E+00  0.2400E+00
    -27.344  0.0000E+00  0.2400E+00
    -27.137  0.0000E+00  0.2400E+00
    -26.929  0.0000E+00  0.2400E+00
    -26.722  0.0000E+00  0.2400E+00
    -26.515  0.0000E+00  0.2400E+00
    -26.308  0.0000E+00  0.2400E+00
    -26.101  0.0000E+00  0.2400E+00
    -25.893  0.0000E+00  0.2400E+00
    -25.686 -0.2902E-31  0.2400E+00
    -25.479 -0.3021E-24  0.2400E+00
    -25.272 -0.3608E-18  0.2400E+00
    -25.065 -0.4746E-13  0.2400E+00
    -24.857 -0.7217E-09  0.2400E+00
    -24.650 -0.1227E-05  0.2400E+00
    -24.443 -0.2326E-03  0.2400E+00
    -24.236 -0.4489E-02  0.2390E+00
    -24.029  0.1910E-01  0.2430E+00
    -23.821  0.1872E+00  0.2818E+00
    -23.614  0.3794E+00  0.3604E+00
    -23.407  0.9729E+00  0.5620E+00
    -23.200  0.1076E+01  0.7850E+00
    -22.993  0.4755E+00  0.8835E+00
    -22.786  0.3327E+00  0.9524E+00
    -22.578  0.4506E-01  0.9617E+00
    -22.371 -0.7912E-02  0.9601E+00
    -22.164 -0.5105E-03  0.9600E+00
    -21.957 -0.3716E-05  0.9600E+00
    -21.750 -0.3194E-08  0.9600E+00
    -21.542 -0.3105E-12  0.9600E+00
    -21.335  0.0000E+00  0.9600E+00
    -21.128  0.0000E+00  0.9600E+00
    -20.921  0.0000E+00  0.9600E+00
    -20.714  0.0000E+00  0.9600E+00
    -20.506  0.0000E+00  0.9600E+00
    -20.299  0.0000E+00  0.9600E+00
    -20.092  0.0000E+00  0.9600E+00
    -19.885  0.0000E+00  0.9600E+00
    -19.678  0.0000E+00  0.9600E+00
    -19.470  0.0000E+00  0.9600E+00
    -19.263  0.0000E+00  0.9600E+00
    -19.056  0.0000E+00  0.9600E+00
    -18.849  0.0000E+00  0.9600E+00
    -18.642  0.0000E+00  0.9600E+00
    -18.434  0.0000E+00  0.9600E+00
    -18.227  0.0000E+00  0.9600E+00
    -18.020  0.0000E+00  0.9600E+00
    -17.813  0.0000E+00  0.9600E+00
    -17.606  0.0000E+00  0.9600E+00
    -17.398  0.0000E+00  0.9600E+00
    -17.191  0.0000E+00  0.9600E+00
    -16.984  0.0000E+00  0.9600E+00
    -16.777  0.0000E+00  0.9600E+00
    -16.570  0.0000E+00  0.9600E+00
    -16.363  0.0000E+00  0.9600E+00
    -16.155  0.0000E+00  0.9600E+00
    -15.948  0.0000E+00  0.9600E+00
    -15.741  0.0000E+00  0.9600E+00
    -15.534  0.0000E+00  0.9600E+00
    -15.327  0.0000E+00  0.9600E+00
    -15.119  0.0000E+00  0.9600E+00
    -14.912  0.0000E+00  0.9600E+00
    -14.705  0.0000E+00  0.9600E+00
    -14.498  0.0000E+00  0.9600E+00
    -14.291  0.0000E+00  0.9600E+00
    -14.083  0.0000E+00  0.9600E+00
    -13.876  0.0000E+00  0.9600E+00
    -13.669  0.0000E+00  0.9600E+00
    -13.462  0.0000E+00  0.9600E+00
    -13.255  0.0000E+00  0.9600E+00
    -13.047  0.0000E+00  0.9600E+00
    -12.840  0.0000E+00  0.9600E+00
    -12.633  0.0000E+00  0.9600E+00
    -12.426  0.0000E+00  0.9600E+00
    -12.219  0.0000E+00  0.9600E+00
    -12.011  0.0000E+00  0.9600E+00
    -11.804  0.0000E+00  0.9600E+00
    -11.597  0.0000E+00  0.9600E+00
    -11.390  0.0000E+00  0.9600E+00
    -11.183  0.0000E+00  0.9600E+00
    -10.975  0.0000E+00  0.9600E+00
    -10.768  0.0000E+00  0.9600E+00
    -10.561  0.0000E+00  0.9600E+00
    -10.354  0.0000E+00  0.9600E+00
    -10.147  0.0000E+00  0.9600E+00
     -9.940  0.0000E+00  0.9600E+00
     -9.732  0.0000E+00  0.9600E+00
     -9.525  0.0000E+00  0.9600E+00
     -9.318  0.0000E+00  0.9600E+00
     -9.111  0.0000E+00  0.9600E+00
     -8.904  0.0000E+00  0.9600E+00
     -8.696  0.0000E+00  0.9600E+00
     -8.489  0.0000E+00  0.9600E+00
     -8.282  0.0000E+00  0.9600E+00
     -8.075  0.0000E+00  0.9600E+00
     -7.868  0.0000E+00  0.9600E+00
     -7.660  0.0000E+00  0.9600E+00
     -7.453  0.0000E+00  0.9600E+00
     -7.246  0.0000E+00  0.9600E+00
     -7.039  0.0000E+00  0.9600E+00
     -6.832  0.0000E+00  0.9600E+00
     -6.624  0.0000E+00  0.9600E+00
     -6.417  0.0000E+00  0.9600E+00
     -6.210  0.0000E+00  0.9600E+00
     -6.003  0.0000E+00  0.9600E+00
     -5.796  0.0000E+00  0.9600E+00
     -5.588  0.0000E+00  0.9600E+00
     -5.381  0.0000E+00  0.9600E+00
     -5.174  0.0000E+00  0.9600E+00
     -4.967  0.0000E+00  0.9600E+00
     -4.760  0.0000E+00  0.9600E+00
     -4.552  0.0000E+00  0.9600E+00
     -4.345  0.0000E+00  0.9600E+00
     -4.138  0.0000E+00  0.9600E+00
     -3.931  0.0000E+00  0.9600E+00
     -3.724  0.0000E+00  0.9600E+00
     -3.517  0.0000E+00  0.9600E+00
     -3.309  0.0000E+00  0.9600E+00
     -3.102  0.0000E+00  0.9600E+00
     -2.895  0.0000E+00  0.9600E+00
     -2.688  0.0000E+00  0.9600E+00
     -2.481  0.0000E+00  0.9600E+00
     -2.273 -0.6037E-34  0.9600E+00
     -2.066 -0.9158E-27  0.9600E+00
     -1.859 -0.1606E-20  0.9600E+00
     -1.652 -0.3148E-15  0.9600E+00
     -1.445 -0.7267E-11  0.9600E+00
     -1.237 -0.1920E-07  0.9600E+00
     -1.030 -0.5695E-05  0.9600E+00
     -0.823 -0.1686E-03  0.9600E+00
     -0.616  0.3137E-03  0.9600E+00
     -0.409  0.7748E-02  0.9616E+00
     -0.201  0.2158E-01  0.9661E+00
      0.006  0.3280E-01  0.9729E+00
      0.213  0.3332E-01  0.9798E+00
      0.420  0.2631E-01  0.9853E+00
      0.627  0.6039E-01  0.9978E+00
      0.835  0.6660E-01  0.1012E+01
      1.042  0.5352E-01  0.1023E+01
      1.249  0.6164E-01  0.1035E+01
      1.456  0.8620E-01  0.1053E+01
      1.663  0.8093E-01  0.1070E+01
      1.870  0.7759E-01  0.1086E+01
      2.078  0.1388E+00  0.1115E+01
      2.285  0.2147E+00  0.1159E+01
      2.492  0.3032E+00  0.1222E+01
      2.699  0.3662E+00  0.1298E+01
      2.906  0.4041E+00  0.1382E+01
      3.114  0.5238E+00  0.1490E+01
      3.321  0.5781E+00  0.1610E+01
      3.528  0.6018E+00  0.1735E+01
      3.735  0.6313E+00  0.1866E+01
      3.942  0.6377E+00  0.1998E+01
      4.150  0.5594E+00  0.2114E+01
      4.357  0.4944E+00  0.2216E+01
      4.564  0.5391E+00  0.2328E+01
      4.771  0.6819E+00  0.2469E+01
      4.978  0.7734E+00  0.2629E+01
      5.186  0.8159E+00  0.2798E+01
      5.393  0.7856E+00  0.2961E+01
      5.600  0.7347E+00  0.3113E+01
      5.807  0.7111E+00  0.3261E+01
      6.014  0.7503E+00  0.3416E+01
      6.222  0.8145E+00  0.3585E+01
      6.429  0.7952E+00  0.3750E+01
      6.636  0.7247E+00  0.3900E+01
      6.843  0.6469E+00  0.4034E+01
      7.050  0.5216E+00  0.4142E+01
      7.258  0.4027E+00  0.4225E+01
      7.465  0.3593E+00  0.4300E+01
      7.672  0.3313E+00  0.4368E+01
      7.879  0.3218E+00  0.4435E+01
      8.086  0.3667E+00  0.4511E+01
      8.293  0.3869E+00  0.4591E+01
      8.501  0.3939E+00  0.4673E+01
      8.708  0.3160E+00  0.4738E+01
      8.915  0.1895E+00  0.4778E+01
      9.122  0.9141E-01  0.4797E+01
      9.329  0.1868E-01  0.4800E+01
      9.537 -0.1682E-02  0.4800E+01
      9.744 -0.2972E-03  0.4800E+01
      9.951 -0.3634E-05  0.4800E+01
     10.158 -0.4967E-08  0.4800E+01
     10.365 -0.7823E-12  0.4800E+01
     10.573 -0.1509E-16  0.4800E+01
     10.780  0.0000E+00  0.4800E+01
     10.987  0.0000E+00  0.4800E+01
     11.194  0.0000E+00  0.4800E+01
     11.401  0.0000E+00  0.4800E+01
     11.609  0.0000E+00  0.4800E+01
     11.816  0.0000E+00  0.4800E+01
     12.023  0.0000E+00  0.4800E+01
