   29   29   50    1
  0.1679057E+02  0.5525242E-09  0.8287863E-09  0.1139058E-08  0.5000000E-15
  1.000000000000000E-004
  CAR 
 SQS with 1 vacancy for VFE and VRV      
    199     63    120
 
  0.0000000E+00  0.0000000E+00  0.0000000E+00  0.8000000E-02
    1      -47.309656   1.000000
    2      -47.280254   1.000000
    3      -47.233417   1.000000
    4      -47.193098   1.000000
    5      -47.107531   1.000000
    6      -47.010798   1.000000
    7      -24.010300   1.000000
    8      -23.839099   1.000000
    9      -23.672942   1.000000
   10      -23.625973   1.000000
   11      -23.481390   1.000000
   12      -23.458236   1.000000
   13      -23.451003   1.000000
   14      -23.428328   1.000000
   15      -23.400931   1.000000
   16      -23.370204   1.000000
   17      -23.322254   1.000000
   18      -23.299399   1.000000
   19      -23.264266   1.000000
   20      -23.207852   1.000000
   21      -23.095967   1.000000
   22      -22.979756   1.000000
   23      -22.902688   1.000000
   24      -22.766910   1.000000
   25       -0.562103   1.000000
   26        0.909963   1.000000
   27        1.076144   1.000000
   28        1.970339   1.000000
   29        2.028939   1.000000
   30        2.154147   1.000000
   31        2.246469   1.000000
   32        2.357422   1.000000
   33        2.497715   1.000000
   34        2.593605   1.000000
   35        2.623325   1.000000
   36        2.684746   1.000000
   37        2.828240   1.000000
   38        2.883689   1.000000
   39        2.990982   1.000000
   40        3.084797   1.000000
   41        3.140985   1.000000
   42        3.236525   1.000000
   43        3.290887   1.000000
   44        3.354187   1.000000
   45        3.434114   1.000000
   46        3.483756   1.000000
   47        3.520861   1.000000
   48        3.556243   1.000000
   49        3.598972   1.000000
   50        3.705058   1.000000
   51        3.799273   1.000000
   52        3.840043   1.000000
   53        3.967454   1.000000
   54        4.008945   1.000000
   55        4.075597   1.000000
   56        4.209284   1.000000
   57        4.217065   1.000000
   58        4.420396   1.000000
   59        4.430557   1.000000
   60        4.543028   1.000000
   61        4.584735   1.000000
   62        4.675398   1.000000
   63        4.692290   1.000000
   64        4.788649   1.000000
   65        4.830649   1.000000
   66        4.888335   1.000000
   67        4.930298   1.000000
   68        5.000832   1.000000
   69        5.025321   1.000000
   70        5.118788   1.000000
   71        5.144974   1.000000
   72        5.203649   1.000000
   73        5.242157   1.000000
   74        5.270416   1.000000
   75        5.307509   1.000000
   76        5.351068   1.000000
   77        5.442098   1.000000
   78        5.473037   1.000000
   79        5.547030   1.000000
   80        5.674682   1.000000
   81        5.837157   1.000000
   82        5.933945   1.000000
   83        6.006802   1.000001
   84        6.052349   1.000004
   85        6.070738   1.000007
   86        6.119843   1.000033
   87        6.155297   1.000091
   88        6.203076   1.000326
   89        6.224212   1.000550
   90        6.336616   1.005752
   91        6.487277   1.033586
   92        6.493659   1.034402
   93        6.577628   1.010147
   94        6.641032   0.908896
   95        6.687869   0.771298
   96        6.797341   0.329965
   97        6.839902   0.177903
   98        6.929281  -0.004932
   99        6.973747  -0.031998
  100        7.054535  -0.028023
  101        7.064098  -0.025863
  102        7.171892  -0.006154
  103        7.261122  -0.001037
  104        7.449195  -0.000005
  105        7.703543  -0.000000
  106        7.724512  -0.000000
  107        7.748488  -0.000000
  108        7.883880  -0.000000
  109        8.010452  -0.000000
  110        8.120746  -0.000000
  111        8.382993  -0.000000
  112        8.512014  -0.000000
  113        8.620996  -0.000000
  114        8.645477  -0.000000
  115        8.788775  -0.000000
  116        8.853879  -0.000000
  117        9.012378  -0.000000
  118        9.044656  -0.000000
  119        9.082560  -0.000000
  120        9.093696  -0.000000
 
  0.2000000E+00 -0.1387779E-16  0.0000000E+00  0.1600000E-01
    1      -47.299403   1.000000
    2      -47.278797   1.000000
    3      -47.233066   1.000000
    4      -47.194818   1.000000
    5      -47.116914   1.000000
    6      -47.010756   1.000000
    7      -23.910078   1.000000
    8      -23.835036   1.000000
    9      -23.667676   1.000000
   10      -23.621266   1.000000
   11      -23.487280   1.000000
   12      -23.459085   1.000000
   13      -23.443257   1.000000
   14      -23.432525   1.000000
   15      -23.406353   1.000000
   16      -23.373763   1.000000
   17      -23.326465   1.000000
   18      -23.304297   1.000000
   19      -23.272191   1.000000
   20      -23.210861   1.000000
   21      -23.101198   1.000000
   22      -22.985459   1.000000
   23      -22.910264   1.000000
   24      -22.878723   1.000000
   25       -0.245754   1.000000
   26        1.162518   1.000000
   27        1.353779   1.000000
   28        2.056409   1.000000
   29        2.258294   1.000000
   30        2.393616   1.000000
   31        2.426423   1.000000
   32        2.560017   1.000000
   33        2.617120   1.000000
   34        2.713575   1.000000
   35        2.845668   1.000000
   36        2.868017   1.000000
   37        2.983983   1.000000
   38        3.049355   1.000000
   39        3.173966   1.000000
   40        3.200908   1.000000
   41        3.248322   1.000000
   42        3.345505   1.000000
   43        3.349349   1.000000
   44        3.419626   1.000000
   45        3.527624   1.000000
   46        3.588355   1.000000
   47        3.634834   1.000000
   48        3.758840   1.000000
   49        3.816034   1.000000
   50        3.856200   1.000000
   51        3.901937   1.000000
   52        3.950080   1.000000
   53        3.990559   1.000000
   54        4.083433   1.000000
   55        4.176871   1.000000
   56        4.278376   1.000000
   57        4.372954   1.000000
   58        4.447413   1.000000
   59        4.484402   1.000000
   60        4.579016   1.000000
   61        4.685200   1.000000
   62        4.732421   1.000000
   63        4.789939   1.000000
   64        4.840908   1.000000
   65        4.926535   1.000000
   66        4.976377   1.000000
   67        5.012702   1.000000
   68        5.079848   1.000000
   69        5.099328   1.000000
   70        5.151218   1.000000
   71        5.197064   1.000000
   72        5.222994   1.000000
   73        5.294839   1.000000
   74        5.366509   1.000000
   75        5.383730   1.000000
   76        5.431660   1.000000
   77        5.482243   1.000000
   78        5.534124   1.000000
   79        5.596827   1.000000
   80        5.683234   1.000000
   81        5.716383   1.000000
   82        5.763730   1.000000
   83        5.889305   1.000000
   84        5.942080   1.000000
   85        5.990553   1.000000
   86        6.092191   1.000014
   87        6.156335   1.000094
   88        6.184101   1.000199
   89        6.236553   1.000738
   90        6.260936   1.001286
   91        6.320234   1.004285
   92        6.371903   1.010216
   93        6.404803   1.016137
   94        6.463259   1.029191
   95        6.544662   1.030127
   96        6.561910   1.021910
   97        6.692564   0.754774
   98        6.772127   0.432874
   99        6.856858   0.128119
  100        6.884541   0.062163
  101        6.973922  -0.032045
  102        6.993745  -0.035235
  103        7.088444  -0.020268
  104        7.149638  -0.008877
  105        7.277516  -0.000710
  106        7.389263  -0.000036
  107        7.466184  -0.000003
  108        7.569525  -0.000000
  109        7.668072  -0.000000
  110        7.945539  -0.000000
  111        7.982576  -0.000000
  112        8.045296  -0.000000
  113        8.063977  -0.000000
  114        8.213671  -0.000000
  115        8.256188  -0.000000
  116        8.332665  -0.000000
  117        8.480653  -0.000000
  118        8.526726  -0.000000
  119        8.591999  -0.000000
  120        8.694676  -0.000000
 
  0.4000000E+00 -0.2775558E-16  0.0000000E+00  0.1600000E-01
    1      -47.284692   1.000000
    2      -47.269577   1.000000
    3      -47.232805   1.000000
    4      -47.201067   1.000000
    5      -47.133309   1.000000
    6      -47.010688   1.000000
    7      -23.847718   1.000000
    8      -23.678306   1.000000
    9      -23.637344   1.000000
   10      -23.580706   1.000000
   11      -23.497519   1.000000
   12      -23.461102   1.000000
   13      -23.447451   1.000000
   14      -23.415354   1.000000
   15      -23.412951   1.000000
   16      -23.382418   1.000000
   17      -23.334382   1.000000
   18      -23.318731   1.000000
   19      -23.282605   1.000000
   20      -23.219355   1.000000
   21      -23.214736   1.000000
   22      -23.076156   1.000000
   23      -22.992139   1.000000
   24      -22.904694   1.000000
   25        0.574899   1.000000
   26        1.547698   1.000000
   27        2.005370   1.000000
   28        2.148527   1.000000
   29        2.353433   1.000000
   30        2.545186   1.000000
   31        2.745305   1.000000
   32        2.844431   1.000000
   33        2.923445   1.000000
   34        3.017102   1.000000
   35        3.135951   1.000000
   36        3.167443   1.000000
   37        3.238202   1.000000
   38        3.306002   1.000000
   39        3.373882   1.000000
   40        3.420137   1.000000
   41        3.496320   1.000000
   42        3.579877   1.000000
   43        3.663475   1.000000
   44        3.702150   1.000000
   45        3.751616   1.000000
   46        3.794820   1.000000
   47        3.859775   1.000000
   48        3.936994   1.000000
   49        4.028950   1.000000
   50        4.075434   1.000000
   51        4.164843   1.000000
   52        4.175861   1.000000
   53        4.279979   1.000000
   54        4.356788   1.000000
   55        4.423513   1.000000
   56        4.491373   1.000000
   57        4.532583   1.000000
   58        4.618160   1.000000
   59        4.628643   1.000000
   60        4.668761   1.000000
   61        4.731830   1.000000
   62        4.785166   1.000000
   63        4.849779   1.000000
   64        4.880370   1.000000
   65        4.972283   1.000000
   66        4.987630   1.000000
   67        5.013518   1.000000
   68        5.089507   1.000000
   69        5.124208   1.000000
   70        5.190829   1.000000
   71        5.255565   1.000000
   72        5.288813   1.000000
   73        5.345510   1.000000
   74        5.384175   1.000000
   75        5.421894   1.000000
   76        5.485461   1.000000
   77        5.522651   1.000000
   78        5.593184   1.000000
   79        5.597603   1.000000
   80        5.659629   1.000000
   81        5.733426   1.000000
   82        5.809480   1.000000
   83        5.855816   1.000000
   84        5.889752   1.000000
   85        5.931133   1.000000
   86        6.000049   1.000001
   87        6.045236   1.000003
   88        6.078611   1.000009
   89        6.144836   1.000068
   90        6.166120   1.000123
   91        6.232630   1.000673
   92        6.278094   1.001862
   93        6.316367   1.003988
   94        6.362543   1.008844
   95        6.393049   1.013832
   96        6.425451   1.020602
   97        6.470819   1.030747
   98        6.520503   1.035107
   99        6.626108   0.941388
  100        6.654550   0.874615
  101        6.682294   0.790333
  102        6.735714   0.586211
  103        6.772936   0.429486
  104        6.896488   0.039638
  105        6.926726  -0.002306
  106        6.972819  -0.031738
  107        7.063155  -0.026079
  108        7.110221  -0.015608
  109        7.306367  -0.000351
  110        7.354257  -0.000099
  111        7.535456  -0.000000
  112        7.590819  -0.000000
  113        7.634720  -0.000000
  114        7.749099  -0.000000
  115        7.818622  -0.000000
  116        7.966542  -0.000000
  117        8.049898  -0.000000
  118        8.142763  -0.000000
  119        8.267515  -0.000000
  120        8.402170  -0.000000
 
  0.0000000E+00  0.2000000E+00  0.1387779E-16  0.1600000E-01
    1      -47.309648   1.000000
    2      -47.280215   1.000000
    3      -47.233305   1.000000
    4      -47.193103   1.000000
    5      -47.107528   1.000000
    6      -47.010943   1.000000
    7      -24.010312   1.000000
    8      -23.838209   1.000000
    9      -23.669563   1.000000
   10      -23.625179   1.000000
   11      -23.481398   1.000000
   12      -23.458306   1.000000
   13      -23.451122   1.000000
   14      -23.428413   1.000000
   15      -23.400955   1.000000
   16      -23.370354   1.000000
   17      -23.322312   1.000000
   18      -23.299330   1.000000
   19      -23.264334   1.000000
   20      -23.207744   1.000000
   21      -23.096003   1.000000
   22      -22.984300   1.000000
   23      -22.904153   1.000000
   24      -22.766917   1.000000
   25       -0.421624   1.000000
   26        0.906400   1.000000
   27        1.204629   1.000000
   28        1.593924   1.000000
   29        2.070774   1.000000
   30        2.155820   1.000000
   31        2.286760   1.000000
   32        2.396732   1.000000
   33        2.544289   1.000000
   34        2.554966   1.000000
   35        2.631952   1.000000
   36        2.695024   1.000000
   37        2.784215   1.000000
   38        2.875041   1.000000
   39        2.977293   1.000000
   40        2.999989   1.000000
   41        3.149667   1.000000
   42        3.186123   1.000000
   43        3.220018   1.000000
   44        3.328079   1.000000
   45        3.414299   1.000000
   46        3.515961   1.000000
   47        3.589581   1.000000
   48        3.667809   1.000000
   49        3.689092   1.000000
   50        3.731481   1.000000
   51        3.806175   1.000000
   52        3.843354   1.000000
   53        3.972437   1.000000
   54        4.050214   1.000000
   55        4.125916   1.000000
   56        4.140938   1.000000
   57        4.288324   1.000000
   58        4.394925   1.000000
   59        4.469157   1.000000
   60        4.539500   1.000000
   61        4.651100   1.000000
   62        4.710306   1.000000
   63        4.785749   1.000000
   64        4.830736   1.000000
   65        4.891409   1.000000
   66        4.953622   1.000000
   67        5.000046   1.000000
   68        5.040899   1.000000
   69        5.065215   1.000000
   70        5.128813   1.000000
   71        5.169724   1.000000
   72        5.225915   1.000000
   73        5.242166   1.000000
   74        5.315124   1.000000
   75        5.342321   1.000000
   76        5.412579   1.000000
   77        5.486832   1.000000
   78        5.539441   1.000000
   79        5.602599   1.000000
   80        5.718241   1.000000
   81        5.817823   1.000000
   82        5.890518   1.000000
   83        5.953660   1.000000
   84        5.991419   1.000000
   85        6.053052   1.000004
   86        6.095242   1.000015
   87        6.139379   1.000058
   88        6.167566   1.000128
   89        6.204213   1.000335
   90        6.238371   1.000770
   91        6.261443   1.001301
   92        6.408489   1.016899
   93        6.471965   1.030971
   94        6.530508   1.033836
   95        6.573543   1.013637
   96        6.639941   0.911461
   97        6.752276   0.516633
   98        6.886528   0.058171
   99        6.938488  -0.013323
  100        7.082994  -0.021504
  101        7.194900  -0.004074
  102        7.353368  -0.000101
  103        7.392693  -0.000032
  104        7.442364  -0.000007
  105        7.573753  -0.000000
  106        7.685517  -0.000000
  107        7.856138  -0.000000
  108        7.892264  -0.000000
  109        7.922887  -0.000000
  110        8.007999  -0.000000
  111        8.123115  -0.000000
  112        8.174825  -0.000000
  113        8.267794  -0.000000
  114        8.504053  -0.000000
  115        8.614914  -0.000000
  116        8.733499  -0.000000
  117        8.774124  -0.000000
  118        8.858409  -0.000000
  119        8.903045  -0.000000
  120        8.949100  -0.000000
 
  0.2000000E+00  0.2000000E+00 -0.4857226E-16  0.1600000E-01
    1      -47.299410   1.000000
    2      -47.278831   1.000000
    3      -47.233173   1.000000
    4      -47.194814   1.000000
    5      -47.116918   1.000000
    6      -47.010617   1.000000
    7      -23.910100   1.000000
    8      -23.835855   1.000000
    9      -23.671156   1.000000
   10      -23.621794   1.000000
   11      -23.487258   1.000000
   12      -23.459044   1.000000
   13      -23.443193   1.000000
   14      -23.432509   1.000000
   15      -23.406348   1.000000
   16      -23.373656   1.000000
   17      -23.326421   1.000000
   18      -23.304318   1.000000
   19      -23.272129   1.000000
   20      -23.210789   1.000000
   21      -23.101151   1.000000
   22      -22.981134   1.000000
   23      -22.908977   1.000000
   24      -22.878566   1.000000
   25       -0.241931   1.000000
   26        1.087786   1.000000
   27        1.386651   1.000000
   28        1.961282   1.000000
   29        2.279995   1.000000
   30        2.327620   1.000000
   31        2.425492   1.000000
   32        2.500815   1.000000
   33        2.567522   1.000000
   34        2.713453   1.000000
   35        2.750748   1.000000
   36        2.859561   1.000000
   37        2.931103   1.000000
   38        3.070718   1.000000
   39        3.138369   1.000000
   40        3.229837   1.000000
   41        3.247186   1.000000
   42        3.351107   1.000000
   43        3.405741   1.000000
   44        3.490345   1.000000
   45        3.532459   1.000000
   46        3.581969   1.000000
   47        3.644000   1.000000
   48        3.737722   1.000000
   49        3.772780   1.000000
   50        3.823696   1.000000
   51        3.871674   1.000000
   52        3.948378   1.000000
   53        4.042222   1.000000
   54        4.128629   1.000000
   55        4.194690   1.000000
   56        4.322287   1.000000
   57        4.360836   1.000000
   58        4.438010   1.000000
   59        4.520468   1.000000
   60        4.568579   1.000000
   61        4.671980   1.000000
   62        4.727693   1.000000
   63        4.785077   1.000000
   64        4.836426   1.000000
   65        4.902960   1.000000
   66        4.943615   1.000000
   67        4.987849   1.000000
   68        5.011550   1.000000
   69        5.062705   1.000000
   70        5.122151   1.000000
   71        5.194327   1.000000
   72        5.223710   1.000000
   73        5.237298   1.000000
   74        5.289127   1.000000
   75        5.313812   1.000000
   76        5.416562   1.000000
   77        5.494397   1.000000
   78        5.541224   1.000000
   79        5.605331   1.000000
   80        5.653607   1.000000
   81        5.704899   1.000000
   82        5.788235   1.000000
   83        5.844350   1.000000
   84        5.930717   1.000000
   85        6.019684   1.000001
   86        6.076205   1.000008
   87        6.103375   1.000020
   88        6.191854   1.000244
   89        6.206709   1.000357
   90        6.265836   1.001432
   91        6.340628   1.006166
   92        6.413421   1.017944
   93        6.514309   1.035421
   94        6.555202   1.025641
   95        6.588656   0.999087
   96        6.669231   0.832267
   97        6.720510   0.648412
   98        6.756824   0.497388
   99        6.844213   0.164596
  100        6.923306   0.001421
  101        6.978487  -0.033160
  102        7.051354  -0.028719
  103        7.149422  -0.008907
  104        7.174531  -0.005880
  105        7.316258  -0.000273
  106        7.387820  -0.000038
  107        7.472844  -0.000002
  108        7.530843  -0.000000
  109        7.683024  -0.000000
  110        7.857987  -0.000000
  111        7.903926  -0.000000
  112        7.961651  -0.000000
  113        8.388814  -0.000000
  114        8.475262  -0.000000
  115        8.585291  -0.000000
  116        8.658573  -0.000000
  117        8.821240  -0.000000
  118        8.877848  -0.000000
  119        8.914348  -0.000000
  120        8.988121  -0.000000
 
  0.4000000E+00  0.2000000E+00 -0.5551115E-16  0.1600000E-01
    1      -47.284739   1.000000
    2      -47.269594   1.000000
    3      -47.232985   1.000000
    4      -47.201058   1.000000
    5      -47.133315   1.000000
    6      -47.010461   1.000000
    7      -23.848941   1.000000
    8      -23.682023   1.000000
    9      -23.640438   1.000000
   10      -23.580659   1.000000
   11      -23.497566   1.000000
   12      -23.461014   1.000000
   13      -23.447447   1.000000
   14      -23.415361   1.000000
   15      -23.412765   1.000000
   16      -23.382245   1.000000
   17      -23.334315   1.000000
   18      -23.318694   1.000000
   19      -23.282594   1.000000
   20      -23.219303   1.000000
   21      -23.214655   1.000000
   22      -23.076049   1.000000
   23      -22.984484   1.000000
   24      -22.902853   1.000000
   25        0.480887   1.000000
   26        1.489401   1.000000
   27        1.845129   1.000000
   28        2.107398   1.000000
   29        2.190432   1.000000
   30        2.541624   1.000000
   31        2.753110   1.000000
   32        2.916411   1.000000
   33        2.981028   1.000000
   34        3.050004   1.000000
   35        3.152944   1.000000
   36        3.225245   1.000000
   37        3.275635   1.000000
   38        3.335401   1.000000
   39        3.437464   1.000000
   40        3.466614   1.000000
   41        3.536774   1.000000
   42        3.565134   1.000000
   43        3.648552   1.000000
   44        3.679926   1.000000
   45        3.714729   1.000000
   46        3.749327   1.000000
   47        3.846210   1.000000
   48        3.942661   1.000000
   49        3.971834   1.000000
   50        4.068764   1.000000
   51        4.072433   1.000000
   52        4.134120   1.000000
   53        4.228642   1.000000
   54        4.260831   1.000000
   55        4.318969   1.000000
   56        4.412437   1.000000
   57        4.477941   1.000000
   58        4.553480   1.000000
   59        4.645040   1.000000
   60        4.654554   1.000000
   61        4.776920   1.000000
   62        4.810218   1.000000
   63        4.863830   1.000000
   64        4.910465   1.000000
   65        4.938692   1.000000
   66        4.967486   1.000000
   67        4.999424   1.000000
   68        5.071057   1.000000
   69        5.124250   1.000000
   70        5.162921   1.000000
   71        5.204631   1.000000
   72        5.252889   1.000000
   73        5.352002   1.000000
   74        5.374985   1.000000
   75        5.400552   1.000000
   76        5.495428   1.000000
   77        5.576880   1.000000
   78        5.625701   1.000000
   79        5.670263   1.000000
   80        5.702287   1.000000
   81        5.737891   1.000000
   82        5.817919   1.000000
   83        5.844555   1.000000
   84        5.904650   1.000000
   85        5.945449   1.000000
   86        5.960869   1.000000
   87        6.038884   1.000002
   88        6.060817   1.000005
   89        6.104855   1.000021
   90        6.157796   1.000098
   91        6.201172   1.000311
   92        6.230420   1.000639
   93        6.280423   1.001955
   94        6.320773   1.004328
   95        6.360688   1.008589
   96        6.410871   1.017400
   97        6.463645   1.029274
   98        6.517126   1.035320
   99        6.543705   1.030457
  100        6.663133   0.850491
  101        6.676251   0.810210
  102        6.711450   0.684228
  103        6.835157   0.193044
  104        6.852459   0.140368
  105        6.962001  -0.027878
  106        7.045185  -0.030023
  107        7.132693  -0.011470
  108        7.215975  -0.002712
  109        7.318902  -0.000255
  110        7.532884  -0.000000
  111        7.706938  -0.000000
  112        7.845444  -0.000000
  113        7.981495  -0.000000
  114        8.069255  -0.000000
  115        8.158177  -0.000000
  116        8.254464  -0.000000
  117        8.300094  -0.000000
  118        8.411342  -0.000000
  119        8.456427  -0.000000
  120        8.475974  -0.000000
 
 -0.4000000E+00  0.2000000E+00 -0.3908332E-16  0.1600000E-01
    1      -47.284688   1.000000
    2      -47.269578   1.000000
    3      -47.232801   1.000000
    4      -47.201068   1.000000
    5      -47.133309   1.000000
    6      -47.010691   1.000000
    7      -23.847699   1.000000
    8      -23.678275   1.000000
    9      -23.637308   1.000000
   10      -23.580716   1.000000
   11      -23.497499   1.000000
   12      -23.461120   1.000000
   13      -23.447498   1.000000
   14      -23.415358   1.000000
   15      -23.413006   1.000000
   16      -23.382406   1.000000
   17      -23.334387   1.000000
   18      -23.318722   1.000000
   19      -23.282596   1.000000
   20      -23.219330   1.000000
   21      -23.214664   1.000000
   22      -23.076153   1.000000
   23      -22.992229   1.000000
   24      -22.904744   1.000000
   25        0.838634   1.000000
   26        1.432350   1.000000
   27        1.730247   1.000000
   28        2.149506   1.000000
   29        2.384541   1.000000
   30        2.556484   1.000000
   31        2.662817   1.000000
   32        2.793153   1.000000
   33        2.954684   1.000000
   34        3.024901   1.000000
   35        3.071321   1.000000
   36        3.141968   1.000000
   37        3.243958   1.000000
   38        3.318846   1.000000
   39        3.370885   1.000000
   40        3.426129   1.000000
   41        3.485293   1.000000
   42        3.580599   1.000000
   43        3.653852   1.000000
   44        3.669261   1.000000
   45        3.741886   1.000000
   46        3.856898   1.000000
   47        3.931786   1.000000
   48        3.957565   1.000000
   49        4.027751   1.000000
   50        4.076636   1.000000
   51        4.139843   1.000000
   52        4.256137   1.000000
   53        4.366281   1.000000
   54        4.426936   1.000000
   55        4.460649   1.000000
   56        4.493127   1.000000
   57        4.528212   1.000000
   58        4.570805   1.000000
   59        4.671598   1.000000
   60        4.706646   1.000000
   61        4.750430   1.000000
   62        4.781932   1.000000
   63        4.846552   1.000000
   64        4.893349   1.000000
   65        4.940534   1.000000
   66        4.974261   1.000000
   67        5.009828   1.000000
   68        5.063716   1.000000
   69        5.094606   1.000000
   70        5.159926   1.000000
   71        5.226173   1.000000
   72        5.241789   1.000000
   73        5.280454   1.000000
   74        5.322548   1.000000
   75        5.353368   1.000000
   76        5.456158   1.000000
   77        5.538137   1.000000
   78        5.605387   1.000000
   79        5.644305   1.000000
   80        5.690333   1.000000
   81        5.713036   1.000000
   82        5.756037   1.000000
   83        5.861061   1.000000
   84        5.906164   1.000000
   85        5.931111   1.000000
   86        6.010619   1.000001
   87        6.029987   1.000002
   88        6.085695   1.000011
   89        6.122757   1.000036
   90        6.146115   1.000070
   91        6.231707   1.000658
   92        6.292106   1.002486
   93        6.303149   1.003096
   94        6.368659   1.009725
   95        6.402396   1.015649
   96        6.466739   1.029922
   97        6.511015   1.035458
   98        6.573164   1.013945
   99        6.619965   0.953142
  100        6.640770   0.909514
  101        6.717515   0.660370
  102        6.750416   0.524493
  103        6.819742   0.245611
  104        6.866364   0.103294
  105        6.918349   0.007263
  106        7.016475  -0.034645
  107        7.109177  -0.015818
  108        7.161568  -0.007324
  109        7.235347  -0.001822
  110        7.296661  -0.000447
  111        7.362291  -0.000079
  112        7.541749  -0.000000
  113        7.745969  -0.000000
  114        7.801012  -0.000000
  115        7.964703  -0.000000
  116        8.051871  -0.000000
  117        8.209960  -0.000000
  118        8.286726  -0.000000
  119        8.343622  -0.000000
  120        8.391957  -0.000000
 
 -0.2000000E+00  0.2000000E+00  0.1006140E-15  0.1600000E-01
    1      -47.299387   1.000000
    2      -47.278741   1.000000
    3      -47.232885   1.000000
    4      -47.194827   1.000000
    5      -47.116909   1.000000
    6      -47.010989   1.000000
    7      -23.910042   1.000000
    8      -23.833706   1.000000
    9      -23.661940   1.000000
   10      -23.620133   1.000000
   11      -23.487245   1.000000
   12      -23.459172   1.000000
   13      -23.443476   1.000000
   14      -23.432645   1.000000
   15      -23.406383   1.000000
   16      -23.373975   1.000000
   17      -23.326546   1.000000
   18      -23.304227   1.000000
   19      -23.272273   1.000000
   20      -23.210759   1.000000
   21      -23.101261   1.000000
   22      -22.993108   1.000000
   23      -22.912248   1.000000
   24      -22.878938   1.000000
   25        0.010441   1.000000
   26        1.105290   1.000000
   27        1.502709   1.000000
   28        1.735843   1.000000
   29        2.192373   1.000000
   30        2.381531   1.000000
   31        2.560914   1.000000
   32        2.647407   1.000000
   33        2.714911   1.000000
   34        2.730630   1.000000
   35        2.794586   1.000000
   36        2.902276   1.000000
   37        2.940589   1.000000
   38        3.040052   1.000000
   39        3.070296   1.000000
   40        3.137879   1.000000
   41        3.212319   1.000000
   42        3.287896   1.000000
   43        3.325904   1.000000
   44        3.382129   1.000000
   45        3.486779   1.000000
   46        3.552129   1.000000
   47        3.712408   1.000000