       N       E                     dE             d eps       ncg     rms          rms(c)
DAV:   1     0.217068685739E+04    0.21707E+04   -0.91663E+04 15120   0.176E+03
DAV:   2     0.772274959901E+02   -0.20935E+04   -0.20321E+04 15176   0.522E+02
DAV:   3    -0.300674889089E+03   -0.37790E+03   -0.35957E+03 26344   0.184E+02
DAV:   4    -0.347660074861E+03   -0.46985E+02   -0.43529E+02 23336   0.605E+01
DAV:   5    -0.352836067194E+03   -0.51760E+01   -0.50491E+01 28888   0.224E+01    0.751E+01
DAV:   6    -0.342792754456E+03    0.10043E+02   -0.12777E+02 21128   0.308E+01    0.371E+01
DAV:   7    -0.354858788860E+03   -0.12066E+02   -0.37385E+02 20840   0.727E+01    0.265E+01
DAV:   8    -0.340413012081E+03    0.14446E+02   -0.70488E+01 22832   0.274E+01    0.177E+01
DAV:   9    -0.332934975662E+03    0.74780E+01   -0.20965E+01 22096   0.142E+01    0.112E+01
DAV:  10    -0.330916127786E+03    0.20188E+01   -0.88895E+00 21840   0.810E+00    0.751E+00
DAV:  11    -0.330043863456E+03    0.87226E+00   -0.55218E+00 22968   0.626E+00    0.304E+00
DAV:  12    -0.330040827271E+03    0.30362E-02   -0.17213E+00 22416   0.369E+00    0.248E+00
DAV:  13    -0.330010924661E+03    0.29903E-01   -0.90488E-01 21720   0.292E+00    0.163E+00
DAV:  14    -0.329989241041E+03    0.21684E-01   -0.39474E-01 22808   0.205E+00    0.117E+00
DAV:  15    -0.329971325591E+03    0.17915E-01   -0.17260E-01 22552   0.121E+00    0.599E-01
DAV:  16    -0.329972120418E+03   -0.79483E-03   -0.50018E-02 23128   0.678E-01    0.518E-01
DAV:  17    -0.329971793273E+03    0.32715E-03   -0.30166E-02 21728   0.495E-01    0.432E-01
DAV:  18    -0.329969500639E+03    0.22926E-02   -0.12222E-02 20864   0.354E-01    0.219E-01
DAV:  19    -0.329968952893E+03    0.54775E-03   -0.74742E-03 21752   0.265E-01    0.105E-01
DAV:  20    -0.329968895070E+03    0.57823E-04   -0.19539E-03 19648   0.138E-01    0.585E-02
DAV:  21    -0.329968861478E+03    0.33592E-04   -0.45030E-04 13824   0.741E-02
   1 F= -.32996886E+03 E0= -.32996600E+03  d E =-.329969E+03
       N       E                     dE             d eps       ncg     rms          rms(c)
DAV:   1    -0.332017101925E+03   -0.20482E+01   -0.15857E+02 19616   0.548E+01    0.153E+01
DAV:   2    -0.332231508938E+03   -0.21441E+00   -0.32646E+01 23744   0.249E+01    0.101E+01
DAV:   3    -0.330798794807E+03    0.14327E+01   -0.18834E+01 21608   0.128E+01    0.712E+00
DAV:   4    -0.330400910823E+03    0.39788E+00   -0.90540E+00 23296   0.964E+00    0.418E+00
DAV:   5    -0.330161392619E+03    0.23952E+00   -0.28527E+00 22344   0.571E+00    0.270E+00
DAV:   6    -0.330075431509E+03    0.85961E-01   -0.10546E+00 24592   0.328E+00    0.175E+00
DAV:   7    -0.330074977942E+03    0.45357E-03   -0.35943E-01 24680   0.182E+00    0.128E+00
DAV:   8    -0.330074068124E+03    0.90982E-03   -0.13822E-01 23176   0.114E+00    0.928E-01
DAV:   9    -0.330080583058E+03   -0.65149E-02   -0.92335E-02 22296   0.881E-01    0.790E-01
DAV:  10    -0.330084346801E+03   -0.37637E-02   -0.65029E-02 23656   0.757E-01    0.546E-01
DAV:  11    -0.330084574421E+03   -0.22762E-03   -0.35159E-02 23280   0.570E-01    0.297E-01
DAV:  12    -0.330084228179E+03    0.34624E-03   -0.12374E-02 24192   0.348E-01    0.127E-01
DAV:  13    -0.330084367976E+03   -0.13980E-03   -0.37007E-03 22128   0.182E-01    0.893E-02
DAV:  14    -0.330084360555E+03    0.74206E-05   -0.14951E-03 20400   0.117E-01    0.510E-02
DAV:  15    -0.330084317632E+03    0.42923E-04   -0.29910E-04 11904   0.704E-02
   2 F= -.33008432E+03 E0= -.33008184E+03  d E =-.115456E+00
       N       E                     dE             d eps       ncg     rms          rms(c)
DAV:   1    -0.330648667084E+03   -0.56431E+00   -0.30804E+01 19360   0.241E+01    0.667E+00
DAV:   2    -0.330680620711E+03   -0.31954E-01   -0.57853E+00 25592   0.104E+01    0.508E+00
DAV:   3    -0.330507808345E+03    0.17281E+00   -0.52432E+00 22632   0.712E+00    0.355E+00
DAV:   4    -0.330355492765E+03    0.15232E+00   -0.15749E+00 24232   0.388E+00    0.187E+00
DAV:   5    -0.330314834691E+03    0.40658E-01   -0.74066E-01 22456   0.283E+00    0.147E+00
DAV:   6    -0.330286241906E+03    0.28593E-01   -0.28229E-01 23080   0.173E+00    0.811E-01
DAV:   7    -0.330285566948E+03    0.67496E-03   -0.81944E-02 24472   0.854E-01    0.607E-01
DAV:   8    -0.330285648100E+03   -0.81152E-04   -0.35360E-02 22680   0.599E-01    0.491E-01
DAV:   9    -0.330285532275E+03    0.11583E-03   -0.23903E-02 21936   0.432E-01    0.359E-01
DAV:  10    -0.330286501084E+03   -0.96881E-03   -0.13928E-02 22376   0.340E-01    0.262E-01
DAV:  11    -0.330286592539E+03   -0.91455E-04   -0.90491E-03 22768   0.277E-01    0.152E-01
DAV:  12    -0.330286492046E+03    0.10049E-03   -0.29195E-03 22040   0.160E-01    0.699E-02
DAV:  13    -0.330286525158E+03   -0.33113E-04   -0.10015E-03 20024   0.954E-02    0.535E-02
DAV:  14    -0.330286503506E+03    0.21652E-04   -0.35265E-04 12496   0.719E-02
   3 F= -.33028650E+03 E0= -.33028394E+03  d E =-.317642E+00
       N       E                     dE             d eps       ncg     rms          rms(c)
DAV:   1    -0.330265636289E+03    0.20889E-01   -0.10768E+02 15120   0.348E+01    0.408E+00
DAV:   2    -0.330727858758E+03   -0.46222E+00   -0.72192E+00 21808   0.108E+01    0.338E+00
DAV:   3    -0.330724874232E+03    0.29845E-02   -0.22736E+00 22832   0.525E+00    0.289E+00
DAV:   4    -0.330634623924E+03    0.90250E-01   -0.79331E-01 22856   0.288E+00    0.171E+00
DAV:   5    -0.330609836020E+03    0.24788E-01   -0.32034E-01 22752   0.171E+00    0.118E+00
DAV:   6    -0.330600896669E+03    0.89394E-02   -0.18618E-01 23104   0.139E+00    0.713E-01
DAV:   7    -0.330593721497E+03    0.71752E-02   -0.80613E-02 24752   0.915E-01    0.429E-01
DAV:   8    -0.330592934560E+03    0.78694E-03   -0.24336E-02 23496   0.436E-01    0.314E-01
DAV:   9    -0.330592752882E+03    0.18168E-03   -0.58723E-03 21072   0.224E-01    0.230E-01
DAV:  10    -0.330592924156E+03   -0.17127E-03   -0.22519E-03 20824   0.156E-01    0.160E-01
DAV:  11    -0.330593150865E+03   -0.22671E-03   -0.25280E-03 20424   0.163E-01    0.106E-01
DAV:  12    -0.330592990155E+03    0.16071E-03   -0.21325E-03 19640   0.148E-01    0.603E-02
DAV:  13    -0.330592926297E+03    0.63858E-04   -0.47500E-04 13896   0.798E-02
   4 F= -.33059293E+03 E0= -.33059010E+03  d E =-.306423E+00
       N       E                     dE             d eps       ncg     rms          rms(c)
DAV:   1    -0.330592982395E+03    0.77597E-05   -0.34308E-01 16144   0.195E+00    0.216E-01
DAV:   2    -0.330594297793E+03   -0.13154E-02   -0.21003E-02 22640   0.589E-01    0.191E-01
DAV:   3    -0.330594140759E+03    0.15703E-03   -0.65051E-03 21104   0.270E-01    0.144E-01
DAV:   4    -0.330593958634E+03    0.18213E-03   -0.23059E-03 20328   0.157E-01    0.970E-02
DAV:   5    -0.330593870918E+03    0.87716E-04   -0.11499E-03 17488   0.105E-01    0.655E-02
DAV:   6    -0.330593838058E+03    0.32860E-04   -0.49267E-04 13880   0.827E-02
   5 F= -.33059384E+03 E0= -.33059104E+03  d E =-.307335E+00
       N       E                     dE             d eps       ncg     rms          rms(c)
DAV:   1    -0.330616875163E+03   -0.23004E-01   -0.63442E+00 15120   0.895E+00    0.136E+00
DAV:   2    -0.330660021411E+03   -0.43146E-01   -0.63973E-01 22080   0.317E+00    0.137E+00
DAV:   3    -0.330639774784E+03    0.20247E-01   -0.29929E-01 22360   0.177E+00    0.830E-01
DAV:   4    -0.330637155284E+03    0.26195E-02   -0.98292E-02 22256   0.101E+00    0.656E-01
DAV:   5    -0.330630813011E+03    0.63423E-02   -0.55360E-02 22264   0.712E-01    0.299E-01
DAV:   6    -0.330630788621E+03    0.24390E-04   -0.21592E-02 23864   0.461E-01    0.284E-01
DAV:   7    -0.330629496201E+03    0.12924E-02   -0.97075E-03 22192   0.311E-01    0.119E-01
DAV:   8    -0.330629402415E+03    0.93785E-04   -0.12932E-03 19992   0.120E-01    0.868E-02
DAV:   9    -0.330629428090E+03   -0.25674E-04   -0.51006E-04 14960   0.748E-02
   6 F= -.33062943E+03 E0= -.33062643E+03  d E =-.355900E-01
       N       E                     dE             d eps       ncg     rms          rms(c)
DAV:   1    -0.330630036060E+03   -0.63364E-03   -0.14730E+00 15120   0.430E+00    0.652E-01
DAV:   2    -0.330639874924E+03   -0.98389E-02   -0.14708E-01 21848   0.154E+00    0.653E-01
DAV:   3    -0.330635170078E+03    0.47048E-02   -0.67668E-02 22240   0.846E-01    0.395E-01
DAV:   4    -0.330634596772E+03    0.57331E-03   -0.22589E-02 21688   0.483E-01    0.315E-01
DAV:   5    -0.330633204367E+03    0.13924E-02   -0.13210E-02 22280   0.346E-01    0.150E-01
DAV:   6    -0.330633190765E+03    0.13602E-04   -0.50515E-03 22000   0.223E-01    0.140E-01
DAV:   7    -0.330632880775E+03    0.30999E-03   -0.22728E-03 20776   0.152E-01    0.605E-02
DAV:   8    -0.330632856574E+03    0.24201E-04   -0.19824E-04 10664   0.589E-02
   7 F= -.33063286E+03 E0= -.33062977E+03  d E =-.390185E-01
       N       E                     dE             d eps       ncg     rms          rms(c)
DAV:   1    -0.330654808955E+03   -0.21928E-01   -0.25779E+00 15120   0.619E+00    0.131E+00
DAV:   2    -0.330661397972E+03   -0.65890E-02   -0.28937E-01 21488   0.216E+00    0.833E-01
DAV:   3    -0.330662424802E+03   -0.10268E-02   -0.16579E-01 21896   0.136E+00    0.811E-01
DAV:   4    -0.330653503096E+03    0.89217E-02   -0.78015E-02 21536   0.928E-01    0.431E-01
DAV:   5    -0.330650570889E+03    0.29322E-02   -0.31079E-02 22352   0.581E-01    0.244E-01
DAV:   6    -0.330649853841E+03    0.71705E-03   -0.10755E-02 23000   0.333E-01    0.165E-01
DAV:   7    -0.330649715381E+03    0.13846E-03   -0.52262E-03 20864   0.210E-01    0.113E-01
DAV:   8    -0.330649631354E+03    0.84027E-04   -0.16433E-03 19920   0.125E-01    0.763E-02
DAV:   9    -0.330649626416E+03    0.49377E-05   -0.44763E-04 13800   0.709E-02
   8 F= -.33064963E+03 E0= -.33064644E+03  d E =-.167698E-01
       N       E                     dE             d eps       ncg     rms          rms(c)
DAV:   1    -0.330652137619E+03   -0.25063E-02   -0.53645E-01 15144   0.282E+00    0.594E-01
DAV:   2    -0.330653429827E+03   -0.12922E-02   -0.58767E-02 21248   0.991E-01    0.377E-01
DAV:   3    -0.330653716506E+03   -0.28668E-03   -0.35031E-02 21976   0.627E-01    0.363E-01
DAV:   4    -0.330651815259E+03    0.19012E-02   -0.15560E-02 21448   0.421E-01    0.186E-01
DAV:   5    -0.330651272020E+03    0.54324E-03   -0.60412E-03 22592   0.258E-01    0.108E-01
DAV:   6    -0.330651162153E+03    0.10987E-03   -0.19891E-03 20408   0.144E-01    0.780E-02
DAV:   7    -0.330651140416E+03    0.21737E-04   -0.92936E-04 17848   0.930E-02
   9 F= -.33065114E+03 E0= -.33064791E+03  d E =-.182838E-01
       N       E                     dE             d eps       ncg     rms          rms(c)
DAV:   1    -0.330655460914E+03   -0.42988E-02   -0.37718E-01 16632   0.207E+00    0.181E-01
DAV:   2    -0.330657753590E+03   -0.22927E-02   -0.23520E-02 23088   0.656E-01    0.254E-01
DAV:   3    -0.330656835057E+03    0.91853E-03   -0.89795E-03 22568   0.313E-01    0.122E-01
DAV:   4    -0.330656707922E+03    0.12713E-03   -0.17051E-03 20816   0.139E-01    0.750E-02
DAV:   5    -0.330656658401E+03    0.49521E-04   -0.57309E-04 14528   0.915E-02
  10 F= -.33065666E+03 E0= -.33065340E+03  d E =-.551799E-02
       N       E                     dE             d eps       ncg     rms          rms(c)
DAV:   1    -0.330655800936E+03    0.90699E-03   -0.33848E+00 16632   0.619E+00    0.525E-01
DAV:   2    -0.330677356268E+03   -0.21555E-01   -0.22321E-01 23536   0.200E+00    0.800E-01
DAV:   3    -0.330667565200E+03    0.97911E-02   -0.82650E-02 23560   0.928E-01    0.356E-01
DAV:   4    -0.330666560970E+03    0.10042E-02   -0.12826E-02 24024   0.387E-01    0.232E-01
DAV:   5    -0.330666171467E+03    0.38950E-03   -0.57256E-03 22184   0.260E-01    0.175E-01
DAV:   6    -0.330666074486E+03    0.96982E-04   -0.49556E-03 21880   0.221E-01    0.143E-01
DAV:   7    -0.330665823748E+03    0.25074E-03   -0.27916E-03 20648   0.161E-01    0.765E-02
DAV:   8    -0.330665746113E+03    0.77635E-04   -0.85335E-04 16640   0.102E-01
  11 F= -.33066575E+03 E0= -.33066242E+03  d E =-.146057E-01
       N       E                     dE             d eps       ncg     rms          rms(c)
DAV:   1    -0.330671972855E+03   -0.61491E-02   -0.39964E-01 18592   0.275E+00    0.746E-01
DAV:   2    -0.330672586319E+03   -0.61346E-03   -0.76643E-02 25248   0.116E+00    0.534E-01
DAV:   3    -0.330670533462E+03    0.20529E-02   -0.64114E-02 22576   0.767E-01    0.395E-01
DAV:   4    -0.330668577020E+03    0.19564E-02   -0.20891E-02 23920   0.462E-01    0.217E-01
DAV:   5    -0.330667973517E+03    0.60350E-03   -0.90796E-03 22448   0.302E-01    0.150E-01
DAV:   6    -0.330667665557E+03    0.30796E-03   -0.28984E-03 20960   0.175E-01    0.854E-02
DAV:   7    -0.330667691116E+03   -0.25559E-04   -0.12747E-03 19384   0.104E-01    0.750E-02
DAV:   8    -0.330667641301E+03    0.49816E-04   -0.39726E-04 12896   0.729E-02
  12 F= -.33066764E+03 E0= -.33066430E+03  d E =-.189519E-02
       N       E                     dE             d eps       ncg     rms          rms(c)
DAV:   1    -0.330667641514E+03    0.49603E-04   -0.14134E-04  9072   0.585E-02    0.366E-02
DAV:   2    -0.330667655785E+03   -0.14272E-04   -0.15551E-04  9288   0.555E-02
  13 F= -.33066766E+03 E0= -.33066433E+03  d E =-.190967E-02
       N       E                     dE             d eps       ncg     rms          rms(c)
DAV:   1    -0.330668851553E+03   -0.12100E-02   -0.23942E-01 16640   0.162E+00    0.113E-01
DAV:   2    -0.330669727385E+03   -0.87583E-03   -0.10478E-02 23952   0.441E-01    0.101E-01
DAV:   3    -0.330669705842E+03    0.21542E-04   -0.14762E-03 20424   0.127E-01    0.804E-02
DAV:   4    -0.330669646955E+03    0.58887E-04   -0.32669E-04 12424   0.713E-02
  14 F= -.33066965E+03 E0= -.33066632E+03  d E =-.199117E-02
       N       E                     dE             d eps       ncg     rms          rms(c)
DAV:   1    -0.330666174773E+03    0.35311E-02   -0.21582E+00 16632   0.486E+00    0.340E-01
DAV:   2    -0.330675092917E+03   -0.89181E-02   -0.10059E-01 23976   0.136E+00    0.398E-01
DAV:   3    -0.330673544448E+03    0.15485E-02   -0.23557E-02 24128   0.500E-01    0.243E-01
DAV:   4    -0.330673015135E+03    0.52931E-03   -0.41892E-03 22480   0.209E-01    0.165E-01
DAV:   5    -0.330672960272E+03    0.54863E-04   -0.23530E-03 19496   0.156E-01    0.145E-01
DAV:   6    -0.330672776508E+03    0.18376E-03   -0.20360E-03 20176   0.151E-01    0.913E-02
DAV:   7    -0.330672646786E+03    0.12972E-03   -0.12670E-03 17992   0.124E-01    0.508E-02
DAV:   8    -0.330672604296E+03    0.42491E-04   -0.42874E-04 13592   0.762E-02
  15 F= -.33067260E+03 E0= -.33066932E+03  d E =-.494851E-02
       N       E                     dE             d eps       ncg     rms          rms(c)
DAV:   1    -0.330676006455E+03   -0.33597E-02   -0.26548E-01 18408   0.220E+00    0.579E-01
DAV:   2    -0.330676290209E+03   -0.28375E-03   -0.46718E-02 25048   0.913E-01    0.401E-01
DAV:   3    -0.330675093569E+03    0.11966E-02   -0.36868E-02 22616   0.590E-01    0.295E-01
DAV:   4    -0.330673832665E+03    0.12609E-02   -0.12254E-02 23696   0.351E-01    0.137E-01
DAV:   5    -0.330673609765E+03    0.22290E-03   -0.39057E-03 20040   0.206E-01    0.108E-01
DAV:   6    -0.330673472446E+03    0.13732E-03   -0.15448E-03 20656   0.127E-01    0.608E-02
DAV:   7    -0.330673485582E+03   -0.13136E-04   -0.46394E-04 14216   0.732E-02
  16 F= -.33067349E+03 E0= -.33067019E+03  d E =-.881287E-03
       N       E                     dE             d eps       ncg     rms          rms(c)
DAV:   1    -0.330673638250E+03   -0.16580E-03   -0.69531E-03 18728   0.355E-01    0.110E-01
DAV:   2    -0.330673760149E+03   -0.12190E-03   -0.22922E-03 23832   0.183E-01    0.101E-01
DAV:   3    -0.330673634363E+03    0.12579E-03   -0.16549E-03 18736   0.128E-01    0.665E-02
DAV:   4    -0.330673616013E+03    0.18349E-04   -0.56675E-04 14752   0.785E-02
  17 F= -.33067362E+03 E0= -.33067034E+03  d E =-.101172E-02
       N       E                     dE             d eps       ncg     rms          rms(c)
DAV:   1    -0.330673910646E+03   -0.27628E-03   -0.14615E-01 16512   0.126E+00    0.984E-02
DAV:   2    -0.330674445834E+03   -0.53519E-03   -0.68427E-03 24656   0.362E-01    0.926E-02
DAV:   3    -0.330674426700E+03    0.19135E-04   -0.15444E-03 18432   0.122E-01    0.735E-02
DAV:   4    -0.330674361376E+03    0.65324E-04   -0.37266E-04 12904   0.747E-02
  18 F= -.33067436E+03 E0= -.33067104E+03  d E =-.745363E-03
       N       E                     dE             d eps       ncg     rms          rms(c)
DAV:   1    -0.330673220223E+03    0.12065E-02   -0.42129E-01 16512   0.214E+00    0.176E-01
DAV:   2    -0.330674702638E+03   -0.14824E-02   -0.19395E-02 24840   0.613E-01    0.155E-01
DAV:   3    -0.330674735851E+03   -0.33213E-04   -0.35453E-03 22984   0.188E-01    0.131E-01
DAV:   4    -0.330674552671E+03    0.18318E-03   -0.12632E-03 17776   0.118E-01    0.856E-02
DAV:   5    -0.330674557564E+03   -0.48927E-05   -0.76398E-04 16544   0.916E-02
  19 F= -.33067456E+03 E0= -.33067116E+03  d E =-.941551E-03
