<?xml version="1.0" encoding="ISO-8859-1"?>
<modeling>
 <generator>
  <i name="program" type="string">vasp </i>
  <i name="version" type="string">5.4.4.18Apr17-6-g9f103f2a35  </i>
  <i name="subversion" type="string">(build Aug 09 2018 16:20:53) complex            parallel </i>
  <i name="platform" type="string">LinuxIFC </i>
  <i name="date" type="string">2020 04 13 </i>
  <i name="time" type="string">17:10:22 </i>
 </generator>
 <incar>
  <i type="string" name="SYSTEM"> SQS with 1 vacancy for VFE and VRV</i>
  <i type="string" name="PREC">normal</i>
  <i type="int" name="IALGO">    38</i>
  <i type="int" name="ICHARG">     2</i>
  <i type="int" name="IBRION">     2</i>
  <i type="int" name="NSW">    50</i>
  <i type="int" name="ISIF">     3</i>
  <i type="int" name="ISYM">     0</i>
  <i name="ENCUT">    600.00000000</i>
  <i type="string" name="LREAL"> Auto</i>
  <i type="int" name="ISMEAR">     1</i>
  <i name="SIGMA">      0.20000000</i>
  <v type="int" name="KPOINT_BSE">    -1     0     0     0</v>
  <i type="string" name="GGA"> PS</i>
 </incar>
 <structure name="primitive_cell" >
  <crystal>
   <varray name="basis" >
    <v>      -3.19000000      -3.19000000      -3.19000000 </v>
    <v>       1.59500000       1.59500000      -7.97500000 </v>
    <v>       7.97500000      -7.97500000      -1.59500000 </v>
   </varray>
   <i name="volume">    486.92638500 </i>
   <varray name="rec_basis" >
    <v>      -0.13584117      -0.12539185      -0.05224660 </v>
    <v>       0.04179728       0.06269592      -0.10449321 </v>
    <v>       0.06269592      -0.06269592       0.00000000 </v>
   </varray>
  </crystal>
  <varray name="positions" >
   <v>      -0.03333333      -0.06666667       0.40000000 </v>
   <v>       0.30000000      -0.40000000       0.40000000 </v>
   <v>      -0.10000000      -0.20000000       0.20000000 </v>
   <v>       0.06666667       0.13333333       0.20000000 </v>
   <v>       0.46666667      -0.06666667       0.40000000 </v>
   <v>      -0.13333333      -0.26666667      -0.40000000 </v>
   <v>       0.03333333       0.06666667      -0.40000000 </v>
   <v>      -0.36666667       0.26666667       0.40000000 </v>
   <v>      -0.20000000      -0.40000000       0.40000000 </v>
   <v>      -0.43333333       0.13333333       0.20000000 </v>
   <v>       0.36666667      -0.26666667      -0.40000000 </v>
   <v>       0.13333333       0.26666667       0.40000000 </v>
   <v>      -0.46666667       0.06666667      -0.40000000 </v>
   <v>       0.23333333       0.46666667       0.20000000 </v>
   <v>       0.20000000       0.40000000      -0.40000000 </v>
   <v>       0.00000000       0.00000000       0.00000000 </v>
   <v>      -0.06666667      -0.13333333      -0.20000000 </v>
   <v>      -0.30000000       0.40000000      -0.40000000 </v>
   <v>      -0.26666667       0.46666667       0.20000000 </v>
   <v>       0.33333333      -0.33333333       0.00000000 </v>
   <v>       0.43333333      -0.13333333      -0.20000000 </v>
   <v>      -0.50000000       0.00000000       0.00000000 </v>
   <v>       0.26666667      -0.46666667      -0.20000000 </v>
   <v>      -0.33333333       0.33333333       0.00000000 </v>
   <v>      -0.40000000       0.20000000      -0.20000000 </v>
   <v>      -0.16666667      -0.33333333       0.00000000 </v>
   <v>      -0.23333333      -0.46666667      -0.20000000 </v>
   <v>       0.16666667       0.33333333       0.00000000 </v>
   <v>       0.10000000       0.20000000      -0.20000000 </v>
  </varray>
 </structure>
 <varray name="primitive_index" >
  <v type="int" >        1 </v>
  <v type="int" >       17 </v>
  <v type="int" >        7 </v>
  <v type="int" >       23 </v>
  <v type="int" >       19 </v>
  <v type="int" >       18 </v>
  <v type="int" >        6 </v>
  <v type="int" >        2 </v>
  <v type="int" >        8 </v>
  <v type="int" >       15 </v>
  <v type="int" >       11 </v>
  <v type="int" >       12 </v>
  <v type="int" >       27 </v>
  <v type="int" >       29 </v>
  <v type="int" >       22 </v>
  <v type="int" >        4 </v>
  <v type="int" >       14 </v>
  <v type="int" >       25 </v>
  <v type="int" >        9 </v>
  <v type="int" >       28 </v>
  <v type="int" >       16 </v>
  <v type="int" >        3 </v>
  <v type="int" >       21 </v>
  <v type="int" >       10 </v>
  <v type="int" >       26 </v>
  <v type="int" >       13 </v>
  <v type="int" >       24 </v>
  <v type="int" >       20 </v>
  <v type="int" >        5 </v>
 </varray>
 <kpoints>
  <generation param="Gamma">
   <v type="int" name="divisions">       5        5        5 </v>
   <v name="usershift">      0.00000000       0.00000000       0.00000000 </v>
   <v name="genvec1">      0.20000000      -0.00000000      -0.00000000 </v>
   <v name="genvec2">      0.00000000       0.20000000       0.00000000 </v>
   <v name="genvec3">      0.00000000       0.00000000       0.20000000 </v>
   <v name="shift">      0.00000000       0.00000000       0.00000000 </v>
  </generation>
  <varray name="kpointlist" >
   <v>       0.00000000       0.00000000       0.00000000 </v>
   <v>       0.20000000      -0.00000000       0.00000000 </v>
   <v>       0.40000000      -0.00000000       0.00000000 </v>
   <v>       0.00000000       0.20000000       0.00000000 </v>
   <v>       0.20000000       0.20000000      -0.00000000 </v>
   <v>       0.40000000       0.20000000      -0.00000000 </v>
   <v>      -0.40000000       0.20000000      -0.00000000 </v>
   <v>      -0.20000000       0.20000000       0.00000000 </v>
   <v>       0.00000000       0.40000000       0.00000000 </v>
   <v>       0.20000000       0.40000000       0.00000000 </v>
   <v>       0.40000000       0.40000000      -0.00000000 </v>
   <v>      -0.40000000       0.40000000       0.00000000 </v>
   <v>      -0.20000000       0.40000000       0.00000000 </v>
   <v>       0.00000000       0.00000000       0.20000000 </v>
   <v>       0.20000000      -0.00000000       0.20000000 </v>
   <v>       0.40000000       0.00000000       0.20000000 </v>
   <v>      -0.40000000       0.00000000       0.20000000 </v>
   <v>      -0.20000000       0.00000000       0.20000000 </v>
   <v>       0.00000000       0.20000000       0.20000000 </v>
   <v>       0.20000000       0.20000000       0.20000000 </v>
   <v>       0.40000000       0.20000000       0.20000000 </v>
   <v>      -0.40000000       0.20000000       0.20000000 </v>
   <v>      -0.20000000       0.20000000       0.20000000 </v>
   <v>       0.00000000       0.40000000       0.20000000 </v>
   <v>       0.20000000       0.40000000       0.20000000 </v>
   <v>       0.40000000       0.40000000       0.20000000 </v>
   <v>      -0.40000000       0.40000000       0.20000000 </v>
   <v>      -0.20000000       0.40000000       0.20000000 </v>
   <v>       0.00000000      -0.40000000       0.20000000 </v>
   <v>       0.20000000      -0.40000000       0.20000000 </v>
   <v>       0.40000000      -0.40000000       0.20000000 </v>
   <v>      -0.40000000      -0.40000000       0.20000000 </v>
   <v>      -0.20000000      -0.40000000       0.20000000 </v>
   <v>       0.00000000      -0.20000000       0.20000000 </v>
   <v>       0.20000000      -0.20000000       0.20000000 </v>
   <v>       0.40000000      -0.20000000       0.20000000 </v>
   <v>      -0.40000000      -0.20000000       0.20000000 </v>
   <v>      -0.20000000      -0.20000000       0.20000000 </v>
   <v>       0.00000000       0.00000000       0.40000000 </v>
   <v>       0.20000000      -0.00000000       0.40000000 </v>
   <v>       0.40000000      -0.00000000       0.40000000 </v>
   <v>      -0.40000000       0.00000000       0.40000000 </v>
   <v>      -0.20000000       0.00000000       0.40000000 </v>
   <v>      -0.00000000       0.20000000       0.40000000 </v>
   <v>       0.20000000       0.20000000       0.40000000 </v>
   <v>       0.40000000       0.20000000       0.40000000 </v>
   <v>      -0.40000000       0.20000000       0.40000000 </v>
   <v>      -0.20000000       0.20000000       0.40000000 </v>
   <v>       0.00000000       0.40000000       0.40000000 </v>
   <v>       0.20000000       0.40000000       0.40000000 </v>
   <v>       0.40000000       0.40000000       0.40000000 </v>
   <v>      -0.40000000       0.40000000       0.40000000 </v>
   <v>      -0.20000000       0.40000000       0.40000000 </v>
   <v>       0.00000000      -0.40000000       0.40000000 </v>
   <v>       0.20000000      -0.40000000       0.40000000 </v>
   <v>       0.40000000      -0.40000000       0.40000000 </v>
   <v>      -0.40000000      -0.40000000       0.40000000 </v>
   <v>      -0.20000000      -0.40000000       0.40000000 </v>
   <v>       0.00000000      -0.20000000       0.40000000 </v>
   <v>       0.20000000      -0.20000000       0.40000000 </v>
   <v>       0.40000000      -0.20000000       0.40000000 </v>
   <v>      -0.40000000      -0.20000000       0.40000000 </v>
   <v>      -0.20000000      -0.20000000       0.40000000 </v>
  </varray>
  <varray name="weights" >
   <v>       0.00800000 </v>
   <v>       0.01600000 </v>
   <v>       0.01600000 </v>
   <v>       0.01600000 </v>
   <v>       0.01600000 </v>
   <v>       0.01600000 </v>
   <v>       0.01600000 </v>
   <v>       0.01600000 </v>
   <v>       0.01600000 </v>
   <v>       0.01600000 </v>
   <v>       0.01600000 </v>
   <v>       0.01600000 </v>
   <v>       0.01600000 </v>
   <v>       0.01600000 </v>
   <v>       0.01600000 </v>
   <v>       0.01600000 </v>
   <v>       0.01600000 </v>
   <v>       0.01600000 </v>
   <v>       0.01600000 </v>
   <v>       0.01600000 </v>
   <v>       0.01600000 </v>
   <v>       0.01600000 </v>
   <v>       0.01600000 </v>
   <v>       0.01600000 </v>
   <v>       0.01600000 </v>
   <v>       0.01600000 </v>
   <v>       0.01600000 </v>
   <v>       0.01600000 </v>
   <v>       0.01600000 </v>
   <v>       0.01600000 </v>
   <v>       0.01600000 </v>
   <v>       0.01600000 </v>
   <v>       0.01600000 </v>
   <v>       0.01600000 </v>
   <v>       0.01600000 </v>
   <v>       0.01600000 </v>
   <v>       0.01600000 </v>
   <v>       0.01600000 </v>
   <v>       0.01600000 </v>
   <v>       0.01600000 </v>
   <v>       0.01600000 </v>
   <v>       0.01600000 </v>
   <v>       0.01600000 </v>
   <v>       0.01600000 </v>
   <v>       0.01600000 </v>
   <v>       0.01600000 </v>
   <v>       0.01600000 </v>
   <v>       0.01600000 </v>
   <v>       0.01600000 </v>
   <v>       0.01600000 </v>
   <v>       0.01600000 </v>
   <v>       0.01600000 </v>
   <v>       0.01600000 </v>
   <v>       0.01600000 </v>
   <v>       0.01600000 </v>
   <v>       0.01600000 </v>
   <v>       0.01600000 </v>
   <v>       0.01600000 </v>
   <v>       0.01600000 </v>
   <v>       0.01600000 </v>
   <v>       0.01600000 </v>
   <v>       0.01600000 </v>
   <v>       0.01600000 </v>
  </varray>
 </kpoints>
 <parameters>
  <separator name="general" >
   <i type="string" name="SYSTEM">SQS with 1 vacancy for VFE and VRV</i>
   <i type="logical" name="LCOMPAT"> F  </i>
  </separator>
  <separator name="electronic" >
   <i type="string" name="PREC">normal</i>
   <i name="ENMAX">    600.00000000</i>
   <i name="ENAUG">    455.65900000</i>
   <i name="EDIFF">      0.00010000</i>
   <i type="int" name="IALGO">    38</i>
   <i type="int" name="IWAVPR">    11</i>
   <i type="int" name="NBANDS">   120</i>
   <i name="NELECT">    199.00000000</i>
   <i type="int" name="TURBO">     0</i>
   <i type="int" name="IRESTART">     0</i>
   <i type="int" name="NREBOOT">     0</i>
   <i type="int" name="NMIN">     0</i>
   <i name="EREF">      0.00000000</i>
   <separator name="electronic smearing" >
    <i type="int" name="ISMEAR">     1</i>
    <i name="SIGMA">      0.20000000</i>
    <i name="KSPACING">      0.50000000</i>
    <i type="logical" name="KGAMMA"> T  </i>
   </separator>
   <separator name="electronic projectors" >
    <i type="logical" name="LREAL"> T  </i>
    <v name="ROPT">     -0.00050000     -0.00050000     -0.00050000     -0.00050000     -0.00050000</v>
    <i type="int" name="LMAXPAW">  -100</i>
    <i type="int" name="LMAXMIX">     2</i>
    <i type="logical" name="NLSPLINE"> F  </i>
   </separator>
   <separator name="electronic startup" >
    <i type="int" name="ISTART">     0</i>
    <i type="int" name="ICHARG">     2</i>
    <i type="int" name="INIWAV">     1</i>
   </separator>
   <separator name="electronic spin" >
    <i type="int" name="ISPIN">     1</i>
    <i type="logical" name="LNONCOLLINEAR"> F  </i>
    <v name="MAGMOM">      1.00000000      1.00000000      1.00000000      1.00000000      1.00000000      1.00000000      1.00000000      1.00000000      1.00000000      1.00000000      1.00000000      1.00000000      1.00000000      1.00000000      1.00000000      1.00000000      1.00000000      1.00000000      1.00000000      1.00000000
      1.00000000      1.00000000      1.00000000      1.00000000      1.00000000      1.00000000      1.00000000      1.00000000      1.00000000</v>
    <i name="NUPDOWN">     -1.00000000</i>
    <i type="logical" name="LSORBIT"> F  </i>
    <v name="SAXIS">      0.00000000      0.00000000      1.00000000</v>
    <i type="logical" name="LSPIRAL"> F  </i>
    <v name="QSPIRAL">      0.00000000      0.00000000      0.00000000</v>
    <i type="logical" name="LZEROZ"> F  </i>
   </separator>
   <separator name="electronic exchange-correlation" >
    <i type="logical" name="LASPH"> F  </i>
    <i type="logical" name="LMETAGGA"> F  </i>
   </separator>
   <separator name="electronic convergence" >
    <i type="int" name="NELM">    60</i>
    <i type="int" name="NELMDL">    -5</i>
    <i type="int" name="NELMIN">     2</i>
    <i name="ENINI">    600.00000000</i>
    <separator name="electronic convergence detail" >
     <i type="logical" name="LDIAG"> T  </i>
     <i type="logical" name="LSUBROT"> F  </i>
     <i name="WEIMIN">      0.00100000</i>
     <i name="EBREAK">      0.00000021</i>
     <i name="DEPER">      0.30000000</i>
     <i type="int" name="NRMM">     4</i>
     <i name="TIME">      0.40000000</i>
    </separator>
   </separator>
   <separator name="electronic mixer" >
    <i name="AMIX">      0.40000000</i>
    <i name="BMIX">      1.00000000</i>
    <i name="AMIN">      0.10000000</i>
    <i name="AMIX_MAG">      1.60000000</i>
    <i name="BMIX_MAG">      1.00000000</i>
    <separator name="electronic mixer details" >
     <i type="int" name="IMIX">     4</i>
     <i type="logical" name="MIXFIRST"> F  </i>
     <i type="int" name="MAXMIX">   -45</i>
     <i name="WC">    100.00000000</i>
     <i type="int" name="INIMIX">     1</i>
     <i type="int" name="MIXPRE">     1</i>
     <i type="int" name="MREMOVE">     5</i>
    </separator>
   </separator>
   <separator name="electronic dipolcorrection" >
    <i type="logical" name="LDIPOL"> F  </i>
    <i type="logical" name="LMONO"> F  </i>
    <i type="int" name="IDIPOL">     0</i>
    <i name="EPSILON">      1.00000000</i>
    <v name="DIPOL">   -100.00000000   -100.00000000   -100.00000000</v>
    <i name="EFIELD">      0.00000000</i>
   </separator>
  </separator>
  <separator name="grids" >
   <i type="int" name="NGX">    36</i>
   <i type="int" name="NGY">    50</i>
   <i type="int" name="NGZ">    70</i>
   <i type="int" name="NGXF">    72</i>
   <i type="int" name="NGYF">   100</i>
   <i type="int" name="NGZF">   140</i>
   <i type="logical" name="ADDGRID"> F  </i>
  </separator>
  <separator name="ionic" >
   <i type="int" name="NSW">    50</i>
   <i type="int" name="IBRION">     2</i>
   <i type="int" name="MDALGO">     0</i>
   <i type="int" name="ISIF">     3</i>
   <i name="PSTRESS">      0.00000000</i>
   <i name="EDIFFG">      0.00100000</i>
   <i type="int" name="NFREE">     1</i>
   <i name="POTIM">      0.50000000</i>
   <i name="SMASS">     -3.00000000</i>
   <i name="SCALEE">      1.00000000</i>
  </separator>
  <separator name="ionic md" >
   <i name="TEBEG">      0.00010000</i>
   <i name="TEEND">      0.00010000</i>
   <i type="int" name="NBLOCK">     1</i>
   <i type="int" name="KBLOCK">    50</i>
   <i type="int" name="NPACO">   256</i>
   <i name="APACO">     16.00000000</i>
  </separator>
  <separator name="symmetry" >
   <i type="int" name="ISYM">     0</i>
   <i name="SYMPREC">      0.00001000</i>
  </separator>
  <separator name="dos" >
   <i type="int" name="LORBIT">     0</i>
   <v name="RWIGS">     -1.00000000     -1.00000000     -1.00000000     -1.00000000     -1.00000000</v>
   <i type="int" name="NEDOS">   301</i>
   <i name="EMIN">     10.00000000</i>
   <i name="EMAX">    -10.00000000</i>
   <i name="EFERMI">      0.00000000</i>
  </separator>
  <separator name="writing" >
   <i type="int" name="NWRITE">     2</i>
   <i type="logical" name="LWAVE"> T  </i>
   <i type="logical" name="LDOWNSAMPLE"> F  </i>
   <i type="logical" name="LCHARG"> T  </i>
   <i type="logical" name="LPARD"> F  </i>
   <i type="logical" name="LVTOT"> F  </i>
   <i type="logical" name="LVHAR"> F  </i>
   <i type="logical" name="LELF"> F  </i>
   <i type="logical" name="LOPTICS"> F  </i>
   <v name="STM">      0.00000000      0.00000000      0.00000000      0.00000000      0.00000000      0.00000000      0.00000000</v>
  </separator>
  <separator name="performance" >
   <i type="int" name="NPAR">     8</i>
   <i type="int" name="NSIM">     4</i>
   <i type="int" name="NBLK">    -1</i>
   <i type="logical" name="LPLANE"> T  </i>
   <i type="logical" name="LSCALAPACK"> T  </i>
   <i type="logical" name="LSCAAWARE"> F  </i>
   <i type="logical" name="LSCALU"> F  </i>
   <i type="logical" name="LASYNC"> F  </i>
   <i type="logical" name="LORBITALREAL"> F  </i>
  </separator>
  <separator name="miscellaneous" >
   <i type="int" name="IDIOT">     3</i>
   <i type="int" name="ISPECIAL">     0</i>
   <i type="logical" name="LMUSIC"> F  </i>
   <v name="POMASS">     92.91000000     95.94000000    180.94800000     47.88000000    183.85000000</v>
   <v name="DARWINR">      0.00000000      0.00000000      0.00000000      0.00000000      0.00000000</v>
   <v name="DARWINV">      1.00000000      1.00000000      1.00000000      1.00000000      1.00000000</v>
   <i type="logical" name="LCORR"> T  </i>
  </separator>
  <i type="logical" name="GGA_COMPAT"> T  </i>
  <i type="logical" name="LBERRY"> F  </i>
  <i type="int" name="ICORELEVEL">     0</i>
  <i type="logical" name="LDAU"> F  </i>
  <i type="int" name="I_CONSTRAINED_M">     0</i>
  <separator name="electronic exchange-correlation" >
   <i type="string" name="GGA">PS</i>
   <i type="int" name="VOSKOWN">     0</i>
   <i type="logical" name="LHFCALC"> F  </i>
   <i type="string" name="PRECFOCK"></i>
   <i type="logical" name="LSYMGRAD"> F  </i>
   <i type="logical" name="LHFONE"> F  </i>
   <i type="logical" name="LRHFCALC"> F  </i>
   <i type="logical" name="LTHOMAS"> F  </i>
   <i type="logical" name="LMODELHF"> F  </i>
   <i name="ENCUT4O">     -1.00000000</i>
   <i type="int" name="EXXOEP">     0</i>
   <i type="int" name="FOURORBIT">     0</i>
   <i name="AEXX">      0.00000000</i>
   <i name="HFALPHA">      0.00000000</i>
   <i name="MCALPHA">      0.00000000</i>
   <i name="ALDAX">      1.00000000</i>
   <i name="AGGAX">      1.00000000</i>
   <i name="ALDAC">      1.00000000</i>
   <i name="AGGAC">      1.00000000</i>
   <i type="int" name="NKREDX">     1</i>
   <i type="int" name="NKREDY">     1</i>
   <i type="int" name="NKREDZ">     1</i>
   <i type="logical" name="SHIFTRED"> F  </i>
   <i type="logical" name="ODDONLY"> F  </i>
   <i type="logical" name="EVENONLY"> F  </i>
   <i type="int" name="LMAXFOCK">     0</i>
   <i type="int" name="NMAXFOCKAE">     0</i>
   <i type="logical" name="LFOCKAEDFT"> F  </i>
   <i name="HFSCREEN">      0.00000000</i>
   <i name="HFSCREENC">      0.00000000</i>
   <i type="int" name="NBANDSGWLOW">     0</i>
  </separator>
  <separator name="vdW DFT" >
   <i type="logical" name="LUSE_VDW"> F  </i>
   <i name="Zab_VDW">     -0.84910000</i>
   <i name="PARAM1">      0.12340000</i>
   <i name="PARAM2">      1.00000000</i>
   <i name="PARAM3">      0.00000000</i>
  </separator>
  <separator name="model GW" >
   <i type="int" name="MODEL_GW">     0</i>
   <i name="MODEL_EPS0">     10.07433900</i>
   <i name="MODEL_ALPHA">      1.00000000</i>
  </separator>
  <separator name="linear response parameters" >
   <i type="logical" name="LEPSILON"> F  </i>
   <i type="logical" name="LRPA"> F  </i>
   <i type="logical" name="LNABLA"> F  </i>
   <i type="logical" name="LVEL"> F  </i>
   <i type="int" name="KINTER">     0</i>
   <i name="CSHIFT">      0.10000000</i>
   <i name="OMEGAMAX">     -1.00000000</i>
   <i name="DEG_THRESHOLD">      0.00200000</i>
   <i name="RTIME">     -0.10000000</i>
   <i name="WPLASMAI">      0.00000000</i>
   <v name="DFIELD">      0.00000000      0.00000000      0.00000000</v>
   <v name="WPLASMA">      0.00000000      0.00000000      0.00000000      0.00000000      0.00000000      0.00000000      0.00000000      0.00000000      0.00000000</v>
  </separator>
  <separator name="orbital magnetization" >
   <i type="logical" name="NUCIND"> F  </i>
   <v name="MAGPOS">      0.00000000      0.00000000      0.00000000</v>
   <i type="logical" name="LNICSALL"> T  </i>
   <i type="logical" name="ORBITALMAG"> F  </i>
   <i type="logical" name="LMAGBLOCH"> F  </i>
   <i type="logical" name="LCHIMAG"> F  </i>
   <i type="logical" name="LGAUGE"> T  </i>
   <i type="int" name="MAGATOM">     0</i>
   <v name="MAGDIPOL">      0.00000000      0.00000000      0.00000000</v>
   <v name="AVECCONST">      0.00000000      0.00000000      0.00000000</v>
  </separator>
  <separator name="response functions" >
   <i type="logical" name="LADDER"> F  </i>
   <i type="logical" name="LRPAFORCE"> F  </i>
   <i type="logical" name="LFXC"> F  </i>
   <i type="logical" name="LHARTREE"> T  </i>
   <i type="int" name="IBSE">     0</i>
   <v type="int" name="KPOINT">    -1     0     0     0</v>
   <i type="logical" name="LTCTE"> F  </i>
   <i type="logical" name="LTETE"> F  </i>
   <i type="logical" name="LTRIPLET"> F  </i>
   <i type="logical" name="LFXCEPS"> F  </i>
   <i type="logical" name="LFXHEG"> F  </i>
   <i type="int" name="NATURALO">     2</i>
   <i type="logical" name="L2ORDER"> F  </i>
   <i type="logical" name="LMP2LT"> F  </i>
   <i type="logical" name="LUSEW"> F  </i>
   <i name="ENCUTGW">     -2.00000000</i>
   <i name="ENCUTGWSOFT">     -2.00000000</i>
   <i name="ENCUTLF">     -1.00000000</i>
   <i type="int" name="LMAXMP2">    -1</i>
   <i name="SCISSOR">      0.00000000</i>
   <i type="int" name="NOMEGA">     0</i>
   <i type="int" name="NOMEGAR">     0</i>
   <i type="int" name="NBANDSGW">    -1</i>
   <i type="int" name="NBANDSO">    -1</i>
   <i type="int" name="NBANDSV">    -1</i>
   <i type="int" name="NELM">     1</i>
   <i type="int" name="NELMHF">     1</i>
   <i type="int" name="DIM">     3</i>
   <i type="int" name="ANTIRES">     0</i>
   <i name="OMEGAMAX">    -30.00000000</i>
   <i name="OMEGAMIN">    -30.00000000</i>
   <i name="OMEGATL">   -200.00000000</i>
   <i type="int" name="OMEGAGRID">   140</i>
   <i name="CSHIFT">     -0.10000000</i>
   <i type="logical" name="SELFENERGY"> F  </i>
   <i type="logical" name="LSPECTRAL"> F  </i>
   <i type="logical" name="LSPECTRALGW"> F  </i>
   <i type="logical" name="LSINGLES"> F  </i>
   <i type="logical" name="LFERMIGW"> F  </i>
   <i type="logical" name="ODDONLYGW"> F  </i>
   <i type="logical" name="EVENONLYGW"> F  </i>
   <i type="int" name="NKREDLFX">     1</i>
   <i type="int" name="NKREDLFY">     1</i>
   <i type="int" name="NKREDLFZ">     1</i>
   <i type="int" name="MAXMEM">  2800</i>
   <i type="int" name="TELESCOPE">     0</i>
   <i type="int" name="TAUPAR">     1</i>
   <i type="int" name="OMEGAPAR">    -1</i>
   <i name="LAMBDA">      1.00000000</i>
  </separator>
  <separator name="External order field" >
   <i name="OFIELD_KAPPA">      0.00000000</i>
   <v name="OFIELD_K">      0.00000000      0.00000000      0.00000000</v>
   <i name="OFIELD_Q6_NEAR">      0.00000000</i>
   <i name="OFIELD_Q6_FAR">      0.00000000</i>
   <i name="OFIELD_A">      0.00000000</i>
  </separator>
  <separator name="solvation model" >
   <i type="logical" name="LSOL"> F  </i>
  </separator>
 </parameters>
 <atominfo>
  <atoms>      29 </atoms>
  <types>       5 </types>
  <array name="atoms" >
   <dimension dim="1">ion</dimension>
   <field type="string">element</field>
   <field type="int">atomtype</field>
   <set>
    <rc><c>Nb</c><c>   1</c></rc>
    <rc><c>Nb</c><c>   1</c></rc>
    <rc><c>Nb</c><c>   1</c></rc>
    <rc><c>Nb</c><c>   1</c></rc>
    <rc><c>Nb</c><c>   1</c></rc>
    <rc><c>Nb</c><c>   1</c></rc>
    <rc><c>Mo</c><c>   2</c></rc>
    <rc><c>Mo</c><c>   2</c></rc>
    <rc><c>Mo</c><c>   2</c></rc>
    <rc><c>Mo</c><c>   2</c></rc>
    <rc><c>Mo</c><c>   2</c></rc>
    <rc><c>Mo</c><c>   2</c></rc>
    <rc><c>Ta</c><c>   3</c></rc>
    <rc><c>Ta</c><c>   3</c></rc>
    <rc><c>Ta</c><c>   3</c></rc>
    <rc><c>Ta</c><c>   3</c></rc>
    <rc><c>Ta</c><c>   3</c></rc>
    <rc><c>Ti</c><c>   4</c></rc>
    <rc><c>Ti</c><c>   4</c></rc>
    <rc><c>Ti</c><c>   4</c></rc>
    <rc><c>Ti</c><c>   4</c></rc>
    <rc><c>Ti</c><c>   4</c></rc>
    <rc><c>Ti</c><c>   4</c></rc>
    <rc><c>W </c><c>   5</c></rc>
    <rc><c>W </c><c>   5</c></rc>
    <rc><c>W </c><c>   5</c></rc>
    <rc><c>W </c><c>   5</c></rc>
    <rc><c>W </c><c>   5</c></rc>
    <rc><c>W </c><c>   5</c></rc>
   </set>
  </array>
  <array name="atomtypes" >
   <dimension dim="1">type</dimension>
   <field type="int">atomspertype</field>
   <field type="string">element</field>
   <field>mass</field>
   <field>valence</field>
   <field type="string">pseudopotential</field>
   <set>
    <rc><c>   6</c><c>Nb</c><c>     92.91000000</c><c>     13.00000000</c><c>  PAW_PBE Nb_sv 25May2007               </c></rc>
    <rc><c>   6</c><c>Mo</c><c>     95.94000000</c><c>      6.00000000</c><c>  PAW_PBE Mo 08Apr2002                  </c></rc>
    <rc><c>   5</c><c>Ta</c><c>    180.94800000</c><c>      5.00000000</c><c>  PAW_PBE Ta 17Jan2003                  </c></rc>
    <rc><c>   6</c><c>Ti</c><c>     47.88000000</c><c>      4.00000000</c><c>  PAW_PBE Ti 08Apr2002                  </c></rc>
    <rc><c>   6</c><c>W </c><c>    183.85000000</c><c>      6.00000000</c><c>  PAW_PBE W 08Apr2002                   </c></rc>
   </set>
  </array>
 </atominfo>
 <structure name="initialpos" >
  <crystal>
   <varray name="basis" >
    <v>      -3.19000000      -3.19000000      -3.19000000 </v>
    <v>       1.59500000       1.59500000      -7.97500000 </v>
    <v>       7.97500000      -7.97500000      -1.59500000 </v>
   </varray>
   <i name="volume">    486.92638500 </i>
   <varray name="rec_basis" >
    <v>      -0.13584117      -0.12539185      -0.05224660 </v>
    <v>       0.04179728       0.06269592      -0.10449321 </v>
    <v>       0.06269592      -0.06269592       0.00000000 </v>
   </varray>
  </crystal>
  <varray name="positions" >
   <v>       0.96666667       0.93333333       0.40000000 </v>
   <v>       0.63333333       0.26666667       0.40000000 </v>
   <v>       0.50000000       0.00000000       0.00000000 </v>
   <v>       0.00000000       0.00000000       0.00000000 </v>
   <v>       0.10000000       0.20000000       0.80000000 </v>
   <v>       0.03333333       0.06666667       0.60000000 </v>
   <v>       0.90000000       0.80000000       0.20000000 </v>
   <v>       0.80000000       0.60000000       0.40000000 </v>
   <v>       0.73333333       0.46666667       0.20000000 </v>
   <v>       0.66666667       0.33333333       0.00000000 </v>
   <v>       0.36666667       0.73333333       0.60000000 </v>
   <v>       0.13333333       0.26666667       0.40000000 </v>
   <v>       0.83333333       0.66666667       0.00000000 </v>
   <v>       0.93333333       0.86666667       0.80000000 </v>
   <v>       0.56666667       0.13333333       0.20000000 </v>
   <v>       0.43333333       0.86666667       0.80000000 </v>
   <v>       0.30000000       0.60000000       0.40000000 </v>
   <v>       0.86666667       0.73333333       0.60000000 </v>
   <v>       0.46666667       0.93333333       0.40000000 </v>
   <v>       0.16666667       0.33333333       0.00000000 </v>
   <v>       0.26666667       0.53333333       0.80000000 </v>
   <v>       0.20000000       0.40000000       0.60000000 </v>
   <v>       0.06666667       0.13333333       0.20000000 </v>
   <v>       0.76666667       0.53333333       0.80000000 </v>
   <v>       0.70000000       0.40000000       0.60000000 </v>
   <v>       0.60000000       0.20000000       0.80000000 </v>
   <v>       0.53333333       0.06666667       0.60000000 </v>
   <v>       0.33333333       0.66666667       0.00000000 </v>
   <v>       0.23333333       0.46666667       0.20000000 </v>
  </varray>
 </structure>
 <calculation>
  <scstep>
   <time name="dav">   18.36   18.39</time>
   <time name="total">   18.40   18.44</time>
   <energy>
    <i name="alphaZ">   1302.23520220 </i>
    <i name="ewald"> -11586.15329854 </i>
    <i name="hartreedc">  -3179.98168546 </i>
    <i name="XCdc">   -838.85681947 </i>
    <i name="pawpsdc">  12115.92678409 </i>
    <i name="pawaedc"> -10625.29399854 </i>
    <i name="eentropy">     -0.00163616 </i>
    <i name="bandstr">   1902.55502979 </i>
    <i name="atom">  13080.25727947 </i>
    <i name="e_fr_energy">   2170.68685739 </i>
    <i name="e_wo_entrp">   2170.68849355 </i>
    <i name="e_0_energy">   2170.68740277 </i>
   </energy>
  </scstep>
  <scstep>
   <time name="dav">   18.40   18.43</time>
   <time name="total">   18.41   18.44</time>
   <energy>
    <i name="e_fr_energy">     77.22749599 </i>
    <i name="e_wo_entrp">     77.22857531 </i>
    <i name="e_0_energy">     77.22785576 </i>
   </energy>
  </scstep>
  <scstep>
   <time name="dav">   28.76   28.80</time>
   <time name="total">   28.76   28.80</time>
   <energy>
    <i name="e_fr_energy">   -300.67488909 </i>
    <i name="e_wo_entrp">   -300.66969164 </i>
    <i name="e_0_energy">   -300.67315661 </i>
   </energy>
  </scstep>
  <scstep>
   <time name="dav">   25.88   25.92</time>
   <time name="total">   25.88   25.92</time>
   <energy>
    <i name="e_fr_energy">   -347.66007486 </i>
    <i name="e_wo_entrp">   -347.67188464 </i>
    <i name="e_0_energy">   -347.66401145 </i>
   </energy>
  </scstep>
  <scstep>
   <time name="dav">   31.12   31.17</time>
   <time name="total">   31.69   31.74</time>
   <energy>
    <i name="e_fr_energy">   -352.83606719 </i>
    <i name="e_wo_entrp">   -352.84739573 </i>
    <i name="e_0_energy">   -352.83984337 </i>
   </energy>
  </scstep>
  <scstep>
   <time name="dav">   23.93   23.96</time>
   <time name="total">   24.53   24.56</time>
   <energy>
    <i name="e_fr_energy">   -342.79275446 </i>
    <i name="e_wo_entrp">   -342.77953995 </i>
    <i name="e_0_energy">   -342.78834962 </i>
   </energy>
  </scstep>
  <scstep>
   <time name="dav">   23.66   23.69</time>
   <time name="total">   24.26   24.30</time>
   <energy>
    <i name="e_fr_energy">   -354.85878886 </i>
    <i name="e_wo_entrp">   -354.85766085 </i>
    <i name="e_0_energy">   -354.85841286 </i>
   </energy>
  </scstep>
  <scstep>
   <time name="dav">   25.56   25.61</time>
   <time name="total">   26.17   26.22</time>
   <energy>
    <i name="e_fr_energy">   -340.41301208 </i>
    <i name="e_wo_entrp">   -340.40434985 </i>
    <i name="e_0_energy">   -340.41012467 </i>
   </energy>
  </scstep>
  <scstep>
   <time name="dav">   24.79   24.83</time>
   <time name="total">   25.39   25.43</time>
   <energy>
    <i name="e_fr_energy">   -332.93497566 </i>
    <i name="e_wo_entrp">   -332.94569140 </i>
    <i name="e_0_energy">   -332.93854757 </i>
   </energy>
  </scstep>
  <scstep>
   <time name="dav">   24.50   24.55</time>
   <time name="total">   25.10   25.15</time>
   <energy>
    <i name="e_fr_energy">   -330.91612779 </i>
    <i name="e_wo_entrp">   -330.91316317 </i>
    <i name="e_0_energy">   -330.91513958 </i>
   </energy>
  </scstep>
  <scstep>
   <time name="dav">   25.65   25.70</time>
   <time name="total">   26.26   26.31</time>
   <energy>
    <i name="e_fr_energy">   -330.04386346 </i>
    <i name="e_wo_entrp">   -330.03730116 </i>
    <i name="e_0_energy">   -330.04167602 </i>
   </energy>
  </scstep>
  <scstep>
   <time name="dav">   25.12   25.16</time>
   <time name="total">   25.72   25.76</time>
   <energy>
    <i name="e_fr_energy">   -330.04082727 </i>
    <i name="e_wo_entrp">   -330.03081323 </i>
    <i name="e_0_energy">   -330.03748926 </i>
   </energy>
  </scstep>
  <scstep>
   <time name="dav">   24.47   24.51</time>
   <time name="total">   25.07   25.11</time>
   <energy>
    <i name="e_fr_energy">   -330.01092466 </i>
    <i name="e_wo_entrp">   -330.00288480 </i>
    <i name="e_0_energy">   -330.00824471 </i>
   </energy>
  </scstep>
  <scstep>
   <time name="dav">   25.50   25.53</time>
   <time name="total">   26.10   26.15</time>
   <energy>
    <i name="e_fr_energy">   -329.98924104 </i>
    <i name="e_wo_entrp">   -329.98189417 </i>
    <i name="e_0_energy">   -329.98679208 </i>
   </energy>
  </scstep>
  <scstep>
   <time name="dav">   25.21   25.25</time>
   <time name="total">   25.82   25.85</time>
   <energy>
    <i name="e_fr_energy">   -329.97132559 </i>
    <i name="e_wo_entrp">   -329.96238125 </i>
    <i name="e_0_energy">   -329.96834415 </i>
   </energy>
  </scstep>
  <scstep>
   <time name="dav">   25.71   25.75</time>
   <time name="total">   26.31   26.35</time>
   <energy>
    <i name="e_fr_energy">   -329.97212042 </i>
    <i name="e_wo_entrp">   -329.96365414 </i>
    <i name="e_0_energy">   -329.96929833 </i>
   </energy>
  </scstep>
  <scstep>
   <time name="dav">   24.38   24.41</time>
   <time name="total">   24.98   25.03</time>
   <energy>
    <i name="e_fr_energy">   -329.97179327 </i>
    <i name="e_wo_entrp">   -329.96246300 </i>
    <i name="e_0_energy">   -329.96868318 </i>
   </energy>
  </scstep>
  <scstep>
   <time name="dav">   23.62   23.65</time>
   <time name="total">   24.23   24.26</time>
   <energy>
    <i name="e_fr_energy">   -329.96950064 </i>
    <i name="e_wo_entrp">   -329.96071278 </i>
    <i name="e_0_energy">   -329.96657135 </i>
   </energy>
  </scstep>
  <scstep>
   <time name="dav">   24.38   24.42</time>
   <time name="total">   24.99   25.03</time>
   <energy>
    <i name="e_fr_energy">   -329.96895289 </i>
    <i name="e_wo_entrp">   -329.96043230 </i>
    <i name="e_0_energy">   -329.96611270 </i>
   </energy>
  </scstep>
  <scstep>
   <time name="dav">   22.49   22.53</time>
   <time name="total">   23.10   23.15</time>
   <energy>
    <i name="e_fr_energy">   -329.96889507 </i>
    <i name="e_wo_entrp">   -329.96022815 </i>
    <i name="e_0_energy">   -329.96600610 </i>
   </energy>
  </scstep>
  <scstep>
   <time name="dav">   17.24   17.27</time>
   <time name="total">   17.27   17.30</time>
   <energy>
    <i name="alphaZ">   1302.23520220 </i>
    <i name="ewald"> -11586.15329854 </i>
    <i name="hartreedc">  -3034.92697995 </i>
    <i name="XCdc">   -833.40833356 </i>
    <i name="pawpsdc">  20749.89094841 </i>
    <i name="pawaedc"> -19260.11284816 </i>
    <i name="eentropy">     -0.00858302 </i>
    <i name="bandstr">   -747.74224833 </i>
    <i name="atom">  13080.25727947 </i>
    <i name="e_fr_energy">   -329.96886148 </i>
    <i name="e_wo_entrp">   -329.96027846 </i>
    <i name="e_0_energy">   -329.96600047 </i>
   </energy>
  </scstep>
  <structure>
   <crystal>
    <varray name="basis" >
     <v>      -3.19000000      -3.19000000      -3.19000000 </v>
     <v>       1.59500000       1.59500000      -7.97500000 </v>
     <v>       7.97500000      -7.97500000      -1.59500000 </v>
    </varray>
    <i name="volume">    486.92638500 </i>
    <varray name="rec_basis" >
     <v>      -0.13584117      -0.12539185      -0.05224660 </v>
     <v>       0.04179728       0.06269592      -0.10449321 </v>
     <v>       0.06269592      -0.06269592       0.00000000 </v>
    </varray>
   </crystal>
   <varray name="positions" >
    <v>       0.96666667       0.93333333       0.40000000 </v>
    <v>       0.63333333       0.26666667       0.40000000 </v>
    <v>       0.50000000       0.00000000       0.00000000 </v>
    <v>       0.00000000       0.00000000       0.00000000 </v>
    <v>       0.10000000       0.20000000       0.80000000 </v>
    <v>       0.03333333       0.06666667       0.60000000 </v>
    <v>       0.90000000       0.80000000       0.20000000 </v>
    <v>       0.80000000       0.60000000       0.40000000 </v>
    <v>       0.73333333       0.46666667       0.20000000 </v>
    <v>       0.66666667       0.33333333       0.00000000 </v>
    <v>       0.36666667       0.73333333       0.60000000 </v>
    <v>       0.13333333       0.26666667       0.40000000 </v>
    <v>       0.83333333       0.66666667       0.00000000 </v>
    <v>       0.93333333       0.86666667       0.80000000 </v>
    <v>       0.56666667       0.13333333       0.20000000 </v>
    <v>       0.43333333       0.86666667       0.80000000 </v>
    <v>       0.30000000       0.60000000       0.40000000 </v>
    <v>       0.86666667       0.73333333       0.60000000 </v>
    <v>       0.46666667       0.93333333       0.40000000 </v>
    <v>       0.16666667       0.33333333       0.00000000 </v>
    <v>       0.26666667       0.53333333       0.80000000 </v>
    <v>       0.20000000       0.40000000       0.60000000 </v>
    <v>       0.06666667       0.13333333       0.20000000 </v>
    <v>       0.76666667       0.53333333       0.80000000 </v>
    <v>       0.70000000       0.40000000       0.60000000 </v>
    <v>       0.60000000       0.20000000       0.80000000 </v>
    <v>       0.53333333       0.06666667       0.60000000 </v>
    <v>       0.33333333       0.66666667       0.00000000 </v>
    <v>       0.23333333       0.46666667       0.20000000 </v>
   </varray>
  </structure>
  <varray name="forces" >
   <v>      -0.01122660       0.64786824       0.30573334 </v>
   <v>       0.05840076      -0.06467326       0.19864592 </v>
   <v>       0.44990077      -0.47810869       0.21428447 </v>
   <v>       0.39719587      -0.10339045       0.04521922 </v>
   <v>       0.14181426       0.32707787      -0.52531122 </v>
   <v>      -0.67620843       0.10508518      -0.15738878 </v>
   <v>       0.02462477      -0.61302147       0.26952817 </v>
   <v>      -0.73375094      -0.18796142       0.46283090 </v>
   <v>       0.22582761       0.35190589      -0.30005779 </v>
   <v>       0.21447352       0.33380035      -0.45061796 </v>
   <v>      -0.34849289      -0.17962476       0.34201723 </v>
   <v>      -0.03643696       0.36257485      -0.47006945 </v>
   <v>       0.20637412      -0.54341171       0.22467386 </v>
   <v>       0.32316654       0.13991003      -0.16161643 </v>
   <v>      -0.49178697       0.25513760      -0.49393004 </v>
   <v>      -0.77648651      -0.10776951       0.70825929 </v>
   <v>      -0.19889213       0.44233517      -0.62618085 </v>
   <v>      -0.04424620       0.46757598       0.23764833 </v>
   <v>       0.04649324      -0.44622293       0.44007710 </v>
   <v>       0.22882003      -0.43389511      -0.32532323 </v>
   <v>      -0.36881260       0.04911335      -0.11561731 </v>
   <v>      -0.21951109      -0.13259974       0.59059961 </v>
   <v>       0.30919833      -0.35800486      -0.02749935 </v>
   <v>      -0.04502862      -0.18629003       0.51681967 </v>
   <v>       0.82363749       0.26572287      -0.75391752 </v>
   <v>      -0.17412572       0.58491870      -0.17975879 </v>
   <v>       0.18911728      -0.31821083      -0.41583666 </v>
   <v>       0.36590933      -0.55765264       0.54862343 </v>
   <v>       0.12005173       0.37781134      -0.10183517 </v>
  </varray>
  <varray name="stress" >
   <v>     -35.45746750       3.70002367       5.68982670 </v>
   <v>       3.70002371     -32.60852527      -0.46583188 </v>
   <v>       5.68982666      -0.46583198     -30.74012578 </v>
  </varray>
  <energy>
   <i name="e_fr_energy">   -329.96886148 </i>
   <i name="e_wo_entrp">   -329.96600047 </i>
   <i name="e_0_energy">     -0.00858302 </i>
  </energy>
  <time name="totalsc">  536.96  538.16</time>
 </calculation>
 <calculation>
  <scstep>
   <time name="dav">   22.83   22.87</time>
   <time name="total">   23.44   23.54</time>
   <energy>
    <i name="alphaZ">   1369.53384717 </i>
    <i name="ewald"> -11834.06862054 </i>
    <i name="hartreedc">  -3036.22095352 </i>
    <i name="XCdc">   -827.03757463 </i>
    <i name="pawpsdc">  20750.18180729 </i>
    <i name="pawaedc"> -19260.35497307 </i>
    <i name="eentropy">     -0.01374167 </i>
    <i name="bandstr">   -574.29417242 </i>
    <i name="atom">  13080.25727947 </i>
    <i name="e_fr_energy">   -332.01710193 </i>
    <i name="e_wo_entrp">   -332.00336025 </i>
    <i name="e_0_energy">   -332.01252137 </i>
   </energy>
  </scstep>
  <scstep>
   <time name="dav">   27.06   27.11</time>
   <time name="total">   27.68   27.74</time>
   <energy>
    <i name="e_fr_energy">   -332.23150894 </i>
    <i name="e_wo_entrp">   -332.23268587 </i>
    <i name="e_0_energy">   -332.23190125 </i>
   </energy>
  </scstep>
  <scstep>
   <time name="dav">   25.04   25.08</time>
   <time name="total">   25.64   25.68</time>
   <energy>
    <i name="e_fr_energy">   -330.79879481 </i>
    <i name="e_wo_entrp">   -330.79103111 </i>
    <i name="e_0_energy">   -330.79620691 </i>
   </energy>
  </scstep>
  <scstep>
   <time name="dav">   26.89   26.93</time>
   <time name="total">   27.49   27.53</time>
   <energy>
    <i name="e_fr_energy">   -330.40091082 </i>
    <i name="e_wo_entrp">   -330.39406465 </i>
    <i name="e_0_energy">   -330.39862876 </i>
   </energy>
  </scstep>
  <scstep>
   <time name="dav">   26.05   26.08</time>
   <time name="total">   26.66   26.71</time>
   <energy>
    <i name="e_fr_energy">   -330.16139262 </i>
    <i name="e_wo_entrp">   -330.15616829 </i>
    <i name="e_0_energy">   -330.15965118 </i>
   </energy>
  </scstep>
  <scstep>
   <time name="dav">   28.11   28.15</time>
   <time name="total">   28.72   28.76</time>
   <energy>
    <i name="e_fr_energy">   -330.07543151 </i>
    <i name="e_wo_entrp">   -330.06856547 </i>
    <i name="e_0_energy">   -330.07314283 </i>
   </energy>
  </scstep>
  <scstep>
   <time name="dav">   27.73   27.78</time>
   <time name="total">   28.33   28.38</time>
   <energy>
    <i name="e_fr_energy">   -330.07497794 </i>
    <i name="e_wo_entrp">   -330.06722544 </i>
    <i name="e_0_energy">   -330.07239377 </i>
   </energy>
  </scstep>
  <scstep>
   <time name="dav">   26.29   26.33</time>
   <time name="total">   26.89   26.94</time>
   <energy>
    <i name="e_fr_energy">   -330.07406812 </i>
    <i name="e_wo_entrp">   -330.06759541 </i>
    <i name="e_0_energy">   -330.07191055 </i>
   </energy>
  </scstep>
  <scstep>
   <time name="dav">   25.40   25.44</time>
   <time name="total">   26.00   26.04</time>
   <energy>
    <i name="e_fr_energy">   -330.08058306 </i>
    <i name="e_wo_entrp">   -330.07261761 </i>
    <i name="e_0_energy">   -330.07792791 </i>
   </energy>
  </scstep>
  <scstep>
   <time name="dav">   26.67   26.71</time>
   <time name="total">   27.27   27.31</time>
   <energy>
    <i name="e_fr_energy">   -330.08434680 </i>
    <i name="e_wo_entrp">   -330.07672542 </i>
    <i name="e_0_energy">   -330.08180634 </i>
   </energy>
  </scstep>
  <scstep>
   <time name="dav">   26.34   26.40</time>
   <time name="total">   26.94   27.02</time>
   <energy>
    <i name="e_fr_energy">   -330.08457442 </i>
    <i name="e_wo_entrp">   -330.07739905 </i>
    <i name="e_0_energy">   -330.08218263 </i>
   </energy>
  </scstep>
  <scstep>
   <time name="dav">   27.25   27.32</time>
   <time name="total">   27.85   27.92</time>
   <energy>
    <i name="e_fr_energy">   -330.08422818 </i>
    <i name="e_wo_entrp">   -330.07676536 </i>
    <i name="e_0_energy">   -330.08174057 </i>
   </energy>
  </scstep>
  <scstep>
   <time name="dav">   25.27   25.33</time>
   <time name="total">   25.87   25.94</time>
   <energy>
    <i name="e_fr_energy">   -330.08436798 </i>
    <i name="e_wo_entrp">   -330.07694578 </i>
    <i name="e_0_energy">   -330.08189391 </i>
   </energy>
  </scstep>
  <scstep>
   <time name="dav">   23.60   23.73</time>
   <time name="total">   24.20   24.36</time>
   <energy>
    <i name="e_fr_energy">   -330.08436056 </i>
    <i name="e_wo_entrp">   -330.07693361 </i>
    <i name="e_0_energy">   -330.08188491 </i>
   </energy>
  </scstep>
  <scstep>
   <time name="dav">   15.77   15.80</time>
   <time name="total">   15.80   15.83</time>
   <energy>
    <i name="alphaZ">   1369.53384717 </i>
    <i name="ewald"> -11834.06862054 </i>
    <i name="hartreedc">  -2945.31677446 </i>
    <i name="XCdc">   -829.68553176 </i>
    <i name="pawpsdc">  22419.21397838 </i>
    <i name="pawaedc"> -20930.04298691 </i>
    <i name="eentropy">     -0.00742813 </i>
    <i name="bandstr">   -659.96808085 </i>
    <i name="atom">  13080.25727947 </i>
    <i name="e_fr_energy">   -330.08431763 </i>
    <i name="e_wo_entrp">   -330.07688951 </i>
    <i name="e_0_energy">   -330.08184159 </i>
   </energy>
  </scstep>
  <structure>
   <crystal>
    <varray name="basis" >
     <v>      -3.14795853      -3.14262550      -3.14884795 </v>
     <v>       1.54644985       1.57356661      -7.84684434 </v>
     <v>       7.81253018      -7.82822961      -1.54539199 </v>
    </varray>
    <i name="volume">    462.99891071 </i>
    <varray name="rec_basis" >
     <v>      -0.13792403      -0.12724401      -0.05269883 </v>
     <v>       0.04275024       0.06364011      -0.10625252 </v>
     <v>       0.06396260      -0.06386856      -0.00020218 </v>
    </varray>
   </crystal>
   <varray name="positions" >
    <v>       0.96205053       0.93372904       0.39800649 </v>
    <v>       0.63284114       0.26558744       0.40037225 </v>
    <v>       0.49940373      -0.00161913       0.00280687 </v>
    <v>      -0.00209150       0.00026024       0.00151408 </v>
    <v>       0.09841613       0.20392335       0.79943965 </v>
    <v>       0.03752577       0.06641440       0.59763689 </v>
    <v>       0.90286759       0.79683680       0.20192864 </v>
    <v>       0.80477897       0.59561880       0.39834920 </v>
    <v>       0.73048094       0.46969901       0.19961866 </v>
    <v>       0.66437770       0.33704699      -0.00036092 </v>
    <v>       0.36917499       0.73036321       0.59948924 </v>
    <v>       0.13256363       0.27005948       0.39879314 </v>
    <v>       0.83470182       0.66430660       0.00226782 </v>
    <v>       0.93077652       0.86855619       0.80055428 </v>
    <v>       0.56959109       0.13560329       0.19774084 </v>
    <v>       0.43728865       0.86120464       0.79797739 </v>
    <v>       0.30020592       0.60409344       0.39806053 </v>
    <v>       0.86352916       0.73346036       0.59845193 </v>
    <v>       0.46795207       0.92985898       0.40149028 </v>
    <v>       0.16861185       0.33412232       0.00200446 </v>
    <v>       0.26907794       0.53332103       0.79873593 </v>
    <v>       0.20075204       0.39617908       0.59973713 </v>
    <v>       0.06687536       0.13301260       0.20201803 </v>
    <v>       0.76678602       0.53007377       0.80042726 </v>
    <v>       0.69489526       0.40626502       0.60168748 </v>
    <v>       0.59805588       0.20232422       0.79770418 </v>
    <v>       0.53506704       0.06818179       0.60153447 </v>
    <v>       0.33292596       0.66295218       0.00279342 </v>
    <v>       0.23051780       0.46856483       0.19922038 </v>
   </varray>
  </structure>
  <varray name="forces" >
   <v>      -0.13069209       0.35149512       0.10600342 </v>
   <v>       0.02021973       0.10187065      -0.00825721 </v>
   <v>       0.42517373      -0.32453865       0.35027343 </v>
   <v>       0.15110756      -0.13363610      -0.10774113 </v>
   <v>       0.01366573      -0.04829394      -0.10742631 </v>
   <v>      -0.31413153       0.06042074      -0.12027502 </v>
   <v>       0.10583540      -0.24187715       0.09080435 </v>
   <v>      -0.20092882       0.00513942       0.12270711 </v>
   <v>       0.28509466       0.26713118      -0.23695977 </v>
   <v>       0.07817088       0.10112956      -0.12733684 </v>
   <v>      -0.21011726       0.00408578       0.17667629 </v>
   <v>      -0.02148627       0.08930303      -0.11226602 </v>
   <v>       0.21054170      -0.18513499       0.03000556 </v>
   <v>       0.03925204      -0.05658134      -0.04558051 </v>
   <v>      -0.05790870       0.07813585      -0.10385587 </v>
   <v>      -0.04265289      -0.06732513       0.26446724 </v>
   <v>      -0.32893157       0.26903292      -0.45676885 </v>
   <v>      -0.16269362       0.25387943       0.13435763 </v>
   <v>      -0.14076789      -0.08969813       0.40053851 </v>
   <v>       0.14316180      -0.26252148      -0.15261217 </v>
   <v>      -0.17279648       0.16277433       0.05117543 </v>
   <v>      -0.07999688       0.16654994       0.18689537 </v>
   <v>       0.00328919      -0.42893347      -0.02048292 </v>
   <v>      -0.03132981      -0.13823583       0.02447902 </v>
   <v>       0.12655438       0.26610699      -0.21222670 </v>
   <v>       0.07502100       0.14258938      -0.05476141 </v>
   <v>      -0.08981539      -0.04420068      -0.08691172 </v>
   <v>       0.28484497      -0.33080942       0.05094744 </v>
   <v>       0.02231643       0.03214201      -0.03586835 </v>
  </varray>
  <varray name="stress" >
   <v>      80.47137890       2.26930952       1.99773190 </v>
   <v>       2.26930943      80.88607723      -0.60595835 </v>
   <v>       1.99773194      -0.60595844      81.03701480 </v>
  </varray>
  <energy>
   <i name="e_fr_energy">   -330.08431763 </i>
   <i name="e_wo_entrp">   -330.08184159 </i>
   <i name="e_0_energy">     -0.00742813 </i>
  </energy>
  <time name="totalsc">  406.73  407.83</time>
 </calculation>
 <calculation>
  <scstep>
   <time name="dav">   22.69   22.72</time>
   <time name="total">   23.29   23.34</time>
   <energy>
    <i name="alphaZ">   1339.49033505 </i>
    <i name="ewald"> -11724.98859013 </i>
    <i name="hartreedc">  -2945.06695044 </i>
    <i name="XCdc">   -832.45600340 </i>
    <i name="pawpsdc">  22418.80296097 </i>
    <i name="pawaedc"> -20929.63439132 </i>
    <i name="eentropy">     -0.00520374 </i>
    <i name="bandstr">   -737.04810354 </i>
    <i name="atom">  13080.25727947 </i>
    <i name="e_fr_energy">   -330.64866708 </i>
    <i name="e_wo_entrp">   -330.64346334 </i>
    <i name="e_0_energy">   -330.64693250 </i>
   </energy>
  </scstep>
  <scstep>
   <time name="dav">   28.70   28.74</time>
   <time name="total">   29.31   29.35</time>
   <energy>
    <i name="e_fr_energy">   -330.68062071 </i>
    <i name="e_wo_entrp">   -330.66920966 </i>
    <i name="e_0_energy">   -330.67681703 </i>
   </energy>
  </scstep>
  <scstep>
   <time name="dav">   25.87   25.89</time>
   <time name="total">   26.48   26.50</time>
   <energy>
    <i name="e_fr_energy">   -330.50780835 </i>
    <i name="e_wo_entrp">   -330.50372012 </i>
    <i name="e_0_energy">   -330.50644560 </i>
   </energy>
  </scstep>
  <scstep>
   <time name="dav">   27.74   27.78</time>
   <time name="total">   28.35   28.38</time>
   <energy>
    <i name="e_fr_energy">   -330.35549277 </i>
    <i name="e_wo_entrp">   -330.34864428 </i>
    <i name="e_0_energy">   -330.35320994 </i>
   </energy>
  </scstep>
  <scstep>
   <time name="dav">   25.50   25.54</time>
   <time name="total">   26.13   26.17</time>
   <energy>
    <i name="e_fr_energy">   -330.31483469 </i>
    <i name="e_wo_entrp">   -330.30722085 </i>
    <i name="e_0_energy">   -330.31229674 </i>
   </energy>
  </scstep>
  <scstep>
   <time name="dav">   26.02   26.06</time>
   <time name="total">   26.62   26.66</time>
   <energy>
    <i name="e_fr_energy">   -330.28624191 </i>
    <i name="e_wo_entrp">   -330.27829031 </i>
    <i name="e_0_energy">   -330.28359138 </i>
   </energy>
  </scstep>
  <scstep>
   <time name="dav">   27.45   27.49</time>
   <time name="total">   28.05   28.09</time>
   <energy>
    <i name="e_fr_energy">   -330.28556695 </i>
    <i name="e_wo_entrp">   -330.27836200 </i>
    <i name="e_0_energy">   -330.28316530 </i>
   </energy>
  </scstep>
  <scstep>
   <time name="dav">   25.66   25.70</time>
   <time name="total">   26.27   26.31</time>
   <energy>
    <i name="e_fr_energy">   -330.28564810 </i>
    <i name="e_wo_entrp">   -330.27741260 </i>
    <i name="e_0_energy">   -330.28290293 </i>
   </energy>
  </scstep>
  <scstep>
   <time name="dav">   25.66   25.70</time>
   <time name="total">   26.27   26.31</time>
   <energy>
    <i name="e_fr_energy">   -330.28553227 </i>
    <i name="e_wo_entrp">   -330.27790941 </i>
    <i name="e_0_energy">   -330.28299132 </i>
   </energy>
  </scstep>
  <scstep>
   <time name="dav">   26.02   26.05</time>
   <time name="total">   26.63   26.66</time>
   <energy>
    <i name="e_fr_energy">   -330.28650108 </i>
    <i name="e_wo_entrp">   -330.27902582 </i>
    <i name="e_0_energy">   -330.28400933 </i>
   </energy>
  </scstep>
  <scstep>
   <time name="dav">   26.16   26.19</time>
   <time name="total">   26.78   26.83</time>
   <energy>
    <i name="e_fr_energy">   -330.28659254 </i>
    <i name="e_wo_entrp">   -330.27875866 </i>
    <i name="e_0_energy">   -330.28398125 </i>
   </energy>
  </scstep>
  <scstep>
   <time name="dav">   25.45   25.49</time>
   <time name="total">   26.06   26.10</time>
   <energy>
    <i name="e_fr_energy">   -330.28649205 </i>
    <i name="e_wo_entrp">   -330.27883157 </i>
    <i name="e_0_energy">   -330.28393856 </i>
   </energy>
  </scstep>
  <scstep>
   <time name="dav">   23.46   23.50</time>
   <time name="total">   24.08   24.11</time>
   <energy>
    <i name="e_fr_energy">   -330.28652516 </i>
    <i name="e_wo_entrp">   -330.27880909 </i>
    <i name="e_0_energy">   -330.28395314 </i>
   </energy>
  </scstep>
  <scstep>
   <time name="dav">   16.22   16.24</time>
   <time name="total">   16.25   16.28</time>
   <energy>
    <i name="alphaZ">   1339.49033505 </i>
    <i name="ewald"> -11724.98859013 </i>
    <i name="hartreedc">  -2984.53264885 </i>
    <i name="XCdc">   -831.30553033 </i>
    <i name="pawpsdc">  21648.36994280 </i>
    <i name="pawaedc"> -20158.74796553 </i>
    <i name="eentropy">     -0.00770436 </i>
    <i name="bandstr">   -698.82162163 </i>
    <i name="atom">  13080.25727947 </i>
    <i name="e_fr_energy">   -330.28650351 </i>
    <i name="e_wo_entrp">   -330.27879915 </i>
    <i name="e_0_energy">   -330.28393539 </i>
   </energy>
  </scstep>
  <structure>
   <crystal>
    <varray name="basis" >
     <v>      -3.16637565      -3.16337887      -3.16687545 </v>
     <v>       1.56771824       1.58295595      -7.90298554 </v>
     <v>       7.88370340      -7.89252537      -1.56712379 </v>
    </varray>
    <i name="volume">    473.38354211 </i>
    <varray name="rec_basis" >
     <v>      -0.13700350      -0.12642600      -0.05250037 </v>
     <v>       0.04232770       0.06322317      -0.10547439 </v>
     <v>       0.06340136      -0.06334946      -0.00011185 </v>
    </varray>
   </crystal>
   <varray name="positions" >
    <v>       0.96410051       0.93355435       0.39889745 </v>
    <v>       0.63305869       0.26606772       0.40020686 </v>
    <v>       0.49966808      -0.00090139       0.00155429 </v>
    <v>      -0.00116141       0.00014198       0.00083781 </v>
    <v>       0.09912400       0.20217573       0.79968719 </v>
    <v>       0.03566203       0.06653058       0.59869213 </v>
    <v>       0.90159105       0.79824426       0.20106906 </v>
    <v>       0.80265021       0.59757381       0.39908933 </v>
    <v>       0.73175134       0.46834791       0.19978711 </v>
    <v>       0.66539863       0.33539241      -0.00020220 </v>
    <v>       0.36805707       0.73168765       0.59971933 </v>
    <v>       0.13290891       0.26854921       0.39932978 </v>
    <v>       0.83409229       0.66535552       0.00125632 </v>
    <v>       0.93191474       0.86771314       0.80030559 </v>
    <v>       0.56829360       0.13459534       0.19874789 </v>
    <v>       0.43552431       0.86364151       0.79888458 </v>
    <v>       0.30011829       0.60227212       0.39892377 </v>
    <v>       0.86492223       0.73340511       0.59914388 </v>
    <v>       0.46737776       0.93140532       0.40082701 </v>
    <v>       0.16774970       0.33376864       0.00110810 </v>
    <v>       0.26800622       0.53332857       0.79930028 </v>
    <v>       0.20041339       0.39788194       0.59985740 </v>
    <v>       0.06678327       0.13315300       0.20111673 </v>
    <v>       0.76672940       0.53152553       0.80023889 </v>
    <v>       0.69717095       0.40347058       0.60092956 </v>
    <v>       0.59892105       0.20129120       0.79872830 </v>
    <v>       0.53429944       0.06750514       0.60084754 </v>
    <v>       0.33310394       0.66460354       0.00154844 </v>
    <v>       0.23177030       0.46771956       0.19956762 </v>
   </varray>
  </structure>
  <varray name="forces" >
   <v>      -0.08635015       0.50618580       0.20454537 </v>
   <v>       0.03880318       0.02721362       0.09203485 </v>
   <v>       0.43894426      -0.40439196       0.28646301 </v>
   <v>       0.27333950      -0.12022782      -0.03718588 </v>
   <v>       0.07568381       0.12985603      -0.31082225 </v>
   <v>      -0.48742446       0.08275184      -0.14197684 </v>
   <v>       0.06854559      -0.43288721       0.18242370 </v>
   <v>      -0.46315566      -0.08429469       0.28736575 </v>
   <v>       0.25961122       0.31147127      -0.27733869 </v>
   <v>       0.15081789       0.21732032      -0.29015766 </v>
   <v>      -0.29063320      -0.10444107       0.26977808 </v>
   <v>      -0.01971403       0.22881651      -0.29269233 </v>
   <v>       0.21276482      -0.37965810       0.11058643 </v>
   <v>       0.16417153       0.04006852      -0.09798862 </v>
   <v>      -0.25567204       0.16191653      -0.26415156 </v>
   <v>      -0.39362935      -0.07706889       0.45710872 </v>
   <v>      -0.27508877       0.34931166      -0.53798119 </v>
   <v>      -0.10651029       0.36086371       0.18706431 </v>
   <v>      -0.05052141      -0.25702931       0.42824859 </v>
   <v>       0.19499622      -0.35492776      -0.24257259 </v>
   <v>      -0.27946390       0.10766887      -0.01917558 </v>
   <v>      -0.14835669       0.03168060       0.37575047 </v>
   <v>       0.14837796      -0.39715205      -0.01307129 </v>
   <v>      -0.04685406      -0.15119670       0.27751898 </v>
   <v>       0.48025899       0.26462946      -0.48988159 </v>
   <v>      -0.05426694       0.36721168      -0.11580370 </v>
   <v>       0.05081777      -0.18176972      -0.24856652 </v>
   <v>       0.32922037      -0.45866704       0.29955352 </v>
   <v>       0.07128786       0.21674591      -0.07907549 </v>
  </varray>
  <varray name="stress" >
   <v>      26.03947989       3.04255623       3.92269173 </v>
   <v>       3.04255625      27.74312947      -0.33256947 </v>
   <v>       3.92269170      -0.33256936      28.63758772 </v>
  </varray>
  <energy>
   <i name="e_fr_energy">   -330.28650351 </i>
   <i name="e_wo_entrp">   -330.28393539 </i>
   <i name="e_0_energy">     -0.00770436 </i>
  </energy>
  <time name="totalsc">  379.35  379.92</time>
 </calculation>
 <calculation>
  <scstep>
   <time name="dav">   18.65   18.70</time>
   <time name="total">   19.27   19.33</time>
   <energy>
    <i name="alphaZ">   1323.81756072 </i>
    <i name="ewald"> -11736.15485341 </i>
    <i name="hartreedc">  -2916.76056874 </i>
    <i name="XCdc">   -832.99073677 </i>
    <i name="pawpsdc">  21648.93722546 </i>
    <i name="pawaedc"> -20159.38714901 </i>
    <i name="eentropy">     -0.00698630 </i>
    <i name="bandstr">   -737.97740771 </i>
    <i name="atom">  13080.25727947 </i>
    <i name="e_fr_energy">   -330.26563629 </i>
    <i name="e_wo_entrp">   -330.25864999 </i>
    <i name="e_0_energy">   -330.26330752 </i>
   </energy>
  </scstep>
  <scstep>
   <time name="dav">   24.94   25.01</time>
   <time name="total">   25.54   25.62</time>
   <energy>
    <i name="e_fr_energy">   -330.72785876 </i>
    <i name="e_wo_entrp">   -330.71999192 </i>
    <i name="e_0_energy">   -330.72523648 </i>
   </energy>
  </scstep>
  <scstep>
   <time name="dav">   25.86   25.93</time>
   <time name="total">   26.47   26.54</time>
   <energy>
    <i name="e_fr_energy">   -330.72487423 </i>
    <i name="e_wo_entrp">   -330.71872458 </i>
    <i name="e_0_energy">   -330.72282435 </i>
   </energy>
  </scstep>
  <scstep>
   <time name="dav">   26.22   26.29</time>
   <time name="total">   26.82   26.89</time>
   <energy>
    <i name="e_fr_energy">   -330.63462392 </i>
    <i name="e_wo_entrp">   -330.62769624 </i>
    <i name="e_0_energy">   -330.63231469 </i>
   </energy>
  </scstep>
  <scstep>
   <time name="dav">   25.94   26.00</time>
   <time name="total">   26.53   26.60</time>
   <energy>
    <i name="e_fr_energy">   -330.60983602 </i>
    <i name="e_wo_entrp">   -330.60029377 </i>
    <i name="e_0_energy">   -330.60665527 </i>
   </energy>
  </scstep>
  <scstep>
   <time name="dav">   25.97   26.03</time>
   <time name="total">   26.59   26.66</time>
   <energy>
    <i name="e_fr_energy">   -330.60089667 </i>
    <i name="e_wo_entrp">   -330.59371487 </i>
    <i name="e_0_energy">   -330.59850274 </i>
   </energy>
  </scstep>
  <scstep>
   <time name="dav">   27.68   27.75</time>
   <time name="total">   28.28   28.35</time>
   <energy>
    <i name="e_fr_energy">   -330.59372150 </i>
    <i name="e_wo_entrp">   -330.58494409 </i>
    <i name="e_0_energy">   -330.59079569 </i>
   </energy>
  </scstep>
  <scstep>
   <time name="dav">   26.41   26.48</time>
   <time name="total">   27.01   27.09</time>
   <energy>
    <i name="e_fr_energy">   -330.59293456 </i>
    <i name="e_wo_entrp">   -330.58431026 </i>
    <i name="e_0_energy">   -330.59005979 </i>
   </energy>
  </scstep>
  <scstep>
   <time name="dav">   24.17   24.23</time>
   <time name="total">   24.77   24.84</time>
   <energy>
    <i name="e_fr_energy">   -330.59275288 </i>
    <i name="e_wo_entrp">   -330.58419015 </i>
    <i name="e_0_energy">   -330.58989864 </i>
   </energy>
  </scstep>
  <scstep>
   <time name="dav">   23.93   24.00</time>
   <time name="total">   24.54   24.60</time>
   <energy>
    <i name="e_fr_energy">   -330.59292416 </i>
    <i name="e_wo_entrp">   -330.58446065 </i>
    <i name="e_0_energy">   -330.59010299 </i>
   </energy>
  </scstep>
  <scstep>
   <time name="dav">   23.47   23.53</time>
   <time name="total">   24.08   24.14</time>
   <energy>
    <i name="e_fr_energy">   -330.59315087 </i>
    <i name="e_wo_entrp">   -330.58458238 </i>
    <i name="e_0_energy">   -330.59029470 </i>
   </energy>
  </scstep>
  <scstep>
   <time name="dav">   22.68   22.74</time>
   <time name="total">   23.29   23.36</time>
   <energy>
    <i name="e_fr_energy">   -330.59299016 </i>
    <i name="e_wo_entrp">   -330.58452108 </i>
    <i name="e_0_energy">   -330.59016713 </i>
   </energy>
  </scstep>
  <scstep>
   <time name="dav">   17.38   17.40</time>
   <time name="total">   17.41   17.44</time>
   <energy>
    <i name="alphaZ">   1323.81756072 </i>
    <i name="ewald"> -11736.15485341 </i>
    <i name="hartreedc">  -2935.17097600 </i>
    <i name="XCdc">   -832.35127108 </i>
    <i name="pawpsdc">  21247.08870879 </i>
    <i name="pawaedc"> -19758.05643844 </i>
    <i name="eentropy">     -0.00848420 </i>
    <i name="bandstr">   -720.01445213 </i>
    <i name="atom">  13080.25727947 </i>
    <i name="e_fr_energy">   -330.59292630 </i>
    <i name="e_wo_entrp">   -330.58444210 </i>
    <i name="e_0_energy">   -330.59009823 </i>
   </energy>
  </scstep>
  <structure>
   <crystal>
    <varray name="basis" >
     <v>      -3.19222482      -3.18293234      -3.19207441 </v>
     <v>       1.55017693       1.59524196      -7.93803381 </v>
     <v>       7.88137810      -7.90660450      -1.54758673 </v>
    </varray>
    <i name="volume">    478.98796499 </i>
    <varray name="rec_basis" >
     <v>      -0.13618645      -0.12560569      -0.05183709 </v>
     <v>       0.04240734       0.06283705      -0.10506642 </v>
     <v>       0.06338021      -0.06323388      -0.00033041 </v>
    </varray>
   </crystal>
   <varray name="positions" >
    <v>       0.95898970       0.93405259       0.39622899 </v>
    <v>       0.63221152       0.26524027       0.40042773 </v>
    <v>       0.49830723      -0.00335952       0.00533340 </v>
    <v>      -0.00311673       0.00062305       0.00270669 </v>
    <v>       0.09785679       0.20611504       0.79925437 </v>
    <v>       0.04059726       0.06638125       0.59589920 </v>
    <v>       0.90462191       0.79471379       0.20344699 </v>
    <v>       0.80767700       0.59291341       0.39718842 </v>
    <v>       0.72764389       0.47252726       0.19945156 </v>
    <v>       0.66278618       0.33951283      -0.00056799 </v>
    <v>       0.37104263       0.72809269       0.59893694 </v>
    <v>       0.13203813       0.27223173       0.39802543 </v>
    <v>       0.83536187       0.66298405       0.00406156 </v>
    <v>       0.92962921       0.86954661       0.80093533 </v>
    <v>       0.57102774       0.13694754       0.19643559 </v>
    <v>       0.43928235       0.85779314       0.79696684 </v>
    <v>       0.30117856       0.60730835       0.39619947 </v>
    <v>       0.86153244       0.73340615       0.59705123 </v>
    <v>       0.46877749       0.92684284       0.40215764 </v>
    <v>       0.17009528       0.33467279       0.00366407 </v>
    <v>       0.27036060       0.53318899       0.79757702 </v>
    <v>       0.20064797       0.39400683       0.59921758 </v>
    <v>       0.06823427       0.13222348       0.20366541 </v>
    <v>       0.76727487       0.52807263       0.80074427 </v>
    <v>       0.69133877       0.41056247       0.60239591 </v>
    <v>       0.59648494       0.20392937       0.79638578 </v>
    <v>       0.53645703       0.06901910       0.60227945 </v>
    <v>       0.33277396       0.66066409       0.00516476 </v>
    <v>       0.22888714       0.46978719       0.19876638 </v>
   </varray>
  </structure>
  <varray name="forces" >
   <v>       0.00459395       0.16177658       0.06975314 </v>
   <v>       0.05574798       0.14755686      -0.16132943 </v>
   <v>       0.06572052      -0.09111919       0.22645032 </v>
   <v>       0.02048353       0.03505359       0.03496561 </v>
   <v>      -0.03437490      -0.17751474       0.15653643 </v>
   <v>      -0.02630497       0.02821462      -0.09661190 </v>
   <v>       0.04851834       0.01185633       0.01315539 </v>
   <v>       0.00230311      -0.00343985       0.00714449 </v>
   <v>       0.16407908       0.05297038      -0.01804862 </v>
   <v>      -0.01896100       0.02943354       0.02280774 </v>
   <v>      -0.09130902       0.12073901       0.05537161 </v>
   <v>      -0.01904286      -0.01075063       0.03409516 </v>
   <v>       0.08786076       0.09943224      -0.09896396 </v>
   <v>       0.05894551      -0.04752043      -0.07051311 </v>
   <v>       0.10904874      -0.01799343      -0.16790471 </v>
   <v>       0.26037615      -0.09153313      -0.00717450 </v>
   <v>      -0.28285746       0.00722276      -0.09838515 </v>
   <v>      -0.09919130       0.08844838       0.03555423 </v>
   <v>      -0.09640222      -0.01410244       0.16418188 </v>
   <v>       0.08327738      -0.14902992      -0.05807862 </v>
   <v>      -0.01088575       0.11590581       0.05392705 </v>
   <v>      -0.13239521       0.28619493       0.03051540 </v>
   <v>       0.01601688      -0.26853582      -0.15092073 </v>
   <v>       0.03998369      -0.07870330      -0.18338490 </v>
   <v>      -0.19458525       0.14507122       0.15522502 </v>
   <v>       0.03440423      -0.14226147       0.08798134 </v>
   <v>      -0.13012401      -0.00152851       0.03630518 </v>
   <v>       0.07258415      -0.03095725      -0.07338754 </v>
   <v>       0.01248995      -0.20488615       0.00073316 </v>
  </varray>
  <varray name="stress" >
   <v>       5.21619568       1.89146324      -0.02128809 </v>
   <v>       1.89146319       3.55330660       0.04519869 </v>
   <v>      -0.02128811       0.04519866       3.41996557 </v>
  </varray>
  <energy>
   <i name="e_fr_energy">   -330.59292630 </i>
   <i name="e_wo_entrp">   -330.59009823 </i>
   <i name="e_0_energy">     -0.00848420 </i>
  </energy>
  <time name="totalsc">  339.23  340.11</time>
 </calculation>
 <calculation>
  <scstep>
   <time name="dav">   19.57   19.61</time>
   <time name="total">   20.18   20.21</time>
   <energy>
    <i name="alphaZ">   1322.94188902 </i>
    <i name="ewald"> -11736.46864734 </i>
    <i name="hartreedc">  -2931.58926718 </i>
    <i name="XCdc">   -832.44686644 </i>
    <i name="pawpsdc">  21246.77306938 </i>
    <i name="pawaedc"> -19757.76167745 </i>
    <i name="eentropy">     -0.00838352 </i>
    <i name="bandstr">   -722.29037834 </i>
    <i name="atom">  13080.25727947 </i>
    <i name="e_fr_energy">   -330.59298240 </i>
    <i name="e_wo_entrp">   -330.58459888 </i>
    <i name="e_0_energy">   -330.59018789 </i>
   </energy>
  </scstep>
  <scstep>
   <time name="dav">   25.77   25.81</time>
   <time name="total">   26.39   26.43</time>
   <energy>
    <i name="e_fr_energy">   -330.59429779 </i>
    <i name="e_wo_entrp">   -330.58579862 </i>
    <i name="e_0_energy">   -330.59146474 </i>
   </energy>
  </scstep>
  <scstep>
   <time name="dav">   24.33   24.37</time>
   <time name="total">   24.95   24.98</time>
   <energy>
    <i name="e_fr_energy">   -330.59414076 </i>
    <i name="e_wo_entrp">   -330.58575945 </i>
    <i name="e_0_energy">   -330.59134699 </i>
   </energy>
  </scstep>
  <scstep>
   <time name="dav">   23.62   23.66</time>
   <time name="total">   24.23   24.26</time>
   <energy>
    <i name="e_fr_energy">   -330.59395863 </i>
    <i name="e_wo_entrp">   -330.58557427 </i>
    <i name="e_0_energy">   -330.59116384 </i>
   </energy>
  </scstep>
  <scstep>
   <time name="dav">   20.81   20.84</time>
   <time name="total">   21.43   21.46</time>
   <energy>
    <i name="e_fr_energy">   -330.59387092 </i>
    <i name="e_wo_entrp">   -330.58534389 </i>
    <i name="e_0_energy">   -330.59102858 </i>
   </energy>
  </scstep>
  <scstep>
   <time name="dav">   17.47   17.49</time>
   <time name="total">   17.50   17.52</time>
   <energy>
    <i name="alphaZ">   1322.94188902 </i>
    <i name="ewald"> -11736.46864734 </i>
    <i name="hartreedc">  -2932.73221263 </i>
    <i name="XCdc">   -832.40932207 </i>
    <i name="pawpsdc">  21228.45096011 </i>
    <i name="pawaedc"> -19739.43601693 </i>
    <i name="eentropy">     -0.00840188 </i>
    <i name="bandstr">   -721.18936579 </i>
    <i name="atom">  13080.25727947 </i>
    <i name="e_fr_energy">   -330.59383806 </i>
    <i name="e_wo_entrp">   -330.58543617 </i>
    <i name="e_0_energy">   -330.59103743 </i>
   </energy>
  </scstep>
  <structure>
   <crystal>
    <varray name="basis" >
     <v>      -3.19368332      -3.18403561      -3.19349622 </v>
     <v>       1.54918719       1.59593518      -7.94001135 </v>
     <v>       7.88124689      -7.90739889      -1.54648439 </v>
    </varray>
    <i name="volume">    479.30501308 </i>
    <varray name="rec_basis" >
     <v>      -0.13614071      -0.12555970      -0.05180000 </v>
     <v>       0.04241180       0.06281535      -0.10504355 </v>
     <v>       0.06337904      -0.06322739      -0.00034267 </v>
    </varray>
   </crystal>
   <varray name="positions" >
    <v>       0.95870352       0.93408024       0.39607848 </v>
    <v>       0.63216418       0.26519380       0.40044008 </v>
    <v>       0.49823115      -0.00349703       0.00554618 </v>
    <v>      -0.00322643       0.00065045       0.00281207 </v>
    <v>       0.09778525       0.20633644       0.79923035 </v>
    <v>       0.04087388       0.06637229       0.59574182 </v>
    <v>       0.90479207       0.79451568       0.20358075 </v>
    <v>       0.80795937       0.59265101       0.39708086 </v>
    <v>       0.72741321       0.47276221       0.19943299 </v>
    <v>       0.66263925       0.33974444      -0.00058823 </v>
    <v>       0.37121045       0.72789041       0.59889252 </v>
    <v>       0.13198888       0.27243853       0.39795226 </v>
    <v>       0.83543317       0.66285120       0.00421950 </v>
    <v>       0.92950087       0.86964982       0.80097098 </v>
    <v>       0.57118067       0.13707933       0.19630553 </v>
    <v>       0.43949384       0.85746399       0.79685817 </v>
    <v>       0.30123736       0.60759097       0.39604643 </v>
    <v>       0.86134270       0.73340591       0.59693316 </v>
    <v>       0.46885649       0.92658656       0.40223221 </v>
    <v>       0.17022637       0.33472401       0.00380833 </v>
    <v>       0.27049260       0.53318080       0.79747990 </v>
    <v>       0.20066173       0.39378889       0.59918110 </v>
    <v>       0.06831553       0.13217164       0.20380904 </v>
    <v>       0.76730591       0.52787860       0.80077241 </v>
    <v>       0.69101094       0.41096149       0.60247921 </v>
    <v>       0.59634823       0.20407732       0.79625393 </v>
    <v>       0.53657757       0.06910441       0.60236039 </v>
    <v>       0.33275585       0.66044327       0.00536823 </v>
    <v>       0.22872538       0.46990333       0.19872136 </v>
   </varray>
  </structure>
  <varray name="forces" >
   <v>       0.00953805       0.14840348       0.06861115 </v>
   <v>       0.05293450       0.15331910      -0.17121116 </v>
   <v>       0.05599838      -0.07838812       0.22700657 </v>
   <v>       0.01422293       0.03954937       0.03591473 </v>
   <v>      -0.03620809      -0.19281109       0.17491859 </v>
   <v>      -0.01257884       0.02717764      -0.09430371 </v>
   <v>       0.04700229       0.03547949       0.00498271 </v>
   <v>       0.03187747       0.00002188      -0.01323125 </v>
   <v>       0.15790796       0.03850580      -0.00282005 </v>
   <v>      -0.02917179       0.01789057       0.04109112 </v>
   <v>      -0.08347542       0.13821402       0.03733451 </v>
   <v>      -0.02063724      -0.02580078       0.05591725 </v>
   <v>       0.08443382       0.12013472      -0.10753000 </v>
   <v>       0.05169780      -0.04002888      -0.06998286 </v>
   <v>       0.12605772      -0.02831543      -0.16842753 </v>
   <v>       0.28586162      -0.08819759      -0.04248177 </v>
   <v>      -0.27477925      -0.00998259      -0.07633034 </v>
   <v>      -0.09822072       0.07902006       0.02635451 </v>
   <v>      -0.09902501       0.00067915       0.15112007 </v>
   <v>       0.08024280      -0.14026850      -0.04397856 </v>
   <v>       0.00296207       0.11459062       0.05792198 </v>
   <v>      -0.13090432       0.30145830       0.01727567 </v>
   <v>       0.00770791      -0.26504358      -0.15726106 </v>
   <v>       0.04384192      -0.07411076      -0.20926094 </v>
   <v>      -0.23222579       0.13607549       0.19093989 </v>
   <v>       0.03706299      -0.17348077       0.10054934 </v>
   <v>      -0.14437972       0.00640865       0.05655203 </v>
   <v>       0.06242603      -0.00988284      -0.09615133 </v>
   <v>       0.00982992      -0.23061744       0.00648046 </v>
  </varray>
  <varray name="stress" >
   <v>       4.12348222       1.77797999      -0.36186317 </v>
   <v>       1.77798002       2.35644981       0.07533333 </v>
   <v>      -0.36186299       0.07533328       2.13495311 </v>
  </varray>
  <energy>
   <i name="e_fr_energy">   -330.59383806 </i>
   <i name="e_wo_entrp">   -330.59103743 </i>
   <i name="e_0_energy">     -0.00840188 </i>
  </energy>
  <time name="totalsc">  152.40  152.64</time>
 </calculation>
 <calculation>
  <scstep>
   <time name="dav">   18.50   18.53</time>
   <time name="total">   19.10   19.13</time>
   <energy>
    <i name="alphaZ">   1317.22388200 </i>
    <i name="ewald"> -11721.09933779 </i>
    <i name="hartreedc">  -2927.17218791 </i>
    <i name="XCdc">   -832.96404737 </i>
    <i name="pawpsdc">  21228.13774129 </i>
    <i name="pawaedc"> -19739.12823492 </i>
    <i name="eentropy">     -0.00804316 </i>
    <i name="bandstr">   -735.86392678 </i>
    <i name="atom">  13080.25727947 </i>
    <i name="e_fr_energy">   -330.61687516 </i>
    <i name="e_wo_entrp">   -330.60883201 </i>
    <i name="e_0_energy">   -330.61419411 </i>
   </energy>
  </scstep>
  <scstep>
   <time name="dav">   24.95   24.98</time>
   <time name="total">   25.56   25.61</time>
   <energy>
    <i name="e_fr_energy">   -330.66002141 </i>
    <i name="e_wo_entrp">   -330.65001172 </i>
    <i name="e_0_energy">   -330.65668485 </i>
   </energy>
  </scstep>
  <scstep>
   <time name="dav">   25.18   25.21</time>
   <time name="total">   25.78   25.81</time>
   <energy>
    <i name="e_fr_energy">   -330.63977478 </i>
    <i name="e_wo_entrp">   -330.63108159 </i>
    <i name="e_0_energy">   -330.63687705 </i>
   </energy>
  </scstep>
  <scstep>
   <time name="dav">   25.08   25.12</time>
   <time name="total">   25.68   25.72</time>
   <energy>
    <i name="e_fr_energy">   -330.63715528 </i>
    <i name="e_wo_entrp">   -330.62903596 </i>
    <i name="e_0_energy">   -330.63444884 </i>
   </energy>
  </scstep>
  <scstep>
   <time name="dav">   25.03   25.07</time>
   <time name="total">   25.63   25.68</time>
   <energy>
    <i name="e_fr_energy">   -330.63081301 </i>
    <i name="e_wo_entrp">   -330.62159483 </i>
    <i name="e_0_energy">   -330.62774029 </i>
   </energy>
  </scstep>
  <scstep>
   <time name="dav">   26.50   26.53</time>
   <time name="total">   27.10   27.13</time>
   <energy>
    <i name="e_fr_energy">   -330.63078862 </i>
    <i name="e_wo_entrp">   -330.62177638 </i>
    <i name="e_0_energy">   -330.62778454 </i>
   </energy>
  </scstep>
  <scstep>
   <time name="dav">   25.00   25.04</time>
   <time name="total">   25.60   25.64</time>
   <energy>
    <i name="e_fr_energy">   -330.62949620 </i>
    <i name="e_wo_entrp">   -330.62048035 </i>
    <i name="e_0_energy">   -330.62649092 </i>
   </energy>
  </scstep>
  <scstep>
   <time name="dav">   22.97   23.00</time>
   <time name="total">   23.57   23.62</time>
   <energy>
    <i name="e_fr_energy">   -330.62940242 </i>
    <i name="e_wo_entrp">   -330.62042159 </i>
    <i name="e_0_energy">   -330.62640881 </i>
   </energy>
  </scstep>
  <scstep>
   <time name="dav">   18.36   18.39</time>
   <time name="total">   18.39   18.42</time>
   <energy>
    <i name="alphaZ">   1317.22388200 </i>
    <i name="ewald"> -11721.09933779 </i>
    <i name="hartreedc">  -2935.03496768 </i>
    <i name="XCdc">   -832.72738983 </i>
    <i name="pawpsdc">  21077.08501992 </i>
    <i name="pawaedc"> -19587.71752701 </i>
    <i name="eentropy">     -0.00897997 </i>
    <i name="bandstr">   -728.60740719 </i>
    <i name="atom">  13080.25727947 </i>
    <i name="e_fr_energy">   -330.62942809 </i>
    <i name="e_wo_entrp">   -330.62044812 </i>
    <i name="e_0_energy">   -330.62643476 </i>
   </energy>
  </scstep>
  <structure>
   <crystal>
    <varray name="basis" >
     <v>      -3.20263732      -3.19083225      -3.19702390 </v>
     <v>       1.55417407       1.59904805      -7.94913283 </v>
     <v>       7.88989676      -7.91002935      -1.54895190 </v>
    </varray>
    <i name="volume">    481.38565364 </i>
    <varray name="rec_basis" >
     <v>      -0.13576375      -0.12528520      -0.05174622 </v>
     <v>       0.04226571       0.06270424      -0.10492272 </v>
     <v>       0.06331004      -0.06320695      -0.00033666 </v>
[...]
       <r>    4.5882    1.0000 </r>
       <r>    4.6227    1.0000 </r>
       <r>    4.7062    1.0000 </r>
       <r>    4.7673    1.0000 </r>
       <r>    4.8215    1.0000 </r>
       <r>    4.8585    1.0000 </r>
       <r>    4.9265    1.0000 </r>
       <r>    4.9852    1.0000 </r>
       <r>    5.0312    1.0000 </r>
       <r>    5.1171    1.0000 </r>
       <r>    5.1694    1.0000 </r>
       <r>    5.1894    1.0000 </r>
       <r>    5.2366    1.0000 </r>
       <r>    5.3138    1.0000 </r>
       <r>    5.3741    1.0000 </r>
       <r>    5.4365    1.0000 </r>
       <r>    5.4842    1.0000 </r>
       <r>    5.5517    1.0000 </r>
       <r>    5.6035    1.0000 </r>
       <r>    5.6528    1.0000 </r>
       <r>    5.6910    1.0000 </r>
       <r>    5.7426    1.0000 </r>
       <r>    5.8261    1.0000 </r>
       <r>    5.8524    1.0000 </r>
       <r>    5.9256    1.0000 </r>
       <r>    5.9951    1.0000 </r>
       <r>    6.0468    1.0000 </r>
       <r>    6.0696    1.0000 </r>
       <r>    6.1345    1.0001 </r>
       <r>    6.1728    1.0001 </r>
       <r>    6.2204    1.0005 </r>
       <r>    6.2387    1.0008 </r>
       <r>    6.3146    1.0039 </r>
       <r>    6.3456    1.0067 </r>
       <r>    6.4219    1.0198 </r>
       <r>    6.4491    1.0260 </r>
       <r>    6.5279    1.0343 </r>
       <r>    6.5768    1.0108 </r>
       <r>    6.6910    0.7604 </r>
       <r>    6.7331    0.5972 </r>
       <r>    6.8336    0.1980 </r>
       <r>    6.8786    0.0747 </r>
       <r>    6.9658   -0.0294 </r>
       <r>    7.1696   -0.0064 </r>
       <r>    7.2424   -0.0016 </r>
       <r>    7.3282   -0.0002 </r>
       <r>    7.3702   -0.0001 </r>
       <r>    7.5097   -0.0000 </r>
       <r>    7.5924   -0.0000 </r>
       <r>    7.6817   -0.0000 </r>
       <r>    7.8947   -0.0000 </r>
       <r>    7.9881   -0.0000 </r>
       <r>    8.1508   -0.0000 </r>
       <r>    8.2066   -0.0000 </r>
       <r>    8.6104   -0.0000 </r>
       <r>    8.6478   -0.0000 </r>
       <r>    8.7550   -0.0000 </r>
       <r>    8.8097   -0.0000 </r>
       <r>    8.8931   -0.0000 </r>
       <r>    8.9598   -0.0000 </r>
       <r>    9.0197   -0.0000 </r>
      </set>
     </set>
    </set>
   </array>
  </eigenvalues>
  <separator name="orbital magnetization" >
   <v name="MAGDIPOLOUT">      0.00000000      0.00000000      0.00000000</v>
  </separator>
  <dos>
   <i name="efermi">      6.75620713 </i>
   <total>
    <array>
     <dimension dim="1">gridpoints</dimension>
     <dimension dim="2">spin</dimension>
     <field>energy</field>
     <field>total</field>
     <field>integrated</field>
     <set>
      <set comment="spin 1">
       <r>   -50.1350     0.0000     0.0000 </r>
       <r>   -49.9278     0.0000     0.0000 </r>
       <r>   -49.7206     0.0000     0.0000 </r>
       <r>   -49.5134     0.0000     0.0000 </r>
       <r>   -49.3062     0.0000     0.0000 </r>
       <r>   -49.0991    -0.0000    -0.0000 </r>
       <r>   -48.8919    -0.0000    -0.0000 </r>
       <r>   -48.6847    -0.0000    -0.0000 </r>
       <r>   -48.4775    -0.0000    -0.0000 </r>
       <r>   -48.2703    -0.0000    -0.0000 </r>
       <r>   -48.0631    -0.0000    -0.0000 </r>
       <r>   -47.8559    -0.0049    -0.0010 </r>
       <r>   -47.6487    -0.3608    -0.0758 </r>
       <r>   -47.4415    -0.1955    -0.1163 </r>
       <r>   -47.2343    22.9513     4.6391 </r>
       <r>   -47.0271    29.5656    10.7649 </r>
       <r>   -46.8199     6.6338    12.1394 </r>
       <r>   -46.6127    -0.5815    12.0189 </r>
       <r>   -46.4055    -0.0904    12.0002 </r>
       <r>   -46.1983    -0.0008    12.0000 </r>
       <r>   -45.9912    -0.0000    12.0000 </r>
       <r>   -45.7840    -0.0000    12.0000 </r>
       <r>   -45.5768     0.0000    12.0000 </r>
       <r>   -45.3696     0.0000    12.0000 </r>
       <r>   -45.1624     0.0000    12.0000 </r>
       <r>   -44.9552     0.0000    12.0000 </r>
       <r>   -44.7480     0.0000    12.0000 </r>
       <r>   -44.5408     0.0000    12.0000 </r>
       <r>   -44.3336     0.0000    12.0000 </r>
       <r>   -44.1264     0.0000    12.0000 </r>
       <r>   -43.9192     0.0000    12.0000 </r>
       <r>   -43.7120     0.0000    12.0000 </r>
       <r>   -43.5048     0.0000    12.0000 </r>
       <r>   -43.2976     0.0000    12.0000 </r>
       <r>   -43.0904     0.0000    12.0000 </r>
       <r>   -42.8833     0.0000    12.0000 </r>
       <r>   -42.6761     0.0000    12.0000 </r>
       <r>   -42.4689     0.0000    12.0000 </r>
       <r>   -42.2617     0.0000    12.0000 </r>
       <r>   -42.0545     0.0000    12.0000 </r>
       <r>   -41.8473     0.0000    12.0000 </r>
       <r>   -41.6401     0.0000    12.0000 </r>
       <r>   -41.4329     0.0000    12.0000 </r>
       <r>   -41.2257     0.0000    12.0000 </r>
       <r>   -41.0185     0.0000    12.0000 </r>
       <r>   -40.8113     0.0000    12.0000 </r>
       <r>   -40.6041     0.0000    12.0000 </r>
       <r>   -40.3969     0.0000    12.0000 </r>
       <r>   -40.1897     0.0000    12.0000 </r>
       <r>   -39.9825     0.0000    12.0000 </r>
       <r>   -39.7754     0.0000    12.0000 </r>
       <r>   -39.5682     0.0000    12.0000 </r>
       <r>   -39.3610     0.0000    12.0000 </r>
       <r>   -39.1538     0.0000    12.0000 </r>
       <r>   -38.9466     0.0000    12.0000 </r>
       <r>   -38.7394     0.0000    12.0000 </r>
       <r>   -38.5322     0.0000    12.0000 </r>
       <r>   -38.3250     0.0000    12.0000 </r>
       <r>   -38.1178     0.0000    12.0000 </r>
       <r>   -37.9106     0.0000    12.0000 </r>
       <r>   -37.7034     0.0000    12.0000 </r>
       <r>   -37.4962     0.0000    12.0000 </r>
       <r>   -37.2890     0.0000    12.0000 </r>
       <r>   -37.0818     0.0000    12.0000 </r>
       <r>   -36.8746     0.0000    12.0000 </r>
       <r>   -36.6675     0.0000    12.0000 </r>
       <r>   -36.4603     0.0000    12.0000 </r>
       <r>   -36.2531     0.0000    12.0000 </r>
       <r>   -36.0459     0.0000    12.0000 </r>
       <r>   -35.8387     0.0000    12.0000 </r>
       <r>   -35.6315     0.0000    12.0000 </r>
       <r>   -35.4243     0.0000    12.0000 </r>
       <r>   -35.2171     0.0000    12.0000 </r>
       <r>   -35.0099     0.0000    12.0000 </r>
       <r>   -34.8027     0.0000    12.0000 </r>
       <r>   -34.5955     0.0000    12.0000 </r>
       <r>   -34.3883     0.0000    12.0000 </r>
       <r>   -34.1811     0.0000    12.0000 </r>
       <r>   -33.9739     0.0000    12.0000 </r>
       <r>   -33.7667     0.0000    12.0000 </r>
       <r>   -33.5596     0.0000    12.0000 </r>
       <r>   -33.3524     0.0000    12.0000 </r>
       <r>   -33.1452     0.0000    12.0000 </r>
       <r>   -32.9380     0.0000    12.0000 </r>
       <r>   -32.7308     0.0000    12.0000 </r>
       <r>   -32.5236     0.0000    12.0000 </r>
       <r>   -32.3164     0.0000    12.0000 </r>
       <r>   -32.1092     0.0000    12.0000 </r>
       <r>   -31.9020     0.0000    12.0000 </r>
       <r>   -31.6948     0.0000    12.0000 </r>
       <r>   -31.4876     0.0000    12.0000 </r>
       <r>   -31.2804     0.0000    12.0000 </r>
       <r>   -31.0732     0.0000    12.0000 </r>
       <r>   -30.8660     0.0000    12.0000 </r>
       <r>   -30.6588     0.0000    12.0000 </r>
       <r>   -30.4517     0.0000    12.0000 </r>
       <r>   -30.2445     0.0000    12.0000 </r>
       <r>   -30.0373     0.0000    12.0000 </r>
       <r>   -29.8301     0.0000    12.0000 </r>
       <r>   -29.6229     0.0000    12.0000 </r>
       <r>   -29.4157     0.0000    12.0000 </r>
       <r>   -29.2085     0.0000    12.0000 </r>
       <r>   -29.0013     0.0000    12.0000 </r>
       <r>   -28.7941     0.0000    12.0000 </r>
       <r>   -28.5869     0.0000    12.0000 </r>
       <r>   -28.3797     0.0000    12.0000 </r>
       <r>   -28.1725     0.0000    12.0000 </r>
       <r>   -27.9653     0.0000    12.0000 </r>
       <r>   -27.7581     0.0000    12.0000 </r>
       <r>   -27.5510     0.0000    12.0000 </r>
       <r>   -27.3438     0.0000    12.0000 </r>
       <r>   -27.1366     0.0000    12.0000 </r>
       <r>   -26.9294     0.0000    12.0000 </r>
       <r>   -26.7222     0.0000    12.0000 </r>
       <r>   -26.5150     0.0000    12.0000 </r>
       <r>   -26.3078     0.0000    12.0000 </r>
       <r>   -26.1006     0.0000    12.0000 </r>
       <r>   -25.8934     0.0000    12.0000 </r>
       <r>   -25.6862    -0.0000    12.0000 </r>
       <r>   -25.4790    -0.0000    12.0000 </r>
       <r>   -25.2718    -0.0000    12.0000 </r>
       <r>   -25.0646    -0.0000    12.0000 </r>
       <r>   -24.8574    -0.0000    12.0000 </r>
       <r>   -24.6502    -0.0001    12.0000 </r>
       <r>   -24.4431    -0.0116    11.9976 </r>
       <r>   -24.2359    -0.2245    11.9511 </r>
       <r>   -24.0287     0.9548    12.1489 </r>
       <r>   -23.8215     9.3611    14.0884 </r>
       <r>   -23.6143    18.9689    18.0187 </r>
       <r>   -23.4071    48.6453    28.0977 </r>
       <r>   -23.1999    53.8141    39.2476 </r>
       <r>   -22.9927    23.7748    44.1736 </r>
       <r>   -22.7855    16.6363    47.6205 </r>
       <r>   -22.5783     2.2530    48.0873 </r>
       <r>   -22.3711    -0.3956    48.0053 </r>
       <r>   -22.1639    -0.0255    48.0000 </r>
       <r>   -21.9567    -0.0002    48.0000 </r>
       <r>   -21.7495    -0.0000    48.0000 </r>
       <r>   -21.5423    -0.0000    48.0000 </r>
       <r>   -21.3352     0.0000    48.0000 </r>
       <r>   -21.1280     0.0000    48.0000 </r>
       <r>   -20.9208     0.0000    48.0000 </r>
       <r>   -20.7136     0.0000    48.0000 </r>
       <r>   -20.5064     0.0000    48.0000 </r>
       <r>   -20.2992     0.0000    48.0000 </r>
       <r>   -20.0920     0.0000    48.0000 </r>
       <r>   -19.8848     0.0000    48.0000 </r>
       <r>   -19.6776     0.0000    48.0000 </r>
       <r>   -19.4704     0.0000    48.0000 </r>
       <r>   -19.2632     0.0000    48.0000 </r>
       <r>   -19.0560     0.0000    48.0000 </r>
       <r>   -18.8488     0.0000    48.0000 </r>
       <r>   -18.6416     0.0000    48.0000 </r>
       <r>   -18.4344     0.0000    48.0000 </r>
       <r>   -18.2273     0.0000    48.0000 </r>
       <r>   -18.0201     0.0000    48.0000 </r>
       <r>   -17.8129     0.0000    48.0000 </r>
       <r>   -17.6057     0.0000    48.0000 </r>
       <r>   -17.3985     0.0000    48.0000 </r>
       <r>   -17.1913     0.0000    48.0000 </r>
       <r>   -16.9841     0.0000    48.0000 </r>
       <r>   -16.7769     0.0000    48.0000 </r>
       <r>   -16.5697     0.0000    48.0000 </r>
       <r>   -16.3625     0.0000    48.0000 </r>
       <r>   -16.1553     0.0000    48.0000 </r>
       <r>   -15.9481     0.0000    48.0000 </r>
       <r>   -15.7409     0.0000    48.0000 </r>
       <r>   -15.5337     0.0000    48.0000 </r>
       <r>   -15.3265     0.0000    48.0000 </r>
       <r>   -15.1194     0.0000    48.0000 </r>
       <r>   -14.9122     0.0000    48.0000 </r>
       <r>   -14.7050     0.0000    48.0000 </r>
       <r>   -14.4978     0.0000    48.0000 </r>
       <r>   -14.2906     0.0000    48.0000 </r>
       <r>   -14.0834     0.0000    48.0000 </r>
       <r>   -13.8762     0.0000    48.0000 </r>
       <r>   -13.6690     0.0000    48.0000 </r>
       <r>   -13.4618     0.0000    48.0000 </r>
       <r>   -13.2546     0.0000    48.0000 </r>
       <r>   -13.0474     0.0000    48.0000 </r>
       <r>   -12.8402     0.0000    48.0000 </r>
       <r>   -12.6330     0.0000    48.0000 </r>
       <r>   -12.4258     0.0000    48.0000 </r>
       <r>   -12.2186     0.0000    48.0000 </r>
       <r>   -12.0115     0.0000    48.0000 </r>
       <r>   -11.8043     0.0000    48.0000 </r>
       <r>   -11.5971     0.0000    48.0000 </r>
       <r>   -11.3899     0.0000    48.0000 </r>
       <r>   -11.1827     0.0000    48.0000 </r>
       <r>   -10.9755     0.0000    48.0000 </r>
       <r>   -10.7683     0.0000    48.0000 </r>
       <r>   -10.5611     0.0000    48.0000 </r>
       <r>   -10.3539     0.0000    48.0000 </r>
       <r>   -10.1467     0.0000    48.0000 </r>
       <r>    -9.9395     0.0000    48.0000 </r>
       <r>    -9.7323     0.0000    48.0000 </r>
       <r>    -9.5251     0.0000    48.0000 </r>
       <r>    -9.3179     0.0000    48.0000 </r>
       <r>    -9.1107     0.0000    48.0000 </r>
       <r>    -8.9036     0.0000    48.0000 </r>
       <r>    -8.6964     0.0000    48.0000 </r>
       <r>    -8.4892     0.0000    48.0000 </r>
       <r>    -8.2820     0.0000    48.0000 </r>
       <r>    -8.0748     0.0000    48.0000 </r>
       <r>    -7.8676     0.0000    48.0000 </r>
       <r>    -7.6604     0.0000    48.0000 </r>
       <r>    -7.4532     0.0000    48.0000 </r>
       <r>    -7.2460     0.0000    48.0000 </r>
       <r>    -7.0388     0.0000    48.0000 </r>
       <r>    -6.8316     0.0000    48.0000 </r>
       <r>    -6.6244     0.0000    48.0000 </r>
       <r>    -6.4172     0.0000    48.0000 </r>
       <r>    -6.2100     0.0000    48.0000 </r>
       <r>    -6.0028     0.0000    48.0000 </r>
       <r>    -5.7957     0.0000    48.0000 </r>
       <r>    -5.5885     0.0000    48.0000 </r>
       <r>    -5.3813     0.0000    48.0000 </r>
       <r>    -5.1741     0.0000    48.0000 </r>
       <r>    -4.9669     0.0000    48.0000 </r>
       <r>    -4.7597     0.0000    48.0000 </r>
       <r>    -4.5525     0.0000    48.0000 </r>
       <r>    -4.3453     0.0000    48.0000 </r>
       <r>    -4.1381     0.0000    48.0000 </r>
       <r>    -3.9309     0.0000    48.0000 </r>
       <r>    -3.7237     0.0000    48.0000 </r>
       <r>    -3.5165     0.0000    48.0000 </r>
       <r>    -3.3093     0.0000    48.0000 </r>
       <r>    -3.1021     0.0000    48.0000 </r>
       <r>    -2.8949     0.0000    48.0000 </r>
       <r>    -2.6878     0.0000    48.0000 </r>
       <r>    -2.4806     0.0000    48.0000 </r>
       <r>    -2.2734    -0.0000    48.0000 </r>
       <r>    -2.0662    -0.0000    48.0000 </r>
       <r>    -1.8590    -0.0000    48.0000 </r>
       <r>    -1.6518    -0.0000    48.0000 </r>
       <r>    -1.4446    -0.0000    48.0000 </r>
       <r>    -1.2374    -0.0000    48.0000 </r>
       <r>    -1.0302    -0.0003    47.9999 </r>
       <r>    -0.8230    -0.0084    47.9982 </r>
       <r>    -0.6158     0.0157    48.0014 </r>
       <r>    -0.4086     0.3874    48.0817 </r>
       <r>    -0.2014     1.0789    48.3052 </r>
       <r>     0.0058     1.6398    48.6450 </r>
       <r>     0.2129     1.6660    48.9902 </r>
       <r>     0.4201     1.3154    49.2627 </r>
       <r>     0.6273     3.0194    49.8883 </r>
       <r>     0.8345     3.3301    50.5783 </r>
       <r>     1.0417     2.6760    51.1328 </r>
       <r>     1.2489     3.0820    51.7713 </r>
       <r>     1.4561     4.3098    52.6643 </r>
       <r>     1.6633     4.0464    53.5027 </r>
       <r>     1.8705     3.8795    54.3065 </r>
       <r>     2.0777     6.9383    55.7440 </r>
       <r>     2.2849    10.7360    57.9685 </r>
       <r>     2.4921    15.1606    61.1096 </r>
       <r>     2.6993    18.3100    64.9034 </r>
       <r>     2.9065    20.2032    69.0893 </r>
       <r>     3.1137    26.1909    74.5159 </r>
       <r>     3.3208    28.9049    80.5048 </r>
       <r>     3.5280    30.0906    86.7394 </r>
       <r>     3.7352    31.5652    93.2795 </r>
       <r>     3.9424    31.8840    99.8856 </r>
       <r>     4.1496    27.9710   105.6810 </r>
       <r>     4.3568    24.7207   110.8030 </r>
       <r>     4.5640    26.9572   116.3883 </r>
       <r>     4.7712    34.0958   123.4528 </r>
       <r>     4.9784    38.6709   131.4651 </r>
       <r>     5.1856    40.7962   139.9178 </r>
       <r>     5.3928    39.2801   148.0564 </r>
       <r>     5.6000    36.7327   155.6671 </r>
       <r>     5.8072    35.5537   163.0336 </r>
       <r>     6.0144    37.5167   170.8068 </r>
       <r>     6.2216    40.7228   179.2443 </r>
       <r>     6.4287    39.7609   187.4825 </r>
       <r>     6.6359    36.2356   194.9903 </r>
       <r>     6.8431    32.3448   201.6919 </r>
       <r>     7.0503    26.0808   207.0957 </r>
       <r>     7.2575    20.1369   211.2679 </r>
       <r>     7.4647    17.9640   214.9899 </r>
       <r>     7.6719    16.5650   218.4221 </r>
       <r>     7.8791    16.0888   221.7556 </r>
       <r>     8.0863    18.3357   225.5546 </r>
       <r>     8.2935    19.3425   229.5622 </r>
       <r>     8.5007    19.6967   233.6433 </r>
       <r>     8.7079    15.8003   236.9170 </r>
       <r>     8.9151     9.4746   238.8801 </r>
       <r>     9.1223     4.5704   239.8270 </r>
       <r>     9.3295     0.9341   240.0205 </r>
       <r>     9.5366    -0.0841   240.0031 </r>
       <r>     9.7438    -0.0149   240.0000 </r>
       <r>     9.9510    -0.0002   240.0000 </r>
       <r>    10.1582    -0.0000   240.0000 </r>
       <r>    10.3654    -0.0000   240.0000 </r>
       <r>    10.5726    -0.0000   240.0000 </r>
       <r>    10.7798     0.0000   240.0000 </r>
       <r>    10.9870     0.0000   240.0000 </r>
       <r>    11.1942     0.0000   240.0000 </r>
       <r>    11.4014     0.0000   240.0000 </r>
       <r>    11.6086     0.0000   240.0000 </r>
       <r>    11.8158     0.0000   240.0000 </r>
       <r>    12.0230     0.0000   240.0000 </r>
      </set>
     </set>
    </array>
   </total>
  </dos>
 </calculation>
 <structure name="finalpos" >
  <crystal>
   <varray name="basis" >
    <v>      -3.20462950      -3.19052191      -3.19444248 </v>
    <v>       1.56194587       1.59692385      -7.94757755 </v>
    <v>       7.86186393      -7.86831491      -1.55556628 </v>
   </varray>
   <i name="volume">    479.32464003 </i>
   <varray name="rec_basis" >
    <v>      -0.13564536      -0.12528683      -0.05183268 </v>
    <v>       0.04208382       0.06279520      -0.10493615 </v>
    <v>       0.06354399      -0.06354480      -0.00027982 </v>
   </varray>
  </crystal>
  <varray name="positions" >
   <v>       0.95414236       0.93482705       0.39565837 </v>
   <v>       0.63234179       0.26813476       0.40047274 </v>
   <v>       0.49474835      -0.00701604       0.01033013 </v>
   <v>      -0.00559593       0.00072204       0.00463373 </v>
   <v>       0.09900393       0.20294458       0.80062345 </v>
   <v>       0.04102967       0.06599831       0.59597403 </v>
   <v>       0.90217696       0.79604503       0.20349664 </v>
   <v>       0.80949072       0.59344204       0.39608746 </v>
   <v>       0.72652546       0.47524327       0.19966155 </v>
   <v>       0.66283176       0.34015279      -0.00123618 </v>
   <v>       0.37048440       0.72702535       0.59671924 </v>
   <v>       0.13308735       0.27187627       0.39821319 </v>
   <v>       0.83489949       0.66372466       0.00414841 </v>
   <v>       0.92763636       0.87000888       0.80111068 </v>
   <v>       0.57437457       0.14256027       0.19791591 </v>
   <v>       0.43630588       0.85729054       0.79889903 </v>
   <v>       0.30531201       0.61022037       0.39201138 </v>
   <v>       0.86088033       0.73224223       0.59520706 </v>
   <v>       0.46836552       0.92381422       0.39935363 </v>
   <v>       0.17168064       0.33453467       0.00618501 </v>
   <v>       0.26872042       0.53262558       0.79531939 </v>
   <v>       0.19795010       0.39369017       0.59470464 </v>
   <v>       0.07972688       0.13156640       0.20922195 </v>
   <v>       0.76742053       0.52791265       0.80064939 </v>
   <v>       0.69014342       0.40865523       0.60016783 </v>
   <v>       0.59629853       0.20144226       0.79777070 </v>
   <v>       0.53766243       0.06723061       0.60182806 </v>
   <v>       0.33169528       0.66254626       0.00597661 </v>
   <v>       0.23066079       0.47053954       0.19889596 </v>
  </varray>
 </structure>
</modeling>
