SQS with 1 vacancy for VFE and VRV      
           1
    -3.190000   -3.190000   -3.190000
     1.595000    1.595000   -7.975000
     7.975000   -7.975000   -1.595000
   Nb   Mo   Ta   Ti   W 
   6   6   5   6   6
Direct configuration=     1
   0.96666667  0.93333333  0.40000000
   0.63333333  0.26666667  0.40000000
   0.50000000  0.00000000  0.00000000
   0.00000000  0.00000000  0.00000000
   0.10000000  0.20000000  0.80000000
   0.03333333  0.06666667  0.60000000
   0.90000000  0.80000000  0.20000000
   0.80000000  0.60000000  0.40000000
   0.73333333  0.46666667  0.20000000
   0.66666667  0.33333333  0.00000000
   0.36666667  0.73333333  0.60000000
   0.13333333  0.26666667  0.40000000
   0.83333333  0.66666667  0.00000000
   0.93333333  0.86666667  0.80000000
   0.56666667  0.13333333  0.20000000
   0.43333333  0.86666667  0.80000000
   0.30000000  0.60000000  0.40000000
   0.86666667  0.73333333  0.60000000
   0.46666667  0.93333333  0.40000000
   0.16666667  0.33333333  0.00000000
   0.26666667  0.53333333  0.80000000
   0.20000000  0.40000000  0.60000000
   0.06666667  0.13333333  0.20000000
   0.76666667  0.53333333  0.80000000
   0.70000000  0.40000000  0.60000000
   0.60000000  0.20000000  0.80000000
   0.53333333  0.06666667  0.60000000
   0.33333333  0.66666667  0.00000000
   0.23333333  0.46666667  0.20000000
SQS with 1 vacancy for VFE and VRV      
           1
    -3.147959   -3.142626   -3.148848
     1.546450    1.573567   -7.846844
     7.812530   -7.828230   -1.545392
   Nb   Mo   Ta   Ti   W 
   6   6   5   6   6
Direct configuration=     2
   0.96205053  0.93372904  0.39800649
   0.63284114  0.26558744  0.40037225
   0.49940373 -0.00161913  0.00280687
  -0.00209150  0.00026024  0.00151408
   0.09841613  0.20392335  0.79943965
   0.03752577  0.06641440  0.59763689
   0.90286759  0.79683680  0.20192864
   0.80477897  0.59561880  0.39834920
   0.73048094  0.46969901  0.19961866
   0.66437770  0.33704699 -0.00036092
   0.36917499  0.73036321  0.59948924
   0.13256363  0.27005948  0.39879314
   0.83470182  0.66430660  0.00226782
   0.93077652  0.86855619  0.80055428
   0.56959109  0.13560329  0.19774084
   0.43728865  0.86120464  0.79797739
   0.30020592  0.60409344  0.39806053
   0.86352916  0.73346036  0.59845193
   0.46795207  0.92985898  0.40149028
   0.16861185  0.33412232  0.00200446
   0.26907794  0.53332103  0.79873593
   0.20075204  0.39617908  0.59973713
   0.06687536  0.13301260  0.20201803
   0.76678602  0.53007377  0.80042726
   0.69489526  0.40626502  0.60168748
   0.59805588  0.20232422  0.79770418
   0.53506704  0.06818179  0.60153447
   0.33292596  0.66295218  0.00279342
   0.23051780  0.46856483  0.19922038
SQS with 1 vacancy for VFE and VRV      
           1
    -3.166376   -3.163379   -3.166875
     1.567718    1.582956   -7.902986
     7.883703   -7.892525   -1.567124
   Nb   Mo   Ta   Ti   W 
   6   6   5   6   6
Direct configuration=     3
   0.96410051  0.93355435  0.39889745
   0.63305869  0.26606772  0.40020686
   0.49966808 -0.00090139  0.00155429
  -0.00116141  0.00014198  0.00083781
   0.09912400  0.20217573  0.79968719
   0.03566203  0.06653058  0.59869213
   0.90159105  0.79824426  0.20106906
   0.80265021  0.59757381  0.39908933
   0.73175134  0.46834791  0.19978711
   0.66539863  0.33539241 -0.00020220
   0.36805707  0.73168765  0.59971933
   0.13290891  0.26854921  0.39932978
   0.83409229  0.66535552  0.00125632
   0.93191474  0.86771314  0.80030559
   0.56829360  0.13459534  0.19874789
   0.43552431  0.86364151  0.79888458
   0.30011829  0.60227212  0.39892377
   0.86492223  0.73340511  0.59914388
   0.46737776  0.93140532  0.40082701
   0.16774970  0.33376864  0.00110810
   0.26800622  0.53332857  0.79930028
   0.20041339  0.39788194  0.59985740
   0.06678327  0.13315300  0.20111673
   0.76672940  0.53152553  0.80023889
   0.69717095  0.40347058  0.60092956
   0.59892105  0.20129120  0.79872830
   0.53429944  0.06750514  0.60084754
   0.33310394  0.66460354  0.00154844
   0.23177030  0.46771956  0.19956762
SQS with 1 vacancy for VFE and VRV      
           1
    -3.192225   -3.182932   -3.192074
     1.550177    1.595242   -7.938034
     7.881378   -7.906604   -1.547587
   Nb   Mo   Ta   Ti   W 
   6   6   5   6   6
Direct configuration=     4
   0.95898970  0.93405259  0.39622899
   0.63221152  0.26524027  0.40042773
   0.49830723 -0.00335952  0.00533340
  -0.00311673  0.00062305  0.00270669
   0.09785679  0.20611504  0.79925437
   0.04059726  0.06638125  0.59589920
   0.90462191  0.79471379  0.20344699
   0.80767700  0.59291341  0.39718842
   0.72764389  0.47252726  0.19945156
   0.66278618  0.33951283 -0.00056799
   0.37104263  0.72809269  0.59893694
   0.13203813  0.27223173  0.39802543
   0.83536187  0.66298405  0.00406156
   0.92962921  0.86954661  0.80093533
   0.57102774  0.13694754  0.19643559
   0.43928235  0.85779314  0.79696684
   0.30117856  0.60730835  0.39619947
   0.86153244  0.73340615  0.59705123
   0.46877749  0.92684284  0.40215764
   0.17009528  0.33467279  0.00366407
   0.27036060  0.53318899  0.79757702
   0.20064797  0.39400683  0.59921758
   0.06823427  0.13222348  0.20366541
   0.76727487  0.52807263  0.80074427
   0.69133877  0.41056247  0.60239591
   0.59648494  0.20392937  0.79638578
   0.53645703  0.06901910  0.60227945
   0.33277396  0.66066409  0.00516476
   0.22888714  0.46978719  0.19876638
SQS with 1 vacancy for VFE and VRV      
           1
    -3.193683   -3.184036   -3.193496
     1.549187    1.595935   -7.940011
     7.881247   -7.907399   -1.546484
   Nb   Mo   Ta   Ti   W 
   6   6   5   6   6
Direct configuration=     5
   0.95870352  0.93408024  0.39607848
   0.63216418  0.26519380  0.40044008
   0.49823115 -0.00349703  0.00554618
  -0.00322643  0.00065045  0.00281207
   0.09778525  0.20633644  0.79923035
   0.04087388  0.06637229  0.59574182
   0.90479207  0.79451568  0.20358075
   0.80795937  0.59265101  0.39708086
   0.72741321  0.47276221  0.19943299
   0.66263925  0.33974444 -0.00058823
   0.37121045  0.72789041  0.59889252
   0.13198888  0.27243853  0.39795226
   0.83543317  0.66285120  0.00421950
   0.92950087  0.86964982  0.80097098
   0.57118067  0.13707933  0.19630553
   0.43949384  0.85746399  0.79685817
   0.30123736  0.60759097  0.39604643
   0.86134270  0.73340591  0.59693316
   0.46885649  0.92658656  0.40223221
   0.17022637  0.33472401  0.00380833
   0.27049260  0.53318080  0.79747990
   0.20066173  0.39378889  0.59918110
   0.06831553  0.13217164  0.20380904
   0.76730591  0.52787860  0.80077241
   0.69101094  0.41096149  0.60247921
   0.59634823  0.20407732  0.79625393
   0.53657757  0.06910441  0.60236039
   0.33275585  0.66044327  0.00536823
   0.22872538  0.46990333  0.19872136
SQS with 1 vacancy for VFE and VRV      
           1
    -3.202637   -3.190832   -3.197024
     1.554174    1.599048   -7.949133
     7.889897   -7.910029   -1.548952
   Nb   Mo   Ta   Ti   W 
   6   6   5   6   6
Direct configuration=     6
   0.95749501  0.93420813  0.39560087
   0.63135429  0.26649649  0.40016756
   0.49776314 -0.00475028  0.00604261
  -0.00367900  0.00063558  0.00280041
   0.09863818  0.20503728  0.79965451
   0.04117330  0.06686035  0.59554157
   0.90439443  0.79456741  0.20368967
   0.80795752  0.59262355  0.39710961
   0.72611611  0.47331509  0.19975957
   0.66253755  0.33967927 -0.00073304
   0.37095340  0.72782941  0.59824212
   0.13210113  0.27218384  0.39792410
   0.83453864  0.66377358  0.00421126
   0.92949953  0.87002155  0.80125088
   0.57105051  0.13810076  0.19666928
   0.43847296  0.85776806  0.79785155
   0.30316780  0.60756229  0.39521326
   0.86132738  0.73331805  0.59636596
   0.46914938  0.92554885  0.40199113
   0.17070016  0.33471814  0.00451239
   0.26977587  0.53323129  0.79710950
   0.19973819  0.39417965  0.59794229
   0.07015906  0.13215089  0.20466101
   0.76795464  0.52862202  0.80112390
   0.69103059  0.41023821  0.60148568
   0.59678345  0.20327639  0.79677005
   0.53735498  0.06863397  0.60198032
   0.33264418  0.66085722  0.00568960
   0.22984760  0.46931296  0.19937238
SQS with 1 vacancy for VFE and VRV      
           1
    -3.206945   -3.194102   -3.198721
     1.556573    1.600545   -7.953521
     7.894058   -7.911295   -1.550139
   Nb   Mo   Ta   Ti   W 
   6   6   5   6   6
Direct configuration=     7
   0.95691486  0.93426941  0.39537120
   0.63096587  0.26712217  0.40003643
   0.49753833 -0.00535252  0.00628128
  -0.00389622  0.00062835  0.00279478
   0.09904732  0.20441327  0.79985853
   0.04131708  0.06709491  0.59544530
   0.90420363  0.79459215  0.20374200
   0.80795664  0.59261034  0.39712342
   0.72549384  0.47358034  0.19991644
   0.66248867  0.33964798 -0.00080265
   0.37082979  0.72780020  0.59792947
   0.13215492  0.27206152  0.39791058
   0.83410958  0.66421649  0.00420719
   0.92949909  0.87020006  0.80138541
   0.57098846  0.13859132  0.19684407
   0.43798342  0.85791369  0.79832897
   0.30409402  0.60754910  0.39481290
   0.86131981  0.73327597  0.59609332
   0.46928958  0.92505047  0.40187532
   0.17092780  0.33471526  0.00485086
   0.26943177  0.53325548  0.79693140
   0.19929461  0.39436744  0.59734673
   0.07104415  0.13214112  0.20507066
   0.76826634  0.52897919  0.80129285
   0.69103947  0.40989099  0.60100814
   0.59699229  0.20289162  0.79701822
   0.53772783  0.06840822  0.60179770
   0.33259081  0.66105598  0.00584405
   0.23038627  0.46902945  0.19968543
SQS with 1 vacancy for VFE and VRV      
           1
    -3.205147   -3.191125   -3.193909
     1.556406    1.598590   -7.941801
     7.879684   -7.892979   -1.548761
   Nb   Mo   Ta   Ti   W 
   6   6   5   6   6
Direct configuration=     8
   0.95608641  0.93436289  0.39509583
   0.63066088  0.26780083  0.39990066
   0.49713330 -0.00604461  0.00674635
  -0.00431356  0.00061095  0.00292995
   0.09948753  0.20374717  0.80011696
   0.04148635  0.06730785  0.59533324
   0.90388949  0.79465303  0.20376668
   0.80814498  0.59263528  0.39709049
   0.72479918  0.47393329  0.20011164
   0.66245927  0.33967040 -0.00090859
   0.37072739  0.72772942  0.59753069
   0.13221895  0.27189269  0.39787207
   0.83378350  0.66460347  0.00427542
   0.92930702  0.87044094  0.80148015
   0.57110386  0.13932324  0.19708330
   0.43748388  0.85801673  0.79884634
   0.30519940  0.60772656  0.39420198
   0.86125506  0.73321878  0.59573420
   0.46941705  0.92433549  0.40166507
   0.17123117  0.33473137  0.00535108
   0.26911205  0.53328291  0.79665538
   0.19870426  0.39452556  0.59648372
   0.07237483  0.13214288  0.20576943
   0.76850831  0.52924547  0.80144760
   0.69099465  0.40944898  0.60049089
   0.59725852  0.20240887  0.79727130
   0.53816807  0.06813134  0.60161404
   0.33244288  0.66131453  0.00606099
   0.23087532  0.46880372  0.19998313
SQS with 1 vacancy for VFE and VRV      
           1
    -3.204328   -3.189770   -3.191718
     1.556329    1.597700   -7.936463
     7.873138   -7.884638   -1.548133
   Nb   Mo   Ta   Ti   W 
   6   6   5   6   6
Direct configuration=     9
   0.95570874  0.93440547  0.39497013
   0.63052194  0.26811032  0.39983865
   0.49694866 -0.00636038  0.00695862
  -0.00450378  0.00060294  0.00299163
   0.09968814  0.20344338  0.80023496
   0.04156352  0.06740500  0.59528209
   0.90374630  0.79468075  0.20377794
   0.80823083  0.59264668  0.39707547
   0.72448263  0.47409415  0.20020069
   0.66244586  0.33968064 -0.00095694
   0.37068062  0.72769721  0.59734869
   0.13224810  0.27181571  0.39785450
   0.83363494  0.66477991  0.00430652
   0.92921953  0.87055075  0.80152336
   0.57115663  0.13965700  0.19719245
   0.43725629  0.85806357  0.79908244
   0.30570317  0.60780772  0.39392319
   0.86122547  0.73319275  0.59557030
   0.46947501  0.92400947  0.40156915
   0.17136956  0.33473865  0.00557938
   0.26896626  0.53329544  0.79652940
   0.19843503  0.39459776  0.59608983
   0.07298153  0.13214370  0.20608838
   0.76861868  0.52936691  0.80151822
   0.69097405  0.40924749  0.60025485
   0.59737985  0.20218869  0.79738684
   0.53836867  0.06800515  0.60153025
   0.33237553  0.66143239  0.00615998
   0.23109826  0.46870078  0.20011901
SQS with 1 vacancy for VFE and VRV      
           1
    -3.204395   -3.189973   -3.191949
     1.557171    1.597726   -7.937773
     7.870143   -7.881133   -1.549079
   Nb   Mo   Ta   Ti   W 
   6   6   5   6   6
Direct configuration=    10
   0.95554635  0.93444631  0.39495158
   0.63078407  0.26798158  0.39986866
   0.49662737 -0.00634390  0.00736854
  -0.00469051  0.00062177  0.00326022
   0.09965317  0.20355826  0.80027651
   0.04160144  0.06727271  0.59527551
   0.90355384  0.79478635  0.20372651
   0.80850017  0.59276766  0.39699083
   0.72457609  0.47420732  0.20019171
   0.66252618  0.33974077 -0.00097548
   0.37071074  0.72766076  0.59730896
   0.13230113  0.27173449  0.39783526
   0.83390354  0.66453317  0.00446929
   0.92906086  0.87052375  0.80139353
   0.57143161  0.13986364  0.19721846
   0.43728624  0.85797451  0.79902032
   0.30567320  0.60817542  0.39367234
   0.86117342  0.73315764  0.59550269
   0.46937201  0.92378121  0.40138763
   0.17140905  0.33475533  0.00571120
   0.26907410  0.53326972  0.79639161
   0.19831186  0.39453404  0.59587302
   0.07351805  0.13210222  0.20642314
   0.76845704  0.52912335  0.80143430
   0.69088164  0.40919403  0.60031107
   0.59732159  0.20220498  0.79735811
   0.53833892  0.06796689  0.60154321
   0.33225602  0.66153542  0.00623481
   0.23084081  0.46887062  0.19997643
SQS with 1 vacancy for VFE and VRV      
           1
    -3.204596   -3.190584   -3.192641
     1.559696    1.597805   -7.941704
     7.861157   -7.870616   -1.551918
   Nb   Mo   Ta   Ti   W 
   6   6   5   6   6
Direct configuration=    11
   0.95505921  0.93456882  0.39489592
   0.63157042  0.26759538  0.39995872
   0.49566353 -0.00629471  0.00859879
  -0.00525066  0.00067810  0.00406633
   0.09954827  0.20390281  0.80040122
   0.04171518  0.06687590  0.59525578
   0.90297649  0.79510312  0.20357217
   0.80930818  0.59313056  0.39673679
   0.72485650  0.47454677  0.20016473
   0.66276716  0.33992114 -0.00103113
   0.37080108  0.72755147  0.59718971
   0.13246020  0.27149090  0.39777751
   0.83470926  0.66379296  0.00495781
   0.92858486  0.87044284  0.80100389
   0.57225653  0.14048342  0.19729651
   0.43737610  0.85770742  0.79883390
   0.30558335  0.60927846  0.39291942
   0.86101728  0.73305234  0.59529979
   0.46906298  0.92309669  0.40084288
   0.17152750  0.33480526  0.00610685
   0.26939759  0.53319264  0.79597808
   0.19794240  0.39434306  0.59522232
   0.07512753  0.13197760  0.20742783
   0.76797211  0.52839284  0.80118247
   0.69060442  0.40903363  0.60047982
   0.59714684  0.20225386  0.79727191
   0.53824966  0.06785214  0.60158212
   0.33189751  0.66184443  0.00645939
   0.23006853  0.46938014  0.19954850
SQS with 1 vacancy for VFE and VRV      
           1
    -3.206663   -3.193005   -3.195342
     1.561090    1.598808   -7.948606
     7.868004   -7.877843   -1.553761
   Nb   Mo   Ta   Ti   W 
   6   6   5   6   6
Direct configuration=    12
   0.95501688  0.93455098  0.39499794
   0.63159806  0.26766400  0.40000682
   0.49552821 -0.00633375  0.00892801
  -0.00534049  0.00063283  0.00416113
   0.09944732  0.20393531  0.80041618
   0.04168420  0.06672714  0.59533490
   0.90271465  0.79531652  0.20355280
   0.80924569  0.59320069  0.39666642
   0.72510883  0.47455651  0.20014288
   0.66278421  0.33997487 -0.00101158
   0.37081790  0.72750906  0.59716443
   0.13265991  0.27147999  0.39783897
   0.83470198  0.66379264  0.00475152
   0.92851947  0.87033113  0.80108179
   0.57255670  0.14067901  0.19733447
   0.43733245  0.85759856  0.79881795
   0.30555920  0.60947687  0.39273167
   0.86103688  0.73293193  0.59527113
   0.46894577  0.92309206  0.40061946
   0.17151072  0.33477908  0.00607297
   0.26937856  0.53314101  0.79587888
   0.19798444  0.39423557  0.59513063
   0.07568783  0.13192388  0.20769895
   0.76785909  0.52826457  0.80110691
   0.69050791  0.40904468  0.60048683
   0.59703535  0.20221506  0.79729782
   0.53807758  0.06777805  0.60160225
   0.33192007  0.66199816  0.00641972
   0.23012062  0.46950360  0.19949813
SQS with 1 vacancy for VFE and VRV      
           1
    -3.206648   -3.192988   -3.195323
     1.561080    1.598801   -7.948556
     7.867955   -7.877791   -1.553748
   Nb   Mo   Ta   Ti   W 
   6   6   5   6   6
Direct configuration=    13
   0.95501718  0.93455111  0.39499721
   0.63159786  0.26766351  0.40000648
   0.49552918 -0.00633347  0.00892565
  -0.00533985  0.00063315  0.00416045
   0.09944804  0.20393508  0.80041607
   0.04168443  0.06672820  0.59533433
   0.90271653  0.79531499  0.20355294
   0.80924614  0.59320018  0.39666693
   0.72510702  0.47455644  0.20014304
   0.66278409  0.33997449 -0.00101172
   0.37081778  0.72750936  0.59716461
   0.13265848  0.27148007  0.39783853
   0.83470203  0.66379264  0.00475300
   0.92851994  0.87033193  0.80108123
   0.57255454  0.14067760  0.19733420
   0.43733277  0.85759934  0.79881806
   0.30555937  0.60947544  0.39273302
   0.86103674  0.73293280  0.59527134
   0.46894662  0.92309209  0.40062106
   0.17151084  0.33477927  0.00607321
   0.26937869  0.53314138  0.79587959
   0.19798414  0.39423634  0.59513129
   0.07568381  0.13192427  0.20769700
   0.76785990  0.52826549  0.80110746
   0.69050861  0.40904460  0.60048678
   0.59703615  0.20221534  0.79729764
   0.53807882  0.06777858  0.60160211
   0.33191991  0.66199705  0.00642001
   0.23012024  0.46950271  0.19949849
SQS with 1 vacancy for VFE and VRV      
           1
    -3.205984   -3.192694   -3.195280
     1.561298    1.598373   -7.948711
     7.867871   -7.877889   -1.554455
   Nb   Mo   Ta   Ti   W 
   6   6   5   6   6
Direct configuration=    14
   0.95494598  0.93454489  0.39511950
   0.63161241  0.26777623  0.40006836
   0.49541812 -0.00639616  0.00924944
  -0.00544203  0.00058710  0.00423904
   0.09932743  0.20392460  0.80042248
   0.04162123  0.06656910  0.59544187
   0.90246942  0.79552998  0.20353879
   0.80917114  0.59322961  0.39658887
   0.72541566  0.47454885  0.20010984
   0.66277496  0.34004174 -0.00099834
   0.37083553  0.72744317  0.59713019
   0.13285223  0.27151123  0.39790946
   0.83467248  0.66383009  0.00450547
   0.92840093  0.87024018  0.80117491
   0.57291904  0.14093497  0.19738968
   0.43728079  0.85749377  0.79878889
   0.30554157  0.60961179  0.39256257
   0.86105486  0.73278764  0.59524681
   0.46883032  0.92315161  0.40039151
   0.17150070  0.33473187  0.00603882
   0.26933800  0.53308121  0.79576313
   0.19804489  0.39410592  0.59504474
   0.07627945  0.13188247  0.20798280
   0.76774666  0.52815277  0.80103045
   0.69039878  0.40906412  0.60047840
   0.59692120  0.20213471  0.79732720
   0.53788888  0.06770758  0.60164647
   0.33195254  0.66213728  0.00635726
   0.23022682  0.46964166  0.19945140
SQS with 1 vacancy for VFE and VRV      
           1
    -3.203993   -3.191814   -3.195150
     1.561953    1.597088   -7.949174
     7.867618   -7.878184   -1.556575
   Nb   Mo   Ta   Ti   W 
   6   6   5   6   6
Direct configuration=    15
   0.95473234  0.93452623  0.39548639
   0.63165604  0.26811438  0.40025398
   0.49508486 -0.00658427  0.01022083
  -0.00574864  0.00044894  0.00447481
   0.09896554  0.20389317  0.80044171
   0.04143163  0.06609178  0.59576452
   0.90172798  0.79617500  0.20349633
   0.80894615  0.59331790  0.39635472
   0.72634173  0.47452605  0.20001021
   0.66274758  0.34024349 -0.00095820
   0.37088879  0.72724460  0.59702693
   0.13343352  0.27160470  0.39812223
   0.83458384  0.66394250  0.00376286
   0.92804384  0.86996492  0.80145595
   0.57401264  0.14170701  0.19755605
   0.43712485  0.85717705  0.79870139
   0.30548819  0.61002087  0.39205121
   0.86110926  0.73235219  0.59517323
   0.46848143  0.92333024  0.39970288
   0.17147030  0.33458968  0.00593566
   0.26921594  0.53290073  0.79541373
   0.19822720  0.39371467  0.59478508
   0.07806655  0.13175694  0.20884016
   0.76740690  0.52781462  0.80079946
   0.69006924  0.40912270  0.60045326
   0.59657629  0.20189283  0.79741592
   0.53731899  0.06749458  0.60177958
   0.33205043  0.66255795  0.00616901
   0.23054659  0.47005851  0.19931009
SQS with 1 vacancy for VFE and VRV      
           1
    -3.202449   -3.189819   -3.193268
     1.561122    1.596260   -7.944584
     7.861602   -7.871225   -1.555459
   Nb   Mo   Ta   Ti   W 
   6   6   5   6   6
Direct configuration=    16
   0.95456429  0.93460732  0.39554235
   0.63186491  0.26810611  0.40032245
   0.49497530 -0.00669424  0.01026315
  -0.00571753  0.00052406  0.00452691
   0.09896971  0.20363953  0.80049161
   0.04130694  0.06605859  0.59583006
   0.90181622  0.79614805  0.20350060
   0.80909624  0.59333953  0.39627808
   0.72643888  0.47470338  0.19991145
   0.66275413  0.34023312 -0.00103049
   0.37079592  0.72717307  0.59693871
   0.13333578  0.27168339  0.39814402
   0.83468333  0.66387414  0.00385008
   0.92794474  0.86997547  0.80137165
   0.57412165  0.14198220  0.19766666
   0.43690329  0.85719221  0.79875308
   0.30543012  0.61007902  0.39201906
   0.86105008  0.73231999  0.59517858
   0.46843819  0.92347033  0.39959332
   0.17152105  0.33457766  0.00601048
   0.26908888  0.53282537  0.79538659
   0.19816862  0.39369012  0.59475087
   0.07855139  0.13171117  0.20896951
   0.76740153  0.52783526  0.80075186
   0.69007265  0.40900919  0.60037705
   0.59649375  0.20176453  0.79750764
   0.53741237  0.06741598  0.60180078
   0.33194907  0.66255539  0.00611666
   0.23056852  0.47020008  0.19917724
SQS with 1 vacancy for VFE and VRV      
           1
    -3.202694   -3.190135   -3.193567
     1.561254    1.596392   -7.945313
     7.862558   -7.872331   -1.555636
   Nb   Mo   Ta   Ti   W 
   6   6   5   6   6
Direct configuration=    17
   0.95459099  0.93459443  0.39553346
   0.63183171  0.26810743  0.40031157
   0.49499271 -0.00667676  0.01025643
  -0.00572248  0.00051212  0.00451863
   0.09896904  0.20367983  0.80048368
   0.04132675  0.06606386  0.59581964
   0.90180220  0.79615233  0.20349992
   0.80907239  0.59333609  0.39629026
   0.72642345  0.47467520  0.19992715
   0.66275309  0.34023477 -0.00101900
   0.37081068  0.72718443  0.59695273
   0.13335131  0.27167088  0.39814056
   0.83466752  0.66388500  0.00383622
   0.92796049  0.86997379  0.80138505
   0.57410432  0.14193847  0.19764908
   0.43693850  0.85718980  0.79874486
   0.30543935  0.61006978  0.39202417
   0.86105949  0.73232511  0.59517773
   0.46844506  0.92344807  0.39961073
   0.17151299  0.33457957  0.00599859
   0.26910907  0.53283735  0.79539091
   0.19817793  0.39369402  0.59475631
   0.07847434  0.13171844  0.20894895
   0.76740239  0.52783198  0.80075942
   0.69007211  0.40902723  0.60038917
   0.59650686  0.20178492  0.79749306
   0.53739753  0.06742847  0.60179741
   0.33196518  0.66255580  0.00612498
   0.23056503  0.47017758  0.19919835
SQS with 1 vacancy for VFE and VRV      
           1
    -3.203410   -3.190278   -3.193891
     1.561510    1.596589   -7.946151
     7.862301   -7.870845   -1.555610
   Nb   Mo   Ta   Ti   W 
   6   6   5   6   6
Direct configuration=    18
   0.95442505  0.93468047  0.39557966
   0.63202037  0.26811754  0.40037117
   0.49490232 -0.00680225  0.01028369
  -0.00567568  0.00058977  0.00456120
   0.09898194  0.20340789  0.80053537
   0.04121686  0.06603962  0.59587674
   0.90194082  0.79611264  0.20349870
   0.80922713  0.59337528  0.39621526
   0.72646119  0.47488531  0.19982892
   0.66278219  0.34020444 -0.00109932
   0.37069001  0.72712559  0.59686638
   0.13325367  0.27174685  0.39816742
   0.83475331  0.66382570  0.00395167
   0.92784061  0.86998677  0.80128358
   0.57420427  0.14216846  0.19774776
   0.43670450  0.85722707  0.79880188
   0.30539225  0.61012548  0.39201944
   0.86099322  0.73229445  0.59518858
   0.46841565  0.92358349  0.39951565
   0.17157499  0.33456297  0.00606753
   0.26896532  0.53275902  0.79536446
   0.19809366  0.39369260  0.59473720
   0.07893762  0.13166221  0.20904990
   0.76740910  0.52786181  0.80071873
   0.69009850  0.40888963  0.60030731
   0.59642980  0.20165818  0.79759574
   0.53749551  0.06735529  0.60180874
   0.33186536  0.66255227  0.00607011
   0.23060046  0.47031146  0.19908652
SQS with 1 vacancy for VFE and VRV      
           1
    -3.204630   -3.190522   -3.194442
     1.561946    1.596924   -7.947578
     7.861864   -7.868315   -1.555566
   Nb   Mo   Ta   Ti   W 
   6   6   5   6   6
Direct configuration=    19
   0.95414236  0.93482705  0.39565837
   0.63234179  0.26813476  0.40047274
   0.49474835 -0.00701604  0.01033013
  -0.00559593  0.00072204  0.00463373
   0.09900393  0.20294458  0.80062345
   0.04102967  0.06599831  0.59597403
   0.90217696  0.79604503  0.20349664
   0.80949072  0.59344204  0.39608746
   0.72652546  0.47524327  0.19966155
   0.66283176  0.34015279 -0.00123618
   0.37048440  0.72702535  0.59671924
   0.13308735  0.27187627  0.39821319
   0.83489949  0.66372466  0.00414841
   0.92763636  0.87000888  0.80111068
   0.57437457  0.14256027  0.19791591
   0.43630588  0.85729054  0.79889903
   0.30531201  0.61022037  0.39201138
   0.86088033  0.73224223  0.59520706
   0.46836552  0.92381422  0.39935363
   0.17168064  0.33453467  0.00618501
   0.26872042  0.53262558  0.79531939
   0.19795010  0.39369017  0.59470464
   0.07972688  0.13156640  0.20922195
   0.76742053  0.52791265  0.80064939
   0.69014342  0.40865523  0.60016783
   0.59629853  0.20144226  0.79777070
   0.53766243  0.06723061  0.60182806
   0.33169528  0.66254626  0.00597661
   0.23066079  0.47053954  0.19889596
