  29  29   0   0
  0.1632129E+02  0.5473281E-09  0.8209921E-09  0.1128346E-08  0.5000000E-15
  1.000000000000000E-004
  CAR 
 Nb - Mo - Ta - Ti - V SQS               
     11.73338395    -50.33694506  301      6.73619741      1.00000000
    -50.337  0.0000E+00  0.0000E+00
    -50.130  0.0000E+00  0.0000E+00
    -49.923  0.0000E+00  0.0000E+00
    -49.716  0.0000E+00  0.0000E+00
    -49.509  0.0000E+00  0.0000E+00
    -49.302 -0.1008E-34 -0.2086E-35
    -49.096 -0.3290E-27 -0.6808E-28
    -48.889 -0.1241E-20 -0.2568E-21
    -48.682 -0.5299E-15 -0.1096E-15
    -48.475 -0.2591E-10 -0.5361E-11
    -48.268 -0.1441E-06 -0.2982E-07
    -48.061 -0.8718E-04 -0.1807E-04
    -47.854 -0.4948E-02 -0.1042E-02
    -47.647  0.5717E-02  0.1411E-03
    -47.440  0.2459E+00  0.5102E-01
    -47.233  0.4454E+00  0.1432E+00
    -47.027  0.4172E+00  0.2295E+00
    -46.820  0.6237E-01  0.2424E+00
    -46.613 -0.1104E-01  0.2401E+00
    -46.406 -0.5452E-03  0.2400E+00
    -46.199 -0.2243E-05  0.2400E+00
    -45.992 -0.9859E-09  0.2400E+00
    -45.785 -0.4846E-13  0.2400E+00
    -45.578  0.0000E+00  0.2400E+00
    -45.371  0.0000E+00  0.2400E+00
    -45.164  0.0000E+00  0.2400E+00
    -44.958  0.0000E+00  0.2400E+00
    -44.751  0.0000E+00  0.2400E+00
    -44.544  0.0000E+00  0.2400E+00
    -44.337  0.0000E+00  0.2400E+00
    -44.130  0.0000E+00  0.2400E+00
    -43.923  0.0000E+00  0.2400E+00
    -43.716  0.0000E+00  0.2400E+00
    -43.509  0.0000E+00  0.2400E+00
    -43.302  0.0000E+00  0.2400E+00
    -43.095  0.0000E+00  0.2400E+00
    -42.889  0.0000E+00  0.2400E+00
    -42.682  0.0000E+00  0.2400E+00
    -42.475  0.0000E+00  0.2400E+00
    -42.268  0.0000E+00  0.2400E+00
    -42.061  0.0000E+00  0.2400E+00
    -41.854  0.0000E+00  0.2400E+00
    -41.647  0.0000E+00  0.2400E+00
    -41.440  0.0000E+00  0.2400E+00
    -41.233  0.0000E+00  0.2400E+00
    -41.026  0.0000E+00  0.2400E+00
    -40.819  0.0000E+00  0.2400E+00
    -40.613  0.0000E+00  0.2400E+00
    -40.406  0.0000E+00  0.2400E+00
    -40.199  0.0000E+00  0.2400E+00
    -39.992  0.0000E+00  0.2400E+00
    -39.785  0.0000E+00  0.2400E+00
    -39.578  0.0000E+00  0.2400E+00
    -39.371  0.0000E+00  0.2400E+00
    -39.164  0.0000E+00  0.2400E+00
    -38.957  0.0000E+00  0.2400E+00
    -38.750  0.0000E+00  0.2400E+00
    -38.544  0.0000E+00  0.2400E+00
    -38.337  0.0000E+00  0.2400E+00
    -38.130  0.0000E+00  0.2400E+00
    -37.923  0.0000E+00  0.2400E+00
    -37.716  0.0000E+00  0.2400E+00
    -37.509  0.0000E+00  0.2400E+00
    -37.302  0.0000E+00  0.2400E+00
    -37.095  0.0000E+00  0.2400E+00
    -36.888  0.0000E+00  0.2400E+00
    -36.681  0.0000E+00  0.2400E+00
    -36.475  0.0000E+00  0.2400E+00
    -36.268  0.0000E+00  0.2400E+00
    -36.061  0.0000E+00  0.2400E+00
    -35.854  0.0000E+00  0.2400E+00
    -35.647  0.0000E+00  0.2400E+00
    -35.440  0.0000E+00  0.2400E+00
    -35.233  0.0000E+00  0.2400E+00
    -35.026  0.0000E+00  0.2400E+00
    -34.819  0.0000E+00  0.2400E+00
    -34.612  0.0000E+00  0.2400E+00
    -34.406  0.0000E+00  0.2400E+00
    -34.199  0.0000E+00  0.2400E+00
    -33.992  0.0000E+00  0.2400E+00
    -33.785  0.0000E+00  0.2400E+00
    -33.578  0.0000E+00  0.2400E+00
    -33.371  0.0000E+00  0.2400E+00
    -33.164  0.0000E+00  0.2400E+00
    -32.957  0.0000E+00  0.2400E+00
    -32.750  0.0000E+00  0.2400E+00
    -32.543  0.0000E+00  0.2400E+00
    -32.337  0.0000E+00  0.2400E+00
    -32.130  0.0000E+00  0.2400E+00
    -31.923  0.0000E+00  0.2400E+00
    -31.716  0.0000E+00  0.2400E+00
    -31.509  0.0000E+00  0.2400E+00
    -31.302  0.0000E+00  0.2400E+00
    -31.095  0.0000E+00  0.2400E+00
    -30.888  0.0000E+00  0.2400E+00
    -30.681  0.0000E+00  0.2400E+00
    -30.474  0.0000E+00  0.2400E+00
    -30.268  0.0000E+00  0.2400E+00
    -30.061  0.0000E+00  0.2400E+00
    -29.854  0.0000E+00  0.2400E+00
    -29.647  0.0000E+00  0.2400E+00
    -29.440  0.0000E+00  0.2400E+00
    -29.233  0.0000E+00  0.2400E+00
    -29.026  0.0000E+00  0.2400E+00
    -28.819  0.0000E+00  0.2400E+00
    -28.612  0.0000E+00  0.2400E+00
    -28.405  0.0000E+00  0.2400E+00
    -28.199  0.0000E+00  0.2400E+00
    -27.992  0.0000E+00  0.2400E+00
    -27.785  0.0000E+00  0.2400E+00
    -27.578  0.0000E+00  0.2400E+00
    -27.371  0.0000E+00  0.2400E+00
    -27.164  0.0000E+00  0.2400E+00
    -26.957  0.0000E+00  0.2400E+00
    -26.750  0.0000E+00  0.2400E+00
    -26.543  0.0000E+00  0.2400E+00
    -26.336  0.0000E+00  0.2400E+00
    -26.130  0.0000E+00  0.2400E+00
    -25.923 -0.1612E-34  0.2400E+00
    -25.716 -0.4027E-27  0.2400E+00
    -25.509 -0.1157E-20  0.2400E+00
    -25.302 -0.3765E-15  0.2400E+00
    -25.095 -0.1442E-10  0.2400E+00
    -24.888 -0.6361E-07  0.2400E+00
    -24.681 -0.3118E-04  0.2400E+00
    -24.474 -0.1483E-02  0.2397E+00
    -24.267 -0.7324E-03  0.2395E+00
    -24.061  0.6303E-01  0.2526E+00
    -23.854  0.3262E+00  0.3201E+00
    -23.647  0.5314E+00  0.4300E+00
    -23.440  0.8072E+00  0.5970E+00
    -23.233  0.9739E+00  0.7985E+00
    -23.026  0.6124E+00  0.9252E+00
    -22.819  0.1306E+00  0.9523E+00
    -22.612  0.3866E-01  0.9603E+00
    -22.405 -0.3373E-03  0.9602E+00
    -22.198 -0.9134E-03  0.9600E+00
    -21.991 -0.1428E-04  0.9600E+00
    -21.785 -0.2208E-07  0.9600E+00
    -21.578 -0.3822E-11  0.9600E+00
    -21.371 -0.7359E-16  0.9600E+00
    -21.164  0.0000E+00  0.9600E+00
    -20.957  0.0000E+00  0.9600E+00
    -20.750  0.0000E+00  0.9600E+00
    -20.543  0.0000E+00  0.9600E+00
    -20.336  0.0000E+00  0.9600E+00
    -20.129  0.0000E+00  0.9600E+00
    -19.922  0.0000E+00  0.9600E+00
    -19.716  0.0000E+00  0.9600E+00
    -19.509  0.0000E+00  0.9600E+00
    -19.302  0.0000E+00  0.9600E+00
    -19.095  0.0000E+00  0.9600E+00
    -18.888  0.0000E+00  0.9600E+00
    -18.681  0.0000E+00  0.9600E+00
    -18.474  0.0000E+00  0.9600E+00
    -18.267  0.0000E+00  0.9600E+00
    -18.060  0.0000E+00  0.9600E+00
    -17.853  0.0000E+00  0.9600E+00
    -17.647  0.0000E+00  0.9600E+00
    -17.440  0.0000E+00  0.9600E+00
    -17.233  0.0000E+00  0.9600E+00
    -17.026  0.0000E+00  0.9600E+00
    -16.819  0.0000E+00  0.9600E+00
    -16.612  0.0000E+00  0.9600E+00
    -16.405  0.0000E+00  0.9600E+00
    -16.198  0.0000E+00  0.9600E+00
    -15.991  0.0000E+00  0.9600E+00
    -15.784  0.0000E+00  0.9600E+00
    -15.578  0.0000E+00  0.9600E+00
    -15.371  0.0000E+00  0.9600E+00
    -15.164  0.0000E+00  0.9600E+00
    -14.957  0.0000E+00  0.9600E+00
    -14.750  0.0000E+00  0.9600E+00
    -14.543  0.0000E+00  0.9600E+00
    -14.336  0.0000E+00  0.9600E+00
    -14.129  0.0000E+00  0.9600E+00
    -13.922  0.0000E+00  0.9600E+00
    -13.715  0.0000E+00  0.9600E+00
    -13.509  0.0000E+00  0.9600E+00
    -13.302  0.0000E+00  0.9600E+00
    -13.095  0.0000E+00  0.9600E+00
    -12.888  0.0000E+00  0.9600E+00
    -12.681  0.0000E+00  0.9600E+00
    -12.474  0.0000E+00  0.9600E+00
    -12.267  0.0000E+00  0.9600E+00
    -12.060  0.0000E+00  0.9600E+00
    -11.853  0.0000E+00  0.9600E+00
    -11.646  0.0000E+00  0.9600E+00
    -11.440  0.0000E+00  0.9600E+00
    -11.233  0.0000E+00  0.9600E+00
    -11.026  0.0000E+00  0.9600E+00
    -10.819  0.0000E+00  0.9600E+00
    -10.612  0.0000E+00  0.9600E+00
    -10.405  0.0000E+00  0.9600E+00
    -10.198  0.0000E+00  0.9600E+00
     -9.991  0.0000E+00  0.9600E+00
     -9.784  0.0000E+00  0.9600E+00
     -9.577  0.0000E+00  0.9600E+00
     -9.371  0.0000E+00  0.9600E+00
     -9.164  0.0000E+00  0.9600E+00
     -8.957  0.0000E+00  0.9600E+00
     -8.750  0.0000E+00  0.9600E+00
     -8.543  0.0000E+00  0.9600E+00
     -8.336  0.0000E+00  0.9600E+00
     -8.129  0.0000E+00  0.9600E+00
     -7.922  0.0000E+00  0.9600E+00
     -7.715  0.0000E+00  0.9600E+00
     -7.508  0.0000E+00  0.9600E+00
     -7.302  0.0000E+00  0.9600E+00
     -7.095  0.0000E+00  0.9600E+00
     -6.888  0.0000E+00  0.9600E+00
     -6.681  0.0000E+00  0.9600E+00
     -6.474  0.0000E+00  0.9600E+00
     -6.267  0.0000E+00  0.9600E+00
     -6.060  0.0000E+00  0.9600E+00
     -5.853  0.0000E+00  0.9600E+00
     -5.646  0.0000E+00  0.9600E+00
     -5.439  0.0000E+00  0.9600E+00
     -5.233  0.0000E+00  0.9600E+00
     -5.026  0.0000E+00  0.9600E+00
     -4.819  0.0000E+00  0.9600E+00
     -4.612  0.0000E+00  0.9600E+00
     -4.405  0.0000E+00  0.9600E+00
     -4.198  0.0000E+00  0.9600E+00
     -3.991  0.0000E+00  0.9600E+00
     -3.784  0.0000E+00  0.9600E+00
     -3.577  0.0000E+00  0.9600E+00
     -3.370  0.0000E+00  0.9600E+00
     -3.163  0.0000E+00  0.9600E+00
     -2.957  0.0000E+00  0.9600E+00
     -2.750  0.0000E+00  0.9600E+00
     -2.543  0.0000E+00  0.9600E+00
     -2.336  0.0000E+00  0.9600E+00
     -2.129  0.0000E+00  0.9600E+00
     -1.922  0.0000E+00  0.9600E+00
     -1.715 -0.1782E-30  0.9600E+00
     -1.508 -0.9000E-24  0.9600E+00
     -1.301 -0.5364E-18  0.9600E+00
     -1.094 -0.3641E-13  0.9600E+00
     -0.888 -0.3008E-09  0.9600E+00
     -0.681 -0.2945E-06  0.9600E+00
     -0.474 -0.3358E-04  0.9600E+00
     -0.267 -0.3422E-03  0.9599E+00
     -0.060  0.2438E-02  0.9604E+00
      0.147  0.1610E-01  0.9638E+00
      0.354  0.2544E-01  0.9690E+00
      0.561  0.3502E-01  0.9763E+00
      0.768  0.4249E-01  0.9851E+00
      0.975  0.3668E-01  0.9926E+00
      1.181  0.5247E-01  0.1004E+01
      1.388  0.6205E-01  0.1016E+01
      1.595  0.6569E-01  0.1030E+01
      1.802  0.7294E-01  0.1045E+01
      2.009  0.9004E-01  0.1064E+01
      2.216  0.1032E+00  0.1085E+01
      2.423  0.1326E+00  0.1112E+01
      2.630  0.2126E+00  0.1156E+01
      2.837  0.3233E+00  0.1223E+01
      3.044  0.4126E+00  0.1309E+01
      3.250  0.5149E+00  0.1415E+01
      3.457  0.5740E+00  0.1534E+01
      3.664  0.5830E+00  0.1655E+01
      3.871  0.6010E+00  0.1779E+01
      4.078  0.6217E+00  0.1908E+01
      4.285  0.6580E+00  0.2044E+01
      4.492  0.6056E+00  0.2169E+01
      4.699  0.5387E+00  0.2281E+01
      4.906  0.6257E+00  0.2410E+01
      5.113  0.6864E+00  0.2552E+01
      5.319  0.7673E+00  0.2711E+01
      5.526  0.8240E+00  0.2881E+01
      5.733  0.8302E+00  0.3053E+01
      5.940  0.7970E+00  0.3218E+01
      6.147  0.8228E+00  0.3388E+01
      6.354  0.8690E+00  0.3568E+01
      6.561  0.8647E+00  0.3747E+01
      6.768  0.7499E+00  0.3902E+01
      6.975  0.6496E+00  0.4036E+01
      7.182  0.5367E+00  0.4147E+01
      7.388  0.4563E+00  0.4242E+01
      7.595  0.3809E+00  0.4321E+01
      7.802  0.3538E+00  0.4394E+01
      8.009  0.4103E+00  0.4479E+01
      8.216  0.4788E+00  0.4578E+01
      8.423  0.5154E+00  0.4685E+01
      8.630  0.3715E+00  0.4761E+01
      8.837  0.1691E+00  0.4796E+01
      9.044  0.2158E-01  0.4801E+01
      9.251 -0.3630E-02  0.4800E+01
      9.457 -0.3170E-03  0.4800E+01
      9.664 -0.2870E-05  0.4800E+01
      9.871 -0.3308E-08  0.4800E+01
     10.078 -0.4764E-12  0.4800E+01
     10.285 -0.8260E-17  0.4800E+01
     10.492  0.0000E+00  0.4800E+01
     10.699  0.0000E+00  0.4800E+01
     10.906  0.0000E+00  0.4800E+01
     11.113  0.0000E+00  0.4800E+01
     11.320  0.0000E+00  0.4800E+01
     11.526  0.0000E+00  0.4800E+01
     11.733  0.0000E+00  0.4800E+01
