   29   29   50    1
  0.1632129E+02  0.5473281E-09  0.8209921E-09  0.1128346E-08  0.5000000E-15
  1.000000000000000E-004
  CAR 
 Nb - Mo - Ta - Ti - V SQS               
    194    172    120
 
  0.0000000E+00  0.0000000E+00  0.0000000E+00  0.2915452E-02
    1      -47.515566   1.000000
    2      -47.455309   1.000000
    3      -47.298484   1.000000
    4      -47.237772   1.000000
    5      -47.164529   1.000000
    6      -47.067533   1.000000
    7      -24.162697   1.000000
    8      -23.921411   1.000000
    9      -23.837254   1.000000
   10      -23.783835   1.000000
   11      -23.667153   1.000000
   12      -23.602786   1.000000
   13      -23.508081   1.000000
   14      -23.501740   1.000000
   15      -23.455352   1.000000
   16      -23.427902   1.000000
   17      -23.366006   1.000000
   18      -23.332599   1.000000
   19      -23.270598   1.000000
   20      -23.222714   1.000000
   21      -23.202535   1.000000
   22      -23.166402   1.000000
   23      -23.068242   1.000000
   24      -22.744461   1.000000
   25       -0.111836   1.000000
   26        1.224376   1.000000
   27        1.566344   1.000000
   28        2.361099   1.000000
   29        2.480788   1.000000
   30        2.526062   1.000000
   31        2.586621   1.000000
   32        2.768474   1.000000
   33        2.784030   1.000000
   34        2.934846   1.000000
   35        2.984533   1.000000
   36        3.009386   1.000000
   37        3.070182   1.000000
   38        3.112661   1.000000
   39        3.167319   1.000000
   40        3.301906   1.000000
   41        3.323787   1.000000
   42        3.475720   1.000000
   43        3.649889   1.000000
   44        3.675866   1.000000
   45        3.732767   1.000000
   46        3.776803   1.000000
   47        3.829561   1.000000
   48        3.886797   1.000000
   49        3.953759   1.000000
   50        3.993852   1.000000
   51        4.091816   1.000000
   52        4.172753   1.000000
   53        4.283822   1.000000
   54        4.349172   1.000000
   55        4.369648   1.000000
   56        4.485216   1.000000
   57        4.490108   1.000000
   58        4.600835   1.000000
   59        4.678746   1.000000
   60        4.737436   1.000000
   61        4.801111   1.000000
   62        4.867484   1.000000
   63        4.937212   1.000000
   64        4.984588   1.000000
   65        5.048969   1.000000
   66        5.094495   1.000000
   67        5.226026   1.000000
   68        5.255699   1.000000
   69        5.308944   1.000000
   70        5.347143   1.000000
   71        5.387710   1.000000
   72        5.405370   1.000000
   73        5.480274   1.000000
   74        5.496256   1.000000
   75        5.518315   1.000000
   76        5.648443   1.000000
   77        5.675091   1.000000
   78        5.777786   1.000000
   79        5.891735   1.000000
   80        5.933968   1.000000
   81        6.005765   1.000002
   82        6.086984   1.000022
   83        6.157289   1.000166
   84        6.184848   1.000341
   85        6.253060   1.001674
   86        6.324015   1.006534
   87        6.353016   1.010390
   88        6.409975   1.021633
   89        6.421431   1.024277
   90        6.488192   1.035423
   91        6.550081   1.016342
   92        6.572806   0.994260
   93        6.632840   0.879177
   94        6.672430   0.755219
   95        6.762003   0.391810
   96        6.826387   0.158021
   97        6.880956   0.032094
   98        6.937830  -0.025954
   99        7.016932  -0.031637
  100        7.066920  -0.020609
  101        7.216368  -0.001783
  102        7.317039  -0.000158
  103        7.360052  -0.000047
  104        7.400840  -0.000014
  105        7.648499  -0.000000
  106        7.741660  -0.000000
  107        7.781063  -0.000000
  108        7.938322  -0.000000
  109        7.993482  -0.000000
  110        8.282308  -0.000000
  111        8.363318  -0.000000
  112        8.428602  -0.000000
  113        8.489845  -0.000000
  114        8.614310  -0.000000
  115        8.652846  -0.000000
  116        8.733237  -0.000000
  117        8.765952  -0.000000
  118        8.815463  -0.000000
  119        8.858344  -0.000000
  120        8.896888  -0.000000
 
  0.1428571E+00  0.0000000E+00 -0.1561251E-16  0.5830904E-02
    1      -47.515396   1.000000
    2      -47.451549   1.000000
    3      -47.298294   1.000000
    4      -47.237537   1.000000
    5      -47.164559   1.000000
    6      -47.071457   1.000000
    7      -24.105798   1.000000
    8      -23.920089   1.000000
    9      -23.833304   1.000000
   10      -23.782861   1.000000
   11      -23.668731   1.000000
   12      -23.598871   1.000000
   13      -23.509360   1.000000
   14      -23.502587   1.000000
   15      -23.457659   1.000000
   16      -23.430414   1.000000
   17      -23.368496   1.000000
   18      -23.334810   1.000000
   19      -23.274618   1.000000
   20      -23.223312   1.000000
   21      -23.205862   1.000000
   22      -23.170228   1.000000
   23      -23.067330   1.000000
   24      -22.811710   1.000000
   25        0.052496   1.000000
   26        1.369233   1.000000
   27        1.703160   1.000000
   28        2.386012   1.000000
   29        2.569806   1.000000
   30        2.652432   1.000000
   31        2.680095   1.000000
   32        2.837436   1.000000
   33        2.898743   1.000000
   34        2.991333   1.000000
   35        3.068732   1.000000
   36        3.128457   1.000000
   37        3.184321   1.000000
   38        3.215429   1.000000
   39        3.296356   1.000000
   40        3.353961   1.000000
   41        3.428468   1.000000
   42        3.498558   1.000000
   43        3.664100   1.000000
   44        3.698220   1.000000
   45        3.783545   1.000000
   46        3.849783   1.000000
   47        3.877671   1.000000
   48        3.984817   1.000000
   49        4.007974   1.000000
   50        4.098712   1.000000
   51        4.151455   1.000000
   52        4.183071   1.000000
   53        4.318290   1.000000
   54        4.351640   1.000000
   55        4.424190   1.000000
   56        4.462061   1.000000
   57        4.531532   1.000000
   58        4.626634   1.000000
   59        4.694888   1.000000
   60        4.743645   1.000000
   61        4.836426   1.000000
   62        4.899179   1.000000
   63        5.011919   1.000000
   64        5.035012   1.000000
   65        5.064057   1.000000
   66        5.125844   1.000000
   67        5.225551   1.000000
   68        5.304257   1.000000
   69        5.346860   1.000000
   70        5.378196   1.000000
   71        5.393620   1.000000
   72        5.458882   1.000000
   73        5.524625   1.000000
   74        5.564126   1.000000
   75        5.597887   1.000000
   76        5.699221   1.000000
   77        5.735146   1.000000
   78        5.773177   1.000000
   79        5.851173   1.000000
   80        5.869529   1.000000
   81        5.966835   1.000000
   82        6.026222   1.000003
   83        6.093832   1.000027
   84        6.131802   1.000083
   85        6.221280   1.000824
   86        6.251955   1.001635
   87        6.322882   1.006409
   88        6.342340   1.008818
   89        6.400709   1.019541
   90        6.448997   1.030385
   91        6.484398   1.035285
   92        6.554183   1.013103
   93        6.584258   0.979006
   94        6.634226   0.875462
   95        6.691950   0.682241
   96        6.750378   0.440165
   97        6.798430   0.250273
   98        6.852142   0.089293
   99        6.910814  -0.006455
  100        7.053919  -0.023593
  101        7.189189  -0.003100
  102        7.249284  -0.000860
  103        7.307110  -0.000206
  104        7.360935  -0.000046
  105        7.406552  -0.000011
  106        7.499524  -0.000000
  107        7.571672  -0.000000
  108        7.691117  -0.000000
  109        7.860866  -0.000000
  110        8.111285  -0.000000
  111        8.174910  -0.000000
  112        8.256424  -0.000000
  113        8.306941  -0.000000
  114        8.377788  -0.000000
  115        8.416936  -0.000000
  116        8.476116  -0.000000
  117        8.502211  -0.000000
  118        8.590444  -0.000000
  119        8.644138  -0.000000
  120        8.686755  -0.000000
 
  0.2857143E+00  0.1387779E-16  0.3469447E-17  0.5830904E-02
    1      -47.515013   1.000000
    2      -47.442786   1.000000
    3      -47.297866   1.000000
    4      -47.237008   1.000000
    5      -47.164721   1.000000
    6      -47.080495   1.000000
    7      -23.962509   1.000000
    8      -23.911688   1.000000
    9      -23.816028   1.000000
   10      -23.778753   1.000000
   11      -23.672307   1.000000
   12      -23.589676   1.000000
   13      -23.512626   1.000000
   14      -23.504556   1.000000
   15      -23.462671   1.000000
   16      -23.436300   1.000000
   17      -23.374395   1.000000
   18      -23.339176   1.000000
   19      -23.284434   1.000000
   20      -23.226749   1.000000
   21      -23.213364   1.000000
   22      -23.178625   1.000000
   23      -23.073365   1.000000
   24      -22.983259   1.000000
   25        0.517635   1.000000
   26        1.749942   1.000000
   27        2.067469   1.000000
   28        2.487710   1.000000
   29        2.703173   1.000000
   30        2.825166   1.000000
   31        2.916167   1.000000
   32        2.998901   1.000000
   33        3.064534   1.000000
   34        3.194598   1.000000
   35        3.290866   1.000000
   36        3.336678   1.000000
   37        3.404458   1.000000
   38        3.448300   1.000000
   39        3.509571   1.000000
   40        3.542714   1.000000
   41        3.634299   1.000000
   42        3.687898   1.000000
   43        3.739498   1.000000
   44        3.823141   1.000000
   45        3.884642   1.000000
   46        3.978017   1.000000
   47        4.000595   1.000000
   48        4.070168   1.000000
   49        4.188663   1.000000
   50        4.261031   1.000000
   51        4.287952   1.000000
   52        4.316298   1.000000
   53        4.389443   1.000000
   54        4.448135   1.000000
   55        4.515896   1.000000
   56        4.557358   1.000000
   57        4.640343   1.000000
   58        4.722207   1.000000
   59        4.760711   1.000000
   60        4.840480   1.000000
   61        4.888436   1.000000
   62        4.945059   1.000000
   63        5.009050   1.000000
   64        5.085602   1.000000
   65        5.170850   1.000000
   66        5.224538   1.000000
   67        5.248018   1.000000
   68        5.333561   1.000000
   69        5.364512   1.000000
   70        5.412307   1.000000
   71        5.476658   1.000000
   72        5.515605   1.000000
   73        5.584251   1.000000
   74        5.638168   1.000000
   75        5.650408   1.000000
   76        5.673577   1.000000
   77        5.706725   1.000000
   78        5.789460   1.000000
   79        5.816819   1.000000
   80        5.886414   1.000000
   81        5.917897   1.000000
   82        5.999379   1.000001
   83        6.016351   1.000002
   84        6.044296   1.000006
   85        6.090764   1.000025
   86        6.149318   1.000134
   87        6.244868   1.001402
   88        6.322694   1.006389
   89        6.369404   1.013160
   90        6.400017   1.019387
   91        6.451678   1.030917
   92        6.483173   1.035220
   93        6.525961   1.029656
   94        6.575019   0.991540
   95        6.623875   0.902043
   96        6.633971   0.876151
   97        6.700396   0.648829
   98        6.766678   0.372674
   99        6.788123   0.288281
  100        6.864213   0.062811
  101        6.962473  -0.033938
  102        6.992920  -0.034965
  103        7.015315  -0.031932
  104        7.084718  -0.016731
  105        7.154101  -0.005923
  106        7.226215  -0.001443
  107        7.418666  -0.000008
  108        7.437828  -0.000004
  109        7.607427  -0.000000
  110        7.714182  -0.000000
  111        7.778562  -0.000000
  112        7.805553  -0.000000
  113        7.876667  -0.000000
  114        7.936962  -0.000000
  115        7.991450  -0.000000
  116        8.104693  -0.000000
  117        8.173944  -0.000000
  118        8.279024  -0.000000
  119        8.308246  -0.000000
  120        8.485749  -0.000000
 
  0.4285714E+00  0.5551115E-16 -0.4163336E-16  0.5830904E-02
    1      -47.514706   1.000000
    2      -47.435403   1.000000
    3      -47.297521   1.000000
    4      -47.236584   1.000000
    5      -47.164981   1.000000
    6      -47.087969   1.000000
    7      -23.922490   1.000000
    8      -23.854823   1.000000
    9      -23.784463   1.000000
   10      -23.688658   1.000000
   11      -23.674189   1.000000
   12      -23.581747   1.000000
   13      -23.516193   1.000000
   14      -23.507738   1.000000
   15      -23.466629   1.000000
   16      -23.441116   1.000000
   17      -23.383179   1.000000
   18      -23.342377   1.000000
   19      -23.297627   1.000000
   20      -23.256535   1.000000
   21      -23.219361   1.000000
   22      -23.209299   1.000000
   23      -23.168380   1.000000
   24      -23.049213   1.000000
   25        1.188758   1.000000
   26        1.931066   1.000000
   27        2.408376   1.000000
   28        2.550868   1.000000
   29        2.667496   1.000000
   30        2.923611   1.000000
   31        3.022099   1.000000
   32        3.159897   1.000000
   33        3.248909   1.000000
   34        3.339971   1.000000
   35        3.389982   1.000000
   36        3.462110   1.000000
   37        3.572586   1.000000
   38        3.643009   1.000000
   39        3.683487   1.000000
   40        3.758484   1.000000
   41        3.792366   1.000000
   42        3.859269   1.000000
   43        3.943163   1.000000
   44        3.990510   1.000000
   45        4.020555   1.000000
   46        4.083713   1.000000
   47        4.198563   1.000000
   48        4.216896   1.000000
   49        4.265277   1.000000
   50        4.283063   1.000000
   51        4.365555   1.000000
   52        4.417518   1.000000
   53        4.454452   1.000000
   54        4.568232   1.000000
   55        4.624432   1.000000
   56        4.730921   1.000000
   57        4.758086   1.000000
   58        4.820756   1.000000
   59        4.882549   1.000000
   60        4.909880   1.000000
   61        4.944873   1.000000
   62        5.000766   1.000000
   63        5.039409   1.000000
   64        5.109806   1.000000
   65        5.167538   1.000000
   66        5.211451   1.000000
   67        5.261861   1.000000
   68        5.278744   1.000000
   69        5.357861   1.000000
   70        5.385292   1.000000
   71        5.434228   1.000000
   72        5.484667   1.000000
   73        5.554624   1.000000
   74        5.601614   1.000000
   75        5.631282   1.000000
   76        5.680270   1.000000
   77        5.709805   1.000000
   78        5.766476   1.000000
   79        5.824162   1.000000
   80        5.864795   1.000000
   81        5.944355   1.000000
   82        5.999619   1.000001
   83        6.026753   1.000003
   84        6.060590   1.000010
   85        6.150288   1.000138
   86        6.190805   1.000396
   87        6.235056   1.001129
   88        6.266237   1.002206
   89        6.283069   1.003092
   90        6.320547   1.006158
   91        6.400777   1.019556
   92        6.422229   1.024462
   93        6.472685   1.034291
   94        6.489710   1.035449
   95        6.549820   1.016539
   96        6.578185   0.987462
   97        6.648324   0.835001
   98        6.676138   0.741874
   99        6.730876   0.522509
  100        6.832104   0.141349
  101        6.845231   0.106110
  102        6.888199   0.020904
  103        6.958540  -0.033174
  104        7.027297  -0.029582
  105        7.119391  -0.010388
  106        7.148631  -0.006506
  107        7.213237  -0.001904
  108        7.260078  -0.000668
  109        7.344757  -0.000073
  110        7.430759  -0.000005
  111        7.523922  -0.000000
  112        7.608160  -0.000000
  113        7.693154  -0.000000
  114        7.738981  -0.000000
  115        7.838031  -0.000000
  116        7.886331  -0.000000
  117        7.939754  -0.000000
  118        8.160134  -0.000000
  119        8.222965  -0.000000
  120        8.276582  -0.000000
 
 -0.6938894E-17  0.1428571E+00  0.1040834E-16  0.5830904E-02
    1      -47.515513   1.000000
    2      -47.455308   1.000000
    3      -47.298487   1.000000
    4      -47.237826   1.000000
    5      -47.164527   1.000000
    6      -47.067532   1.000000
    7      -24.162704   1.000000
    8      -23.920012   1.000000
    9      -23.836676   1.000000
   10      -23.783222   1.000000
   11      -23.667259   1.000000
   12      -23.602834   1.000000
   13      -23.508123   1.000000
   14      -23.501753   1.000000
   15      -23.455347   1.000000
   16      -23.427821   1.000000
   17      -23.366031   1.000000
   18      -23.332610   1.000000
   19      -23.270631   1.000000
   20      -23.222758   1.000000
   21      -23.205351   1.000000
   22      -23.166455   1.000000
   23      -23.068253   1.000000
   24      -22.744465   1.000000
   25       -0.043575   1.000000
   26        1.252441   1.000000
   27        1.633072   1.000000
   28        2.093143   1.000000
   29        2.441299   1.000000
   30        2.559857   1.000000
   31        2.630430   1.000000
   32        2.726435   1.000000
   33        2.804909   1.000000
   34        2.941920   1.000000
   35        2.983518   1.000000
   36        3.027491   1.000000
   37        3.053977   1.000000
   38        3.132035   1.000000
   39        3.202815   1.000000
   40        3.279299   1.000000
   41        3.380883   1.000000
   42        3.475712   1.000000
   43        3.566902   1.000000
   44        3.643812   1.000000
   45        3.720818   1.000000
   46        3.778262   1.000000
   47        3.852375   1.000000
   48        3.900000   1.000000
   49        3.982894   1.000000
   50        4.042855   1.000000
   51        4.126007   1.000000
   52        4.153167   1.000000
   53        4.259140   1.000000
   54        4.343076   1.000000
   55        4.397261   1.000000
   56        4.490839   1.000000
   57        4.508914   1.000000
   58        4.580089   1.000000
   59        4.664681   1.000000
   60        4.743613   1.000000
   61        4.832352   1.000000
   62        4.890228   1.000000
   63        4.953924   1.000000
   64        4.997270   1.000000
   65        5.075892   1.000000
   66        5.156821   1.000000
   67        5.241109   1.000000
   68        5.285200   1.000000
   69        5.314998   1.000000
   70        5.383718   1.000000
   71        5.423074   1.000000
   72        5.434662   1.000000
   73        5.474251   1.000000
   74        5.518430   1.000000
   75        5.550029   1.000000
   76        5.649184   1.000000
   77        5.665289   1.000000
   78        5.799486   1.000000
   79        5.911125   1.000000
   80        5.946848   1.000000
   81        6.007497   1.000002
   82        6.075763   1.000016
   83        6.128003   1.000074
   84        6.174809   1.000264
   85        6.230837   1.001026
   86        6.273937   1.002580
   87        6.327978   1.006985
   88        6.386098   1.016404
   89        6.402468   1.019933
   90        6.444430   1.029442
   91        6.469180   1.033850
   92        6.512974   1.033360
   93        6.556089   1.011491
   94        6.640603   0.857760
   95        6.744831   0.463505
   96        6.772725   0.348260
   97        6.855790   0.080901
   98        6.917775  -0.012740
   99        7.033368  -0.028278
  100        7.103254  -0.013112
  101        7.216675  -0.001771
  102        7.336718  -0.000092
  103        7.494633  -0.000001
  104        7.527697  -0.000000
  105        7.618732  -0.000000
  106        7.720727  -0.000000
  107        7.784975  -0.000000
  108        7.872990  -0.000000
  109        7.983233  -0.000000
  110        8.178695  -0.000000
  111        8.254560  -0.000000
  112        8.318665  -0.000000
  113        8.426200  -0.000000
  114        8.453551  -0.000000
  115        8.559950  -0.000000
  116        8.589315  -0.000000
  117        8.662340  -0.000000
  118        8.697289  -0.000000
  119        8.743375  -0.000000
  120        8.800842  -0.000000
 
  0.1428571E+00  0.1428571E+00 -0.1387779E-16  0.5830904E-02
    1      -47.515447   1.000000
    2      -47.451550   1.000000
    3      -47.298291   1.000000
    4      -47.237485   1.000000
    5      -47.164561   1.000000
    6      -47.071458   1.000000
    7      -24.105793   1.000000
    8      -23.921483   1.000000
    9      -23.833905   1.000000
   10      -23.783425   1.000000
   11      -23.668688   1.000000
   12      -23.598845   1.000000
   13      -23.509308   1.000000
   14      -23.502580   1.000000
   15      -23.457669   1.000000
   16      -23.430426   1.000000
   17      -23.368476   1.000000
   18      -23.334803   1.000000
   19      -23.274581   1.000000
   20      -23.223279   1.000000
   21      -23.203130   1.000000
   22      -23.170159   1.000000
   23      -23.067321   1.000000
   24      -22.811706   1.000000
   25        0.058442   1.000000
   26        1.342081   1.000000
   27        1.733533   1.000000
   28        2.360779   1.000000
   29        2.552853   1.000000
   30        2.642478   1.000000
   31        2.705223   1.000000
   32        2.817292   1.000000
   33        2.872866   1.000000
   34        2.974554   1.000000
   35        3.033231   1.000000
   36        3.045187   1.000000
   37        3.140592   1.000000
   38        3.237040   1.000000
   39        3.283940   1.000000
   40        3.331876   1.000000
   41        3.417531   1.000000
   42        3.586038   1.000000
   43        3.631168   1.000000
   44        3.716355   1.000000
   45        3.763908   1.000000
   46        3.829482   1.000000
   47        3.877641   1.000000
   48        3.989299   1.000000
   49        3.998737   1.000000
   50        4.088080   1.000000
   51        4.158254   1.000000
   52        4.215120   1.000000
   53        4.306898   1.000000
   54        4.386240   1.000000
   55        4.416507   1.000000
   56        4.472248   1.000000
   57        4.591450   1.000000
   58        4.658825   1.000000
   59        4.719170   1.000000
   60        4.763711   1.000000
   61        4.789789   1.000000
   62        4.932385   1.000000
   63        4.956630   1.000000
   64        5.015660   1.000000
   65        5.086185   1.000000
   66        5.180758   1.000000
   67        5.255982   1.000000
   68        5.278875   1.000000
   69        5.305235   1.000000
   70        5.339807   1.000000
   71        5.385393   1.000000
   72        5.440174   1.000000
   73        5.490636   1.000000
   74        5.545859   1.000000
   75        5.573490   1.000000
   76        5.651628   1.000000
   77        5.712605   1.000000
   78        5.771394   1.000000
   79        5.851269   1.000000
   80        5.876207   1.000000
   81        5.945737   1.000000
   82        6.064311   1.000011
   83        6.112819   1.000048
   84        6.173771   1.000257
   85        6.196147   1.000452
   86        6.270325   1.002398
   87        6.317372   1.005829
   88        6.364635   1.012310
   89        6.400985   1.019602
   90        6.465130   1.033272
   91        6.492262   1.035454
   92        6.559291   1.008626
   93        6.621122   0.908659
   94        6.684677   0.710188
   95        6.701838   0.643036
   96        6.761717   0.392986
   97        6.832504   0.140214
   98        6.883826   0.027512
   99        6.951640  -0.031396
  100        7.084821  -0.016710
  101        7.175436  -0.004033
  102        7.239275  -0.001081
  103        7.286588  -0.000349
  104        7.341692  -0.000080
  105        7.429644  -0.000005
  106        7.504834  -0.000000
  107        7.584668  -0.000000
  108        7.708296  -0.000000
  109        7.866457  -0.000000
  110        8.001556  -0.000000
  111        8.152637  -0.000000
  112        8.276490  -0.000000
  113        8.415316  -0.000000
  114        8.449124  -0.000000
  115        8.563747  -0.000000
  116        8.624637  -0.000000
  117        8.669050  -0.000000
  118        8.680409  -0.000000
  119        8.751328  -0.000000
  120        8.802478  -0.000000
 
  0.2857143E+00  0.1428571E+00  0.2775558E-16  0.5830904E-02
    1      -47.515129   1.000000
    2      -47.442788   1.000000
    3      -47.297860   1.000000
    4      -47.236890   1.000000
    5      -47.164726   1.000000
    6      -47.080498   1.000000
    7      -23.962697   1.000000
    8      -23.914856   1.000000
    9      -23.817489   1.000000
   10      -23.779751   1.000000
   11      -23.672183   1.000000
   12      -23.589606   1.000000
   13      -23.512496   1.000000
   14      -23.504558   1.000000
   15      -23.462693   1.000000
   16      -23.436369   1.000000
   17      -23.374334   1.000000
   18      -23.339173   1.000000
   19      -23.284352   1.000000
   20      -23.226678   1.000000
   21      -23.207145   1.000000
   22      -23.178418   1.000000
   23      -23.073337   1.000000
   24      -22.983251   1.000000
   25        0.467288   1.000000
   26        1.664846   1.000000
   27        2.054407   1.000000
   28        2.550426   1.000000
   29        2.635705   1.000000
   30        2.839318   1.000000
   31        2.968288   1.000000
   32        3.023221   1.000000
   33        3.079309   1.000000
   34        3.121387   1.000000
   35        3.265477   1.000000
   36        3.306056   1.000000
   37        3.378818   1.000000
   38        3.404779   1.000000
   39        3.489506   1.000000
   40        3.544091   1.000000
   41        3.616058   1.000000
   42        3.680110   1.000000
   43        3.773897   1.000000
   44        3.823330   1.000000
   45        3.915841   1.000000
   46        3.954025   1.000000
   47        4.036787   1.000000
   48        4.092776   1.000000
   49        4.149563   1.000000
   50        4.198717   1.000000
   51        4.262671   1.000000
   52        4.305963   1.000000
   53        4.390008   1.000000
   54        4.424009   1.000000
   55        4.503400   1.000000
   56        4.584115   1.000000
   57        4.641647   1.000000
   58        4.736424   1.000000
   59        4.780396   1.000000
   60        4.871709   1.000000
   61        4.928997   1.000000
   62        4.972281   1.000000
   63        5.005785   1.000000
   64        5.093418   1.000000
   65        5.142205   1.000000
   66        5.175911   1.000000
   67        5.234712   1.000000
   68        5.320790   1.000000
   69        5.376483   1.000000
   70        5.397368   1.000000
   71        5.435629   1.000000
   72        5.474101   1.000000
   73        5.531942   1.000000
   74        5.569242   1.000000
   75        5.624256   1.000000
   76        5.647915   1.000000
   77        5.756818   1.000000
   78        5.793069   1.000000
   79        5.852504   1.000000
   80        5.887992   1.000000
   81        5.981126   1.000001
   82        6.016972   1.000002
   83        6.081347   1.000019
   84        6.130044   1.000079
   85        6.153335   1.000150
   86        6.187071   1.000361
   87        6.253811   1.001701
   88        6.283149   1.003097
   89        6.350231   1.009962
   90        6.382439   1.015659
   91        6.419720   1.023881
   92        6.457559   1.032018
   93        6.504706   1.034694
   94        6.527957   1.028892
   95        6.565514   1.002479
   96        6.606178   0.941230
   97        6.693132   0.677624
   98        6.752500   0.431273
   99        6.806408   0.222236
  100        6.904723  -0.000163
  101        6.940419  -0.027181
  102        6.970746  -0.035011
  103        7.023989  -0.030265
  104        7.063476  -0.021392
  105        7.124519  -0.009610
  106        7.292539  -0.000300
  107        7.433578  -0.000005
  108        7.490100  -0.000001
  109        7.657396  -0.000000
  110        7.737970  -0.000000
  111        7.829523  -0.000000
  112        7.984017  -0.000000
  113        8.117930  -0.000000
  114        8.153784  -0.000000
  115        8.247137  -0.000000
  116        8.298920  -0.000000
  117        8.354775  -0.000000
  118        8.432105  -0.000000
  119        8.443253  -0.000000
  120        8.560885  -0.000000
 
  0.4285714E+00  0.1428571E+00 -0.2081668E-16  0.5830904E-02
    1      -47.514799   1.000000
    2      -47.435405   1.000000
    3      -47.297517   1.000000
    4      -47.236490   1.000000
    5      -47.164985   1.000000
    6      -47.087971   1.000000
    7      -23.924567   1.000000
    8      -23.856051   1.000000
    9      -23.785906   1.000000
   10      -23.688637   1.000000
   11      -23.674107   1.000000
   12      -23.581685   1.000000
   13      -23.516068   1.000000
   14      -23.507760   1.000000
   15      -23.466649   1.000000
   16      -23.441168   1.000000
   17      -23.383118   1.000000
   18      -23.342384   1.000000
   19      -23.297569   1.000000
   20      -23.256487   1.000000
   21      -23.214498   1.000000
   22      -23.209017   1.000000
   23      -23.168264   1.000000
   24      -23.049200   1.000000
   25        1.111613   1.000000
   26        1.945765   1.000000
   27        2.331954   1.000000
   28        2.481456   1.000000
   29        2.672115   1.000000
   30        2.808366   1.000000
   31        3.072875   1.000000
   32        3.230244   1.000000
   33        3.321632   1.000000
   34        3.367814   1.000000
   35        3.421841   1.000000
   36        3.474090   1.000000
   37        3.600251   1.000000
   38        3.661589   1.000000
   39        3.686750   1.000000
   40        3.739641   1.000000
   41        3.799726   1.000000
   42        3.828524   1.000000
   43        3.911534   1.000000
   44        3.926822   1.000000
   45        3.995599   1.000000
   46        4.100906   1.000000
   47        4.151464   1.000000