 running on   96 total cores
 distrk:  each k-point on   96 cores,    1 groups
 distr:  one band on    8 cores,   12 groups
 using from now: INCAR     
 vasp.5.4.4.18Apr17-6-g9f103f2a35 (build Aug 09 2018 16:20:53) complex          
  
 POSCAR found :  5 types and      29 ions
 scaLAPACK will be used

 ----------------------------------------------------------------------------- 
|                                                                             |
|  ADVICE TO THIS USER RUNNING 'VASP/VAMP'   (HEAR YOUR MASTER'S VOICE ...):  |
|                                                                             |
|      You enforced a specific xc-type in the INCAR file,                     |
|      a different type was found on the POTCAR file                          |
|          I HOPE YOU KNOW, WHAT YOU ARE  DOING                               |
|                                                                             |
 ----------------------------------------------------------------------------- 

 LDA part: xc-table for Pade appr. of Perdew
 POSCAR found :  5 types and      29 ions
 POSCAR, INCAR and KPOINTS ok, starting setup
 FFT: planning ...
 WAVECAR not read
 initial charge from wavefunction
 entering main loop
       N       E                     dE             d eps       ncg     rms          rms(c)
DAV:   1    -0.410266226847E+04   -0.41027E+04   -0.16458E+05 61368   0.198E+03
DAV:   2    -0.947680037421E+04   -0.53741E+04   -0.50671E+04 67284   0.119E+03
DAV:   3    -0.103816097643E+05   -0.90481E+03   -0.87732E+03 82560   0.533E+02
DAV:   4    -0.106377548417E+05   -0.25615E+03   -0.23812E+03 82560   0.247E+02
DAV:   5    -0.107990168934E+05   -0.16126E+03   -0.14553E+03 82560   0.176E+02    0.598E+03
DAV:   6    -0.652969556876E+03    0.10146E+05   -0.25362E+04 62124   0.633E+02    0.275E+03
DAV:   7    -0.742396316341E+03   -0.89427E+02   -0.18540E+04 70992   0.624E+02    0.209E+03
DAV:   8    -0.569809190218E+03    0.17259E+03   -0.60340E+03 73584   0.425E+02    0.188E+03
DAV:   9    -0.492380238228E+03    0.77429E+02   -0.86240E+02 70488   0.976E+01    0.180E+03
DAV:  10    -0.569934708633E+03   -0.77554E+02   -0.22840E+02 82560   0.503E+01    0.185E+03
DAV:  11    -0.571949117747E+03   -0.20144E+01   -0.72042E+02 74304   0.885E+01    0.159E+03
DAV:  12    -0.718048283035E+03   -0.14610E+03   -0.11892E+03 79428   0.183E+02    0.111E+03
DAV:  13    -0.762461318295E+03   -0.44413E+02   -0.39643E+03 74316   0.163E+02    0.565E+02
DAV:  14    -0.640169004480E+03    0.12229E+03   -0.11416E+03 69756   0.127E+02    0.363E+02
DAV:  15    -0.597879987612E+03    0.42289E+02   -0.81158E+02 71052   0.130E+02    0.266E+02
DAV:  16    -0.529896339405E+03    0.67984E+02   -0.26066E+02 73188   0.527E+01    0.241E+02
DAV:  17    -0.497822536433E+03    0.32074E+02   -0.26524E+02 72912   0.728E+01    0.245E+02
DAV:  18    -0.426527401388E+03    0.71295E+02   -0.39148E+02 75552   0.754E+01    0.239E+02
DAV:  19    -0.412464414105E+03    0.14063E+02   -0.15118E+02 74280   0.533E+01    0.187E+02
DAV:  20    -0.397015713515E+03    0.15449E+02   -0.21646E+02 74400   0.735E+01    0.185E+02
DAV:  21    -0.356274128384E+03    0.40742E+02   -0.38084E+02 69204   0.783E+01    0.134E+02
DAV:  22    -0.336896580342E+03    0.19378E+02   -0.15383E+02 72972   0.746E+01    0.937E+01
DAV:  23    -0.331693358349E+03    0.52032E+01   -0.10637E+02 76500   0.501E+01    0.916E+01
DAV:  24    -0.325366768143E+03    0.63266E+01   -0.22647E+01 76980   0.231E+01    0.778E+01
DAV:  25    -0.320431279154E+03    0.49355E+01   -0.15155E+01 70440   0.145E+01    0.702E+01
DAV:  26    -0.315603609315E+03    0.48277E+01   -0.30061E+01 68988   0.301E+01    0.604E+01
DAV:  27    -0.310332957498E+03    0.52707E+01   -0.17738E+01 75672   0.221E+01    0.484E+01
DAV:  28    -0.310201477228E+03    0.13148E+00   -0.80087E+00 76392   0.115E+01    0.439E+01
DAV:  29    -0.309335600146E+03    0.86588E+00   -0.72408E+00 66120   0.134E+01    0.377E+01
DAV:  30    -0.309031156514E+03    0.30444E+00   -0.34622E+00 68916   0.768E+00    0.325E+01
DAV:  31    -0.308117347994E+03    0.91381E+00   -0.37813E+00 67860   0.818E+00    0.247E+01
DAV:  32    -0.308111999089E+03    0.53489E-02   -0.30182E+00 71652   0.792E+00    0.196E+01
DAV:  33    -0.307883249107E+03    0.22875E+00   -0.75562E-01 74652   0.329E+00    0.175E+01
DAV:  34    -0.308214133560E+03   -0.33088E+00   -0.13597E+00 67464   0.506E+00    0.153E+01
DAV:  35    -0.307861753664E+03    0.35238E+00   -0.41334E+00 68316   0.775E+00    0.107E+01
DAV:  36    -0.307769312369E+03    0.92441E-01   -0.18897E+00 70200   0.605E+00    0.702E+00
DAV:  37    -0.307860471835E+03   -0.91159E-01   -0.45216E-01 68748   0.244E+00    0.649E+00
DAV:  38    -0.307831394444E+03    0.29077E-01   -0.75854E-02 68700   0.109E+00    0.536E+00
DAV:  39    -0.307736646595E+03    0.94748E-01   -0.77788E-02 71724   0.111E+00    0.435E+00
DAV:  40    -0.307672172260E+03    0.64474E-01   -0.69455E-02 69672   0.108E+00    0.326E+00
DAV:  41    -0.307668138438E+03    0.40338E-02   -0.17678E-02 70980   0.559E-01    0.294E+00
DAV:  42    -0.307656839918E+03    0.11299E-01   -0.51585E-03 62376   0.317E-01    0.258E+00
DAV:  43    -0.307619458320E+03    0.37382E-01   -0.52496E-02 68676   0.108E+00    0.145E+00
DAV:  44    -0.307604886729E+03    0.14572E-01   -0.33697E-02 65616   0.739E-01    0.820E-01
DAV:  45    -0.307601782863E+03    0.31039E-02   -0.17392E-02 67344   0.603E-01    0.488E-01
DAV:  46    -0.307601619359E+03    0.16350E-03   -0.20243E-03 60372   0.183E-01    0.413E-01
DAV:  47    -0.307601600755E+03    0.18604E-04   -0.14140E-03 57816   0.154E-01    0.451E-01
DAV:  48    -0.307601456014E+03    0.14474E-03   -0.74619E-04 48228   0.126E-01    0.300E-01
DAV:  49    -0.307601415080E+03    0.40933E-04   -0.11938E-04 27144   0.593E-02
   1 F= -.30760142E+03 E0= -.30759847E+03  d E =-.307601E+03
 curvature:   0.00 expect dE= 0.000E+00 dE for cont linesearch  0.000E+00
 trial: gam= 0.00000 g(F)=  0.737E+00 g(S)=  0.225E+00 ort = 0.000E+00 (trialstep = 0.100E+01)
 search vector abs. value=  0.961E+00
 bond charge predicted
       N       E                     dE             d eps       ncg     rms          rms(c)
DAV:   1    -0.308316224422E+03   -0.71477E+00   -0.12677E+02 41556   0.457E+01    0.101E+01
DAV:   2    -0.309994310448E+03   -0.16781E+01   -0.25844E+01 74352   0.276E+01    0.102E+01
DAV:   3    -0.308838645524E+03    0.11557E+01   -0.15081E+01 72012   0.168E+01    0.704E+00
DAV:   4    -0.308748098344E+03    0.90547E-01   -0.85827E+00 69432   0.142E+01    0.692E+00
DAV:   5    -0.308341386188E+03    0.40671E+00   -0.47156E+00 70188   0.106E+01    0.387E+00
DAV:   6    -0.308210444773E+03    0.13094E+00   -0.16213E+00 73680   0.551E+00    0.223E+00
DAV:   7    -0.308188959233E+03    0.21486E-01   -0.91440E-01 76848   0.381E+00    0.216E+00
DAV:   8    -0.308180271383E+03    0.86878E-02   -0.52646E-01 72252   0.310E+00    0.181E+00
DAV:   9    -0.308156757514E+03    0.23514E-01   -0.20754E-01 70152   0.205E+00    0.902E-01
DAV:  10    -0.308154415783E+03    0.23417E-02   -0.59465E-02 74532   0.942E-01    0.711E-01
DAV:  11    -0.308158892445E+03   -0.44767E-02   -0.38625E-02 74112   0.813E-01    0.670E-01
DAV:  12    -0.308160217662E+03   -0.13252E-02   -0.45151E-02 68616   0.970E-01    0.516E-01
DAV:  13    -0.308159027130E+03    0.11905E-02   -0.27393E-02 71088   0.695E-01    0.238E-01
DAV:  14    -0.308159242606E+03   -0.21548E-03   -0.11913E-02 70632   0.467E-01    0.254E-01
DAV:  15    -0.308158644748E+03    0.59786E-03   -0.51481E-03 59604   0.351E-01    0.105E-01
DAV:  16    -0.308158603257E+03    0.41491E-04   -0.15206E-03 60900   0.172E-01    0.882E-02
DAV:  17    -0.308158561332E+03    0.41925E-04   -0.53353E-04 44928   0.109E-01
   2 F= -.30815856E+03 E0= -.30815545E+03  d E =-.557146E+00
 trial-energy change:   -0.557146  1 .order   -0.546402   -0.961210   -0.131594
 step:   1.1457(harm=  1.1586)  dis= 0.05819  next Energy=  -308.168178 (dE=-0.567E+00)
 bond charge predicted
       N       E                     dE             d eps       ncg     rms          rms(c)
DAV:   1    -0.308169341873E+03   -0.10739E-01   -0.27212E+00 44028   0.678E+00    0.145E+00
DAV:   2    -0.308203496299E+03   -0.34154E-01   -0.52379E-01 73128   0.386E+00    0.154E+00
DAV:   3    -0.308182444776E+03    0.21052E-01   -0.34136E-01 72528   0.263E+00    0.102E+00
DAV:   4    -0.308181127277E+03    0.13175E-02   -0.17514E-01 68556   0.189E+00    0.107E+00
DAV:   5    -0.308171181637E+03    0.99456E-02   -0.10654E-01 69672   0.156E+00    0.571E-01
DAV:   6    -0.308168618395E+03    0.25632E-02   -0.37481E-02 71640   0.852E-01    0.358E-01
DAV:   7    -0.308168208735E+03    0.40966E-03   -0.21533E-02 71112   0.619E-01    0.343E-01
DAV:   8    -0.308167767795E+03    0.44094E-03   -0.11634E-02 59748   0.474E-01    0.250E-01
DAV:   9    -0.308167342830E+03    0.42497E-03   -0.38126E-03 60876   0.288E-01    0.138E-01
DAV:  10    -0.308167301690E+03    0.41140E-04   -0.11999E-03 56604   0.149E-01    0.115E-01
DAV:  11    -0.308167421607E+03   -0.11992E-03   -0.99232E-04 52692   0.152E-01    0.114E-01
DAV:  12    -0.308167436201E+03   -0.14594E-04   -0.10727E-03 52788   0.169E-01    0.622E-02
DAV:  13    -0.308167397616E+03    0.38585E-04   -0.32735E-04 34560   0.107E-01
   3 F= -.30816740E+03 E0= -.30816438E+03  d E =-.565983E+00
 curvature:  -0.58 expect dE=-0.677E+00 dE for cont linesearch -0.115E-04
 trial: gam= 1.21905 g(F)=  0.293E+00 g(S)=  0.883E+00 ort = 0.439E-02 (trialstep = 0.378E+00)
 search vector abs. value=  0.262E+01
 bond charge predicted
       N       E                     dE             d eps       ncg     rms          rms(c)
DAV:   1    -0.308265026384E+03   -0.97590E-01   -0.48264E+01 41280   0.258E+01    0.348E+00
DAV:   2    -0.308734943396E+03   -0.46992E+00   -0.59731E+00 69444   0.116E+01    0.406E+00
DAV:   3    -0.308622034524E+03    0.11291E+00   -0.27983E+00 70104   0.770E+00    0.309E+00
DAV:   4    -0.308574097278E+03    0.47937E-01   -0.87695E-01 68316   0.472E+00    0.223E+00
DAV:   5    -0.308525710577E+03    0.48387E-01   -0.43375E-01 68556   0.336E+00    0.114E+00
DAV:   6    -0.308522437532E+03    0.32730E-02   -0.20643E-01 71484   0.199E+00    0.105E+00
DAV:   7    -0.308519796307E+03    0.26412E-02   -0.17866E-01 74436   0.173E+00    0.101E+00
DAV:   8    -0.308511087114E+03    0.87092E-02   -0.80280E-02 70560   0.135E+00    0.470E-01
DAV:   9    -0.308509254313E+03    0.18328E-02   -0.20025E-02 70440   0.569E-01    0.277E-01
DAV:  10    -0.308509274954E+03   -0.20640E-04   -0.57605E-03 65124   0.300E-01    0.237E-01
DAV:  11    -0.308509444169E+03   -0.16922E-03   -0.33489E-03 59232   0.282E-01    0.195E-01
DAV:  12    -0.308509621374E+03   -0.17720E-03   -0.41705E-03 61236   0.296E-01    0.167E-01
DAV:  13    -0.308509489543E+03    0.13183E-03   -0.27427E-03 65640   0.242E-01    0.802E-02
DAV:  14    -0.308509506561E+03   -0.17018E-04   -0.15921E-03 58596   0.189E-01    0.954E-02
DAV:  15    -0.308509418808E+03    0.87753E-04   -0.63228E-04 44904   0.143E-01
   4 F= -.30850942E+03 E0= -.30850763E+03  d E =-.342021E+00
 trial-energy change:   -0.342021  1 .order   -0.341464   -0.446892   -0.236035
 step:   0.8016(harm=  0.8016)  dis= 0.07543  next Energy=  -308.640970 (dE=-0.474E+00)
 bond charge predicted
       N       E                     dE             d eps       ncg     rms          rms(c)
DAV:   1    -0.308336617467E+03    0.17289E+00   -0.60366E+01 41280   0.288E+01    0.380E+00
DAV:   2    -0.308928753288E+03   -0.59214E+00   -0.74834E+00 69552   0.130E+01    0.453E+00
DAV:   3    -0.308770538991E+03    0.15821E+00   -0.34339E+00 70500   0.847E+00    0.327E+00
DAV:   4    -0.308720927213E+03    0.49612E-01   -0.10622E+00 68340   0.516E+00    0.244E+00
DAV:   5    -0.308660697016E+03    0.60230E-01   -0.52325E-01 68520   0.371E+00    0.120E+00
DAV:   6    -0.308658340976E+03    0.23560E-02   -0.23629E-01 71688   0.214E+00    0.115E+00
DAV:   7    -0.308653661574E+03    0.46794E-02   -0.21061E-01 74772   0.186E+00    0.104E+00
DAV:   8    -0.308644698875E+03    0.89627E-02   -0.92649E-02 70656   0.146E+00    0.534E-01
DAV:   9    -0.308642305221E+03    0.23937E-02   -0.25586E-02 71748   0.645E-01    0.298E-01
DAV:  10    -0.308642396103E+03   -0.90882E-04   -0.70720E-03 65904   0.310E-01    0.254E-01
DAV:  11    -0.308642653751E+03   -0.25765E-03   -0.42838E-03 59592   0.314E-01    0.215E-01
DAV:  12    -0.308642859061E+03   -0.20531E-03   -0.56476E-03 59796   0.355E-01    0.192E-01
DAV:  13    -0.308642672514E+03    0.18655E-03   -0.36620E-03 65256   0.284E-01    0.930E-02
DAV:  14    -0.308642697892E+03   -0.25378E-04   -0.19970E-03 59196   0.216E-01    0.109E-01
DAV:  15    -0.308642579737E+03    0.11816E-03   -0.81862E-04 48312   0.161E-01    0.380E-02
DAV:  16    -0.308642561302E+03    0.18434E-04   -0.10990E-04 26832   0.719E-02
   5 F= -.30864256E+03 E0= -.30864214E+03  d E =-.475164E+00
 curvature:  -0.89 expect dE=-0.120E+00 dE for cont linesearch -0.384E-04
 trial: gam= 0.02283 g(F)=  0.119E+00 g(S)=  0.158E-01 ort = 0.106E-01 (trialstep = 0.463E+00)
 search vector abs. value=  0.137E+00
 bond charge predicted
       N       E                     dE             d eps       ncg     rms          rms(c)
DAV:   1    -0.308674484769E+03   -0.31905E-01   -0.37868E+00 41292   0.704E+00    0.880E-01
DAV:   2    -0.308712098326E+03   -0.37614E-01   -0.46756E-01 69732   0.345E+00    0.113E+00
DAV:   3    -0.308705490019E+03    0.66083E-02   -0.19997E-01 69408   0.208E+00    0.877E-01
DAV:   4    -0.308700734430E+03    0.47556E-02   -0.79826E-02 66696   0.131E+00    0.555E-01
DAV:   5    -0.308697507390E+03    0.32270E-02   -0.28139E-02 66888   0.722E-01    0.322E-01
DAV:   6    -0.308697844495E+03   -0.33711E-03   -0.18855E-02 72384   0.633E-01    0.352E-01
DAV:   7    -0.308697048634E+03    0.79586E-03   -0.13086E-02 69408   0.551E-01    0.231E-01
DAV:   8    -0.308696483470E+03    0.56516E-03   -0.62617E-03 63900   0.339E-01    0.130E-01
DAV:   9    -0.308696357591E+03    0.12588E-03   -0.14315E-03 55608   0.182E-01    0.874E-02
DAV:  10    -0.308696309838E+03    0.47754E-04   -0.39869E-04 39072   0.107E-01
   6 F= -.30869631E+03 E0= -.30869640E+03  d E =-.537485E-01
 trial-energy change:   -0.053749  1 .order   -0.053917   -0.062541   -0.045292
 step:   1.6784(harm=  1.6784)  dis= 0.03141  next Energy=  -308.755942 (dE=-0.113E+00)
 bond charge predicted
       N       E                     dE             d eps       ncg     rms          rms(c)
DAV:   1    -0.308604279920E+03    0.92078E-01   -0.26184E+01 41280   0.186E+01    0.228E+00
DAV:   2    -0.308855906359E+03   -0.25163E+00   -0.31552E+00 69276   0.882E+00    0.289E+00
DAV:   3    -0.308820942145E+03    0.34964E-01   -0.13542E+00 69780   0.537E+00    0.233E+00
DAV:   4    -0.308786651283E+03    0.34291E-01   -0.54192E-01 66528   0.342E+00    0.145E+00
DAV:   5    -0.308764502733E+03    0.22149E-01   -0.19434E-01 67032   0.186E+00    0.838E-01
DAV:   6    -0.308767512724E+03   -0.30100E-02   -0.13168E-01 71820   0.167E+00    0.952E-01
DAV:   7    -0.308761021483E+03    0.64912E-02   -0.90364E-02 73596   0.146E+00    0.581E-01
DAV:   8    -0.308757518557E+03    0.35029E-02   -0.42683E-02 73860   0.876E-01    0.345E-01
DAV:   9    -0.308756724731E+03    0.79383E-03   -0.10517E-02 61428   0.468E-01    0.236E-01
DAV:  10    -0.308756468296E+03    0.25643E-03   -0.35885E-03 62844   0.259E-01    0.153E-01
DAV:  11    -0.308756517098E+03   -0.48802E-04   -0.10701E-03 55464   0.134E-01    0.125E-01
DAV:  12    -0.308756640900E+03   -0.12380E-03   -0.12693E-03 55812   0.171E-01    0.114E-01
DAV:  13    -0.308756667072E+03   -0.26173E-04   -0.19529E-03 57180   0.229E-01    0.101E-01
DAV:  14    -0.308756568190E+03    0.98882E-04   -0.81321E-04 48048   0.154E-01
   7 F= -.30875657E+03 E0= -.30875785E+03  d E =-.114007E+00
 curvature:  -0.85 expect dE=-0.105E+00 dE for cont linesearch -0.182E-04
 trial: gam= 0.90765 g(F)=  0.299E-01 g(S)=  0.942E-01 ort = 0.171E-02 (trialstep = 0.402E+00)
 search vector abs. value=  0.240E+00
 bond charge predicted
       N       E                     dE             d eps       ncg     rms          rms(c)
DAV:   1    -0.308806659797E+03   -0.49993E-01   -0.51169E+00 48564   0.948E+00    0.199E+00
DAV:   2    -0.308827712579E+03   -0.21053E-01   -0.84686E-01 72816   0.428E+00    0.142E+00
DAV:   3    -0.308825050850E+03    0.26617E-02   -0.54983E-01 71520   0.285E+00    0.146E+00
DAV:   4    -0.308805129288E+03    0.19922E-01   -0.27701E-01 72564   0.231E+00    0.101E+00
DAV:   5    -0.308798336446E+03    0.67928E-02   -0.15295E-01 70008   0.184E+00    0.807E-01
DAV:   6    -0.308793219194E+03    0.51173E-02   -0.73045E-02 71496   0.121E+00    0.503E-01
DAV:   7    -0.308791938839E+03    0.12804E-02   -0.33916E-02 71364   0.803E-01    0.374E-01
DAV:   8    -0.308791216339E+03    0.72250E-03   -0.14420E-02 64188   0.509E-01    0.221E-01
DAV:   9    -0.308790842578E+03    0.37376E-03   -0.39040E-03 60012   0.242E-01    0.140E-01
DAV:  10    -0.308790925541E+03   -0.82963E-04   -0.90473E-04 51408   0.139E-01
   8 F= -.30879093E+03 E0= -.30879279E+03  d E =-.343574E-01
 trial-energy change:   -0.034357  1 .order   -0.034649   -0.050574   -0.018725
 step:   0.6390(harm=  0.6390)  dis= 0.01335  next Energy=  -308.796722 (dE=-0.402E-01)
 bond charge predicted
       N       E                     dE             d eps       ncg     rms          rms(c)
DAV:   1    -0.308800848408E+03   -0.10006E-01   -0.17811E+00 49884   0.560E+00    0.116E+00
DAV:   2    -0.308808317450E+03   -0.74690E-02   -0.29438E-01 72696   0.263E+00    0.926E-01
DAV:   3    -0.308810650372E+03   -0.23329E-02   -0.24026E-01 69840   0.213E+00    0.111E+00
DAV:   4    -0.308800411456E+03    0.10239E-01   -0.12507E-01 68232   0.169E+00    0.605E-01
DAV:   5    -0.308796844830E+03    0.35666E-02   -0.45721E-02 74676   0.931E-01    0.358E-01
DAV:   6    -0.308796029405E+03    0.81543E-03   -0.20664E-02 73836   0.604E-01    0.315E-01
DAV:   7    -0.308795450919E+03    0.57849E-03   -0.10512E-02 66108   0.449E-01    0.201E-01
DAV:   8    -0.308795364619E+03    0.86300E-04   -0.37897E-03 65160   0.257E-01    0.144E-01
DAV:   9    -0.308795291277E+03    0.73342E-04   -0.14868E-03 59388   0.166E-01    0.108E-01
DAV:  10    -0.308795340197E+03   -0.48920E-04   -0.82979E-04 48432   0.150E-01
   9 F= -.30879534E+03 E0= -.30879750E+03  d E =-.387720E-01
 curvature:  -0.61 expect dE=-0.286E-01 dE for cont linesearch -0.227E-04
 trial: gam= 0.39348 g(F)=  0.356E-01 g(S)=  0.113E-01 ort =-0.299E-02 (trialstep = 0.450E+00)
 search vector abs. value=  0.817E-01
 bond charge predicted
       N       E                     dE             d eps       ncg     rms          rms(c)
DAV:   1    -0.308803092754E+03   -0.78015E-02   -0.19931E+00 43212   0.479E+00    0.423E-01
DAV:   2    -0.308818354865E+03   -0.15262E-01   -0.17713E-01 67440   0.196E+00    0.654E-01
DAV:   3    -0.308815768778E+03    0.25861E-02   -0.58505E-02 67272   0.120E+00    0.421E-01
DAV:   4    -0.308814659979E+03    0.11088E-02   -0.14796E-02 69180   0.603E-01    0.279E-01
DAV:   5    -0.308814042475E+03    0.61750E-03   -0.79864E-03 64824   0.431E-01    0.192E-01
DAV:   6    -0.308813929347E+03    0.11313E-03   -0.42899E-03 64896   0.302E-01    0.167E-01
DAV:   7    -0.308813931651E+03   -0.23045E-05   -0.44583E-03 62820   0.288E-01    0.163E-01
DAV:   8    -0.308813661821E+03    0.26983E-03   -0.21137E-03 57336   0.235E-01    0.770E-02
DAV:   9    -0.308813588270E+03    0.73551E-04   -0.65757E-04 47556   0.128E-01
  10 F= -.30881359E+03 E0= -.30881610E+03  d E =-.182481E-01
 ZBRENT: can't locate minimum, use default step
 trial-energy change:   -0.018248  1 .order   -0.018300   -0.020574   -0.016026
 step:   1.7989(harm=  2.0345)  dis= 0.03057  next Energy=  -308.841878 (dE=-0.465E-01)
 bond charge predicted
       N       E                     dE             d eps       ncg     rms          rms(c)
DAV:   1    -0.308745086304E+03    0.68576E-01   -0.17958E+01 43344   0.144E+01    0.133E+00
DAV:   2    -0.308885409093E+03   -0.14032E+00   -0.16238E+00 67596   0.588E+00    0.193E+00
DAV:   3    -0.308861873041E+03    0.23536E-01   -0.54862E-01 67344   0.357E+00    0.131E+00
DAV:   4    -0.308850349563E+03    0.11523E-01   -0.15098E-01 70248   0.192E+00    0.831E-01
DAV:   5    -0.308844880720E+03    0.54688E-02   -0.71398E-02 65772   0.129E+00    0.561E-01
DAV:   6    -0.308843264636E+03    0.16161E-02   -0.33316E-02 71364   0.834E-01    0.450E-01
DAV:   7    -0.308843888108E+03   -0.62347E-03   -0.36360E-02 68292   0.783E-01    0.492E-01
DAV:   8    -0.308841552217E+03    0.23359E-02   -0.20112E-02 64728   0.682E-01    0.259E-01
DAV:   9    -0.308840789349E+03    0.76287E-03   -0.70087E-03 65148   0.383E-01    0.115E-01
DAV:  10    -0.308840746569E+03    0.42780E-04   -0.21346E-03 63660   0.196E-01    0.884E-02
DAV:  11    -0.308840725159E+03    0.21410E-04   -0.11491E-03 52560   0.158E-01    0.719E-02
DAV:  12    -0.308840672279E+03    0.52881E-04   -0.44825E-04 39660   0.115E-01
  11 F= -.30884067E+03 E0= -.30884393E+03  d E =-.453321E-01
 curvature:  -1.78 expect dE=-0.277E-01 dE for cont linesearch -0.362E-03
 trial: gam= 0.09559 g(F)=  0.106E-01 g(S)=  0.494E-02 ort = 0.408E-02 (trialstep = 0.720E+00)
 search vector abs. value=  0.171E-01
 bond charge predicted
       N       E                     dE             d eps       ncg     rms          rms(c)
DAV:   1    -0.308850953155E+03   -0.10228E-01   -0.12225E+00 52392   0.467E+00    0.976E-01
DAV:   2    -0.308860065081E+03   -0.91119E-02   -0.21927E-01 73416   0.219E+00    0.856E-01
DAV:   3    -0.308856864251E+03    0.32008E-02   -0.16645E-01 72756   0.169E+00    0.829E-01
DAV:   4    -0.308853374035E+03    0.34902E-02   -0.87098E-02 67212   0.139E+00    0.669E-01
DAV:   5    -0.308848780621E+03    0.45934E-02   -0.45532E-02 67884   0.924E-01    0.326E-01
DAV:   6    -0.308848291283E+03    0.48934E-03   -0.18218E-02 68172   0.637E-01    0.288E-01
DAV:   7    -0.308847713124E+03    0.57816E-03   -0.91675E-03 65772   0.443E-01    0.164E-01
DAV:   8    -0.308847575636E+03    0.13749E-03   -0.32948E-03 60492   0.265E-01    0.118E-01
DAV:   9    -0.308847468863E+03    0.10677E-03   -0.78074E-04 48312   0.151E-01    0.785E-02
DAV:  10    -0.308847459934E+03    0.89289E-05   -0.13530E-04 26832   0.687E-02
  12 F= -.30884746E+03 E0= -.30885061E+03  d E =-.678766E-02
 trial-energy change:   -0.006788  1 .order   -0.007021   -0.011481   -0.002562
 step:   0.9262(harm=  0.9262)  dis= 0.00568  next Energy=  -308.848062 (dE=-0.739E-02)
 bond charge predicted
       N       E                     dE             d eps       ncg     rms          rms(c)
DAV:   1    -0.308848056348E+03   -0.58749E-03   -0.10197E-01 53868   0.135E+00    0.269E-01
DAV:   2    -0.308848889919E+03   -0.83357E-03   -0.18048E-02 72972   0.650E-01    0.265E-01
DAV:   3    -0.308848560062E+03    0.32986E-03   -0.14843E-02 72204   0.520E-01    0.250E-01
DAV:   4    -0.308848209073E+03    0.35099E-03   -0.71060E-03 58476   0.396E-01    0.176E-01
DAV:   5    -0.308847891167E+03    0.31791E-03   -0.33539E-03 60120   0.253E-01    0.951E-02
DAV:   6    -0.308847855070E+03    0.36098E-04   -0.13894E-03 54744   0.188E-01    0.831E-02
DAV:   7    -0.308847801818E+03    0.53251E-04   -0.50424E-04 40284   0.128E-01
  13 F= -.30884780E+03 E0= -.30885092E+03  d E =-.712954E-02
 curvature:  -0.50 expect dE=-0.800E-02 dE for cont linesearch -0.136E-04
 trial: gam= 1.02470 g(F)=  0.528E-02 g(S)=  0.109E-01 ort = 0.686E-03 (trialstep = 0.366E+00)
 search vector abs. value=  0.355E-01
 bond charge predicted
       N       E                     dE             d eps       ncg     rms          rms(c)
DAV:   1    -0.308849016472E+03   -0.11614E-02   -0.62430E-01 41292   0.283E+00    0.332E-01
DAV:   2    -0.308855306267E+03   -0.62898E-02   -0.75767E-02 68628   0.138E+00    0.443E-01
DAV:   3    -0.308854446364E+03    0.85990E-03   -0.29199E-02 68364   0.829E-01    0.340E-01
DAV:   4    -0.308853552994E+03    0.89337E-03   -0.94169E-03 59400   0.464E-01    0.192E-01
DAV:   5    -0.308853323530E+03    0.22946E-03   -0.46618E-03 61908   0.327E-01    0.156E-01
DAV:   6    -0.308853214976E+03    0.10855E-03   -0.24841E-03 62760   0.241E-01    0.110E-01
DAV:   7    -0.308853136158E+03    0.78818E-04   -0.15665E-03 57024   0.194E-01    0.771E-02
DAV:   8    -0.308853080153E+03    0.56006E-04   -0.73914E-04 46788   0.143E-01
  14 F= -.30885308E+03 E0= -.30885611E+03  d E =-.527833E-02
 trial-energy change:   -0.005278  1 .order   -0.005353   -0.006171   -0.004536
 step:   1.3833(harm=  1.3833)  dis= 0.01378  next Energy=  -308.859448 (dE=-0.116E-01)
 bond charge predicted
       N       E                     dE             d eps       ncg     rms          rms(c)
DAV:   1    -0.308826688930E+03    0.26447E-01   -0.48037E+00 41496   0.781E+00    0.870E-01
DAV:   2    -0.308873863563E+03   -0.47175E-01   -0.55469E-01 68364   0.378E+00    0.120E+00
DAV:   3    -0.308865819271E+03    0.80443E-02   -0.20034E-01 68724   0.215E+00    0.833E-01
DAV:   4    -0.308861143531E+03    0.46757E-02   -0.66942E-02 66840   0.123E+00    0.533E-01
DAV:   5    -0.308859085160E+03    0.20584E-02   -0.34339E-02 67260   0.886E-01    0.392E-01
DAV:   6    -0.308858361301E+03    0.72386E-03   -0.16473E-02 68448   0.586E-01    0.265E-01
DAV:   7    -0.308858016697E+03    0.34460E-03   -0.10903E-02 73092   0.478E-01    0.215E-01
DAV:   8    -0.308857659133E+03    0.35756E-03   -0.55135E-03 64596   0.344E-01    0.145E-01
DAV:   9    -0.308857440755E+03    0.21838E-03   -0.18623E-03 60156   0.195E-01    0.746E-02
DAV:  10    -0.308857415790E+03    0.24965E-04   -0.28475E-04 34296   0.103E-01
  15 F= -.30885742E+03 E0= -.30886022E+03  d E =-.961397E-02
 curvature:  -1.46 expect dE=-0.106E-01 dE for cont linesearch -0.358E-03
 trial: gam= 0.00000 g(F)=  0.614E-02 g(S)=  0.116E-02 ort =-0.295E-02 (trialstep = 0.570E+00)
 search vector abs. value=  0.730E-02
 bond charge predicted
       N       E                     dE             d eps       ncg     rms          rms(c)
DAV:   1    -0.308859446848E+03   -0.20061E-02   -0.29015E-01 41388   0.198E+00    0.293E-01
DAV:   2    -0.308861954074E+03   -0.25072E-02   -0.36055E-02 70068   0.980E-01    0.308E-01
DAV:   3    -0.308861628771E+03    0.32530E-03   -0.16325E-02 67944   0.633E-01    0.255E-01
DAV:   4    -0.308861178419E+03    0.45035E-03   -0.77834E-03 59496   0.411E-01    0.173E-01
DAV:   5    -0.308860877758E+03    0.30066E-03   -0.33716E-03 60528   0.277E-01    0.106E-01
DAV:   6    -0.308860845616E+03    0.32142E-04   -0.18221E-03 58656   0.208E-01    0.893E-02
DAV:   7    -0.308860773644E+03    0.71972E-04   -0.10126E-03 50796   0.158E-01    0.584E-02
DAV:   8    -0.308860751575E+03    0.22069E-04   -0.37111E-04 35604   0.122E-01
  16 F= -.30886075E+03 E0= -.30886359E+03  d E =-.333579E-02
 trial-energy change:   -0.003336  1 .order   -0.003368   -0.004161   -0.002576
 step:   1.4961(harm=  1.4961)  dis= 0.00520  next Energy=  -308.862878 (dE=-0.546E-02)
 bond charge predicted
       N       E                     dE             d eps       ncg     rms          rms(c)
DAV:   1    -0.308858756943E+03    0.20167E-02   -0.76712E-01 41280   0.322E+00    0.447E-01
DAV:   2    -0.308865231438E+03   -0.64745E-02   -0.91003E-02 69228   0.153E+00    0.490E-01
DAV:   3    -0.308864415012E+03    0.81643E-03   -0.40720E-02 67632   0.973E-01    0.402E-01
DAV:   4    -0.308863274187E+03    0.11408E-02   -0.19063E-02 62988   0.640E-01    0.263E-01
DAV:   5    -0.308862536504E+03    0.73768E-03   -0.80999E-03 63936   0.406E-01    0.155E-01
DAV:   6    -0.308862592282E+03   -0.55779E-04   -0.45132E-03 60612   0.315E-01    0.157E-01
DAV:   7    -0.308862374066E+03    0.21822E-03   -0.25514E-03 60684   0.247E-01    0.907E-02
DAV:   8    -0.308862310966E+03    0.63100E-04   -0.88131E-04 50028   0.143E-01
  17 F= -.30886231E+03 E0= -.30886518E+03  d E =-.489518E-02
 curvature:  -0.75 expect dE=-0.415E-02 dE for cont linesearch -0.203E-04
 trial: gam= 0.82002 g(F)=  0.171E-02 g(S)=  0.384E-02 ort =-0.445E-03 (trialstep = 0.567E+00)
 search vector abs. value=  0.972E-02
 bond charge predicted
       N       E                     dE             d eps       ncg     rms          rms(c)
DAV:   1    -0.308864754605E+03   -0.23805E-02   -0.39014E-01 45120   0.257E+00    0.540E-01
DAV:   2    -0.308866588587E+03   -0.18340E-02   -0.60707E-02 71532   0.112E+00    0.375E-01
DAV:   3    -0.308866810247E+03   -0.22166E-03   -0.39846E-02 70788   0.752E-01    0.414E-01
DAV:   4    -0.308865038519E+03    0.17717E-02   -0.19786E-02 63708   0.609E-01    0.272E-01
DAV:   5    -0.308864608243E+03    0.43028E-03   -0.11082E-02 63996   0.504E-01    0.219E-01
DAV:   6    -0.308864184763E+03    0.42348E-03   -0.51637E-03 66156   0.316E-01    0.118E-01
DAV:   7    -0.308864156057E+03    0.28706E-04   -0.23857E-03 59724   0.225E-01    0.106E-01
DAV:   8    -0.308864082204E+03    0.73853E-04   -0.11735E-03 53772   0.164E-01    0.639E-02
DAV:   9    -0.308864034332E+03    0.47872E-04   -0.20591E-04 29652   0.930E-02
  18 F= -.30886403E+03 E0= -.30886689E+03  d E =-.172337E-02
 trial-energy change:   -0.001723  1 .order   -0.001825   -0.002936   -0.000713
 step:   0.7492(harm=  0.7492)  dis= 0.00316  next Energy=  -308.864250 (dE=-0.194E-02)
 bond charge predicted
       N       E                     dE             d eps       ncg     rms          rms(c)
DAV:   1    -0.308864115392E+03   -0.33188E-04   -0.40103E-02 43512   0.819E-01    0.160E-01
DAV:   2    -0.308864286174E+03   -0.17078E-03   -0.53182E-03 68988   0.347E-01    0.107E-01
DAV:   3    -0.308864348314E+03   -0.62140E-04   -0.31153E-03 65736   0.237E-01    0.122E-01
DAV:   4    -0.308864189658E+03    0.15866E-03   -0.16389E-03 56748   0.203E-01    0.818E-02
DAV:   5    -0.308864127360E+03    0.62298E-04   -0.80229E-04 48684   0.147E-01
  19 F= -.30886413E+03 E0= -.30886699E+03  d E =-.181639E-02
 curvature:  -0.70 expect dE=-0.190E-02 dE for cont linesearch -0.102E-05
 trial: gam= 0.32501 g(F)=  0.240E-02 g(S)=  0.295E-03 ort = 0.119E-03 (trialstep = 0.604E+00)
 search vector abs. value=  0.380E-02
 bond charge predicted
       N       E                     dE             d eps       ncg     rms          rms(c)
DAV:   1    -0.308864501752E+03   -0.31209E-03   -0.17571E-01 41412   0.143E+00    0.129E-01
DAV:   2    -0.308865838031E+03   -0.13363E-02   -0.16185E-02 66816   0.629E-01    0.140E-01
DAV:   3    -0.308865774474E+03    0.63557E-04   -0.36618E-03 68892   0.268E-01    0.117E-01
DAV:   4    -0.308865659511E+03    0.11496E-03   -0.11725E-03 51096   0.176E-01    0.789E-02
DAV:   5    -0.308865602461E+03    0.57050E-04   -0.44633E-04 40092   0.114E-01
  20 F= -.30886560E+03 E0= -.30886838E+03  d E =-.147510E-02
 ZBRENT: can't locate minimum, use default step
 trial-energy change:   -0.001475  1 .order   -0.001563   -0.001650   -0.001475
 step:   2.4142(harm=  5.6914)  dis= 0.00800  next Energy=  -308.871908 (dE=-0.778E-02)
 bond charge predicted
       N       E                     dE             d eps       ncg     rms          rms(c)
DAV:   1    -0.308858563290E+03    0.70962E-02   -0.15784E+00 41388   0.428E+00    0.380E-01
DAV:   2    -0.308871230767E+03   -0.12667E-01   -0.14681E-01 66996   0.193E+00    0.525E-01
DAV:   3    -0.308869808954E+03    0.14218E-02   -0.40787E-02 69816   0.980E-01    0.380E-01
DAV:   4    -0.308868721121E+03    0.10878E-02   -0.12457E-02 63960   0.562E-01    0.240E-01
DAV:   5    -0.308868263824E+03    0.45730E-03   -0.58149E-03 63924   0.337E-01    0.165E-01
DAV:   6    -0.308868287218E+03   -0.23394E-04   -0.37247E-03 62196   0.298E-01    0.179E-01
DAV:   7    -0.308868062204E+03    0.22501E-03   -0.28780E-03 61404   0.256E-01    0.951E-02
DAV:   8    -0.308867941375E+03    0.12083E-03   -0.78970E-04 50976   0.135E-01    0.525E-02
DAV:   9    -0.308867904559E+03    0.36816E-04   -0.31492E-04 36300   0.101E-01
  21 F= -.30886790E+03 E0= -.30887048E+03  d E =-.377720E-02
 curvature:  -2.31 expect dE=-0.474E-02 dE for cont linesearch -0.187E-03
 trial: gam= 0.59691 g(F)=  0.156E-02 g(S)=  0.487E-03 ort = 0.555E-03 (trialstep = 0.903E+00)
 search vector abs. value=  0.406E-02
 bond charge predicted
       N       E                     dE             d eps       ncg     rms          rms(c)
DAV:   1    -0.308866940325E+03    0.10011E-02   -0.44327E-01 41304   0.256E+00    0.407E-01
DAV:   2    -0.308870434824E+03   -0.34945E-02   -0.57198E-02 65772   0.108E+00    0.283E-01
DAV:   3    -0.308871101091E+03   -0.66627E-03   -0.23952E-02 71124   0.706E-01    0.371E-01
DAV:   4    -0.308869865153E+03    0.12359E-02   -0.13678E-02 61068   0.571E-01    0.216E-01
DAV:   5    -0.308869372038E+03    0.49311E-03   -0.54656E-03 65100   0.327E-01    0.115E-01
DAV:   6    -0.308869374305E+03   -0.22670E-05   -0.24103E-03 60324   0.226E-01    0.123E-01
DAV:   7    -0.308869262098E+03    0.11221E-03   -0.16086E-03 58596   0.198E-01    0.682E-02
DAV:   8    -0.308869231472E+03    0.30626E-04   -0.40020E-04 37332   0.113E-01
  22 F= -.30886923E+03 E0= -.30887173E+03  d E =-.132691E-02
 trial-energy change:   -0.001327  1 .order   -0.001349   -0.002148   -0.000551
 step:   1.2144(harm=  1.2144)  dis= 0.00433  next Energy=  -308.869349 (dE=-0.144E-02)
 bond charge predicted
       N       E                     dE             d eps       ncg     rms          rms(c)
DAV:   1    -0.308869045356E+03    0.21674E-03   -0.52905E-02 41724   0.898E-01    0.134E-01
DAV:   2    -0.308869511692E+03   -0.46634E-03   -0.69706E-03 66240   0.394E-01    0.117E-01
DAV:   3    -0.308869559135E+03   -0.47443E-04   -0.34750E-03 65400   0.285E-01    0.141E-01
DAV:   4    -0.308869396866E+03    0.16227E-03   -0.16155E-03 53988   0.204E-01    0.678E-02
DAV:   5    -0.308869337096E+03    0.59769E-04   -0.44706E-04 39384   0.110E-01
  23 F= -.30886934E+03 E0= -.30887182E+03  d E =-.143254E-02
 curvature:  -1.04 expect dE=-0.282E-02 dE for cont linesearch -0.148E-04
 trial: gam= 1.35897 g(F)=  0.665E-03 g(S)=  0.206E-02 ort = 0.241E-03 (trialstep = 0.360E+00)
 search vector abs. value=  0.109E-01
 bond charge predicted
       N       E                     dE             d eps       ncg     rms          rms(c)
DAV:   1    -0.308869014626E+03    0.38224E-03   -0.18660E-01 42804   0.152E+00    0.146E-01
DAV:   2    -0.308870705796E+03   -0.16912E-02   -0.19379E-02 65940   0.661E-01    0.194E-01
DAV:   3    -0.308870451112E+03    0.25468E-03   -0.49060E-03 67356   0.367E-01    0.125E-01
DAV:   4    -0.308870344687E+03    0.10642E-03   -0.14063E-03 55296   0.184E-01    0.883E-02
DAV:   5    -0.308870282201E+03    0.62486E-04   -0.47403E-04 40788   0.119E-01
  24 F= -.30887028E+03 E0= -.30887274E+03  d E =-.945105E-03
 ZBRENT: can't locate minimum, use default step
 trial-energy change:   -0.000945  1 .order   -0.001022   -0.001099   -0.000944
 step:   1.4418(harm=  2.5536)  dis= 0.00905  next Energy=  -308.873232 (dE=-0.389E-02)
 bond charge predicted
       N       E                     dE             d eps       ncg     rms          rms(c)
DAV:   1    -0.308859837147E+03    0.10508E-01   -0.16690E+00 42804   0.454E+00    0.441E-01
DAV:   2    -0.308875159675E+03   -0.15323E-01   -0.17470E-01 66132   0.199E+00    0.622E-01
DAV:   3    -0.308872722777E+03    0.24369E-02   -0.47394E-02 67548   0.107E+00    0.379E-01
DAV:   4    -0.308871938012E+03    0.78477E-03   -0.14729E-02 67344   0.581E-01    0.286E-01
DAV:   5    -0.308871258620E+03    0.67939E-03   -0.78471E-03 65616   0.435E-01    0.190E-01
DAV:   6    -0.308871139630E+03    0.11899E-03   -0.38607E-03 68676   0.265E-01    0.137E-01
DAV:   7    -0.308871135800E+03    0.38303E-05   -0.40554E-03 69000   0.254E-01    0.151E-01
DAV:   8    -0.308870939684E+03    0.19612E-03   -0.20351E-03 58080   0.212E-01    0.813E-02
DAV:   9    -0.308870869778E+03    0.69906E-04   -0.47803E-04 42600   0.108E-01
  25 F= -.30887087E+03 E0= -.30887329E+03  d E =-.153268E-02
 curvature:  -3.38 expect dE=-0.668E-02 dE for cont linesearch -0.221E-03
 trial: gam= 0.00000 g(F)=  0.150E-02 g(S)=  0.474E-03 ort =-0.843E-03 (trialstep = 0.577E+00)
 search vector abs. value=  0.197E-02
 bond charge predicted
       N       E                     dE             d eps       ncg     rms          rms(c)
DAV:   1    -0.308871786339E+03   -0.84666E-03   -0.88932E-02 41904   0.112E+00    0.249E-01
DAV:   2    -0.308872334858E+03   -0.54852E-03   -0.12249E-02 73236   0.566E-01    0.223E-01
DAV:   3    -0.308872197810E+03    0.13705E-03   -0.97805E-03 67680   0.451E-01    0.211E-01
DAV:   4    -0.308871940985E+03    0.25683E-03   -0.55297E-03 59484   0.354E-01    0.160E-01
DAV:   5    -0.308871660744E+03    0.28024E-03   -0.23870E-03 59244   0.224E-01    0.778E-02
DAV:   6    -0.308871630004E+03    0.30740E-04   -0.10440E-03 52248   0.155E-01    0.717E-02
DAV:   7    -0.308871594533E+03    0.35471E-04   -0.55178E-04 42648   0.127E-01
  26 F= -.30887159E+03 E0= -.30887398E+03  d E =-.724755E-03
 trial-energy change:   -0.000725  1 .order   -0.000747   -0.001138   -0.000356
 step:   0.8397(harm=  0.8397)  dis= 0.00375  next Energy=  -308.871698 (dE=-0.829E-03)
 bond charge predicted
       N       E                     dE             d eps       ncg     rms          rms(c)
DAV:   1    -0.308871660300E+03   -0.30296E-04   -0.18380E-02 45072   0.518E-01    0.103E-01
DAV:   2    -0.308871854810E+03   -0.19451E-03   -0.27852E-03 70116   0.268E-01    0.129E-01
DAV:   3    -0.308871741599E+03    0.11321E-03   -0.24665E-03 59028   0.228E-01    0.990E-02
DAV:   4    -0.308871683723E+03    0.57876E-04   -0.10380E-03 50916   0.152E-01    0.602E-02
DAV:   5    -0.308871632014E+03    0.51709E-04   -0.31995E-04 37236   0.923E-02
  27 F= -.30887163E+03 E0= -.30887402E+03  d E =-.762236E-03
 curvature:  -0.42 expect dE=-0.407E-03 dE for cont linesearch -0.779E-09
 trial: gam= 0.49236 g(F)=  0.268E-03 g(S)=  0.702E-03 ort =-0.191E-05 (trialstep = 0.629E+00)
 search vector abs. value=  0.145E-02
 reached required accuracy - stopping structural energy minimisation
 writing wavefunctions
VASP is done!
