<?xml version="1.0" encoding="ISO-8859-1"?>
<modeling>
 <generator>
  <i name="program" type="string">vasp </i>
  <i name="version" type="string">5.4.4.18Apr17-6-g9f103f2a35  </i>
  <i name="subversion" type="string">(build Aug 09 2018 16:20:53) complex            parallel </i>
  <i name="platform" type="string">LinuxIFC </i>
  <i name="date" type="string">2020 04 30 </i>
  <i name="time" type="string">12:14:41 </i>
 </generator>
 <incar>
  <i type="string" name="SYSTEM"> Nb - Mo - Ta - Ti - V SQS</i>
  <i type="string" name="PREC">normal</i>
  <i type="int" name="ICHARG">     0</i>
  <i type="int" name="IBRION">     2</i>
  <i type="int" name="NSW">    50</i>
  <i type="int" name="ISIF">     3</i>
  <i name="ENCUT">    600.00000000</i>
  <i type="string" name="LREAL"> Auto</i>
  <i type="int" name="ISMEAR">     1</i>
  <i name="SIGMA">      0.20000000</i>
  <v type="int" name="KPOINT_BSE">    -1     0     0     0</v>
  <i type="string" name="GGA"> PS</i>
 </incar>
 <structure name="primitive_cell" >
  <crystal>
   <varray name="basis" >
    <v>      -3.16000000      -3.16000000      -3.16000000 </v>
    <v>       1.58000000       1.58000000      -7.90000000 </v>
    <v>       7.90000000      -7.90000000      -1.58000000 </v>
   </varray>
   <i name="volume">    473.31744000 </i>
   <varray name="rec_basis" >
    <v>      -0.13713080      -0.12658228      -0.05274262 </v>
    <v>       0.04219409       0.06329114      -0.10548523 </v>
    <v>       0.06329114      -0.06329114       0.00000000 </v>
   </varray>
  </crystal>
  <varray name="positions" >
   <v>      -0.03333333      -0.06666667       0.40000000 </v>
   <v>       0.30000000      -0.40000000       0.40000000 </v>
   <v>      -0.10000000      -0.20000000       0.20000000 </v>
   <v>       0.46666667      -0.06666667       0.40000000 </v>
   <v>      -0.13333333      -0.26666667      -0.40000000 </v>
   <v>       0.03333333       0.06666667      -0.40000000 </v>
   <v>      -0.36666667       0.26666667       0.40000000 </v>
   <v>       0.40000000      -0.20000000       0.20000000 </v>
   <v>      -0.20000000      -0.40000000       0.40000000 </v>
   <v>      -0.43333333       0.13333333       0.20000000 </v>
   <v>       0.36666667      -0.26666667      -0.40000000 </v>
   <v>       0.13333333       0.26666667       0.40000000 </v>
   <v>      -0.46666667       0.06666667      -0.40000000 </v>
   <v>       0.23333333       0.46666667       0.20000000 </v>
   <v>       0.20000000       0.40000000      -0.40000000 </v>
   <v>       0.00000000       0.00000000       0.00000000 </v>
   <v>      -0.06666667      -0.13333333      -0.20000000 </v>
   <v>      -0.30000000       0.40000000      -0.40000000 </v>
   <v>      -0.26666667       0.46666667       0.20000000 </v>
   <v>       0.33333333      -0.33333333       0.00000000 </v>
   <v>       0.43333333      -0.13333333      -0.20000000 </v>
   <v>      -0.50000000       0.00000000       0.00000000 </v>
   <v>       0.26666667      -0.46666667      -0.20000000 </v>
   <v>      -0.33333333       0.33333333       0.00000000 </v>
   <v>      -0.40000000       0.20000000      -0.20000000 </v>
   <v>      -0.16666667      -0.33333333       0.00000000 </v>
   <v>      -0.23333333      -0.46666667      -0.20000000 </v>
   <v>       0.16666667       0.33333333       0.00000000 </v>
   <v>       0.10000000       0.20000000      -0.20000000 </v>
  </varray>
 </structure>
 <varray name="primitive_index" >
  <v type="int" >        1 </v>
  <v type="int" >       18 </v>
  <v type="int" >        7 </v>
  <v type="int" >       20 </v>
  <v type="int" >       19 </v>
  <v type="int" >        6 </v>
  <v type="int" >        2 </v>
  <v type="int" >       16 </v>
  <v type="int" >        8 </v>
  <v type="int" >       15 </v>
  <v type="int" >       11 </v>
  <v type="int" >       12 </v>
  <v type="int" >       27 </v>
  <v type="int" >       29 </v>
  <v type="int" >       23 </v>
  <v type="int" >        4 </v>
  <v type="int" >       14 </v>
  <v type="int" >       25 </v>
  <v type="int" >        9 </v>
  <v type="int" >       28 </v>
  <v type="int" >       17 </v>
  <v type="int" >        3 </v>
  <v type="int" >       22 </v>
  <v type="int" >       10 </v>
  <v type="int" >       26 </v>
  <v type="int" >       13 </v>
  <v type="int" >       24 </v>
  <v type="int" >       21 </v>
  <v type="int" >        5 </v>
 </varray>
 <kpoints>
  <generation param="Gamma">
   <v type="int" name="divisions">       7        7        7 </v>
   <v name="usershift">      0.00000000       0.00000000       0.00000000 </v>
   <v name="genvec1">      0.14285714       0.00000000       0.00000000 </v>
   <v name="genvec2">     -0.00000000       0.14285714       0.00000000 </v>
   <v name="genvec3">      0.00000000       0.00000000       0.14285714 </v>
   <v name="shift">      0.00000000       0.00000000       0.00000000 </v>
  </generation>
  <varray name="kpointlist" >
   <v>       0.00000000       0.00000000       0.00000000 </v>
   <v>       0.14285714       0.00000000      -0.00000000 </v>
   <v>       0.28571429       0.00000000       0.00000000 </v>
   <v>       0.42857143       0.00000000      -0.00000000 </v>
   <v>      -0.00000000       0.14285714       0.00000000 </v>
   <v>       0.14285714       0.14285714      -0.00000000 </v>
   <v>       0.28571429       0.14285714       0.00000000 </v>
   <v>       0.42857143       0.14285714      -0.00000000 </v>
   <v>      -0.42857143       0.14285714       0.00000000 </v>
   <v>      -0.28571429       0.14285714       0.00000000 </v>
   <v>      -0.14285714       0.14285714       0.00000000 </v>
   <v>       0.00000000       0.28571429      -0.00000000 </v>
   <v>       0.14285714       0.28571429      -0.00000000 </v>
   <v>       0.28571429       0.28571429      -0.00000000 </v>
   <v>       0.42857143       0.28571429      -0.00000000 </v>
   <v>      -0.42857143       0.28571429      -0.00000000 </v>
   <v>      -0.28571429       0.28571429      -0.00000000 </v>
   <v>      -0.14285714       0.28571429      -0.00000000 </v>
   <v>      -0.00000000       0.42857143      -0.00000000 </v>
   <v>       0.14285714       0.42857143       0.00000000 </v>
   <v>       0.28571429       0.42857143       0.00000000 </v>
   <v>       0.42857143       0.42857143      -0.00000000 </v>
   <v>      -0.42857143       0.42857143       0.00000000 </v>
   <v>      -0.28571429       0.42857143      -0.00000000 </v>
   <v>      -0.14285714       0.42857143      -0.00000000 </v>
   <v>       0.00000000       0.00000000       0.14285714 </v>
   <v>       0.14285714       0.00000000       0.14285714 </v>
   <v>       0.28571429       0.00000000       0.14285714 </v>
   <v>       0.42857143       0.00000000       0.14285714 </v>
   <v>      -0.42857143       0.00000000       0.14285714 </v>
   <v>      -0.28571429       0.00000000       0.14285714 </v>
   <v>      -0.14285714      -0.00000000       0.14285714 </v>
   <v>      -0.00000000       0.14285714       0.14285714 </v>
   <v>       0.14285714       0.14285714       0.14285714 </v>
   <v>       0.28571429       0.14285714       0.14285714 </v>
   <v>       0.42857143       0.14285714       0.14285714 </v>
   <v>      -0.42857143       0.14285714       0.14285714 </v>
   <v>      -0.28571429       0.14285714       0.14285714 </v>
   <v>      -0.14285714       0.14285714       0.14285714 </v>
   <v>      -0.00000000       0.28571429       0.14285714 </v>
   <v>       0.14285714       0.28571429       0.14285714 </v>
   <v>       0.28571429       0.28571429       0.14285714 </v>
   <v>       0.42857143       0.28571429       0.14285714 </v>
   <v>      -0.42857143       0.28571429       0.14285714 </v>
   <v>      -0.28571429       0.28571429       0.14285714 </v>
   <v>      -0.14285714       0.28571429       0.14285714 </v>
   <v>       0.00000000       0.42857143       0.14285714 </v>
   <v>       0.14285714       0.42857143       0.14285714 </v>
   <v>       0.28571429       0.42857143       0.14285714 </v>
   <v>       0.42857143       0.42857143       0.14285714 </v>
   <v>      -0.42857143       0.42857143       0.14285714 </v>
   <v>      -0.28571429       0.42857143       0.14285714 </v>
   <v>      -0.14285714       0.42857143       0.14285714 </v>
   <v>       0.00000000      -0.42857143       0.14285714 </v>
   <v>       0.14285714      -0.42857143       0.14285714 </v>
   <v>       0.28571429      -0.42857143       0.14285714 </v>
   <v>       0.42857143      -0.42857143       0.14285714 </v>
   <v>      -0.42857143      -0.42857143       0.14285714 </v>
   <v>      -0.28571429      -0.42857143       0.14285714 </v>
   <v>      -0.14285714      -0.42857143       0.14285714 </v>
   <v>       0.00000000      -0.28571429       0.14285714 </v>
   <v>       0.14285714      -0.28571429       0.14285714 </v>
   <v>       0.28571429      -0.28571429       0.14285714 </v>
   <v>       0.42857143      -0.28571429       0.14285714 </v>
   <v>      -0.42857143      -0.28571429       0.14285714 </v>
   <v>      -0.28571429      -0.28571429       0.14285714 </v>
   <v>      -0.14285714      -0.28571429       0.14285714 </v>
   <v>       0.00000000      -0.14285714       0.14285714 </v>
   <v>       0.14285714      -0.14285714       0.14285714 </v>
   <v>       0.28571429      -0.14285714       0.14285714 </v>
   <v>       0.42857143      -0.14285714       0.14285714 </v>
   <v>      -0.42857143      -0.14285714       0.14285714 </v>
   <v>      -0.28571429      -0.14285714       0.14285714 </v>
   <v>      -0.14285714      -0.14285714       0.14285714 </v>
   <v>       0.00000000       0.00000000       0.28571429 </v>
   <v>       0.14285714       0.00000000       0.28571429 </v>
   <v>       0.28571429       0.00000000       0.28571429 </v>
   <v>       0.42857143       0.00000000       0.28571429 </v>
   <v>      -0.42857143      -0.00000000       0.28571429 </v>
   <v>      -0.28571429      -0.00000000       0.28571429 </v>
   <v>      -0.14285714      -0.00000000       0.28571429 </v>
   <v>      -0.00000000       0.14285714       0.28571429 </v>
   <v>       0.14285714       0.14285714       0.28571429 </v>
   <v>       0.28571429       0.14285714       0.28571429 </v>
   <v>       0.42857143       0.14285714       0.28571429 </v>
   <v>      -0.42857143       0.14285714       0.28571429 </v>
   <v>      -0.28571429       0.14285714       0.28571429 </v>
   <v>      -0.14285714       0.14285714       0.28571429 </v>
   <v>      -0.00000000       0.28571429       0.28571429 </v>
   <v>       0.14285714       0.28571429       0.28571429 </v>
   <v>       0.28571429       0.28571429       0.28571429 </v>
   <v>       0.42857143       0.28571429       0.28571429 </v>
   <v>      -0.42857143       0.28571429       0.28571429 </v>
   <v>      -0.28571429       0.28571429       0.28571429 </v>
   <v>      -0.14285714       0.28571429       0.28571429 </v>
   <v>       0.00000000       0.42857143       0.28571429 </v>
   <v>       0.14285714       0.42857143       0.28571429 </v>
   <v>       0.28571429       0.42857143       0.28571429 </v>
   <v>       0.42857143       0.42857143       0.28571429 </v>
   <v>      -0.42857143       0.42857143       0.28571429 </v>
   <v>      -0.28571429       0.42857143       0.28571429 </v>
   <v>      -0.14285714       0.42857143       0.28571429 </v>
   <v>      -0.00000000      -0.42857143       0.28571429 </v>
   <v>       0.14285714      -0.42857143       0.28571429 </v>
   <v>       0.28571429      -0.42857143       0.28571429 </v>
   <v>       0.42857143      -0.42857143       0.28571429 </v>
   <v>      -0.42857143      -0.42857143       0.28571429 </v>
   <v>      -0.28571429      -0.42857143       0.28571429 </v>
   <v>      -0.14285714      -0.42857143       0.28571429 </v>
   <v>       0.00000000      -0.28571429       0.28571429 </v>
   <v>       0.14285714      -0.28571429       0.28571429 </v>
   <v>       0.28571429      -0.28571429       0.28571429 </v>
   <v>       0.42857143      -0.28571429       0.28571429 </v>
   <v>      -0.42857143      -0.28571429       0.28571429 </v>
   <v>      -0.28571429      -0.28571429       0.28571429 </v>
   <v>      -0.14285714      -0.28571429       0.28571429 </v>
   <v>       0.00000000      -0.14285714       0.28571429 </v>
   <v>       0.14285714      -0.14285714       0.28571429 </v>
   <v>       0.28571429      -0.14285714       0.28571429 </v>
   <v>       0.42857143      -0.14285714       0.28571429 </v>
   <v>      -0.42857143      -0.14285714       0.28571429 </v>
   <v>      -0.28571429      -0.14285714       0.28571429 </v>
   <v>      -0.14285714      -0.14285714       0.28571429 </v>
   <v>       0.00000000       0.00000000       0.42857143 </v>
   <v>       0.14285714       0.00000000       0.42857143 </v>
   <v>       0.28571429       0.00000000       0.42857143 </v>
   <v>       0.42857143      -0.00000000       0.42857143 </v>
   <v>      -0.42857143      -0.00000000       0.42857143 </v>
   <v>      -0.28571429       0.00000000       0.42857143 </v>
   <v>      -0.14285714      -0.00000000       0.42857143 </v>
   <v>      -0.00000000       0.14285714       0.42857143 </v>
   <v>       0.14285714       0.14285714       0.42857143 </v>
   <v>       0.28571429       0.14285714       0.42857143 </v>
   <v>       0.42857143       0.14285714       0.42857143 </v>
   <v>      -0.42857143       0.14285714       0.42857143 </v>
   <v>      -0.28571429       0.14285714       0.42857143 </v>
   <v>      -0.14285714       0.14285714       0.42857143 </v>
   <v>       0.00000000       0.28571429       0.42857143 </v>
   <v>       0.14285714       0.28571429       0.42857143 </v>
   <v>       0.28571429       0.28571429       0.42857143 </v>
   <v>       0.42857143       0.28571429       0.42857143 </v>
   <v>      -0.42857143       0.28571429       0.42857143 </v>
   <v>      -0.28571429       0.28571429       0.42857143 </v>
   <v>      -0.14285714       0.28571429       0.42857143 </v>
   <v>       0.00000000       0.42857143       0.42857143 </v>
   <v>       0.14285714       0.42857143       0.42857143 </v>
   <v>       0.28571429       0.42857143       0.42857143 </v>
   <v>       0.42857143       0.42857143       0.42857143 </v>
   <v>      -0.42857143       0.42857143       0.42857143 </v>
   <v>      -0.28571429       0.42857143       0.42857143 </v>
   <v>      -0.14285714       0.42857143       0.42857143 </v>
   <v>       0.00000000      -0.42857143       0.42857143 </v>
   <v>       0.14285714      -0.42857143       0.42857143 </v>
   <v>       0.28571429      -0.42857143       0.42857143 </v>
   <v>       0.42857143      -0.42857143       0.42857143 </v>
   <v>      -0.42857143      -0.42857143       0.42857143 </v>
   <v>      -0.28571429      -0.42857143       0.42857143 </v>
   <v>      -0.14285714      -0.42857143       0.42857143 </v>
   <v>      -0.00000000      -0.28571429       0.42857143 </v>
   <v>       0.14285714      -0.28571429       0.42857143 </v>
   <v>       0.28571429      -0.28571429       0.42857143 </v>
   <v>       0.42857143      -0.28571429       0.42857143 </v>
   <v>      -0.42857143      -0.28571429       0.42857143 </v>
   <v>      -0.28571429      -0.28571429       0.42857143 </v>
   <v>      -0.14285714      -0.28571429       0.42857143 </v>
   <v>       0.00000000      -0.14285714       0.42857143 </v>
   <v>       0.14285714      -0.14285714       0.42857143 </v>
   <v>       0.28571429      -0.14285714       0.42857143 </v>
   <v>       0.42857143      -0.14285714       0.42857143 </v>
   <v>      -0.42857143      -0.14285714       0.42857143 </v>
   <v>      -0.28571429      -0.14285714       0.42857143 </v>
   <v>      -0.14285714      -0.14285714       0.42857143 </v>
  </varray>
  <varray name="weights" >
   <v>       0.00291545 </v>
   <v>       0.00583090 </v>
   <v>       0.00583090 </v>
   <v>       0.00583090 </v>
   <v>       0.00583090 </v>
   <v>       0.00583090 </v>
   <v>       0.00583090 </v>
   <v>       0.00583090 </v>
   <v>       0.00583090 </v>
   <v>       0.00583090 </v>
   <v>       0.00583090 </v>
   <v>       0.00583090 </v>
   <v>       0.00583090 </v>
   <v>       0.00583090 </v>
   <v>       0.00583090 </v>
   <v>       0.00583090 </v>
   <v>       0.00583090 </v>
   <v>       0.00583090 </v>
   <v>       0.00583090 </v>
   <v>       0.00583090 </v>
   <v>       0.00583090 </v>
   <v>       0.00583090 </v>
   <v>       0.00583090 </v>
   <v>       0.00583090 </v>
   <v>       0.00583090 </v>
   <v>       0.00583090 </v>
   <v>       0.00583090 </v>
   <v>       0.00583090 </v>
   <v>       0.00583090 </v>
   <v>       0.00583090 </v>
   <v>       0.00583090 </v>
   <v>       0.00583090 </v>
   <v>       0.00583090 </v>
   <v>       0.00583090 </v>
   <v>       0.00583090 </v>
   <v>       0.00583090 </v>
   <v>       0.00583090 </v>
   <v>       0.00583090 </v>
   <v>       0.00583090 </v>
   <v>       0.00583090 </v>
   <v>       0.00583090 </v>
   <v>       0.00583090 </v>
   <v>       0.00583090 </v>
   <v>       0.00583090 </v>
   <v>       0.00583090 </v>
   <v>       0.00583090 </v>
   <v>       0.00583090 </v>
   <v>       0.00583090 </v>
   <v>       0.00583090 </v>
   <v>       0.00583090 </v>
   <v>       0.00583090 </v>
   <v>       0.00583090 </v>
   <v>       0.00583090 </v>
   <v>       0.00583090 </v>
   <v>       0.00583090 </v>
   <v>       0.00583090 </v>
   <v>       0.00583090 </v>
   <v>       0.00583090 </v>
   <v>       0.00583090 </v>
   <v>       0.00583090 </v>
   <v>       0.00583090 </v>
   <v>       0.00583090 </v>
   <v>       0.00583090 </v>
   <v>       0.00583090 </v>
   <v>       0.00583090 </v>
   <v>       0.00583090 </v>
   <v>       0.00583090 </v>
   <v>       0.00583090 </v>
   <v>       0.00583090 </v>
   <v>       0.00583090 </v>
   <v>       0.00583090 </v>
   <v>       0.00583090 </v>
   <v>       0.00583090 </v>
   <v>       0.00583090 </v>
   <v>       0.00583090 </v>
   <v>       0.00583090 </v>
   <v>       0.00583090 </v>
   <v>       0.00583090 </v>
   <v>       0.00583090 </v>
   <v>       0.00583090 </v>
   <v>       0.00583090 </v>
   <v>       0.00583090 </v>
   <v>       0.00583090 </v>
   <v>       0.00583090 </v>
   <v>       0.00583090 </v>
   <v>       0.00583090 </v>
   <v>       0.00583090 </v>
   <v>       0.00583090 </v>
   <v>       0.00583090 </v>
   <v>       0.00583090 </v>
   <v>       0.00583090 </v>
   <v>       0.00583090 </v>
   <v>       0.00583090 </v>
   <v>       0.00583090 </v>
   <v>       0.00583090 </v>
   <v>       0.00583090 </v>
   <v>       0.00583090 </v>
   <v>       0.00583090 </v>
   <v>       0.00583090 </v>
   <v>       0.00583090 </v>
   <v>       0.00583090 </v>
   <v>       0.00583090 </v>
   <v>       0.00583090 </v>
   <v>       0.00583090 </v>
   <v>       0.00583090 </v>
   <v>       0.00583090 </v>
   <v>       0.00583090 </v>
   <v>       0.00583090 </v>
   <v>       0.00583090 </v>
   <v>       0.00583090 </v>
   <v>       0.00583090 </v>
   <v>       0.00583090 </v>
   <v>       0.00583090 </v>
   <v>       0.00583090 </v>
   <v>       0.00583090 </v>
   <v>       0.00583090 </v>
   <v>       0.00583090 </v>
   <v>       0.00583090 </v>
   <v>       0.00583090 </v>
   <v>       0.00583090 </v>
   <v>       0.00583090 </v>
   <v>       0.00583090 </v>
   <v>       0.00583090 </v>
   <v>       0.00583090 </v>
   <v>       0.00583090 </v>
   <v>       0.00583090 </v>
   <v>       0.00583090 </v>
   <v>       0.00583090 </v>
   <v>       0.00583090 </v>
   <v>       0.00583090 </v>
   <v>       0.00583090 </v>
   <v>       0.00583090 </v>
   <v>       0.00583090 </v>
   <v>       0.00583090 </v>
   <v>       0.00583090 </v>
   <v>       0.00583090 </v>
   <v>       0.00583090 </v>
   <v>       0.00583090 </v>
   <v>       0.00583090 </v>
   <v>       0.00583090 </v>
   <v>       0.00583090 </v>
   <v>       0.00583090 </v>
   <v>       0.00583090 </v>
   <v>       0.00583090 </v>
   <v>       0.00583090 </v>
   <v>       0.00583090 </v>
   <v>       0.00583090 </v>
   <v>       0.00583090 </v>
   <v>       0.00583090 </v>
   <v>       0.00583090 </v>
   <v>       0.00583090 </v>
   <v>       0.00583090 </v>
   <v>       0.00583090 </v>
   <v>       0.00583090 </v>
   <v>       0.00583090 </v>
   <v>       0.00583090 </v>
   <v>       0.00583090 </v>
   <v>       0.00583090 </v>
   <v>       0.00583090 </v>
   <v>       0.00583090 </v>
   <v>       0.00583090 </v>
   <v>       0.00583090 </v>
   <v>       0.00583090 </v>
   <v>       0.00583090 </v>
   <v>       0.00583090 </v>
   <v>       0.00583090 </v>
   <v>       0.00583090 </v>
   <v>       0.00583090 </v>
   <v>       0.00583090 </v>
   <v>       0.00583090 </v>
   <v>       0.00583090 </v>
   <v>       0.00583090 </v>
  </varray>
 </kpoints>
 <parameters>
  <separator name="general" >
   <i type="string" name="SYSTEM">Nb - Mo - Ta - Ti - V SQS</i>
   <i type="logical" name="LCOMPAT"> F  </i>
  </separator>
  <separator name="electronic" >
   <i type="string" name="PREC">normal</i>
   <i name="ENMAX">    600.00000000</i>
   <i name="ENAUG">    455.65900000</i>
   <i name="EDIFF">      0.00010000</i>
   <i type="int" name="IALGO">    38</i>
   <i type="int" name="IWAVPR">    11</i>
   <i type="int" name="NBANDS">   120</i>
   <i name="NELECT">    194.00000000</i>
   <i type="int" name="TURBO">     0</i>
   <i type="int" name="IRESTART">     0</i>
   <i type="int" name="NREBOOT">     0</i>
   <i type="int" name="NMIN">     0</i>
   <i name="EREF">      0.00000000</i>
   <separator name="electronic smearing" >
    <i type="int" name="ISMEAR">     1</i>
    <i name="SIGMA">      0.20000000</i>
    <i name="KSPACING">      0.50000000</i>
    <i type="logical" name="KGAMMA"> T  </i>
   </separator>
   <separator name="electronic projectors" >
    <i type="logical" name="LREAL"> T  </i>
    <v name="ROPT">     -0.00050000     -0.00050000     -0.00050000     -0.00050000     -0.00050000</v>
    <i type="int" name="LMAXPAW">  -100</i>
    <i type="int" name="LMAXMIX">     2</i>
    <i type="logical" name="NLSPLINE"> F  </i>
   </separator>
   <separator name="electronic startup" >
    <i type="int" name="ISTART">     0</i>
    <i type="int" name="ICHARG">     0</i>
    <i type="int" name="INIWAV">     1</i>
   </separator>
   <separator name="electronic spin" >
    <i type="int" name="ISPIN">     1</i>
    <i type="logical" name="LNONCOLLINEAR"> F  </i>
    <v name="MAGMOM">      1.00000000      1.00000000      1.00000000      1.00000000      1.00000000      1.00000000      1.00000000      1.00000000      1.00000000      1.00000000      1.00000000      1.00000000      1.00000000      1.00000000      1.00000000      1.00000000      1.00000000      1.00000000      1.00000000      1.00000000
      1.00000000      1.00000000      1.00000000      1.00000000      1.00000000      1.00000000      1.00000000      1.00000000      1.00000000</v>
    <i name="NUPDOWN">     -1.00000000</i>
    <i type="logical" name="LSORBIT"> F  </i>
    <v name="SAXIS">      0.00000000      0.00000000      1.00000000</v>
    <i type="logical" name="LSPIRAL"> F  </i>
    <v name="QSPIRAL">      0.00000000      0.00000000      0.00000000</v>
    <i type="logical" name="LZEROZ"> F  </i>
   </separator>
   <separator name="electronic exchange-correlation" >
    <i type="logical" name="LASPH"> F  </i>
    <i type="logical" name="LMETAGGA"> F  </i>
   </separator>
   <separator name="electronic convergence" >
    <i type="int" name="NELM">    60</i>
    <i type="int" name="NELMDL">    -5</i>
    <i type="int" name="NELMIN">     2</i>
    <i name="ENINI">    600.00000000</i>
    <separator name="electronic convergence detail" >
     <i type="logical" name="LDIAG"> T  </i>
     <i type="logical" name="LSUBROT"> F  </i>
     <i name="WEIMIN">      0.00100000</i>
     <i name="EBREAK">      0.00000021</i>
     <i name="DEPER">      0.30000000</i>
     <i type="int" name="NRMM">     4</i>
     <i name="TIME">      0.40000000</i>
    </separator>
   </separator>
   <separator name="electronic mixer" >
    <i name="AMIX">      0.40000000</i>
    <i name="BMIX">      1.00000000</i>
    <i name="AMIN">      0.10000000</i>
    <i name="AMIX_MAG">      1.60000000</i>
    <i name="BMIX_MAG">      1.00000000</i>
    <separator name="electronic mixer details" >
     <i type="int" name="IMIX">     4</i>
     <i type="logical" name="MIXFIRST"> F  </i>
     <i type="int" name="MAXMIX">   -45</i>
     <i name="WC">    100.00000000</i>
     <i type="int" name="INIMIX">     1</i>
     <i type="int" name="MIXPRE">     1</i>
     <i type="int" name="MREMOVE">     5</i>
    </separator>
   </separator>
   <separator name="electronic dipolcorrection" >
    <i type="logical" name="LDIPOL"> F  </i>
    <i type="logical" name="LMONO"> F  </i>
    <i type="int" name="IDIPOL">     0</i>
    <i name="EPSILON">      1.00000000</i>
    <v name="DIPOL">   -100.00000000   -100.00000000   -100.00000000</v>
    <i name="EFIELD">      0.00000000</i>
   </separator>
  </separator>
  <separator name="grids" >
   <i type="int" name="NGX">    36</i>
   <i type="int" name="NGY">    50</i>
   <i type="int" name="NGZ">    70</i>
   <i type="int" name="NGXF">    72</i>
   <i type="int" name="NGYF">   100</i>
   <i type="int" name="NGZF">   140</i>
   <i type="logical" name="ADDGRID"> F  </i>
  </separator>
  <separator name="ionic" >
   <i type="int" name="NSW">    50</i>
   <i type="int" name="IBRION">     2</i>
   <i type="int" name="MDALGO">     0</i>
   <i type="int" name="ISIF">     3</i>
   <i name="PSTRESS">      0.00000000</i>
   <i name="EDIFFG">      0.00100000</i>
   <i type="int" name="NFREE">     1</i>
   <i name="POTIM">      0.50000000</i>
   <i name="SMASS">     -3.00000000</i>
   <i name="SCALEE">      1.00000000</i>
  </separator>
  <separator name="ionic md" >
   <i name="TEBEG">      0.00010000</i>
   <i name="TEEND">      0.00010000</i>
   <i type="int" name="NBLOCK">     1</i>
   <i type="int" name="KBLOCK">    50</i>
   <i type="int" name="NPACO">   256</i>
   <i name="APACO">     16.00000000</i>
  </separator>
  <separator name="symmetry" >
   <i type="int" name="ISYM">     2</i>
   <i name="SYMPREC">      0.00001000</i>
  </separator>
  <separator name="dos" >
   <i type="int" name="LORBIT">     0</i>
   <v name="RWIGS">     -1.00000000     -1.00000000     -1.00000000     -1.00000000     -1.00000000</v>
   <i type="int" name="NEDOS">   301</i>
   <i name="EMIN">     10.00000000</i>
   <i name="EMAX">    -10.00000000</i>
   <i name="EFERMI">      0.00000000</i>
  </separator>
  <separator name="writing" >
   <i type="int" name="NWRITE">     2</i>
   <i type="logical" name="LWAVE"> T  </i>
   <i type="logical" name="LDOWNSAMPLE"> F  </i>
   <i type="logical" name="LCHARG"> T  </i>
   <i type="logical" name="LPARD"> F  </i>
   <i type="logical" name="LVTOT"> F  </i>
   <i type="logical" name="LVHAR"> F  </i>
   <i type="logical" name="LELF"> F  </i>
   <i type="logical" name="LOPTICS"> F  </i>
   <v name="STM">      0.00000000      0.00000000      0.00000000      0.00000000      0.00000000      0.00000000      0.00000000</v>
  </separator>
  <separator name="performance" >
   <i type="int" name="NPAR">    12</i>
   <i type="int" name="NSIM">     4</i>
   <i type="int" name="NBLK">    -1</i>
   <i type="logical" name="LPLANE"> T  </i>
   <i type="logical" name="LSCALAPACK"> T  </i>
   <i type="logical" name="LSCAAWARE"> F  </i>
   <i type="logical" name="LSCALU"> F  </i>
   <i type="logical" name="LASYNC"> F  </i>
   <i type="logical" name="LORBITALREAL"> F  </i>
  </separator>
  <separator name="miscellaneous" >
   <i type="int" name="IDIOT">     3</i>
   <i type="int" name="ISPECIAL">     0</i>
   <i type="logical" name="LMUSIC"> F  </i>
   <v name="POMASS">     92.91000000     95.94000000    180.94800000     47.88000000     50.94100000</v>
   <v name="DARWINR">      0.00000000      0.00000000      0.00000000      0.00000000      0.00000000</v>
   <v name="DARWINV">      1.00000000      1.00000000      1.00000000      1.00000000      1.00000000</v>
   <i type="logical" name="LCORR"> T  </i>
  </separator>
  <i type="logical" name="GGA_COMPAT"> T  </i>
  <i type="logical" name="LBERRY"> F  </i>
  <i type="int" name="ICORELEVEL">     0</i>
  <i type="logical" name="LDAU"> F  </i>
  <i type="int" name="I_CONSTRAINED_M">     0</i>
  <separator name="electronic exchange-correlation" >
   <i type="string" name="GGA">PS</i>
   <i type="int" name="VOSKOWN">     0</i>
   <i type="logical" name="LHFCALC"> F  </i>
   <i type="string" name="PRECFOCK"></i>
   <i type="logical" name="LSYMGRAD"> F  </i>
   <i type="logical" name="LHFONE"> F  </i>
   <i type="logical" name="LRHFCALC"> F  </i>
   <i type="logical" name="LTHOMAS"> F  </i>
   <i type="logical" name="LMODELHF"> F  </i>
   <i name="ENCUT4O">     -1.00000000</i>
   <i type="int" name="EXXOEP">     0</i>
   <i type="int" name="FOURORBIT">     0</i>
   <i name="AEXX">      0.00000000</i>
   <i name="HFALPHA">      0.00000000</i>
   <i name="MCALPHA">      0.00000000</i>
   <i name="ALDAX">      1.00000000</i>
   <i name="AGGAX">      1.00000000</i>
   <i name="ALDAC">      1.00000000</i>
   <i name="AGGAC">      1.00000000</i>
   <i type="int" name="NKREDX">     1</i>
   <i type="int" name="NKREDY">     1</i>
   <i type="int" name="NKREDZ">     1</i>
   <i type="logical" name="SHIFTRED"> F  </i>
   <i type="logical" name="ODDONLY"> F  </i>
   <i type="logical" name="EVENONLY"> F  </i>
   <i type="int" name="LMAXFOCK">     0</i>
   <i type="int" name="NMAXFOCKAE">     0</i>
   <i type="logical" name="LFOCKAEDFT"> F  </i>
   <i name="HFSCREEN">      0.00000000</i>
   <i name="HFSCREENC">      0.00000000</i>
   <i type="int" name="NBANDSGWLOW">     0</i>
  </separator>
  <separator name="vdW DFT" >
   <i type="logical" name="LUSE_VDW"> F  </i>
   <i name="Zab_VDW">     -0.84910000</i>
   <i name="PARAM1">      0.12340000</i>
   <i name="PARAM2">      1.00000000</i>
   <i name="PARAM3">      0.00000000</i>
  </separator>
  <separator name="model GW" >
   <i type="int" name="MODEL_GW">     0</i>
   <i name="MODEL_EPS0">      9.79277462</i>
   <i name="MODEL_ALPHA">      1.00000000</i>
  </separator>
  <separator name="linear response parameters" >
   <i type="logical" name="LEPSILON"> F  </i>
   <i type="logical" name="LRPA"> F  </i>
   <i type="logical" name="LNABLA"> F  </i>
   <i type="logical" name="LVEL"> F  </i>
   <i type="int" name="KINTER">     0</i>
   <i name="CSHIFT">      0.10000000</i>
   <i name="OMEGAMAX">     -1.00000000</i>
   <i name="DEG_THRESHOLD">      0.00200000</i>
   <i name="RTIME">     -0.10000000</i>
   <i name="WPLASMAI">      0.00000000</i>
   <v name="DFIELD">      0.00000000      0.00000000      0.00000000</v>
   <v name="WPLASMA">      0.00000000      0.00000000      0.00000000      0.00000000      0.00000000      0.00000000      0.00000000      0.00000000      0.00000000</v>
  </separator>
  <separator name="orbital magnetization" >
   <i type="logical" name="NUCIND"> F  </i>
   <v name="MAGPOS">      0.00000000      0.00000000      0.00000000</v>
   <i type="logical" name="LNICSALL"> T  </i>
   <i type="logical" name="ORBITALMAG"> F  </i>
   <i type="logical" name="LMAGBLOCH"> F  </i>
   <i type="logical" name="LCHIMAG"> F  </i>
   <i type="logical" name="LGAUGE"> T  </i>
   <i type="int" name="MAGATOM">     0</i>
   <v name="MAGDIPOL">      0.00000000      0.00000000      0.00000000</v>
   <v name="AVECCONST">      0.00000000      0.00000000      0.00000000</v>
  </separator>
  <separator name="response functions" >
   <i type="logical" name="LADDER"> F  </i>
   <i type="logical" name="LRPAFORCE"> F  </i>
   <i type="logical" name="LFXC"> F  </i>
   <i type="logical" name="LHARTREE"> T  </i>
   <i type="int" name="IBSE">     0</i>
   <v type="int" name="KPOINT">    -1     0     0     0</v>
   <i type="logical" name="LTCTE"> F  </i>
   <i type="logical" name="LTETE"> F  </i>
   <i type="logical" name="LTRIPLET"> F  </i>
   <i type="logical" name="LFXCEPS"> F  </i>
   <i type="logical" name="LFXHEG"> F  </i>
   <i type="int" name="NATURALO">     2</i>
   <i type="logical" name="L2ORDER"> F  </i>
   <i type="logical" name="LMP2LT"> F  </i>
   <i type="logical" name="LUSEW"> F  </i>
   <i name="ENCUTGW">     -2.00000000</i>
   <i name="ENCUTGWSOFT">     -2.00000000</i>
   <i name="ENCUTLF">     -1.00000000</i>
   <i type="int" name="LMAXMP2">    -1</i>
   <i name="SCISSOR">      0.00000000</i>
   <i type="int" name="NOMEGA">     0</i>
   <i type="int" name="NOMEGAR">     0</i>
   <i type="int" name="NBANDSGW">    -1</i>
   <i type="int" name="NBANDSO">    -1</i>
   <i type="int" name="NBANDSV">    -1</i>
   <i type="int" name="NELM">     1</i>
   <i type="int" name="NELMHF">     1</i>
   <i type="int" name="DIM">     3</i>
   <i type="int" name="ANTIRES">     0</i>
   <i name="OMEGAMAX">    -30.00000000</i>
   <i name="OMEGAMIN">    -30.00000000</i>
   <i name="OMEGATL">   -200.00000000</i>
   <i type="int" name="OMEGAGRID">   140</i>
   <i name="CSHIFT">     -0.10000000</i>
   <i type="logical" name="SELFENERGY"> F  </i>
   <i type="logical" name="LSPECTRAL"> F  </i>
   <i type="logical" name="LSPECTRALGW"> F  </i>
   <i type="logical" name="LSINGLES"> F  </i>
   <i type="logical" name="LFERMIGW"> F  </i>
   <i type="logical" name="ODDONLYGW"> F  </i>
   <i type="logical" name="EVENONLYGW"> F  </i>
   <i type="int" name="NKREDLFX">     1</i>
   <i type="int" name="NKREDLFY">     1</i>
   <i type="int" name="NKREDLFZ">     1</i>
   <i type="int" name="MAXMEM">  2800</i>
   <i type="int" name="TELESCOPE">     0</i>
   <i type="int" name="TAUPAR">     1</i>
   <i type="int" name="OMEGAPAR">    -1</i>
   <i name="LAMBDA">      1.00000000</i>
  </separator>
  <separator name="External order field" >
   <i name="OFIELD_KAPPA">      0.00000000</i>
   <v name="OFIELD_K">      0.00000000      0.00000000      0.00000000</v>
   <i name="OFIELD_Q6_NEAR">      0.00000000</i>
   <i name="OFIELD_Q6_FAR">      0.00000000</i>
   <i name="OFIELD_A">      0.00000000</i>
  </separator>
  <separator name="solvation model" >
   <i type="logical" name="LSOL"> F  </i>
  </separator>
 </parameters>
 <atominfo>
  <atoms>      29 </atoms>
  <types>       5 </types>
  <array name="atoms" >
   <dimension dim="1">ion</dimension>
   <field type="string">element</field>
   <field type="int">atomtype</field>
   <set>
    <rc><c>Nb</c><c>   1</c></rc>
    <rc><c>Nb</c><c>   1</c></rc>
    <rc><c>Nb</c><c>   1</c></rc>
    <rc><c>Nb</c><c>   1</c></rc>
    <rc><c>Nb</c><c>   1</c></rc>
    <rc><c>Nb</c><c>   1</c></rc>
    <rc><c>Mo</c><c>   2</c></rc>
    <rc><c>Mo</c><c>   2</c></rc>
    <rc><c>Mo</c><c>   2</c></rc>
    <rc><c>Mo</c><c>   2</c></rc>
    <rc><c>Mo</c><c>   2</c></rc>
    <rc><c>Mo</c><c>   2</c></rc>
    <rc><c>Ta</c><c>   3</c></rc>
    <rc><c>Ta</c><c>   3</c></rc>
    <rc><c>Ta</c><c>   3</c></rc>
    <rc><c>Ta</c><c>   3</c></rc>
    <rc><c>Ta</c><c>   3</c></rc>
    <rc><c>Ta</c><c>   3</c></rc>
    <rc><c>Ti</c><c>   4</c></rc>
    <rc><c>Ti</c><c>   4</c></rc>
    <rc><c>Ti</c><c>   4</c></rc>
    <rc><c>Ti</c><c>   4</c></rc>
    <rc><c>Ti</c><c>   4</c></rc>
    <rc><c>V </c><c>   5</c></rc>
    <rc><c>V </c><c>   5</c></rc>
    <rc><c>V </c><c>   5</c></rc>
    <rc><c>V </c><c>   5</c></rc>
    <rc><c>V </c><c>   5</c></rc>
    <rc><c>V </c><c>   5</c></rc>
   </set>
  </array>
  <array name="atomtypes" >
   <dimension dim="1">type</dimension>
   <field type="int">atomspertype</field>
   <field type="string">element</field>
   <field>mass</field>
   <field>valence</field>
   <field type="string">pseudopotential</field>
   <set>
    <rc><c>   6</c><c>Nb</c><c>     92.91000000</c><c>     13.00000000</c><c>  PAW_PBE Nb_sv 25May2007               </c></rc>
    <rc><c>   6</c><c>Mo</c><c>     95.94000000</c><c>      6.00000000</c><c>  PAW_PBE Mo 08Apr2002                  </c></rc>
    <rc><c>   6</c><c>Ta</c><c>    180.94800000</c><c>      5.00000000</c><c>  PAW_PBE Ta 17Jan2003                  </c></rc>
    <rc><c>   5</c><c>Ti</c><c>     47.88000000</c><c>      4.00000000</c><c>  PAW_PBE Ti 08Apr2002                  </c></rc>
    <rc><c>   6</c><c>V </c><c>     50.94100000</c><c>      5.00000000</c><c>  PAW_PBE V 08Apr2002                   </c></rc>
   </set>
  </array>
 </atominfo>
 <structure name="initialpos" >
  <crystal>
   <varray name="basis" >
    <v>      -3.16000000      -3.16000000      -3.16000000 </v>
    <v>       1.58000000       1.58000000      -7.90000000 </v>
    <v>       7.90000000      -7.90000000      -1.58000000 </v>
   </varray>
   <i name="volume">    473.31744000 </i>
   <varray name="rec_basis" >
    <v>      -0.13713080      -0.12658228      -0.05274262 </v>
    <v>       0.04219409       0.06329114      -0.10548523 </v>
    <v>       0.06329114      -0.06329114       0.00000000 </v>
   </varray>
  </crystal>
  <varray name="positions" >
   <v>       0.96666667       0.93333333       0.40000000 </v>
   <v>       0.63333333       0.26666667       0.40000000 </v>
   <v>       0.50000000       0.00000000       0.00000000 </v>
   <v>       0.00000000       0.00000000       0.00000000 </v>
   <v>       0.10000000       0.20000000       0.80000000 </v>
   <v>       0.03333333       0.06666667       0.60000000 </v>
   <v>       0.90000000       0.80000000       0.20000000 </v>
   <v>       0.80000000       0.60000000       0.40000000 </v>
   <v>       0.73333333       0.46666667       0.20000000 </v>
   <v>       0.66666667       0.33333333       0.00000000 </v>
   <v>       0.36666667       0.73333333       0.60000000 </v>
   <v>       0.13333333       0.26666667       0.40000000 </v>
   <v>       0.83333333       0.66666667       0.00000000 </v>
   <v>       0.93333333       0.86666667       0.80000000 </v>
   <v>       0.56666667       0.13333333       0.20000000 </v>
   <v>       0.40000000       0.80000000       0.20000000 </v>
   <v>       0.43333333       0.86666667       0.80000000 </v>
   <v>       0.30000000       0.60000000       0.40000000 </v>
   <v>       0.86666667       0.73333333       0.60000000 </v>
   <v>       0.46666667       0.93333333       0.40000000 </v>
   <v>       0.16666667       0.33333333       0.00000000 </v>
   <v>       0.26666667       0.53333333       0.80000000 </v>
   <v>       0.20000000       0.40000000       0.60000000 </v>
   <v>       0.76666667       0.53333333       0.80000000 </v>
   <v>       0.70000000       0.40000000       0.60000000 </v>
   <v>       0.60000000       0.20000000       0.80000000 </v>
   <v>       0.53333333       0.06666667       0.60000000 </v>
   <v>       0.33333333       0.66666667       0.00000000 </v>
   <v>       0.23333333       0.46666667       0.20000000 </v>
  </varray>
 </structure>
 <calculation>
  <scstep>
   <time name="dav">   44.52   44.58</time>
   <time name="total">   44.67   44.74</time>
   <energy>
    <i name="alphaZ">   1169.09370839 </i>
    <i name="ewald"> -11246.52844543 </i>
    <i name="hartreedc">   -115.14899523 </i>
    <i name="XCdc">   -942.57482446 </i>
    <i name="pawpsdc"> 587613.95958566 </i>
    <i name="pawaedc">-586343.67888531 </i>
    <i name="eentropy">     -0.00360116 </i>
    <i name="bandstr">  -7149.12600182 </i>
    <i name="atom">  12911.34519091 </i>
    <i name="e_fr_energy">  -4102.66226847 </i>
    <i name="e_wo_entrp">  -4102.65866731 </i>
    <i name="e_0_energy">  -4102.66106808 </i>
   </energy>
  </scstep>
  <scstep>
   <time name="dav">   47.48   47.55</time>
   <time name="total">   47.48   47.55</time>
   <energy>
    <i name="e_fr_energy">  -9476.80037421 </i>
    <i name="e_wo_entrp">  -9476.80222348 </i>
    <i name="e_0_energy">  -9476.80099063 </i>
   </energy>
  </scstep>
  <scstep>
   <time name="dav">   56.65   56.71</time>
   <time name="total">   56.66   56.72</time>
   <energy>
    <i name="e_fr_energy"> -10381.60976428 </i>
    <i name="e_wo_entrp"> -10381.60963024 </i>
    <i name="e_0_energy"> -10381.60971960 </i>
   </energy>
  </scstep>
  <scstep>
   <time name="dav">   56.42   56.49</time>
   <time name="total">   56.43   56.49</time>
   <energy>
    <i name="e_fr_energy"> -10637.75484166 </i>
    <i name="e_wo_entrp"> -10637.75428563 </i>
    <i name="e_0_energy"> -10637.75465631 </i>
   </energy>
  </scstep>
  <scstep>
   <time name="dav">   56.37   56.43</time>
   <time name="total">   57.02   57.08</time>
   <energy>
    <i name="e_fr_energy"> -10799.01689336 </i>
    <i name="e_wo_entrp"> -10799.01796890 </i>
    <i name="e_0_energy"> -10799.01725187 </i>
   </energy>
  </scstep>
  <scstep>
   <time name="dav">   44.87   44.91</time>
   <time name="total">   45.60   45.65</time>
   <energy>
    <i name="e_fr_energy">   -652.96955688 </i>
    <i name="e_wo_entrp">   -652.97315742 </i>
    <i name="e_0_energy">   -652.97075706 </i>
   </energy>
  </scstep>
  <scstep>
   <time name="dav">   49.71   49.76</time>
   <time name="total">   50.44   50.48</time>
   <energy>
    <i name="e_fr_energy">   -742.39631634 </i>
    <i name="e_wo_entrp">   -742.40089497 </i>
    <i name="e_0_energy">   -742.39784255 </i>
   </energy>
  </scstep>
  <scstep>
   <time name="dav">   51.22   51.27</time>
   <time name="total">   51.89   51.95</time>
   <energy>
    <i name="e_fr_energy">   -569.80919022 </i>
    <i name="e_wo_entrp">   -569.81009103 </i>
    <i name="e_0_energy">   -569.80949049 </i>
   </energy>
  </scstep>
  <scstep>
   <time name="dav">   49.51   49.56</time>
   <time name="total">   50.15   50.21</time>
   <energy>
    <i name="e_fr_energy">   -492.38023823 </i>
    <i name="e_wo_entrp">   -492.37292481 </i>
    <i name="e_0_energy">   -492.37780042 </i>
   </energy>
  </scstep>
  <scstep>
   <time name="dav">   56.36   56.42</time>
   <time name="total">   57.02   57.09</time>
   <energy>
    <i name="e_fr_energy">   -569.93470863 </i>
    <i name="e_wo_entrp">   -569.93231825 </i>
    <i name="e_0_energy">   -569.93391184 </i>
   </energy>
  </scstep>
  <scstep>
   <time name="dav">   51.72   51.77</time>
   <time name="total">   52.37   52.42</time>
   <energy>
    <i name="e_fr_energy">   -571.94911775 </i>
    <i name="e_wo_entrp">   -571.94313493 </i>
    <i name="e_0_energy">   -571.94712348 </i>
   </energy>
  </scstep>
  <scstep>
   <time name="dav">   54.62   54.68</time>
   <time name="total">   55.28   55.36</time>
   <energy>
    <i name="e_fr_energy">   -718.04828304 </i>
    <i name="e_wo_entrp">   -718.05737618 </i>
    <i name="e_0_energy">   -718.05131408 </i>
   </energy>
  </scstep>
  <scstep>
   <time name="dav">   51.65   51.70</time>
   <time name="total">   52.31   52.36</time>
   <energy>
    <i name="e_fr_energy">   -762.46131830 </i>
    <i name="e_wo_entrp">   -762.46570888 </i>
    <i name="e_0_energy">   -762.46278183 </i>
   </energy>
  </scstep>
  <scstep>
   <time name="dav">   49.00   49.05</time>
   <time name="total">   49.66   49.71</time>
   <energy>
    <i name="e_fr_energy">   -640.16900448 </i>
    <i name="e_wo_entrp">   -640.16317620 </i>
    <i name="e_0_energy">   -640.16706172 </i>
   </energy>
  </scstep>
  <scstep>
   <time name="dav">   50.20   50.24</time>
   <time name="total">   50.86   50.91</time>
   <energy>
    <i name="e_fr_energy">   -597.87998761 </i>
    <i name="e_wo_entrp">   -597.87094790 </i>
    <i name="e_0_energy">   -597.87697438 </i>
   </energy>
  </scstep>
  <scstep>
   <time name="dav">   50.71   50.76</time>
   <time name="total">   51.34   51.43</time>
   <energy>
    <i name="e_fr_energy">   -529.89633940 </i>
    <i name="e_wo_entrp">   -529.89197191 </i>
    <i name="e_0_energy">   -529.89488357 </i>
   </energy>
  </scstep>
  <scstep>
   <time name="dav">   50.72   50.77</time>
   <time name="total">   51.38   51.43</time>
   <energy>
    <i name="e_fr_energy">   -497.82253643 </i>
    <i name="e_wo_entrp">   -497.82384457 </i>
    <i name="e_0_energy">   -497.82297248 </i>
   </energy>
  </scstep>
  <scstep>
   <time name="dav">   52.51   52.56</time>
   <time name="total">   53.17   53.23</time>
   <energy>
    <i name="e_fr_energy">   -426.52740139 </i>
    <i name="e_wo_entrp">   -426.52843376 </i>
    <i name="e_0_energy">   -426.52774551 </i>
   </energy>
  </scstep>
  <scstep>
   <time name="dav">   51.62   51.67</time>
   <time name="total">   52.28   52.33</time>
   <energy>
    <i name="e_fr_energy">   -412.46441411 </i>
    <i name="e_wo_entrp">   -412.45521209 </i>
    <i name="e_0_energy">   -412.46134677 </i>
   </energy>
  </scstep>
  <scstep>
   <time name="dav">   51.74   51.79</time>
   <time name="total">   52.39   52.45</time>
   <energy>
    <i name="e_fr_energy">   -397.01571352 </i>
    <i name="e_wo_entrp">   -397.00274629 </i>
    <i name="e_0_energy">   -397.01139111 </i>
   </energy>
  </scstep>
  <scstep>
   <time name="dav">   48.63   48.67</time>
   <time name="total">   49.28   49.33</time>
   <energy>
    <i name="e_fr_energy">   -356.27412838 </i>
    <i name="e_wo_entrp">   -356.26370107 </i>
    <i name="e_0_energy">   -356.27065261 </i>
   </energy>
  </scstep>
  <scstep>
   <time name="dav">   50.79   50.84</time>
   <time name="total">   51.45   51.51</time>
   <energy>
    <i name="e_fr_energy">   -336.89658034 </i>
    <i name="e_wo_entrp">   -336.88598610 </i>
    <i name="e_0_energy">   -336.89304893 </i>
   </energy>
  </scstep>
  <scstep>
   <time name="dav">   52.78   52.83</time>
   <time name="total">   53.44   53.49</time>
   <energy>
    <i name="e_fr_energy">   -331.69335835 </i>
    <i name="e_wo_entrp">   -331.69788389 </i>
    <i name="e_0_energy">   -331.69486686 </i>
   </energy>
  </scstep>
  <scstep>
   <time name="dav">   52.92   52.98</time>
   <time name="total">   53.58   53.64</time>
   <energy>
    <i name="e_fr_energy">   -325.36676814 </i>
    <i name="e_wo_entrp">   -325.36746451 </i>
    <i name="e_0_energy">   -325.36700026 </i>
   </energy>
  </scstep>
  <scstep>
   <time name="dav">   49.18   49.23</time>
   <time name="total">   49.84   49.88</time>
   <energy>
    <i name="e_fr_energy">   -320.43127915 </i>
    <i name="e_wo_entrp">   -320.42317159 </i>
    <i name="e_0_energy">   -320.42857663 </i>
   </energy>
  </scstep>
  <scstep>
   <time name="dav">   48.27   48.32</time>
   <time name="total">   48.93   48.99</time>
   <energy>
    <i name="e_fr_energy">   -315.60360931 </i>
    <i name="e_wo_entrp">   -315.59027350 </i>
    <i name="e_0_energy">   -315.59916404 </i>
   </energy>
  </scstep>
  <scstep>
   <time name="dav">   52.11   52.16</time>
   <time name="total">   52.77   52.82</time>
   <energy>
    <i name="e_fr_energy">   -310.33295750 </i>
    <i name="e_wo_entrp">   -310.31594463 </i>
    <i name="e_0_energy">   -310.32728654 </i>
   </energy>
  </scstep>
  <scstep>
   <time name="dav">   52.51   52.57</time>
   <time name="total">   53.19   53.25</time>
   <energy>
    <i name="e_fr_energy">   -310.20147723 </i>
    <i name="e_wo_entrp">   -310.18548315 </i>
    <i name="e_0_energy">   -310.19614587 </i>
   </energy>
  </scstep>
  <scstep>
   <time name="dav">   46.60   46.65</time>
   <time name="total">   47.26   47.30</time>
   <energy>
    <i name="e_fr_energy">   -309.33560015 </i>
    <i name="e_wo_entrp">   -309.31270613 </i>
    <i name="e_0_energy">   -309.32796881 </i>
   </energy>
  </scstep>
  <scstep>
   <time name="dav">   48.42   48.47</time>
   <time name="total">   49.10   49.15</time>
   <energy>
    <i name="e_fr_energy">   -309.03115651 </i>
    <i name="e_wo_entrp">   -309.01695193 </i>
    <i name="e_0_energy">   -309.02642165 </i>
   </energy>
  </scstep>
  <scstep>
   <time name="dav">   47.87   47.93</time>
   <time name="total">   48.53   48.60</time>
   <energy>
    <i name="e_fr_energy">   -308.11734799 </i>
    <i name="e_wo_entrp">   -308.10268111 </i>
    <i name="e_0_energy">   -308.11245903 </i>
   </energy>
  </scstep>
  <scstep>
   <time name="dav">   49.98   50.03</time>
   <time name="total">   50.64   50.70</time>
   <energy>
    <i name="e_fr_energy">   -308.11199909 </i>
    <i name="e_wo_entrp">   -308.10142420 </i>
    <i name="e_0_energy">   -308.10847412 </i>
   </energy>
  </scstep>
  <scstep>
   <time name="dav">   51.68   51.75</time>
   <time name="total">   52.34   52.41</time>
   <energy>
    <i name="e_fr_energy">   -307.88324911 </i>
    <i name="e_wo_entrp">   -307.87147880 </i>
    <i name="e_0_energy">   -307.87932567 </i>
   </energy>
  </scstep>
  <scstep>
   <time name="dav">   47.40   47.44</time>
   <time name="total">   48.06   48.12</time>
   <energy>
    <i name="e_fr_energy">   -308.21413356 </i>
    <i name="e_wo_entrp">   -308.20488132 </i>
    <i name="e_0_energy">   -308.21104948 </i>
   </energy>
  </scstep>
  <scstep>
   <time name="dav">   48.20   48.25</time>
   <time name="total">   48.85   48.90</time>
   <energy>
    <i name="e_fr_energy">   -307.86175366 </i>
    <i name="e_wo_entrp">   -307.84826918 </i>
    <i name="e_0_energy">   -307.85725884 </i>
   </energy>
  </scstep>
  <scstep>
   <time name="dav">   48.98   49.03</time>
   <time name="total">   49.67   49.75</time>
   <energy>
    <i name="e_fr_energy">   -307.76931237 </i>
    <i name="e_wo_entrp">   -307.76068447 </i>
    <i name="e_0_energy">   -307.76643640 </i>
   </energy>
  </scstep>
  <scstep>
   <time name="dav">   48.21   48.27</time>
   <time name="total">   48.86   48.92</time>
   <energy>
    <i name="e_fr_energy">   -307.86047184 </i>
    <i name="e_wo_entrp">   -307.85305079 </i>
    <i name="e_0_energy">   -307.85799815 </i>
   </energy>
  </scstep>
  <scstep>
   <time name="dav">   48.24   48.30</time>
   <time name="total">   48.89   48.97</time>
   <energy>
    <i name="e_fr_energy">   -307.83139444 </i>
    <i name="e_wo_entrp">   -307.82429070 </i>
    <i name="e_0_energy">   -307.82902653 </i>
   </energy>
  </scstep>
  <scstep>
   <time name="dav">   49.84   49.91</time>
   <time name="total">   50.51   50.58</time>
   <energy>
    <i name="e_fr_energy">   -307.73664660 </i>
    <i name="e_wo_entrp">   -307.72924311 </i>
    <i name="e_0_energy">   -307.73417877 </i>
   </energy>
  </scstep>
  <scstep>
   <time name="dav">   48.72   48.79</time>
   <time name="total">   49.45   49.58</time>
   <energy>
    <i name="e_fr_energy">   -307.67217226 </i>
    <i name="e_wo_entrp">   -307.66430231 </i>
    <i name="e_0_energy">   -307.66954894 </i>
   </energy>
  </scstep>
  <scstep>
   <time name="dav">   49.58   49.63</time>
   <time name="total">   50.24   50.29</time>
   <energy>
    <i name="e_fr_energy">   -307.66813844 </i>
    <i name="e_wo_entrp">   -307.66041480 </i>
    <i name="e_0_energy">   -307.66556389 </i>
   </energy>
  </scstep>
  <scstep>
   <time name="dav">   44.64   44.68</time>
   <time name="total">   45.30   45.35</time>
   <energy>
    <i name="e_fr_energy">   -307.65683992 </i>
    <i name="e_wo_entrp">   -307.64907639 </i>
    <i name="e_0_energy">   -307.65425207 </i>
   </energy>
  </scstep>
  <scstep>
   <time name="dav">   48.14   48.18</time>
   <time name="total">   48.78   48.83</time>
   <energy>
    <i name="e_fr_energy">   -307.61945832 </i>
    <i name="e_wo_entrp">   -307.61152105 </i>
    <i name="e_0_energy">   -307.61681256 </i>
   </energy>
  </scstep>
  <scstep>
   <time name="dav">   46.48   46.53</time>
   <time name="total">   47.14   47.20</time>
   <energy>
    <i name="e_fr_energy">   -307.60488673 </i>
    <i name="e_wo_entrp">   -307.59637928 </i>
    <i name="e_0_energy">   -307.60205091 </i>
   </energy>
  </scstep>
  <scstep>
   <time name="dav">   47.38   47.43</time>
   <time name="total">   48.04   48.09</time>
   <energy>
    <i name="e_fr_energy">   -307.60178286 </i>
    <i name="e_wo_entrp">   -307.59302404 </i>
    <i name="e_0_energy">   -307.59886325 </i>
   </energy>
  </scstep>
  <scstep>
   <time name="dav">   43.67   43.71</time>
   <time name="total">   44.33   44.39</time>
   <energy>
    <i name="e_fr_energy">   -307.60161936 </i>
    <i name="e_wo_entrp">   -307.59278708 </i>
    <i name="e_0_energy">   -307.59867526 </i>
   </energy>
  </scstep>
  <scstep>
   <time name="dav">   42.22   42.26</time>
   <time name="total">   42.88   42.92</time>
   <energy>
    <i name="e_fr_energy">   -307.60160075 </i>
    <i name="e_wo_entrp">   -307.59281620 </i>
    <i name="e_0_energy">   -307.59867257 </i>
   </energy>
  </scstep>
  <scstep>
   <time name="dav">   36.93   36.99</time>
   <time name="total">   37.58   37.65</time>
   <energy>
    <i name="e_fr_energy">   -307.60145601 </i>
    <i name="e_wo_entrp">   -307.59263801 </i>
    <i name="e_0_energy">   -307.59851668 </i>
   </energy>
  </scstep>
  <scstep>
   <time name="dav">   25.77   25.81</time>
   <time name="total">   25.85   25.88</time>
   <energy>
    <i name="alphaZ">   1169.09370839 </i>
    <i name="ewald"> -11246.52844543 </i>
    <i name="hartreedc">  -3013.61556565 </i>
    <i name="XCdc">   -852.50317449 </i>
    <i name="pawpsdc">  18713.10284414 </i>
    <i name="pawaedc"> -17242.36331486 </i>
    <i name="eentropy">     -0.00882097 </i>
    <i name="bandstr">   -746.12383712 </i>
    <i name="atom">  12911.34519091 </i>
    <i name="e_fr_energy">   -307.60141508 </i>
    <i name="e_wo_entrp">   -307.59259411 </i>
    <i name="e_0_energy">   -307.59847476 </i>
   </energy>
  </scstep>
  <structure>
   <crystal>
    <varray name="basis" >
     <v>      -3.16000000      -3.16000000      -3.16000000 </v>
     <v>       1.58000000       1.58000000      -7.90000000 </v>
     <v>       7.90000000      -7.90000000      -1.58000000 </v>
    </varray>
    <i name="volume">    473.31744000 </i>
    <varray name="rec_basis" >
     <v>      -0.13713080      -0.12658228      -0.05274262 </v>
     <v>       0.04219409       0.06329114      -0.10548523 </v>
     <v>       0.06329114      -0.06329114       0.00000000 </v>
    </varray>
   </crystal>
   <varray name="positions" >
    <v>       0.96666667       0.93333333       0.40000000 </v>
    <v>       0.63333333       0.26666667       0.40000000 </v>
    <v>       0.50000000       0.00000000       0.00000000 </v>
    <v>       0.00000000       0.00000000       0.00000000 </v>
    <v>       0.10000000       0.20000000       0.80000000 </v>
    <v>       0.03333333       0.06666667       0.60000000 </v>
    <v>       0.90000000       0.80000000       0.20000000 </v>
    <v>       0.80000000       0.60000000       0.40000000 </v>
    <v>       0.73333333       0.46666667       0.20000000 </v>
    <v>       0.66666667       0.33333333       0.00000000 </v>
    <v>       0.36666667       0.73333333       0.60000000 </v>
    <v>       0.13333333       0.26666667       0.40000000 </v>
    <v>       0.83333333       0.66666667       0.00000000 </v>
    <v>       0.93333333       0.86666667       0.80000000 </v>
    <v>       0.56666667       0.13333333       0.20000000 </v>
    <v>       0.40000000       0.80000000       0.20000000 </v>
    <v>       0.43333333       0.86666667       0.80000000 </v>
    <v>       0.30000000       0.60000000       0.40000000 </v>
    <v>       0.86666667       0.73333333       0.60000000 </v>
    <v>       0.46666667       0.93333333       0.40000000 </v>
    <v>       0.16666667       0.33333333       0.00000000 </v>
    <v>       0.26666667       0.53333333       0.80000000 </v>
    <v>       0.20000000       0.40000000       0.60000000 </v>
    <v>       0.76666667       0.53333333       0.80000000 </v>
    <v>       0.70000000       0.40000000       0.60000000 </v>
    <v>       0.60000000       0.20000000       0.80000000 </v>
    <v>       0.53333333       0.06666667       0.60000000 </v>
    <v>       0.33333333       0.66666667       0.00000000 </v>
    <v>       0.23333333       0.46666667       0.20000000 </v>
   </varray>
  </structure>
  <varray name="forces" >
   <v>      -0.55166843       1.05281213      -0.41348880 </v>
   <v>       0.46571927      -0.05949535      -0.02570327 </v>
   <v>      -0.41448143       0.30847661      -0.26938747 </v>
   <v>       0.84537020      -0.45513677      -0.42162795 </v>
   <v>       0.09996469       0.64918980      -0.58143711 </v>
   <v>      -0.24917264       0.35328905      -0.35458557 </v>
   <v>       0.11070828      -0.49787044       0.56081350 </v>
   <v>      -0.54596637      -0.27526612       0.45658586 </v>
   <v>      -0.43500088      -0.05019839       0.59651522 </v>
   <v>       0.37391605       0.79116076      -0.54705744 </v>
   <v>      -0.13033756      -0.29436471       0.30717484 </v>
   <v>      -0.25722700       0.44218851      -0.40907368 </v>
   <v>       0.14408388      -0.56900465       0.47799931 </v>
   <v>       0.02174244       0.45377902      -0.01085391 </v>
   <v>      -0.15720115       0.47197267      -0.31728467 </v>
   <v>      -0.16561632       0.54523297       0.03025117 </v>
   <v>      -0.70162690      -0.11985760       0.65476088 </v>
   <v>       0.21132087      -0.20124285      -0.10205964 </v>
   <v>       0.18969100       0.05016860       0.58857673 </v>
   <v>       0.51016959      -1.08653862       0.09280142 </v>
   <v>       0.43446536      -0.59891205      -0.07559242 </v>
   <v>      -0.37524233       0.05454675      -0.21471276 </v>
   <v>      -0.01434930      -0.24665565       0.42438939 </v>
   <v>      -0.01372775      -0.43940709       0.56688814 </v>
   <v>       0.39826545       0.10409176      -0.38550098 </v>
   <v>      -0.00753475       0.15251778      -0.13628051 </v>
   <v>       0.11939213      -0.28601367      -0.49108211 </v>
   <v>      -0.16091278      -0.41602802       0.60845670 </v>
   <v>       0.25525637       0.16656556      -0.60948487 </v>
  </varray>
  <varray name="stress" >
   <v>     -25.71626729      -2.04940345      -6.91115367 </v>
   <v>      -2.04940340     -20.81153570      -0.63712122 </v>
   <v>      -6.91115369      -0.63712125     -18.63271489 </v>
  </varray>
  <energy>
   <i name="e_fr_energy">   -307.60141508 </i>
   <i name="e_wo_entrp">   -307.59847476 </i>
   <i name="e_0_energy">     -0.00882097 </i>
  </energy>
  <time name="totalsc"> 2453.13 2456.13</time>
 </calculation>
 <calculation>
  <scstep>
   <time name="dav">   33.17   33.22</time>
   <time name="total">   33.82   33.87</time>
   <energy>
    <i name="alphaZ">   1207.36461889 </i>
    <i name="ewald"> -11409.11325004 </i>
    <i name="hartreedc">  -3007.72763007 </i>
    <i name="XCdc">   -848.39508951 </i>
    <i name="pawpsdc">  18714.66406531 </i>
    <i name="pawaedc"> -17243.92290182 </i>
    <i name="eentropy">     -0.00903188 </i>
    <i name="bandstr">   -632.52219620 </i>
    <i name="atom">  12911.34519091 </i>
    <i name="e_fr_energy">   -308.31622442 </i>
    <i name="e_wo_entrp">   -308.30719254 </i>
    <i name="e_0_energy">   -308.31321379 </i>
   </energy>
  </scstep>
  <scstep>
   <time name="dav">   51.84   51.92</time>
   <time name="total">   52.49   52.57</time>
   <energy>
    <i name="e_fr_energy">   -309.99431045 </i>
    <i name="e_wo_entrp">   -309.98442760 </i>
    <i name="e_0_energy">   -309.99101616 </i>
   </energy>
  </scstep>
  <scstep>
   <time name="dav">   50.43   50.48</time>
   <time name="total">   51.08   51.14</time>
   <energy>
    <i name="e_fr_energy">   -308.83864552 </i>
    <i name="e_wo_entrp">   -308.82118249 </i>
    <i name="e_0_energy">   -308.83282451 </i>
   </energy>
  </scstep>
  <scstep>
   <time name="dav">   48.94   48.99</time>
   <time name="total">   49.60   49.65</time>
   <energy>
    <i name="e_fr_energy">   -308.74809834 </i>
    <i name="e_wo_entrp">   -308.74138640 </i>
    <i name="e_0_energy">   -308.74586103 </i>
   </energy>
  </scstep>
  <scstep>
   <time name="dav">   49.49   49.54</time>
   <time name="total">   50.16   50.22</time>
   <energy>
    <i name="e_fr_energy">   -308.34138619 </i>
    <i name="e_wo_entrp">   -308.33185842 </i>
    <i name="e_0_energy">   -308.33821026 </i>
   </energy>
  </scstep>
  <scstep>
   <time name="dav">   51.45   51.50</time>
   <time name="total">   52.09   52.16</time>
   <energy>
    <i name="e_fr_energy">   -308.21044477 </i>
    <i name="e_wo_entrp">   -308.20599272 </i>
    <i name="e_0_energy">   -308.20896075 </i>
   </energy>
  </scstep>
  <scstep>
   <time name="dav">   53.35   53.40</time>
   <time name="total">   54.01   54.07</time>
   <energy>
    <i name="e_fr_energy">   -308.18895923 </i>
    <i name="e_wo_entrp">   -308.17721673 </i>
    <i name="e_0_energy">   -308.18504506 </i>
   </energy>
  </scstep>
  <scstep>
   <time name="dav">   50.56   50.61</time>
   <time name="total">   51.22   51.27</time>
   <energy>
    <i name="e_fr_energy">   -308.18027138 </i>
    <i name="e_wo_entrp">   -308.17138374 </i>
    <i name="e_0_energy">   -308.17730883 </i>
   </energy>
  </scstep>
  <scstep>
   <time name="dav">   49.62   49.66</time>
   <time name="total">   50.28   50.34</time>
   <energy>
    <i name="e_fr_energy">   -308.15675751 </i>
    <i name="e_wo_entrp">   -308.14782888 </i>
    <i name="e_0_energy">   -308.15378130 </i>
   </energy>
  </scstep>
  <scstep>
   <time name="dav">   51.90   51.95</time>
   <time name="total">   52.56   52.61</time>
   <energy>
    <i name="e_fr_energy">   -308.15441578 </i>
    <i name="e_wo_entrp">   -308.14496343 </i>
    <i name="e_0_energy">   -308.15126500 </i>
   </energy>
  </scstep>
  <scstep>
   <time name="dav">   51.66   51.72</time>
   <time name="total">   52.33   52.39</time>
   <energy>
    <i name="e_fr_energy">   -308.15889245 </i>
    <i name="e_wo_entrp">   -308.14932815 </i>
    <i name="e_0_energy">   -308.15570435 </i>
   </energy>
  </scstep>
  <scstep>
   <time name="dav">   48.43   48.48</time>
   <time name="total">   49.08   49.13</time>
   <energy>
    <i name="e_fr_energy">   -308.16021766 </i>
    <i name="e_wo_entrp">   -308.15156377 </i>
    <i name="e_0_energy">   -308.15733303 </i>
   </energy>
  </scstep>
  <scstep>
   <time name="dav">   49.89   49.94</time>
   <time name="total">   50.55   50.61</time>
   <energy>
    <i name="e_fr_energy">   -308.15902713 </i>
    <i name="e_wo_entrp">   -308.14955214 </i>
    <i name="e_0_energy">   -308.15586880 </i>
   </energy>
  </scstep>
  <scstep>
   <time name="dav">   49.69   49.74</time>
   <time name="total">   50.34   50.39</time>
   <energy>
    <i name="e_fr_energy">   -308.15924261 </i>
    <i name="e_wo_entrp">   -308.15001987 </i>
    <i name="e_0_energy">   -308.15616836 </i>
   </energy>
  </scstep>
  <scstep>
   <time name="dav">   43.46   43.51</time>
   <time name="total">   44.12   44.18</time>
   <energy>
    <i name="e_fr_energy">   -308.15864475 </i>
    <i name="e_wo_entrp">   -308.14938852 </i>
    <i name="e_0_energy">   -308.15555934 </i>
   </energy>
  </scstep>
  <scstep>
   <time name="dav">   44.24   44.34</time>
   <time name="total">   44.89   45.00</time>
   <energy>
    <i name="e_fr_energy">   -308.15860326 </i>
    <i name="e_wo_entrp">   -308.14929207 </i>
    <i name="e_0_energy">   -308.15549953 </i>
   </energy>
  </scstep>
  <scstep>
   <time name="dav">   35.46   35.54</time>
   <time name="total">   35.54   35.63</time>
   <energy>
    <i name="alphaZ">   1207.36461889 </i>
    <i name="ewald"> -11409.11325004 </i>
    <i name="hartreedc">  -2946.27762813 </i>
    <i name="XCdc">   -850.30896653 </i>
    <i name="pawpsdc">  19434.19455180 </i>
    <i name="pawaedc"> -17964.51667351 </i>
    <i name="eentropy">     -0.00932201 </i>
    <i name="bandstr">   -690.83708270 </i>
    <i name="atom">  12911.34519091 </i>
    <i name="e_fr_energy">   -308.15856133 </i>
    <i name="e_wo_entrp">   -308.14923932 </i>
    <i name="e_0_energy">   -308.15545400 </i>
   </energy>
  </scstep>
  <structure>
   <crystal>
    <varray name="basis" >
     <v>      -3.10614804      -3.12350829      -3.11934179 </v>
     <v>       1.58527240       1.56472243      -7.83352114 </v>
     <v>       7.81348176      -7.82666286      -1.58989042 </v>
    </varray>
    <i name="volume">    458.31427600 </i>
    <varray name="rec_basis" >
     <v>      -0.13920157      -0.12804896      -0.05374767 </v>
     <v>       0.04243377       0.06395471      -0.10629442 </v>
     <v>       0.06403678      -0.06387993       0.00019932 </v>
    </varray>
   </crystal>
   <varray name="positions" >
    <v>       0.96493919       0.93752916       0.39510099 </v>
    <v>       0.63068106       0.26756381       0.40160365 </v>
    <v>       0.50154370       0.00146906      -0.00220743 </v>
    <v>      -0.00174042       0.00247673       0.00397088 </v>
    <v>       0.09685373       0.20514454       0.79832303 </v>
    <v>       0.03372655       0.06904262       0.59816048 </v>
    <v>       0.90088097       0.79585127       0.20185819 </v>
    <v>       0.80413107       0.59572466       0.39917346 </v>
    <v>       0.73499985       0.46259233       0.19882507 </v>
    <v>       0.66075361       0.33929405      -0.00127399 </v>
    <v>       0.36854492       0.73060605       0.60050083 </v>
    <v>       0.13337560       0.26957495       0.39786445 </v>
    <v>       0.83463861       0.66279012       0.00217730 </v>
    <v>       0.93044603       0.86815170       0.79868085 </v>
    <v>       0.56563178       0.13606905       0.19807892 </v>
    <v>       0.39768912       0.80117371       0.19782954 </v>
    <v>       0.43704091       0.86154050       0.79822366 </v>
    <v>       0.30009060       0.60033506       0.40125969 </v>
    <v>       0.86360780       0.73087744       0.60042601 </v>
    <v>       0.46969062       0.93058199       0.40487528 </v>
    <v>       0.16764214       0.33277371       0.00315524 </v>
    <v>       0.26936233       0.53382870       0.79868771 </v>
    <v>       0.20052134       0.39705800       0.60070931 </v>
    <v>       0.76799838       0.52907890       0.80129974 </v>
    <v>       0.69771049       0.40309029       0.60089821 </v>
    <v>       0.59946523       0.20114387       0.79951131 </v>
    <v>       0.53553961       0.06853547       0.60123784 </v>
    <v>       0.33539022       0.66197248       0.00077895 </v>
    <v>       0.23217831       0.47079644       0.20027080 </v>
   </varray>
  </structure>
  <varray name="forces" >
   <v>      -0.52310683       0.72133286      -0.40488846 </v>
   <v>       0.22404591       0.05067006       0.01342676 </v>
   <v>      -0.33616737       0.22778840      -0.09061428 </v>
   <v>       0.49971545      -0.28441454      -0.43519324 </v>
   <v>       0.08332557       0.23657567      -0.28687064 </v>
   <v>      -0.20941287       0.25780727      -0.24041348 </v>
   <v>       0.00800249      -0.14496207       0.37812103 </v>
   <v>      -0.18220720      -0.21426090       0.15248291 </v>
   <v>      -0.32730414      -0.16110764       0.55477581 </v>
   <v>       0.17428163       0.59281668      -0.36294229 </v>
   <v>      -0.07197025      -0.21782442       0.29520775 </v>
   <v>      -0.30608142       0.36254893      -0.07948612 </v>
   <v>      -0.02029470      -0.27104371       0.12637040 </v>
   <v>       0.05500533       0.15434082      -0.03110484 </v>
   <v>       0.13633308       0.29248847      -0.10915329 </v>
   <v>       0.10363181       0.32714102      -0.16717017 </v>
   <v>      -0.17944988       0.02742609       0.42213067 </v>
   <v>       0.14190733      -0.15953641      -0.14128154 </v>
   <v>       0.03197106       0.06819239       0.39336410 </v>
   <v>       0.22234280      -0.66540010       0.05966448 </v>
   <v>       0.41157619      -0.46400924       0.06733752 </v>
   <v>      -0.28939637       0.00931053      -0.04666337 </v>
   <v>       0.06257240      -0.17588821       0.23301274 </v>
   <v>      -0.04314426      -0.32225578       0.43246156 </v>
   <v>       0.39650039      -0.03554926      -0.27359208 </v>
   <v>      -0.03929206       0.25937955      -0.20080531 </v>
   <v>       0.08395455      -0.30808742      -0.33649985 </v>
   <v>      -0.15962463      -0.29907796       0.51608804 </v>
   <v>       0.05228603       0.13559892      -0.43776481 </v>
  </varray>
  <varray name="stress" >
   <v>      36.45686519      -0.18578147      -5.70784647 </v>
   <v>      -0.18578153      37.92406794       1.50053570 </v>
   <v>      -5.70784644       1.50053565      38.28454767 </v>
  </varray>
  <energy>
   <i name="e_fr_energy">   -308.15856133 </i>
   <i name="e_wo_entrp">   -308.15545400 </i>
   <i name="e_0_energy">     -0.00932201 </i>
  </energy>
  <time name="totalsc">  843.31  844.45</time>
 </calculation>
 <calculation>
  <scstep>
   <time name="dav">   34.57   34.61</time>
   <time name="total">   35.22   35.26</time>
   <energy>
    <i name="alphaZ">   1213.08100324 </i>
    <i name="ewald"> -11432.57054284 </i>
    <i name="hartreedc">  -2945.92348030 </i>
    <i name="XCdc">   -849.70221563 </i>
    <i name="pawpsdc">  19433.20908195 </i>
    <i name="pawaedc"> -17963.39105002 </i>
    <i name="eentropy">     -0.00895521 </i>
    <i name="bandstr">   -674.20837398 </i>
    <i name="atom">  12911.34519091 </i>
    <i name="e_fr_energy">   -308.16934187 </i>
    <i name="e_wo_entrp">   -308.16038666 </i>
    <i name="e_0_energy">   -308.16635680 </i>
   </energy>
  </scstep>
  <scstep>
   <time name="dav">   51.27   51.33</time>
   <time name="total">   51.93   52.00</time>
   <energy>
    <i name="e_fr_energy">   -308.20349630 </i>
    <i name="e_wo_entrp">   -308.19610686 </i>
    <i name="e_0_energy">   -308.20103315 </i>
   </energy>
  </scstep>
  <scstep>
   <time name="dav">   50.81   50.86</time>
   <time name="total">   51.46   51.52</time>
   <energy>
    <i name="e_fr_energy">   -308.18244478 </i>
    <i name="e_wo_entrp">   -308.17214551 </i>
    <i name="e_0_energy">   -308.17901169 </i>
   </energy>
  </scstep>
  <scstep>
   <time name="dav">   48.42   48.46</time>
   <time name="total">   49.06   49.13</time>
   <energy>
    <i name="e_fr_energy">   -308.18112728 </i>
    <i name="e_wo_entrp">   -308.17253163 </i>
    <i name="e_0_energy">   -308.17826206 </i>
   </energy>
  </scstep>
  <scstep>
   <time name="dav">   49.25   49.29</time>
   <time name="total">   49.90   49.95</time>
   <energy>
    <i name="e_fr_energy">   -308.17118164 </i>
    <i name="e_wo_entrp">   -308.16194532 </i>
    <i name="e_0_energy">   -308.16810286 </i>
   </energy>
  </scstep>
  <scstep>
   <time name="dav">   50.24   50.35</time>
   <time name="total">   50.89   51.02</time>
   <energy>
    <i name="e_fr_energy">   -308.16861840 </i>
    <i name="e_wo_entrp">   -308.16012075 </i>
    <i name="e_0_energy">   -308.16578585 </i>
   </energy>
  </scstep>
  <scstep>
   <time name="dav">   49.92   49.97</time>
   <time name="total">   50.57   50.62</time>
   <energy>
    <i name="e_fr_energy">   -308.16820873 </i>
    <i name="e_wo_entrp">   -308.15886515 </i>
    <i name="e_0_energy">   -308.16509421 </i>
   </energy>
  </scstep>
  <scstep>
   <time name="dav">   43.67   43.71</time>
   <time name="total">   44.32   44.37</time>
   <energy>
    <i name="e_fr_energy">   -308.16776780 </i>
    <i name="e_wo_entrp">   -308.15877340 </i>
    <i name="e_0_energy">   -308.16476966 </i>
   </energy>
  </scstep>
  <scstep>
   <time name="dav">   44.31   44.41</time>
   <time name="total">   44.95   45.06</time>
   <energy>
    <i name="e_fr_energy">   -308.16734283 </i>
    <i name="e_wo_entrp">   -308.15838205 </i>
    <i name="e_0_energy">   -308.16435590 </i>
   </energy>
  </scstep>
  <scstep>
   <time name="dav">   41.94   41.98</time>
   <time name="total">   42.58   42.66</time>
   <energy>
    <i name="e_fr_energy">   -308.16730169 </i>
    <i name="e_wo_entrp">   -308.15827717 </i>
    <i name="e_0_energy">   -308.16429352 </i>
   </energy>
  </scstep>
  <scstep>
   <time name="dav">   39.72   39.81</time>
   <time name="total">   40.36   40.47</time>
   <energy>
    <i name="e_fr_energy">   -308.16742161 </i>
    <i name="e_wo_entrp">   -308.15837139 </i>
    <i name="e_0_energy">   -308.16440487 </i>
   </energy>
  </scstep>
  <scstep>
   <time name="dav">   39.88   39.92</time>
   <time name="total">   40.53   40.58</time>
   <energy>
    <i name="e_fr_energy">   -308.16743620 </i>
    <i name="e_wo_entrp">   -308.15851259 </i>
    <i name="e_0_energy">   -308.16446166 </i>
   </energy>
  </scstep>
  <scstep>
   <time name="dav">   30.23   30.30</time>
   <time name="total">   30.31   30.38</time>
   <energy>
    <i name="alphaZ">   1213.08100324 </i>
    <i name="ewald"> -11432.57054284 </i>
    <i name="hartreedc">  -2937.23276315 </i>
    <i name="XCdc">   -849.97167826 </i>
    <i name="pawpsdc">  19543.15803111 </i>
    <i name="pawaedc"> -18073.47919230 </i>
    <i name="eentropy">     -0.00903975 </i>
    <i name="bandstr">   -682.48840657 </i>
    <i name="atom">  12911.34519091 </i>
    <i name="e_fr_energy">   -308.16739762 </i>
    <i name="e_wo_entrp">   -308.15835786 </i>
    <i name="e_0_energy">   -308.16438436 </i>
   </energy>
  </scstep>
  <structure>
   <crystal>
    <varray name="basis" >
     <v>      -3.09830427      -3.11819311      -3.11341974 </v>
     <v>       1.58604035       1.56249718      -7.82383820 </v>
     <v>       7.80088000      -7.81598098      -1.59133100 </v>
    </varray>
    <i name="volume">    456.15456816 </i>
    <varray name="rec_basis" >
     <v>      -0.13950846      -0.12826553      -0.05389689 </v>
     <v>       0.04246883       0.06405250      -0.10641335 </v>
     <v>       0.06414700      -0.06396656       0.00022906 </v>
    </varray>
   </crystal>
   <varray name="positions" >
    <v>       0.96468767       0.93814663       0.39437960 </v>
    <v>       0.63028876       0.26769513       0.40183988 </v>
    <v>       0.50177330       0.00168531      -0.00253278 </v>
    <v>      -0.00199855       0.00283918       0.00455498 </v>
    <v>       0.09639142       0.20590037       0.79807580 </v>
    <v>       0.03378631       0.06939193       0.59788929 </v>
    <v>       0.90100885       0.79524167       0.20213227 </v>
    <v>       0.80474034       0.59509714       0.39905199 </v>
    <v>       0.73524522       0.46199453       0.19865270 </v>
    <v>       0.65988262       0.34016968      -0.00146163 </v>
    <v>       0.36882126       0.73020547       0.60057474 </v>
    <v>       0.13338383       0.27000251       0.39754965 </v>
    <v>       0.83482913       0.66222035       0.00249821 </v>
    <v>       0.93002057       0.86837022       0.79848693 </v>
    <v>       0.56548070       0.13647126       0.19779589 </v>
    <v>       0.39734910       0.80134676       0.19751032 </v>
    <v>       0.43758775       0.86078839       0.79796267 </v>
    <v>       0.30010352       0.60038387       0.40144497 </v>
    <v>       0.86315482       0.73051693       0.60048967 </v>
    <v>       0.47013418       0.93017651       0.40559269 </v>
    <v>       0.16778460       0.33269057       0.00361947 </v>
    <v>       0.26976138       0.53390170       0.79849408 </v>
    <v>       0.20059703       0.39662590       0.60081416 </v>
    <v>       0.76819308       0.52845393       0.80149159 </v>
    <v>       0.69737286       0.40354375       0.60103015 </v>
    <v>       0.59938684       0.20131195       0.79943926 </v>
    <v>       0.53586564       0.06880932       0.60141926 </v>
    <v>       0.33569214       0.66128308       0.00089414 </v>
    <v>       0.23200895       0.47140263       0.20031004 </v>
   </varray>
  </structure>
  <varray name="forces" >
   <v>      -0.52438385       0.66705740      -0.40029755 </v>
   <v>       0.19457863       0.06963535       0.01958636 </v>
   <v>      -0.33047951       0.22038635      -0.06353119 </v>
   <v>       0.45303032      -0.25719252      -0.43515683 </v>
   <v>       0.08220900       0.17315869      -0.24270188 </v>
   <v>      -0.20219398       0.23746422      -0.22342314 </v>
   <v>      -0.00488837      -0.08335873       0.35402267 </v>
   <v>      -0.11699962      -0.19741504       0.10079925 </v>
   <v>      -0.30190423      -0.17538451       0.54032935 </v>
   <v>       0.13918350       0.56079150      -0.32261217 </v>
   <v>      -0.06443656      -0.20098540       0.28779737 </v>
   <v>      -0.31656089       0.34559235      -0.02269055 </v>
   <v>      -0.04942946      -0.23327474       0.07296131 </v>
   <v>       0.04737167       0.10237309      -0.02383697 </v>
   <v>       0.18115689       0.26715566      -0.06960622 </v>
   <v>       0.15167042       0.27659476      -0.19150141 </v>
   <v>      -0.09775348       0.04988886       0.36894062 </v>
   <v>       0.11742309      -0.15932694      -0.14708265 </v>
   <v>       0.00527521       0.06851999       0.35398207 </v>
   <v>       0.18153408      -0.60157645       0.05856233 </v>
   <v>       0.40427299      -0.43673748       0.08271956 </v>
   <v>      -0.27172041       0.00558024      -0.01916837 </v>
   <v>       0.06856031      -0.15954392       0.19508821 </v>
   <v>      -0.04370991      -0.29759914       0.40413118 </v>
   <v>       0.39800719      -0.05590294      -0.25213816 </v>
   <v>      -0.04435093       0.27668409      -0.20980150 </v>
   <v>       0.07977032      -0.31266337      -0.30876033 </v>
   <v>      -0.15424061      -0.27444743       0.49581117 </v>
   <v>       0.01900818       0.12452606      -0.40242252 </v>
  </varray>
  <varray name="stress" >
   <v>      45.72780565       0.17991927      -5.47908912 </v>
   <v>       0.17991922      46.79451457       1.84047906 </v>
   <v>      -5.47908908       1.84047902      46.94290382 </v>
  </varray>
  <energy>
   <i name="e_fr_energy">   -308.16739762 </i>
   <i name="e_wo_entrp">   -308.16438436 </i>
   <i name="e_0_energy">     -0.00903975 </i>
  </energy>
  <time name="totalsc">  602.17  603.15</time>
 </calculation>
 <calculation>
  <scstep>
   <time name="dav">   33.20   33.25</time>
   <time name="total">   33.85   33.91</time>
   <energy>
    <i name="alphaZ">   1200.77784230 </i>
    <i name="ewald"> -11417.82721377 </i>
    <i name="hartreedc">  -2904.40496873 </i>
    <i name="XCdc">   -851.41543482 </i>
    <i name="pawpsdc">  19542.84386608 </i>
    <i name="pawaedc"> -18073.16108733 </i>
    <i name="eentropy">     -0.00638965 </i>
    <i name="bandstr">   -716.41683138 </i>
    <i name="atom">  12911.34519091 </i>
    <i name="e_fr_energy">   -308.26502638 </i>
    <i name="e_wo_entrp">   -308.25863674 </i>
    <i name="e_0_energy">   -308.26289650 </i>
   </energy>
  </scstep>
  <scstep>
   <time name="dav">   49.18   49.28</time>
   <time name="total">   49.82   49.94</time>
   <energy>
    <i name="e_fr_energy">   -308.73494340 </i>
    <i name="e_wo_entrp">   -308.72792178 </i>
    <i name="e_0_energy">   -308.73260286 </i>
   </energy>
  </scstep>
  <scstep>
   <time name="dav">   49.57   49.62</time>
   <time name="total">   50.25   50.31</time>
   <energy>
    <i name="e_fr_energy">   -308.62203452 </i>
    <i name="e_wo_entrp">   -308.61424851 </i>
    <i name="e_0_energy">   -308.61943919 </i>
   </energy>
  </scstep>
  <scstep>
   <time name="dav">   48.52   48.57</time>
   <time name="total">   49.18   49.23</time>
   <energy>
    <i name="e_fr_energy">   -308.57409728 </i>
    <i name="e_wo_entrp">   -308.57040083 </i>
    <i name="e_0_energy">   -308.57286513 </i>
   </energy>
  </scstep>
  <scstep>
   <time name="dav">   48.58   48.63</time>
   <time name="total">   49.23   49.29</time>
   <energy>
    <i name="e_fr_energy">   -308.52571058 </i>
    <i name="e_wo_entrp">   -308.51972318 </i>
    <i name="e_0_energy">   -308.52371478 </i>
   </energy>
  </scstep>
  <scstep>
   <time name="dav">   50.45   50.51</time>
   <time name="total">   51.11   51.17</time>
   <energy>
    <i name="e_fr_energy">   -308.52243753 </i>
    <i name="e_wo_entrp">   -308.51829681 </i>
    <i name="e_0_energy">   -308.52105729 </i>
   </energy>
  </scstep>
  <scstep>
   <time name="dav">   52.04   52.10</time>
   <time name="total">   52.70   52.76</time>
   <energy>
    <i name="e_fr_energy">   -308.51979631 </i>
    <i name="e_wo_entrp">   -308.51332326 </i>
[...]
       <r>    4.8177    1.0000 </r>
       <r>    4.8846    1.0000 </r>
       <r>    4.9275    1.0000 </r>
       <r>    5.0070    1.0000 </r>
       <r>    5.0798    1.0000 </r>
       <r>    5.1269    1.0000 </r>
       <r>    5.1545    1.0000 </r>
       <r>    5.2385    1.0000 </r>
       <r>    5.3036    1.0000 </r>
       <r>    5.3362    1.0000 </r>
       <r>    5.3870    1.0000 </r>
       <r>    5.4628    1.0000 </r>
       <r>    5.5238    1.0000 </r>
       <r>    5.5540    1.0000 </r>
       <r>    5.5960    1.0000 </r>
       <r>    5.6319    1.0000 </r>
       <r>    5.6683    1.0000 </r>
       <r>    5.7215    1.0000 </r>
       <r>    5.7819    1.0000 </r>
       <r>    5.8401    1.0000 </r>
       <r>    5.8875    1.0000 </r>
       <r>    5.9349    1.0000 </r>
       <r>    6.0144    1.0000 </r>
       <r>    6.1013    1.0000 </r>
       <r>    6.1214    1.0001 </r>
       <r>    6.1647    1.0002 </r>
       <r>    6.2429    1.0013 </r>
       <r>    6.2638    1.0021 </r>
       <r>    6.3247    1.0066 </r>
       <r>    6.3482    1.0097 </r>
       <r>    6.4287    1.0259 </r>
       <r>    6.4649    1.0332 </r>
       <r>    6.4944    1.0354 </r>
       <r>    6.5651    1.0029 </r>
       <r>    6.6146    0.9236 </r>
       <r>    6.6565    0.8095 </r>
       <r>    6.7497    0.4430 </r>
       <r>    6.7701    0.3589 </r>
       <r>    6.8304    0.1462 </r>
       <r>    6.8774    0.0381 </r>
       <r>    6.9860   -0.0354 </r>
       <r>    7.0557   -0.0232 </r>
       <r>    7.1189   -0.0105 </r>
       <r>    7.2314   -0.0013 </r>
       <r>    7.3519   -0.0001 </r>
       <r>    7.4469   -0.0000 </r>
       <r>    7.5718   -0.0000 </r>
       <r>    7.6179   -0.0000 </r>
       <r>    7.7987   -0.0000 </r>
       <r>    7.8445   -0.0000 </r>
       <r>    8.0089   -0.0000 </r>
       <r>    8.1214   -0.0000 </r>
       <r>    8.2260   -0.0000 </r>
       <r>    8.3059   -0.0000 </r>
       <r>    8.3652   -0.0000 </r>
       <r>    8.5725   -0.0000 </r>
       <r>    8.6526   -0.0000 </r>
       <r>    8.7244   -0.0000 </r>
       <r>    8.7545   -0.0000 </r>
       <r>    8.7960   -0.0000 </r>
       <r>    8.8194   -0.0000 </r>
      </set>
     </set>
    </set>
   </array>
  </eigenvalues>
  <separator name="orbital magnetization" >
   <v name="MAGDIPOLOUT">      0.00000000      0.00000000      0.00000000</v>
  </separator>
  <dos>
   <i name="efermi">      6.73619741 </i>
   <total>
    <array>
     <dimension dim="1">gridpoints</dimension>
     <dimension dim="2">spin</dimension>
     <field>energy</field>
     <field>total</field>
     <field>integrated</field>
     <set>
      <set comment="spin 1">
       <r>   -50.3369     0.0000     0.0000 </r>
       <r>   -50.1300     0.0000     0.0000 </r>
       <r>   -49.9231     0.0000     0.0000 </r>
       <r>   -49.7162     0.0000     0.0000 </r>
       <r>   -49.5093     0.0000     0.0000 </r>
       <r>   -49.3024    -0.0000    -0.0000 </r>
       <r>   -49.0955    -0.0000    -0.0000 </r>
       <r>   -48.8886    -0.0000    -0.0000 </r>
       <r>   -48.6817    -0.0000    -0.0000 </r>
       <r>   -48.4748    -0.0000    -0.0000 </r>
       <r>   -48.2679    -0.0000    -0.0000 </r>
       <r>   -48.0610    -0.0044    -0.0009 </r>
       <r>   -47.8541    -0.2474    -0.0521 </r>
       <r>   -47.6472     0.2858     0.0071 </r>
       <r>   -47.4403    12.2965     2.5512 </r>
       <r>   -47.2334    22.2689     7.1587 </r>
       <r>   -47.0265    20.8604    11.4747 </r>
       <r>   -46.8196     3.1184    12.1199 </r>
       <r>   -46.6127    -0.5522    12.0057 </r>
       <r>   -46.4058    -0.0273    12.0000 </r>
       <r>   -46.1989    -0.0001    12.0000 </r>
       <r>   -45.9920    -0.0000    12.0000 </r>
       <r>   -45.7851    -0.0000    12.0000 </r>
       <r>   -45.5782     0.0000    12.0000 </r>
       <r>   -45.3713     0.0000    12.0000 </r>
       <r>   -45.1644     0.0000    12.0000 </r>
       <r>   -44.9575     0.0000    12.0000 </r>
       <r>   -44.7506     0.0000    12.0000 </r>
       <r>   -44.5437     0.0000    12.0000 </r>
       <r>   -44.3368     0.0000    12.0000 </r>
       <r>   -44.1299     0.0000    12.0000 </r>
       <r>   -43.9230     0.0000    12.0000 </r>
       <r>   -43.7161     0.0000    12.0000 </r>
       <r>   -43.5092     0.0000    12.0000 </r>
       <r>   -43.3023     0.0000    12.0000 </r>
       <r>   -43.0954     0.0000    12.0000 </r>
       <r>   -42.8885     0.0000    12.0000 </r>
       <r>   -42.6816     0.0000    12.0000 </r>
       <r>   -42.4747     0.0000    12.0000 </r>
       <r>   -42.2678     0.0000    12.0000 </r>
       <r>   -42.0609     0.0000    12.0000 </r>
       <r>   -41.8540     0.0000    12.0000 </r>
       <r>   -41.6471     0.0000    12.0000 </r>
       <r>   -41.4402     0.0000    12.0000 </r>
       <r>   -41.2333     0.0000    12.0000 </r>
       <r>   -41.0264     0.0000    12.0000 </r>
       <r>   -40.8195     0.0000    12.0000 </r>
       <r>   -40.6126     0.0000    12.0000 </r>
       <r>   -40.4057     0.0000    12.0000 </r>
       <r>   -40.1988     0.0000    12.0000 </r>
       <r>   -39.9919     0.0000    12.0000 </r>
       <r>   -39.7850     0.0000    12.0000 </r>
       <r>   -39.5781     0.0000    12.0000 </r>
       <r>   -39.3712     0.0000    12.0000 </r>
       <r>   -39.1643     0.0000    12.0000 </r>
       <r>   -38.9574     0.0000    12.0000 </r>
       <r>   -38.7505     0.0000    12.0000 </r>
       <r>   -38.5436     0.0000    12.0000 </r>
       <r>   -38.3367     0.0000    12.0000 </r>
       <r>   -38.1298     0.0000    12.0000 </r>
       <r>   -37.9229     0.0000    12.0000 </r>
       <r>   -37.7160     0.0000    12.0000 </r>
       <r>   -37.5091     0.0000    12.0000 </r>
       <r>   -37.3022     0.0000    12.0000 </r>
       <r>   -37.0953     0.0000    12.0000 </r>
       <r>   -36.8884     0.0000    12.0000 </r>
       <r>   -36.6815     0.0000    12.0000 </r>
       <r>   -36.4746     0.0000    12.0000 </r>
       <r>   -36.2677     0.0000    12.0000 </r>
       <r>   -36.0608     0.0000    12.0000 </r>
       <r>   -35.8539     0.0000    12.0000 </r>
       <r>   -35.6470     0.0000    12.0000 </r>
       <r>   -35.4401     0.0000    12.0000 </r>
       <r>   -35.2332     0.0000    12.0000 </r>
       <r>   -35.0263     0.0000    12.0000 </r>
       <r>   -34.8194     0.0000    12.0000 </r>
       <r>   -34.6125     0.0000    12.0000 </r>
       <r>   -34.4056     0.0000    12.0000 </r>
       <r>   -34.1987     0.0000    12.0000 </r>
       <r>   -33.9918     0.0000    12.0000 </r>
       <r>   -33.7849     0.0000    12.0000 </r>
       <r>   -33.5780     0.0000    12.0000 </r>
       <r>   -33.3711     0.0000    12.0000 </r>
       <r>   -33.1642     0.0000    12.0000 </r>
       <r>   -32.9573     0.0000    12.0000 </r>
       <r>   -32.7504     0.0000    12.0000 </r>
       <r>   -32.5435     0.0000    12.0000 </r>
       <r>   -32.3365     0.0000    12.0000 </r>
       <r>   -32.1296     0.0000    12.0000 </r>
       <r>   -31.9227     0.0000    12.0000 </r>
       <r>   -31.7158     0.0000    12.0000 </r>
       <r>   -31.5089     0.0000    12.0000 </r>
       <r>   -31.3020     0.0000    12.0000 </r>
       <r>   -31.0951     0.0000    12.0000 </r>
       <r>   -30.8882     0.0000    12.0000 </r>
       <r>   -30.6813     0.0000    12.0000 </r>
       <r>   -30.4744     0.0000    12.0000 </r>
       <r>   -30.2675     0.0000    12.0000 </r>
       <r>   -30.0606     0.0000    12.0000 </r>
       <r>   -29.8537     0.0000    12.0000 </r>
       <r>   -29.6468     0.0000    12.0000 </r>
       <r>   -29.4399     0.0000    12.0000 </r>
       <r>   -29.2330     0.0000    12.0000 </r>
       <r>   -29.0261     0.0000    12.0000 </r>
       <r>   -28.8192     0.0000    12.0000 </r>
       <r>   -28.6123     0.0000    12.0000 </r>
       <r>   -28.4054     0.0000    12.0000 </r>
       <r>   -28.1985     0.0000    12.0000 </r>
       <r>   -27.9916     0.0000    12.0000 </r>
       <r>   -27.7847     0.0000    12.0000 </r>
       <r>   -27.5778     0.0000    12.0000 </r>
       <r>   -27.3709     0.0000    12.0000 </r>
       <r>   -27.1640     0.0000    12.0000 </r>
       <r>   -26.9571     0.0000    12.0000 </r>
       <r>   -26.7502     0.0000    12.0000 </r>
       <r>   -26.5433     0.0000    12.0000 </r>
       <r>   -26.3364     0.0000    12.0000 </r>
       <r>   -26.1295     0.0000    12.0000 </r>
       <r>   -25.9226    -0.0000    12.0000 </r>
       <r>   -25.7157    -0.0000    12.0000 </r>
       <r>   -25.5088    -0.0000    12.0000 </r>
       <r>   -25.3019    -0.0000    12.0000 </r>
       <r>   -25.0950    -0.0000    12.0000 </r>
       <r>   -24.8881    -0.0000    12.0000 </r>
       <r>   -24.6812    -0.0016    11.9997 </r>
       <r>   -24.4743    -0.0742    11.9843 </r>
       <r>   -24.2674    -0.0366    11.9768 </r>
       <r>   -24.0605     3.1515    12.6288 </r>
       <r>   -23.8536    16.3088    16.0031 </r>
       <r>   -23.6467    26.5698    21.5004 </r>
       <r>   -23.4398    40.3606    29.8511 </r>
       <r>   -23.2329    48.6947    39.9261 </r>
       <r>   -23.0260    30.6209    46.2616 </r>
       <r>   -22.8191     6.5324    47.6131 </r>
       <r>   -22.6122     1.9331    48.0131 </r>
       <r>   -22.4053    -0.0169    48.0096 </r>
       <r>   -22.1984    -0.0457    48.0001 </r>
       <r>   -21.9915    -0.0007    48.0000 </r>
       <r>   -21.7846    -0.0000    48.0000 </r>
       <r>   -21.5777    -0.0000    48.0000 </r>
       <r>   -21.3708    -0.0000    48.0000 </r>
       <r>   -21.1639     0.0000    48.0000 </r>
       <r>   -20.9570     0.0000    48.0000 </r>
       <r>   -20.7501     0.0000    48.0000 </r>
       <r>   -20.5432     0.0000    48.0000 </r>
       <r>   -20.3363     0.0000    48.0000 </r>
       <r>   -20.1294     0.0000    48.0000 </r>
       <r>   -19.9225     0.0000    48.0000 </r>
       <r>   -19.7156     0.0000    48.0000 </r>
       <r>   -19.5087     0.0000    48.0000 </r>
       <r>   -19.3018     0.0000    48.0000 </r>
       <r>   -19.0949     0.0000    48.0000 </r>
       <r>   -18.8880     0.0000    48.0000 </r>
       <r>   -18.6811     0.0000    48.0000 </r>
       <r>   -18.4742     0.0000    48.0000 </r>
       <r>   -18.2673     0.0000    48.0000 </r>
       <r>   -18.0604     0.0000    48.0000 </r>
       <r>   -17.8535     0.0000    48.0000 </r>
       <r>   -17.6466     0.0000    48.0000 </r>
       <r>   -17.4397     0.0000    48.0000 </r>
       <r>   -17.2328     0.0000    48.0000 </r>
       <r>   -17.0259     0.0000    48.0000 </r>
       <r>   -16.8190     0.0000    48.0000 </r>
       <r>   -16.6121     0.0000    48.0000 </r>
       <r>   -16.4052     0.0000    48.0000 </r>
       <r>   -16.1983     0.0000    48.0000 </r>
       <r>   -15.9914     0.0000    48.0000 </r>
       <r>   -15.7845     0.0000    48.0000 </r>
       <r>   -15.5776     0.0000    48.0000 </r>
       <r>   -15.3707     0.0000    48.0000 </r>
       <r>   -15.1638     0.0000    48.0000 </r>
       <r>   -14.9569     0.0000    48.0000 </r>
       <r>   -14.7500     0.0000    48.0000 </r>
       <r>   -14.5431     0.0000    48.0000 </r>
       <r>   -14.3362     0.0000    48.0000 </r>
       <r>   -14.1293     0.0000    48.0000 </r>
       <r>   -13.9224     0.0000    48.0000 </r>
       <r>   -13.7155     0.0000    48.0000 </r>
       <r>   -13.5085     0.0000    48.0000 </r>
       <r>   -13.3016     0.0000    48.0000 </r>
       <r>   -13.0947     0.0000    48.0000 </r>
       <r>   -12.8878     0.0000    48.0000 </r>
       <r>   -12.6809     0.0000    48.0000 </r>
       <r>   -12.4740     0.0000    48.0000 </r>
       <r>   -12.2671     0.0000    48.0000 </r>
       <r>   -12.0602     0.0000    48.0000 </r>
       <r>   -11.8533     0.0000    48.0000 </r>
       <r>   -11.6464     0.0000    48.0000 </r>
       <r>   -11.4395     0.0000    48.0000 </r>
       <r>   -11.2326     0.0000    48.0000 </r>
       <r>   -11.0257     0.0000    48.0000 </r>
       <r>   -10.8188     0.0000    48.0000 </r>
       <r>   -10.6119     0.0000    48.0000 </r>
       <r>   -10.4050     0.0000    48.0000 </r>
       <r>   -10.1981     0.0000    48.0000 </r>
       <r>    -9.9912     0.0000    48.0000 </r>
       <r>    -9.7843     0.0000    48.0000 </r>
       <r>    -9.5774     0.0000    48.0000 </r>
       <r>    -9.3705     0.0000    48.0000 </r>
       <r>    -9.1636     0.0000    48.0000 </r>
       <r>    -8.9567     0.0000    48.0000 </r>
       <r>    -8.7498     0.0000    48.0000 </r>
       <r>    -8.5429     0.0000    48.0000 </r>
       <r>    -8.3360     0.0000    48.0000 </r>
       <r>    -8.1291     0.0000    48.0000 </r>
       <r>    -7.9222     0.0000    48.0000 </r>
       <r>    -7.7153     0.0000    48.0000 </r>
       <r>    -7.5084     0.0000    48.0000 </r>
       <r>    -7.3015     0.0000    48.0000 </r>
       <r>    -7.0946     0.0000    48.0000 </r>
       <r>    -6.8877     0.0000    48.0000 </r>
       <r>    -6.6808     0.0000    48.0000 </r>
       <r>    -6.4739     0.0000    48.0000 </r>
       <r>    -6.2670     0.0000    48.0000 </r>
       <r>    -6.0601     0.0000    48.0000 </r>
       <r>    -5.8532     0.0000    48.0000 </r>
       <r>    -5.6463     0.0000    48.0000 </r>
       <r>    -5.4394     0.0000    48.0000 </r>
       <r>    -5.2325     0.0000    48.0000 </r>
       <r>    -5.0256     0.0000    48.0000 </r>
       <r>    -4.8187     0.0000    48.0000 </r>
       <r>    -4.6118     0.0000    48.0000 </r>
       <r>    -4.4049     0.0000    48.0000 </r>
       <r>    -4.1980     0.0000    48.0000 </r>
       <r>    -3.9911     0.0000    48.0000 </r>
       <r>    -3.7842     0.0000    48.0000 </r>
       <r>    -3.5773     0.0000    48.0000 </r>
       <r>    -3.3704     0.0000    48.0000 </r>
       <r>    -3.1635     0.0000    48.0000 </r>
       <r>    -2.9566     0.0000    48.0000 </r>
       <r>    -2.7497     0.0000    48.0000 </r>
       <r>    -2.5428     0.0000    48.0000 </r>
       <r>    -2.3359     0.0000    48.0000 </r>
       <r>    -2.1290     0.0000    48.0000 </r>
       <r>    -1.9221     0.0000    48.0000 </r>
       <r>    -1.7152    -0.0000    48.0000 </r>
       <r>    -1.5083    -0.0000    48.0000 </r>
       <r>    -1.3014    -0.0000    48.0000 </r>
       <r>    -1.0945    -0.0000    48.0000 </r>
       <r>    -0.8876    -0.0000    48.0000 </r>
       <r>    -0.6807    -0.0000    48.0000 </r>
       <r>    -0.4738    -0.0017    47.9996 </r>
       <r>    -0.2669    -0.0171    47.9961 </r>
       <r>    -0.0600     0.1219    48.0213 </r>
       <r>     0.1469     0.8051    48.1879 </r>
       <r>     0.3538     1.2722    48.4511 </r>
       <r>     0.5607     1.7510    48.8134 </r>
       <r>     0.7676     2.1245    49.2530 </r>
       <r>     0.9745     1.8339    49.6324 </r>
       <r>     1.1814     2.6233    50.1752 </r>
       <r>     1.3883     3.1026    50.8171 </r>
       <r>     1.5952     3.2847    51.4967 </r>
       <r>     1.8021     3.6470    52.2513 </r>
       <r>     2.0090     4.5020    53.1828 </r>
       <r>     2.2159     5.1601    54.2504 </r>
       <r>     2.4228     6.6320    55.6226 </r>
       <r>     2.6297    10.6298    57.8219 </r>
       <r>     2.8366    16.1656    61.1666 </r>
       <r>     3.0435    20.6303    65.4350 </r>
       <r>     3.2504    25.7472    70.7621 </r>
       <r>     3.4573    28.7020    76.7006 </r>
       <r>     3.6642    29.1486    82.7315 </r>
       <r>     3.8711    30.0506    88.9490 </r>
       <r>     4.0780    31.0872    95.3809 </r>
       <r>     4.2849    32.8997   102.1879 </r>
       <r>     4.4918    30.2786   108.4526 </r>
       <r>     4.6987    26.9351   114.0255 </r>
       <r>     4.9056    31.2830   120.4980 </r>
       <r>     5.1125    34.3205   127.5990 </r>
       <r>     5.3194    38.3654   135.5368 </r>
       <r>     5.5264    41.2008   144.0613 </r>
       <r>     5.7333    41.5118   152.6501 </r>
       <r>     5.9402    39.8522   160.8956 </r>
       <r>     6.1471    41.1416   169.4078 </r>
       <r>     6.3540    43.4523   178.3981 </r>
       <r>     6.5609    43.2342   187.3433 </r>
       <r>     6.7678    37.4958   195.1012 </r>
       <r>     6.9747    32.4821   201.8218 </r>
       <r>     7.1816    26.8336   207.3737 </r>
       <r>     7.3885    22.8164   212.0945 </r>
       <r>     7.5954    19.0445   216.0348 </r>
       <r>     7.8023    17.6913   219.6951 </r>
       <r>     8.0092    20.5158   223.9399 </r>
       <r>     8.2161    23.9415   228.8934 </r>
       <r>     8.4230    25.7712   234.2255 </r>
       <r>     8.6299    18.5749   238.0687 </r>
       <r>     8.8368     8.4530   239.8176 </r>
       <r>     9.0437     1.0791   240.0409 </r>
       <r>     9.2506    -0.1815   240.0033 </r>
       <r>     9.4575    -0.0158   240.0000 </r>
       <r>     9.6644    -0.0001   240.0000 </r>
       <r>     9.8713    -0.0000   240.0000 </r>
       <r>    10.0782    -0.0000   240.0000 </r>
       <r>    10.2851    -0.0000   240.0000 </r>
       <r>    10.4920     0.0000   240.0000 </r>
       <r>    10.6989     0.0000   240.0000 </r>
       <r>    10.9058     0.0000   240.0000 </r>
       <r>    11.1127     0.0000   240.0000 </r>
       <r>    11.3196     0.0000   240.0000 </r>
       <r>    11.5265     0.0000   240.0000 </r>
       <r>    11.7334     0.0000   240.0000 </r>
      </set>
     </set>
    </array>
   </total>
  </dos>
 </calculation>
 <structure name="finalpos" >
  <crystal>
   <varray name="basis" >
    <v>      -3.10616229      -3.19200301      -3.11435565 </v>
    <v>       1.71988937       1.52185040      -7.87697098 </v>
    <v>       7.84126007      -7.84099706      -1.77289690 </v>
   </varray>
   <i name="volume">    466.81320757 </i>
   <varray name="rec_basis" >
    <v>      -0.13808819      -0.12578091      -0.05445191 </v>
    <v>       0.04018858       0.06410996      -0.10579121 </v>
    <v>       0.06401468      -0.06388743       0.00163401 </v>
   </varray>
  </crystal>
  <varray name="positions" >
   <v>       0.97995386       0.95369520       0.37231314 </v>
   <v>       0.62179991       0.27135901       0.40426876 </v>
   <v>       0.50806283       0.00194960      -0.01029003 </v>
   <v>      -0.00478856       0.00836439       0.01061503 </v>
   <v>       0.09335214       0.20592946       0.80073389 </v>
   <v>       0.04236705       0.07260990       0.59099108 </v>
   <v>       0.89905784       0.79146963       0.20015718 </v>
   <v>       0.80927328       0.59619177       0.40027865 </v>
   <v>       0.73407659       0.45357089       0.20125381 </v>
   <v>       0.64390260       0.34678285      -0.00300762 </v>
   <v>       0.37160499       0.72532533       0.60300486 </v>
   <v>       0.13192959       0.27639418       0.39093137 </v>
   <v>       0.83917327       0.65737826       0.00453203 </v>
   <v>       0.92705768       0.87142130       0.79568502 </v>
   <v>       0.54405560       0.13839006       0.19730635 </v>
   <v>       0.39849373       0.80210282       0.19491898 </v>
   <v>       0.43715024       0.85439216       0.79685658 </v>
   <v>       0.30170672       0.60504965       0.40296083 </v>
   <v>       0.86347592       0.73066621       0.59751275 </v>
   <v>       0.48803302       0.92236786       0.41177960 </v>
   <v>       0.15401501       0.32486027       0.01867935 </v>
   <v>       0.27051648       0.52952045       0.79877980 </v>
   <v>       0.20217569       0.39282934       0.60292915 </v>
   <v>       0.76668483       0.52006126       0.80739911 </v>
   <v>       0.69050204       0.40987968       0.60806293 </v>
   <v>       0.59695573       0.20741824       0.79173501 </v>
   <v>       0.54842541       0.07061892       0.60582005 </v>
   <v>       0.34104746       0.64967011       0.00197835 </v>
   <v>       0.23327238       0.47639788       0.20181400 </v>
  </varray>
 </structure>
</modeling>
