Nb - Mo - Ta - Ti - V SQS               
           1
    -3.160000   -3.160000   -3.160000
     1.580000    1.580000   -7.900000
     7.900000   -7.900000   -1.580000
   Nb   Mo   Ta   Ti   V 
   6   6   6   5   6
Direct configuration=     1
   0.96666667  0.93333333  0.40000000
   0.63333333  0.26666667  0.40000000
   0.50000000  0.00000000  0.00000000
   0.00000000  0.00000000  0.00000000
   0.10000000  0.20000000  0.80000000
   0.03333333  0.06666667  0.60000000
   0.90000000  0.80000000  0.20000000
   0.80000000  0.60000000  0.40000000
   0.73333333  0.46666667  0.20000000
   0.66666667  0.33333333  0.00000000
   0.36666667  0.73333333  0.60000000
   0.13333333  0.26666667  0.40000000
   0.83333333  0.66666667  0.00000000
   0.93333333  0.86666667  0.80000000
   0.56666667  0.13333333  0.20000000
   0.40000000  0.80000000  0.20000000
   0.43333333  0.86666667  0.80000000
   0.30000000  0.60000000  0.40000000
   0.86666667  0.73333333  0.60000000
   0.46666667  0.93333333  0.40000000
   0.16666667  0.33333333  0.00000000
   0.26666667  0.53333333  0.80000000
   0.20000000  0.40000000  0.60000000
   0.76666667  0.53333333  0.80000000
   0.70000000  0.40000000  0.60000000
   0.60000000  0.20000000  0.80000000
   0.53333333  0.06666667  0.60000000
   0.33333333  0.66666667  0.00000000
   0.23333333  0.46666667  0.20000000
Nb - Mo - Ta - Ti - V SQS               
           1
    -3.106148   -3.123508   -3.119342
     1.585272    1.564722   -7.833521
     7.813482   -7.826663   -1.589890
   Nb   Mo   Ta   Ti   V 
   6   6   6   5   6
Direct configuration=     2
   0.96493919  0.93752916  0.39510099
   0.63068106  0.26756381  0.40160365
   0.50154370  0.00146906 -0.00220743
  -0.00174042  0.00247673  0.00397088
   0.09685373  0.20514454  0.79832303
   0.03372655  0.06904262  0.59816048
   0.90088097  0.79585127  0.20185819
   0.80413107  0.59572466  0.39917346
   0.73499985  0.46259233  0.19882507
   0.66075361  0.33929405 -0.00127399
   0.36854492  0.73060605  0.60050083
   0.13337560  0.26957495  0.39786445
   0.83463861  0.66279012  0.00217730
   0.93044603  0.86815170  0.79868085
   0.56563178  0.13606905  0.19807892
   0.39768912  0.80117371  0.19782954
   0.43704091  0.86154050  0.79822366
   0.30009060  0.60033506  0.40125969
   0.86360780  0.73087744  0.60042601
   0.46969062  0.93058199  0.40487528
   0.16764214  0.33277371  0.00315524
   0.26936233  0.53382870  0.79868771
   0.20052134  0.39705800  0.60070931
   0.76799838  0.52907890  0.80129974
   0.69771049  0.40309029  0.60089821
   0.59946523  0.20114387  0.79951131
   0.53553961  0.06853547  0.60123784
   0.33539022  0.66197248  0.00077895
   0.23217831  0.47079644  0.20027080
Nb - Mo - Ta - Ti - V SQS               
           1
    -3.098304   -3.118193   -3.113420
     1.586040    1.562497   -7.823838
     7.800880   -7.815981   -1.591331
   Nb   Mo   Ta   Ti   V 
   6   6   6   5   6
Direct configuration=     3
   0.96468767  0.93814663  0.39437960
   0.63028876  0.26769513  0.40183988
   0.50177330  0.00168531 -0.00253278
  -0.00199855  0.00283918  0.00455498
   0.09639142  0.20590037  0.79807580
   0.03378631  0.06939193  0.59788929
   0.90100885  0.79524167  0.20213227
   0.80474034  0.59509714  0.39905199
   0.73524522  0.46199453  0.19865270
   0.65988262  0.34016968 -0.00146163
   0.36882126  0.73020547  0.60057474
   0.13338383  0.27000251  0.39754965
   0.83482913  0.66222035  0.00249821
   0.93002057  0.86837022  0.79848693
   0.56548070  0.13647126  0.19779589
   0.39734910  0.80134676  0.19751032
   0.43758775  0.86078839  0.79796267
   0.30010352  0.60038387  0.40144497
   0.86315482  0.73051693  0.60048967
   0.47013418  0.93017651  0.40559269
   0.16778460  0.33269057  0.00361947
   0.26976138  0.53390170  0.79849408
   0.20059703  0.39662590  0.60081416
   0.76819308  0.52845393  0.80149159
   0.69737286  0.40354375  0.60103015
   0.59938684  0.20131195  0.79943926
   0.53586564  0.06880932  0.60141926
   0.33569214  0.66128308  0.00089414
   0.23200895  0.47140263  0.20031004
Nb - Mo - Ta - Ti - V SQS               
           1
    -3.096351   -3.128866   -3.119141
     1.609047    1.566091   -7.860350
     7.826757   -7.848308   -1.619317
   Nb   Mo   Ta   Ti   V 
   6   6   6   5   6
Direct configuration=     4
   0.96405885  0.94125486  0.39069820
   0.62836650  0.26830531  0.40273551
   0.50289034  0.00249579 -0.00420884
  -0.00294122  0.00488278  0.00723537
   0.09455016  0.20903346  0.79718484
   0.03415534  0.07105394  0.59651446
   0.90127282  0.79252074  0.20309458
   0.80733336  0.59259125  0.39876085
   0.73667084  0.45861192  0.19796005
   0.65577122  0.34433485 -0.00254961
   0.37004874  0.72809214  0.60096955
   0.13343018  0.27156053  0.39577732
   0.83603245  0.65996164  0.00373060
   0.92833464  0.86926564  0.79780808
   0.56398433  0.13833406  0.19679832
   0.39542600  0.80270821  0.19635223
   0.43909132  0.85767107  0.79696428
   0.30036291  0.60072873  0.40235513
   0.86119544  0.72877122  0.60061963
   0.47242810  0.92821453  0.40878206
   0.16814746  0.33206882  0.00607453
   0.27172515  0.53396635  0.79755529
   0.20084353  0.39474418  0.60141410
   0.76922010  0.52530658  0.80239801
   0.69566774  0.40571350  0.60197844
   0.59881010  0.20254113  0.79883506
   0.53773232  0.06997296  0.60245111
   0.33719640  0.65769499  0.00140147
   0.23152822  0.47426548  0.20030938
Nb - Mo - Ta - Ti - V SQS               
           1
    -3.094164   -3.140812   -3.125546
     1.634802    1.570115   -7.901221
     7.855724   -7.884496   -1.650644
   Nb   Mo   Ta   Ti   V 
   6   6   6   5   6
Direct configuration=     5
   0.96337022  0.94472480  0.38658878
   0.62621684  0.26898291  0.40373525
   0.50414435  0.00340216 -0.00608020
  -0.00399721  0.00715285  0.01022273
   0.09249992  0.21252488  0.79618855
   0.03457414  0.07290803  0.59497856
   0.90156054  0.78948820  0.20417129
   0.81022785  0.58980099  0.39843726
   0.73825961  0.45484612  0.19719093
   0.65118575  0.34897619 -0.00376502
   0.37141594  0.72573756  0.60141167
   0.13348899  0.27329969  0.39379854
   0.83737047  0.65744329  0.00510707
   0.92645329  0.87026444  0.79705126
   0.56231743  0.14041096  0.19568455
   0.39328152  0.80422710  0.19506052
   0.44076842  0.85420142  0.79585376
   0.30065145  0.60111078  0.40336949
   0.85900157  0.72682668  0.60076873
   0.47498131  0.92602230  0.41233967
   0.16854631  0.33137089  0.00881309
   0.27392258  0.53404043  0.79650644
   0.20111414  0.39264710  0.60208556
   0.77036009  0.52179925  0.80341231
   0.69376365  0.40812793  0.60303456
   0.59816912  0.20391145  0.79816005
   0.53981881  0.07126662  0.60359862
   0.33886994  0.65369767  0.00197085
   0.23099627  0.47745395  0.20030513
Nb - Mo - Ta - Ti - V SQS               
           1
    -3.098456   -3.147690   -3.127759
     1.643594    1.564540   -7.904219
     7.862802   -7.885553   -1.664320
   Nb   Mo   Ta   Ti   V 
   6   6   6   5   6
Direct configuration=     6
   0.96473952  0.94477858  0.38585193
   0.62564858  0.26930167  0.40339887
   0.50506224  0.00277990 -0.00645592
  -0.00414478  0.00775379  0.01020785
   0.09318833  0.21136295  0.79690791
   0.03505436  0.07286392  0.59464130
   0.90052351  0.78972342  0.20353247
   0.80986184  0.59051757  0.39872973
   0.73780518  0.45463880  0.19754541
   0.65103222  0.34870983 -0.00406942
   0.37098647  0.72544308  0.60151646
   0.13354791  0.27293825  0.39336181
   0.83747135  0.65838358  0.00482107
   0.92669715  0.87039025  0.79748200
   0.56090394  0.14027188  0.19603813
   0.39374322  0.80429507  0.19565716
   0.43917965  0.85479127  0.79618828
   0.30086269  0.60164321  0.40330243
   0.85932420  0.72687693  0.60039560
   0.47555405  0.92560552  0.41225662
   0.16785900  0.33102396  0.00933823
   0.27390564  0.53363861  0.79652941
   0.20111555  0.39271920  0.60193014
   0.77033944  0.52166872  0.80356871
   0.69331358  0.40830399  0.60352624
   0.59791427  0.20465687  0.79754429
   0.54075371  0.07090368  0.60408778
   0.33909477  0.65324303  0.00196261
   0.23199575  0.47743912  0.20020290
Nb - Mo - Ta - Ti - V SQS               
           1
    -3.109725   -3.165750   -3.133571
     1.666680    1.549901   -7.912088
     7.881388   -7.888330   -1.700232
   Nb   Mo   Ta   Ti   V 
   6   6   6   5   6
Direct configuration=     7
   0.96832912  0.94492436  0.38391738
   0.62415903  0.27013929  0.40251556
   0.50746790  0.00114906 -0.00744088
  -0.00453108  0.00933112  0.01016744
   0.09499220  0.20831053  0.79879832
   0.03631315  0.07275011  0.59375606
   0.89780486  0.79034261  0.20185577
   0.80890305  0.59239688  0.39949576
   0.73661375  0.45409257  0.19847639
   0.65062939  0.34801185 -0.00486761
   0.36986032  0.72466921  0.60179237
   0.13370193  0.27199147  0.39221648
   0.83773662  0.66085313  0.00406821
   0.92733668  0.87071885  0.79861203
   0.55719829  0.13990382  0.19696701
   0.39495384  0.80447136  0.19722265
   0.43501514  0.85633653  0.79706549
   0.30141694  0.60304131  0.40312507
   0.86016997  0.72701078  0.59941609
   0.47705512  0.92451246  0.41203943
   0.16605698  0.33011029  0.01071753
   0.27386088  0.53258375  0.79659067
   0.20111927  0.39290913  0.60152210
   0.77028522  0.52132537  0.80397949
   0.69213396  0.40876352  0.60481639
   0.59724668  0.20661599  0.79592657
   0.54320443  0.06994979  0.60537202
   0.33968375  0.65204988  0.00194199
   0.23461595  0.47740166  0.19993423
Nb - Mo - Ta - Ti - V SQS               
           1
    -3.104062   -3.163972   -3.125013
     1.672676    1.540165   -7.890485
     7.863578   -7.865662   -1.710580
   Nb   Mo   Ta   Ti   V 
   6   6   6   5   6
Direct configuration=     8
   0.96972989  0.94521198  0.38276793
   0.62357782  0.27040166  0.40241668
   0.50816005  0.00085953 -0.00772518
  -0.00460399  0.00981309  0.01029396
   0.09557677  0.20718502  0.79952105
   0.03701356  0.07258295  0.59341076
   0.89720709  0.79075415  0.20134726
   0.80877794  0.59309387  0.39970095
   0.73607647  0.45414449  0.19874354
   0.65027519  0.34787384 -0.00509300
   0.36936294  0.72453556  0.60210187
   0.13361448  0.27191727  0.39165257
   0.83803385  0.66109122  0.00394438
   0.92702412  0.87111190  0.79872032
   0.55529472  0.13962693  0.19716713
   0.39518456  0.80446211  0.19762254
   0.43415198  0.85658619  0.79735795
   0.30146688  0.60344358  0.40293403
   0.86042647  0.72725396  0.59906742
   0.47812641  0.92396145  0.41205825
   0.16507569  0.32972160  0.01147920
   0.27377867  0.53207504  0.79660771
   0.20128053  0.39279912  0.60136416
   0.77013856  0.52112212  0.80430495
   0.69160636  0.40899292  0.60539724
   0.59706701  0.20740178  0.79510072
   0.54425340  0.06965340  0.60589481
   0.34006567  0.65161538  0.00193258
   0.23559026  0.47737456  0.19990823
Nb - Mo - Ta - Ti - V SQS               
           1
    -3.100733   -3.162926   -3.119981
     1.676201    1.534441   -7.877784
     7.853107   -7.852335   -1.716664
   Nb   Mo   Ta   Ti   V 
   6   6   6   5   6
Direct configuration=     9
   0.97055489  0.94538320  0.38209001
   0.62323573  0.27055625  0.40235832
   0.50856748  0.00068938 -0.00789269
  -0.00464671  0.01009705  0.01036825
   0.09592038  0.20652097  0.79994765
   0.03742591  0.07248501  0.59320723
   0.89685536  0.79099709  0.20104737
   0.80870457  0.59350447  0.39982149
   0.73576012  0.45417464  0.19890105
   0.65006659  0.34779261 -0.00522572
   0.36907001  0.72445629  0.60228445
   0.13356301  0.27187410  0.39132023
   0.83820898  0.66123180  0.00387120
   0.92684025  0.87134338  0.79878396
   0.55417377  0.13946287  0.19728554
   0.39532036  0.80445631  0.19785823
   0.43364384  0.85673277  0.79753032
   0.30149647  0.60368094  0.40282118
   0.86057764  0.72739777  0.59886171
   0.47875692  0.92363696  0.41206952
   0.16449767  0.32949134  0.01192854
   0.27373004  0.53177511  0.79661808
   0.20137544  0.39273450  0.60127110
   0.77005208  0.52100192  0.80449694
   0.69129576  0.40912735  0.60573957
   0.59696165  0.20786582  0.79461348
   0.54487084  0.06947847  0.60620299
   0.34029034  0.65135938  0.00192724
   0.23616392  0.47735893  0.19989278
Nb - Mo - Ta - Ti - V SQS               
           1
    -3.101270   -3.166935   -3.118313
     1.682792    1.532721   -7.876119
     7.851755   -7.850901   -1.724595
   Nb   Mo   Ta   Ti   V 
   6   6   6   5   6
Direct configuration=    10
   0.97127007  0.94601757  0.38101320
   0.62301103  0.27055108  0.40262397
   0.50845576  0.00102467 -0.00792098
  -0.00448904  0.01019835  0.01064937
   0.09599361  0.20620881  0.80020057
   0.03799619  0.07231045  0.59302000
   0.89711762  0.79136793  0.20097628
   0.80885552  0.59379690  0.39986101
   0.73564296  0.45432298  0.19896877
   0.64960631  0.34787102 -0.00521389
   0.36881121  0.72458848  0.60263863
   0.13334638  0.27214344  0.39088155
   0.83856274  0.66049795  0.00398085
   0.92617153  0.87173422  0.79833350
   0.55258838  0.13921455  0.19721944
   0.39522579  0.80442882  0.19772416
   0.43412647  0.85643910  0.79764935
   0.30137060  0.60358898  0.40267720
   0.86071257  0.72766250  0.59876635
   0.47985284  0.92324286  0.41222804
   0.16361937  0.32919317  0.01261847
   0.27350469  0.53138479  0.79661721
   0.20155385  0.39249107  0.60126857
   0.76987080  0.52084821  0.80479950
   0.69101924  0.40924365  0.60611899
   0.59698226  0.20827376  0.79399933
   0.54546347  0.06944855  0.60643098
   0.34060132  0.65123489  0.00192351
   0.23648981  0.47733791  0.19994605
Nb - Mo - Ta - Ti - V SQS               
           1
    -3.102880   -3.178961   -3.113310
     1.702566    1.527559   -7.871125
     7.847699   -7.846598   -1.748388
   Nb   Mo   Ta   Ti   V 
   6   6   6   5   6
Direct configuration=    11
   0.97341749  0.94792450  0.37778068
   0.62233689  0.27053458  0.40342125
   0.50812159  0.00203048 -0.00800630
  -0.00401640  0.01050176  0.01149261
   0.09621212  0.20527175  0.80095990
   0.03970601  0.07178802  0.59245813
   0.89790497  0.79248102  0.20076224
   0.80930881  0.59467432  0.39997900
   0.73529192  0.45476765  0.19917178
   0.64822631  0.34810561 -0.00517821
   0.36803507  0.72498376  0.60370131
   0.13269802  0.27295232  0.38956498
   0.83962161  0.65829658  0.00431082
   0.92416786  0.87290704  0.79698172
   0.54783406  0.13846759  0.19702259
   0.39494231  0.80434657  0.19732201
   0.43557279  0.85555841  0.79800666
   0.30099313  0.60331331  0.40224542
   0.86111789  0.72845715  0.59847970
   0.48313782  0.92206161  0.41270357
   0.16098413  0.32829565  0.01468972
   0.27282804  0.53021349  0.79661538
   0.20208826  0.39176100  0.60126125
   0.76932647  0.52038603  0.80570773
   0.69018983  0.40959119  0.60725747
   0.59704582  0.20949926  0.79215586
   0.54724010  0.06935899  0.60711473
   0.34153349  0.65086184  0.00191232
   0.23746690  0.47727518  0.20010572
Nb - Mo - Ta - Ti - V SQS               
           1
    -3.105499   -3.183354   -3.116391
     1.705068    1.531604   -7.881951
     7.852074   -7.855354   -1.750008
   Nb   Mo   Ta   Ti   V 
   6   6   6   5   6
Direct configuration=    12
   0.97385621  0.94861851  0.37740069
   0.62222551  0.27047630  0.40341144
   0.50825673  0.00205161 -0.00831249
  -0.00414782  0.01026061  0.01155346
   0.09578965  0.20568233  0.80072672
   0.03989008  0.07198851  0.59224628
   0.89793445  0.79227514  0.20079397
   0.80917203  0.59465906  0.39990274
   0.73537959  0.45460937  0.19939124
   0.64773339  0.34813835 -0.00491819
   0.36856659  0.72496614  0.60352775
   0.13273413  0.27334321  0.38961383
   0.83941254  0.65854950  0.00443020
   0.92479257  0.87271515  0.79671529
   0.54718842  0.13860789  0.19708288
   0.39563250  0.80400045  0.19690293
   0.43558405  0.85528780  0.79807226
   0.30115015  0.60327652  0.40244377
   0.86122935  0.72865182  0.59848855
   0.48351412  0.92187861  0.41283801
   0.16041975  0.32805201  0.01508191
   0.27249117  0.53021674  0.79672463
   0.20217333  0.39161031  0.60139133
   0.76900934  0.52038170  0.80583423
   0.69022877  0.40953326  0.60736034
   0.59715045  0.20925659  0.79207936
   0.54731333  0.06944442  0.60705600
   0.34169329  0.65083235  0.00198442
   0.23695967  0.47730242  0.20017642
Nb - Mo - Ta - Ti - V SQS               
           1
    -3.106251   -3.184615   -3.117276
     1.705786    1.532765   -7.885060
     7.853331   -7.857869   -1.750473
   Nb   Mo   Ta   Ti   V 
   6   6   6   5   6
Direct configuration=    13
   0.97398220  0.94881754  0.37729164
   0.62219354  0.27045959  0.40340863
   0.50829556  0.00205765 -0.00840036
  -0.00418555  0.01019145  0.01157092
   0.09566850  0.20580006  0.80065983
   0.03994295  0.07204600  0.59218548
   0.89794288  0.79221610  0.20080306
   0.80913279  0.59465467  0.39988086
   0.73540470  0.45456399  0.19945421
   0.64759193  0.34814774 -0.00484355
   0.36871912  0.72496109  0.60347792
   0.13274451  0.27345532  0.38962786
   0.83935255  0.65862204  0.00446448
   0.92497184  0.87266011  0.79663881
   0.54700318  0.13864812  0.19710021
   0.39583056  0.80390118  0.19678263
   0.43558725  0.85521019  0.79809108
   0.30119516  0.60326599  0.40250069
   0.86126134  0.72870765  0.59849110
   0.48362205  0.92182614  0.41287658
   0.16025774  0.32798215  0.01519448
   0.27239451  0.53021767  0.79675599
   0.20219770  0.39156710  0.60142866
   0.76891832  0.52038046  0.80587054
   0.69023992  0.40951666  0.60738986
   0.59718047  0.20918699  0.79205739
   0.54733436  0.06946892  0.60703914
   0.34173913  0.65082390  0.00200511
   0.23681413  0.47731023  0.20019673
Nb - Mo - Ta - Ti - V SQS               
           1
    -3.104658   -3.184189   -3.115948
     1.705882    1.534081   -7.884223
     7.847551   -7.855060   -1.749777
   Nb   Mo   Ta   Ti   V 
   6   6   6   5   6
Direct configuration=    14
   0.97443102  0.94936312  0.37694080
   0.62210629  0.27044750  0.40340669
   0.50840486  0.00208445 -0.00867040
  -0.00431224  0.00998311  0.01159292
   0.09528781  0.20611211  0.80049482
   0.04010886  0.07223005  0.59200114
   0.89800616  0.79203365  0.20084544
   0.80904676  0.59465522  0.39982742
   0.73540265  0.45445480  0.19963453
   0.64718143  0.34816461 -0.00459554
   0.36920330  0.72492774  0.60333386
   0.13276608  0.27381466  0.38971296
   0.83919524  0.65881642  0.00455529
   0.92544496  0.87248977  0.79645462
   0.54653625  0.13875983  0.19715668
   0.39641527  0.80354448  0.19643852
   0.43563634  0.85500345  0.79809476
   0.30127073  0.60331018  0.40264329
   0.86138468  0.72886506  0.59846917
   0.48394557  0.92167828  0.41294959
   0.15975704  0.32778313  0.01550440
   0.27212837  0.53024825  0.79686533
   0.20226174  0.39147480  0.60153620
   0.76859840  0.52038792  0.80599588
   0.69027439  0.40946440  0.60744742
   0.59725935  0.20894330  0.79201974
   0.54740419  0.06953488  0.60697853
   0.34184518  0.65077062  0.00206939
   0.23634266  0.47732087  0.20029654
Nb - Mo - Ta - Ti - V SQS               
           1
    -3.100238   -3.183007   -3.112265
     1.706149    1.537730   -7.881900
     7.831513   -7.847267   -1.747845
   Nb   Mo   Ta   Ti   V 
   6   6   6   5   6
Direct configuration=    15
   0.97567749  0.95087682  0.37596684
   0.62186410  0.27041393  0.40340131
   0.50870855  0.00215872 -0.00942007
  -0.00466403  0.00940504  0.01165400
   0.09423156  0.20697781  0.80003689
   0.04056970  0.07274069  0.59148940
   0.89818161  0.79152747  0.20096304
   0.80880803  0.59465672  0.39967908
   0.73539668  0.45415193  0.20013511
   0.64604181  0.34821146 -0.00390695
   0.37054731  0.72483523  0.60293380
   0.13282608  0.27481171  0.38994928
   0.83875864  0.65935576  0.00480745
   0.92675822  0.87201713  0.79594314
   0.54524028  0.13906972  0.19731357
   0.39803832  0.80255476  0.19548300
   0.43577247  0.85442984  0.79810494
   0.30148034  0.60343286  0.40303918
   0.86172714  0.72930184  0.59840832
   0.48484334  0.92126810  0.41315218
   0.15836684  0.32723095  0.01636482
   0.27138960  0.53033308  0.79716892
   0.20243930  0.39121877  0.60183473
   0.76771030  0.52040861  0.80634392
   0.69036997  0.40931943  0.60760718
   0.59747817  0.20826718  0.79191516
   0.54759812  0.06971787  0.60681025
   0.34213941  0.65062284  0.00224780
   0.23503397  0.47735037  0.20057371
Nb - Mo - Ta - Ti - V SQS               
           1
    -3.102377   -3.184079   -3.113090
     1.708141    1.536190   -7.882695
     7.836464   -7.847347   -1.750478
   Nb   Mo   Ta   Ti   V 
   6   6   6   5   6
Direct configuration=    16
   0.97602993  0.95081958  0.37574584
   0.62202259  0.27051212  0.40349545
   0.50843176  0.00229368 -0.00933556
  -0.00455084  0.00952082  0.01155427
   0.09429105  0.20672409  0.80023141
   0.04062693  0.07269292  0.59151777
   0.89835121  0.79167822  0.20090755
   0.80891241  0.59481076  0.39980174
   0.73528912  0.45413510  0.20012647
   0.64608106  0.34804841 -0.00386341
   0.37044683  0.72483748  0.60306381
   0.13267394  0.27483664  0.38997302
   0.83909243  0.65904904  0.00466103
   0.92646735  0.87204341  0.79602084
   0.54509335  0.13890223  0.19728205
   0.39780979  0.80258892  0.19563776
   0.43608424  0.85448299  0.79792989
   0.30130346  0.60361170  0.40290200
   0.86197075  0.72930826  0.59828609
   0.48508330  0.92137346  0.41294843
   0.15802664  0.32716401  0.01641700
   0.27137550  0.53026238  0.79729054
   0.20238119  0.39140189  0.60185474
   0.76760532  0.52046122  0.80642759
   0.69041516  0.40927541  0.60755921
   0.59737421  0.20826658  0.79190570
   0.54770288  0.06972069  0.60674587
   0.34197032  0.65058661  0.00220190
   0.23497146  0.47725807  0.20071098
Nb - Mo - Ta - Ti - V SQS               
           1
    -3.105856   -3.185822   -3.114431
     1.711379    1.533686   -7.883988
     7.844513   -7.847477   -1.754758
   Nb   Mo   Ta   Ti   V 
   6   6   6   5   6
Direct configuration=    17
   0.97660235  0.95072676  0.37538679
   0.62228019  0.27067166  0.40364840
   0.50798213  0.00251295 -0.00919832
  -0.00436703  0.00970908  0.01139220
   0.09438785  0.20631155  0.80054759
   0.04071992  0.07261527  0.59156391
   0.89862673  0.79192329  0.20081734
   0.80908211  0.59506105  0.40000101
   0.73511436  0.45410774  0.20011244
   0.64614485  0.34778337 -0.00379259
   0.37028371  0.72484101  0.60327505
   0.13242680  0.27487712  0.39001159
   0.83963460  0.65855065  0.00442325
   0.92599484  0.87208603  0.79614705
   0.54485460  0.13863000  0.19723087
   0.39743861  0.80264429  0.19588920
   0.43659062  0.85456955  0.79764547
   0.30101596  0.60390247  0.40267901
   0.86236643  0.72931880  0.59808751
   0.48547299  0.92154488  0.41261732
   0.15747395  0.32705514  0.01650177
   0.27135270  0.53014736  0.79748820
   0.20228682  0.39169950  0.60188719
   0.76743483  0.52054664  0.80656352
   0.69048852  0.40920389  0.60748129
   0.59720530  0.20826559  0.79189031
   0.54787303  0.06972534  0.60664126
   0.34169556  0.65052772  0.00212730
   0.23487002  0.47710795  0.20093406
Nb - Mo - Ta - Ti - V SQS               
           1
    -3.105379   -3.185024   -3.112732
     1.712468    1.529958   -7.877616
     7.842045   -7.840790   -1.757368
   Nb   Mo   Ta   Ti   V 
   6   6   6   5   6
Direct configuration=    18
   0.97710707  0.95080113  0.37504222
   0.62228219  0.27080297  0.40372803
   0.50788652  0.00249994 -0.00919754
  -0.00437269  0.00973578  0.01128561
   0.09437904  0.20605276  0.80072411
   0.04089158  0.07254540  0.59157438
   0.89870268  0.79201244  0.20066036
   0.80912553  0.59525088  0.40010822
   0.73491228  0.45411830  0.20015070
   0.64601995  0.34760432 -0.00369975
   0.37027198  0.72482889  0.60335305
   0.13231654  0.27498999  0.39009380
   0.83977334  0.65832990  0.00434152
   0.92586587  0.87210555  0.79620883
   0.54469390  0.13852019  0.19723585
   0.39740976  0.80263104  0.19594213
   0.43682369  0.85465628  0.79746527
   0.30102672  0.60405523  0.40262803
   0.86263744  0.72937698  0.59795740
   0.48579108  0.92167228  0.41241110
   0.15699672  0.32693587  0.01664404
   0.27128051  0.53007588  0.79765404
   0.20226631  0.39190532  0.60193214
   0.76730892  0.52055761  0.80668149
   0.69050377  0.40920314  0.60747177
   0.59708943  0.20821498  0.79186600
   0.54800405  0.06977523  0.60654895
   0.34158901  0.65042923  0.00209010
   0.23475011  0.47697916  0.20109815
Nb - Mo - Ta - Ti - V SQS               
           1
    -3.105226   -3.184767   -3.112187
     1.712818    1.528762   -7.875570
     7.841253   -7.838644   -1.758206
   Nb   Mo   Ta   Ti   V 
   6   6   6   5   6
Direct configuration=    19
   0.97726907  0.95082511  0.37493155
   0.62228284  0.27084513  0.40375359
   0.50785583  0.00249576 -0.00919728
  -0.00437452  0.00974437  0.01125137
   0.09437624  0.20596959  0.80078082
   0.04094670  0.07252296  0.59157775
   0.89872704  0.79204111  0.20060993
   0.80913948  0.59531184  0.40014263
   0.73484741  0.45412168  0.20016299
   0.64597986  0.34754678 -0.00366992
   0.37026823  0.72482499  0.60337810
   0.13228116  0.27502623  0.39012019
   0.83981786  0.65825901  0.00431529
   0.92582447  0.87211180  0.79622867
   0.54464231  0.13848490  0.19723746
   0.39740050  0.80262677  0.19595912
   0.43689849  0.85468419  0.79740739
   0.30103017  0.60410431  0.40261165
   0.86272444  0.72939571  0.59791561
   0.48589318  0.92171326  0.41234486
   0.15684353  0.32689751  0.01668974
   0.27125736  0.53005288  0.79770731
   0.20225973  0.39197142  0.60194655
   0.76726852  0.52056110  0.80671938
   0.69050866  0.40920290  0.60746872
   0.59705223  0.20819872  0.79185820
   0.54804610  0.06979128  0.60651931
   0.34155480  0.65039759  0.00207816
   0.23471163  0.47693775  0.20115085
Nb - Mo - Ta - Ti - V SQS               
           1
    -3.105333   -3.185992   -3.112257
     1.713856    1.527413   -7.874744
     7.840752   -7.838690   -1.760516
   Nb   Mo   Ta   Ti   V 
   6   6   6   5   6
Direct configuration=    20
   0.97752645  0.95109975  0.37470548
   0.62215651  0.27086273  0.40376143
   0.50801538  0.00235086 -0.00932491
  -0.00448609  0.00963839  0.01121971
   0.09428252  0.20594871  0.80077849
   0.04111648  0.07248688  0.59153454
   0.89864224  0.79199276  0.20046987
   0.80906442  0.59542653  0.40015948
   0.73475727  0.45409676  0.20026389
   0.64573654  0.34746470 -0.00359629
   0.37041183  0.72484702  0.60329916
   0.13229557  0.27512210  0.39021807
   0.83962751  0.65827805  0.00436671
   0.92605364  0.87207259  0.79618853
   0.54454667  0.13849713  0.19730204
   0.39762029  0.80260674  0.19582318
   0.43681504  0.85472761  0.79736668
   0.30122558  0.60413555  0.40270730
   0.86280791  0.72951257  0.59788342
   0.48609831  0.92177814  0.41228915
   0.15655334  0.32674805  0.01686241
   0.27115007  0.53001276  0.79781812
   0.20228415  0.39205341  0.60202272
   0.76724010  0.52050860  0.80678831
   0.69050814  0.40925234  0.60753208
   0.59702410  0.20810702  0.79185032
   0.54811204  0.06986113  0.60642668
   0.34158282  0.65032347  0.00206935
   0.23456449  0.47685432  0.20121410
Nb - Mo - Ta - Ti - V SQS               
           1
    -3.105652   -3.189667   -3.112468
     1.716972    1.523366   -7.872264
     7.839248   -7.838827   -1.767447
   Nb   Mo   Ta   Ti   V 
   6   6   6   5   6
Direct configuration=    21
   0.97829860  0.95192398  0.37402706
   0.62177758  0.27091549  0.40378497
   0.50849401  0.00191623 -0.00970778
  -0.00482073  0.00932041  0.01112479
   0.09400143  0.20588601  0.80077153
   0.04162577  0.07237867  0.59140490
   0.89838794  0.79184775  0.20004969
   0.80883926  0.59577061  0.40021000
   0.73448684  0.45402193  0.20056662
   0.64500666  0.34721831 -0.00337529
   0.37084262  0.72491323  0.60306230
   0.13233875  0.27540970  0.39051165
   0.83905652  0.65833507  0.00452101
   0.92674107  0.87195504  0.79606806
   0.54425977  0.13853376  0.19749580
   0.39827964  0.80254679  0.19541528
   0.43656475  0.85485792  0.79724454
   0.30181166  0.60422927  0.40299420
   0.86305831  0.72986323  0.59778676
   0.48671363  0.92197289  0.41212195
   0.15568278  0.32629944  0.01738055
   0.27082820  0.52989228  0.79815061
   0.20235733  0.39229937  0.60225116
   0.76715481  0.52035102  0.80699513
   0.69050654  0.40940064  0.60772216
   0.59693973  0.20783188  0.79182672
   0.54830990  0.07007080  0.60614874
   0.34166685  0.65010108  0.00204295
   0.23412311  0.47660389  0.20140393
Nb - Mo - Ta - Ti - V SQS               
           1
    -3.106887   -3.191320   -3.114139
     1.717922    1.523560   -7.876146
     7.842234   -7.842117   -1.769056
   Nb   Mo   Ta   Ti   V 
   6   6   6   5   6
Direct configuration=    22
   0.97869002  0.95238018  0.37359414
   0.62182214  0.27094717  0.40390914
   0.50840095  0.00195354 -0.00990592
  -0.00481064  0.00910291  0.01102914
   0.09379699  0.20595488  0.80073102
   0.04183561  0.07240686  0.59127588
   0.89863289  0.79173239  0.20014957
   0.80900391  0.59583959  0.40019902
   0.73441181  0.45391142  0.20074906
   0.64466977  0.34714271 -0.00328071
   0.37103828  0.72501092  0.60305037
   0.13219023  0.27563040  0.39062399
   0.83904688  0.65816586  0.00452652
   0.92690240  0.87180729  0.79597670
   0.54417215  0.13851875  0.19746250
   0.39828715  0.80243717  0.19527321
   0.43670945  0.85474470  0.79714370
   0.30174998  0.60445447  0.40295762
   0.86316016  0.73004084  0.59774335
   0.48701963  0.92204705  0.41206091
   0.15529357  0.32597363  0.01769665
   0.27073155  0.52981685  0.79828830
   0.20231466  0.39240659  0.60244805
   0.76705299  0.52026833  0.80709744
   0.69051532  0.40949635  0.60780797
   0.59695031  0.20771417  0.79182591
   0.54834821  0.07020068  0.60605176
   0.34153817  0.65000756  0.00202611
   0.23385877  0.47655341  0.20148858
Nb - Mo - Ta - Ti - V SQS               
           1
    -3.107312   -3.191890   -3.114714
     1.718250    1.523627   -7.877484
     7.843264   -7.843251   -1.769611
   Nb   Mo   Ta   Ti   V 
   6   6   6   5   6
Direct configuration=    23
   0.97882490  0.95253739  0.37344493
   0.62183749  0.27095809  0.40395193
   0.50836889  0.00196640 -0.00997420
  -0.00480715  0.00902796  0.01099618