  29  29   0   0
  0.1632129E+02  0.5473281E-09  0.8209921E-09  0.1128346E-08  0.5000000E-15
  1.000000000000000E-004
  CAR 
 Nb - Mo - Ta - Ti - V SQS               
     11.65405619    -50.53691750  301      6.63889295      1.00000000
    -50.537  0.0000E+00  0.0000E+00
    -50.330  0.0000E+00  0.0000E+00
    -50.122  0.0000E+00  0.0000E+00
    -49.915  0.0000E+00  0.0000E+00
    -49.708  0.0000E+00  0.0000E+00
    -49.500 -0.7468E-35 -0.1548E-35
    -49.293 -0.2595E-27 -0.5379E-28
    -49.086 -0.1033E-20 -0.2142E-21
    -48.878 -0.4586E-15 -0.9508E-16
    -48.671 -0.2310E-10 -0.4789E-11
    -48.464 -0.1292E-06 -0.2678E-07
    -48.257 -0.7648E-04 -0.1588E-04
    -48.049 -0.4145E-02 -0.8752E-03
    -47.842  0.4038E-02 -0.3815E-04
    -47.635  0.2069E+00  0.4286E-01
    -47.427  0.4437E+00  0.1348E+00
    -47.220  0.3762E+00  0.2128E+00
    -47.013  0.1352E+00  0.2409E+00
    -46.805 -0.1582E-02  0.2405E+00
    -46.598 -0.2526E-02  0.2400E+00
    -46.391 -0.3469E-04  0.2400E+00
    -46.184 -0.4367E-07  0.2400E+00
    -45.976 -0.5818E-11  0.2400E+00
    -45.769 -0.9181E-16  0.2400E+00
    -45.562  0.0000E+00  0.2400E+00
    -45.354  0.0000E+00  0.2400E+00
    -45.147  0.0000E+00  0.2400E+00
    -44.940  0.0000E+00  0.2400E+00
    -44.732  0.0000E+00  0.2400E+00
    -44.525  0.0000E+00  0.2400E+00
    -44.318  0.0000E+00  0.2400E+00
    -44.111  0.0000E+00  0.2400E+00
    -43.903  0.0000E+00  0.2400E+00
    -43.696  0.0000E+00  0.2400E+00
    -43.489  0.0000E+00  0.2400E+00
    -43.281  0.0000E+00  0.2400E+00
    -43.074  0.0000E+00  0.2400E+00
    -42.867  0.0000E+00  0.2400E+00
    -42.659  0.0000E+00  0.2400E+00
    -42.452  0.0000E+00  0.2400E+00
    -42.245  0.0000E+00  0.2400E+00
    -42.037  0.0000E+00  0.2400E+00
    -41.830  0.0000E+00  0.2400E+00
    -41.623  0.0000E+00  0.2400E+00
    -41.416  0.0000E+00  0.2400E+00
    -41.208  0.0000E+00  0.2400E+00
    -41.001  0.0000E+00  0.2400E+00
    -40.794  0.0000E+00  0.2400E+00
    -40.586  0.0000E+00  0.2400E+00
    -40.379  0.0000E+00  0.2400E+00
    -40.172  0.0000E+00  0.2400E+00
    -39.964  0.0000E+00  0.2400E+00
    -39.757  0.0000E+00  0.2400E+00
    -39.550  0.0000E+00  0.2400E+00
    -39.343  0.0000E+00  0.2400E+00
    -39.135  0.0000E+00  0.2400E+00
    -38.928  0.0000E+00  0.2400E+00
    -38.721  0.0000E+00  0.2400E+00
    -38.513  0.0000E+00  0.2400E+00
    -38.306  0.0000E+00  0.2400E+00
    -38.099  0.0000E+00  0.2400E+00
    -37.891  0.0000E+00  0.2400E+00
    -37.684  0.0000E+00  0.2400E+00
    -37.477  0.0000E+00  0.2400E+00
    -37.270  0.0000E+00  0.2400E+00
    -37.062  0.0000E+00  0.2400E+00
    -36.855  0.0000E+00  0.2400E+00
    -36.648  0.0000E+00  0.2400E+00
    -36.440  0.0000E+00  0.2400E+00
    -36.233  0.0000E+00  0.2400E+00
    -36.026  0.0000E+00  0.2400E+00
    -35.818  0.0000E+00  0.2400E+00
    -35.611  0.0000E+00  0.2400E+00
    -35.404  0.0000E+00  0.2400E+00
    -35.196  0.0000E+00  0.2400E+00
    -34.989  0.0000E+00  0.2400E+00
    -34.782  0.0000E+00  0.2400E+00
    -34.575  0.0000E+00  0.2400E+00
    -34.367  0.0000E+00  0.2400E+00
    -34.160  0.0000E+00  0.2400E+00
    -33.953  0.0000E+00  0.2400E+00
    -33.745  0.0000E+00  0.2400E+00
    -33.538  0.0000E+00  0.2400E+00
    -33.331  0.0000E+00  0.2400E+00
    -33.123  0.0000E+00  0.2400E+00
    -32.916  0.0000E+00  0.2400E+00
    -32.709  0.0000E+00  0.2400E+00
    -32.502  0.0000E+00  0.2400E+00
    -32.294  0.0000E+00  0.2400E+00
    -32.087  0.0000E+00  0.2400E+00
    -31.880  0.0000E+00  0.2400E+00
    -31.672  0.0000E+00  0.2400E+00
    -31.465  0.0000E+00  0.2400E+00
    -31.258  0.0000E+00  0.2400E+00
    -31.050  0.0000E+00  0.2400E+00
    -30.843  0.0000E+00  0.2400E+00
    -30.636  0.0000E+00  0.2400E+00
    -30.429  0.0000E+00  0.2400E+00
    -30.221  0.0000E+00  0.2400E+00
    -30.014  0.0000E+00  0.2400E+00
    -29.807  0.0000E+00  0.2400E+00
    -29.599  0.0000E+00  0.2400E+00
    -29.392  0.0000E+00  0.2400E+00
    -29.185  0.0000E+00  0.2400E+00
    -28.977  0.0000E+00  0.2400E+00
    -28.770  0.0000E+00  0.2400E+00
    -28.563  0.0000E+00  0.2400E+00
    -28.355  0.0000E+00  0.2400E+00
    -28.148  0.0000E+00  0.2400E+00
    -27.941  0.0000E+00  0.2400E+00
    -27.734  0.0000E+00  0.2400E+00
    -27.526  0.0000E+00  0.2400E+00
    -27.319  0.0000E+00  0.2400E+00
    -27.112  0.0000E+00  0.2400E+00
    -26.904  0.0000E+00  0.2400E+00
    -26.697  0.0000E+00  0.2400E+00
    -26.490  0.0000E+00  0.2400E+00
    -26.282  0.0000E+00  0.2400E+00
    -26.075  0.0000E+00  0.2400E+00
    -25.868 -0.5805E-29  0.2400E+00
    -25.661 -0.3012E-22  0.2400E+00
    -25.453 -0.1805E-16  0.2400E+00
    -25.246 -0.1201E-11  0.2400E+00
    -25.039 -0.9380E-08  0.2400E+00
    -24.831 -0.8166E-05  0.2400E+00
    -24.624 -0.7136E-03  0.2399E+00
    -24.417 -0.2626E-02  0.2393E+00
    -24.209  0.3172E-01  0.2459E+00
    -24.002  0.1991E+00  0.2872E+00
    -23.795  0.7068E+00  0.4337E+00
    -23.587  0.9551E+00  0.6317E+00
    -23.380  0.9207E+00  0.8225E+00
    -23.173  0.5052E+00  0.9273E+00
    -22.966  0.1170E+00  0.9515E+00
    -22.758  0.4186E-01  0.9602E+00
    -22.551  0.1941E-04  0.9602E+00
    -22.344 -0.9388E-03  0.9600E+00
    -22.136 -0.1467E-04  0.9600E+00
    -21.929 -0.2234E-07  0.9600E+00
    -21.722 -0.3776E-11  0.9600E+00
    -21.514 -0.7345E-16  0.9600E+00
    -21.307  0.0000E+00  0.9600E+00
    -21.100  0.0000E+00  0.9600E+00
    -20.893  0.0000E+00  0.9600E+00
    -20.685  0.0000E+00  0.9600E+00
    -20.478  0.0000E+00  0.9600E+00
    -20.271  0.0000E+00  0.9600E+00
    -20.063  0.0000E+00  0.9600E+00
    -19.856  0.0000E+00  0.9600E+00
    -19.649  0.0000E+00  0.9600E+00
    -19.441  0.0000E+00  0.9600E+00
    -19.234  0.0000E+00  0.9600E+00
    -19.027  0.0000E+00  0.9600E+00
    -18.820  0.0000E+00  0.9600E+00
    -18.612  0.0000E+00  0.9600E+00
    -18.405  0.0000E+00  0.9600E+00
    -18.198  0.0000E+00  0.9600E+00
    -17.990  0.0000E+00  0.9600E+00
    -17.783  0.0000E+00  0.9600E+00
    -17.576  0.0000E+00  0.9600E+00
    -17.368  0.0000E+00  0.9600E+00
    -17.161  0.0000E+00  0.9600E+00
    -16.954  0.0000E+00  0.9600E+00
    -16.746  0.0000E+00  0.9600E+00
    -16.539  0.0000E+00  0.9600E+00
    -16.332  0.0000E+00  0.9600E+00
    -16.125  0.0000E+00  0.9600E+00
    -15.917  0.0000E+00  0.9600E+00
    -15.710  0.0000E+00  0.9600E+00
    -15.503  0.0000E+00  0.9600E+00
    -15.295  0.0000E+00  0.9600E+00
    -15.088  0.0000E+00  0.9600E+00
    -14.881  0.0000E+00  0.9600E+00
    -14.673  0.0000E+00  0.9600E+00
    -14.466  0.0000E+00  0.9600E+00
    -14.259  0.0000E+00  0.9600E+00
    -14.052  0.0000E+00  0.9600E+00
    -13.844  0.0000E+00  0.9600E+00
    -13.637  0.0000E+00  0.9600E+00
    -13.430  0.0000E+00  0.9600E+00
    -13.222  0.0000E+00  0.9600E+00
    -13.015  0.0000E+00  0.9600E+00
    -12.808  0.0000E+00  0.9600E+00
    -12.600  0.0000E+00  0.9600E+00
    -12.393  0.0000E+00  0.9600E+00
    -12.186  0.0000E+00  0.9600E+00
    -11.979  0.0000E+00  0.9600E+00
    -11.771  0.0000E+00  0.9600E+00
    -11.564  0.0000E+00  0.9600E+00
    -11.357  0.0000E+00  0.9600E+00
    -11.149  0.0000E+00  0.9600E+00
    -10.942  0.0000E+00  0.9600E+00
    -10.735  0.0000E+00  0.9600E+00
    -10.527  0.0000E+00  0.9600E+00
    -10.320  0.0000E+00  0.9600E+00
    -10.113  0.0000E+00  0.9600E+00
     -9.905  0.0000E+00  0.9600E+00
     -9.698  0.0000E+00  0.9600E+00
     -9.491  0.0000E+00  0.9600E+00
     -9.284  0.0000E+00  0.9600E+00
     -9.076  0.0000E+00  0.9600E+00
     -8.869  0.0000E+00  0.9600E+00
     -8.662  0.0000E+00  0.9600E+00
     -8.454  0.0000E+00  0.9600E+00
     -8.247  0.0000E+00  0.9600E+00
     -8.040  0.0000E+00  0.9600E+00
     -7.832  0.0000E+00  0.9600E+00
     -7.625  0.0000E+00  0.9600E+00
     -7.418  0.0000E+00  0.9600E+00
     -7.211  0.0000E+00  0.9600E+00
     -7.003  0.0000E+00  0.9600E+00
     -6.796  0.0000E+00  0.9600E+00
     -6.589  0.0000E+00  0.9600E+00
     -6.381  0.0000E+00  0.9600E+00
     -6.174  0.0000E+00  0.9600E+00
     -5.967  0.0000E+00  0.9600E+00
     -5.759  0.0000E+00  0.9600E+00
     -5.552  0.0000E+00  0.9600E+00
     -5.345  0.0000E+00  0.9600E+00
     -5.138  0.0000E+00  0.9600E+00
     -4.930  0.0000E+00  0.9600E+00
     -4.723  0.0000E+00  0.9600E+00
     -4.516  0.0000E+00  0.9600E+00
     -4.308  0.0000E+00  0.9600E+00
     -4.101  0.0000E+00  0.9600E+00
     -3.894  0.0000E+00  0.9600E+00
     -3.686  0.0000E+00  0.9600E+00
     -3.479  0.0000E+00  0.9600E+00
     -3.272  0.0000E+00  0.9600E+00
     -3.064  0.0000E+00  0.9600E+00
     -2.857  0.0000E+00  0.9600E+00
     -2.650  0.0000E+00  0.9600E+00
     -2.443  0.0000E+00  0.9600E+00
     -2.235  0.0000E+00  0.9600E+00
     -2.028  0.0000E+00  0.9600E+00
     -1.821 -0.5239E-32  0.9600E+00
     -1.613 -0.4267E-25  0.9600E+00
     -1.406 -0.4063E-19  0.9600E+00
     -1.199 -0.4376E-14  0.9600E+00
     -0.991 -0.5670E-10  0.9600E+00
     -0.784 -0.8641E-07  0.9600E+00
     -0.577 -0.1536E-04  0.9600E+00
     -0.370 -0.2751E-03  0.9599E+00
     -0.162  0.1141E-02  0.9602E+00
      0.045  0.1278E-01  0.9628E+00
      0.252  0.2381E-01  0.9678E+00
      0.460  0.3164E-01  0.9743E+00
      0.667  0.4272E-01  0.9832E+00
      0.874  0.3861E-01  0.9912E+00
      1.082  0.5253E-01  0.1002E+01
      1.289  0.6260E-01  0.1015E+01
      1.496  0.6504E-01  0.1029E+01
      1.704  0.7109E-01  0.1043E+01
      1.911  0.8427E-01  0.1061E+01
      2.118  0.1003E+00  0.1082E+01
      2.325  0.1189E+00  0.1106E+01
      2.533  0.1616E+00  0.1140E+01
      2.740  0.2754E+00  0.1197E+01
      2.947  0.3966E+00  0.1279E+01
      3.155  0.5033E+00  0.1383E+01
      3.362  0.5722E+00  0.1502E+01
      3.569  0.5948E+00  0.1625E+01
      3.777  0.6364E+00  0.1757E+01
      3.984  0.6113E+00  0.1884E+01
      4.191  0.6005E+00  0.2008E+01
      4.398  0.5946E+00  0.2132E+01
      4.606  0.5155E+00  0.2239E+01
      4.813  0.5593E+00  0.2354E+01
      5.020  0.7202E+00  0.2504E+01
      5.228  0.8087E+00  0.2671E+01
      5.435  0.8571E+00  0.2849E+01
      5.642  0.8332E+00  0.3022E+01
      5.850  0.8162E+00  0.3191E+01
      6.057  0.8567E+00  0.3369E+01
      6.264  0.8432E+00  0.3543E+01
      6.471  0.8104E+00  0.3711E+01
      6.679  0.7629E+00  0.3870E+01
      6.886  0.6848E+00  0.4012E+01
      7.093  0.5928E+00  0.4134E+01
      7.301  0.4723E+00  0.4232E+01
      7.508  0.3822E+00  0.4312E+01
      7.715  0.3874E+00  0.4392E+01
      7.923  0.4187E+00  0.4479E+01
      8.130  0.4976E+00  0.4582E+01
      8.337  0.5231E+00  0.4690E+01
      8.545  0.3596E+00  0.4765E+01
      8.752  0.1599E+00  0.4798E+01
      8.959  0.1335E-01  0.4801E+01
      9.166 -0.3381E-02  0.4800E+01
      9.374 -0.2011E-03  0.4800E+01
      9.581 -0.1511E-05  0.4800E+01
      9.788 -0.1574E-08  0.4800E+01
      9.996 -0.2137E-12  0.4800E+01
     10.203 -0.3498E-17  0.4800E+01
     10.410  0.0000E+00  0.4800E+01
     10.618  0.0000E+00  0.4800E+01
     10.825  0.0000E+00  0.4800E+01
     11.032  0.0000E+00  0.4800E+01
     11.239  0.0000E+00  0.4800E+01
     11.447  0.0000E+00  0.4800E+01
     11.654  0.0000E+00  0.4800E+01
