   29   29   50    1
  0.1632129E+02  0.5473281E-09  0.8209921E-09  0.1128346E-08  0.5000000E-15
  1.000000000000000E-004
  CAR 
 Nb - Mo - Ta - Ti - V SQS               
    192    172    120
 
  0.0000000E+00  0.0000000E+00  0.0000000E+00  0.2915452E-02
    1      -47.710055   1.000000
    2      -47.603059   1.000000
    3      -47.464157   1.000000
    4      -47.440124   1.000000
    5      -47.342643   1.000000
    6      -47.165897   1.000000
    7      -24.260774   1.000000
    8      -23.995860   1.000000
    9      -23.918438   1.000000
   10      -23.843030   1.000000
   11      -23.831995   1.000000
   12      -23.780264   1.000000
   13      -23.716450   1.000000
   14      -23.705355   1.000000
   15      -23.615982   1.000000
   16      -23.586956   1.000000
   17      -23.543972   1.000000
   18      -23.514274   1.000000
   19      -23.477014   1.000000
   20      -23.437105   1.000000
   21      -23.357448   1.000000
   22      -23.325211   1.000000
   23      -23.229692   1.000000
   24      -22.889364   1.000000
   25       -0.173750   1.000000
   26        1.169787   1.000000
   27        1.500835   1.000000
   28        2.296891   1.000000
   29        2.470441   1.000000
   30        2.554286   1.000000
   31        2.579164   1.000000
   32        2.759420   1.000000
   33        2.801157   1.000000
   34        2.853361   1.000000
   35        2.892927   1.000000
   36        2.986659   1.000000
   37        3.037680   1.000000
   38        3.048365   1.000000
   39        3.207592   1.000000
   40        3.238262   1.000000
   41        3.334119   1.000000
   42        3.475571   1.000000
   43        3.550806   1.000000
   44        3.645952   1.000000
   45        3.694906   1.000000
   46        3.721288   1.000000
   47        3.756574   1.000000
   48        3.866888   1.000000
   49        3.924742   1.000000
   50        4.069434   1.000000
   51        4.082455   1.000000
   52        4.107439   1.000000
   53        4.181345   1.000000
   54        4.215512   1.000000
   55        4.326828   1.000000
   56        4.413100   1.000000
   57        4.530772   1.000000
   58        4.541249   1.000000
   59        4.601446   1.000000
   60        4.798809   1.000000
   61        4.860766   1.000000
   62        4.928396   1.000000
   63        4.978268   1.000000
   64        5.015135   1.000000
   65        5.032629   1.000000
   66        5.094809   1.000000
   67        5.124782   1.000000
   68        5.165017   1.000000
   69        5.270051   1.000000
   70        5.289457   1.000000
   71        5.360055   1.000000
   72        5.396327   1.000000
   73        5.433490   1.000000
   74        5.523702   1.000000
   75        5.577580   1.000000
   76        5.621569   1.000000
   77        5.694920   1.000000
   78        5.746997   1.000000
   79        5.787938   1.000000
   80        5.808393   1.000000
   81        5.949910   1.000006
   82        5.993553   1.000025
   83        6.034300   1.000082
   84        6.043158   1.000105
   85        6.137945   1.001134
   86        6.165599   1.002059
   87        6.264019   1.011741
   88        6.303248   1.019506
   89        6.345465   1.029089
   90        6.411669   1.034096
   91        6.446989   1.020400
   92        6.600614   0.658728
   93        6.626280   0.553252
   94        6.691373   0.286189
   95        6.751877   0.096349
   96        6.796539   0.013025
   97        6.833150  -0.021885
   98        6.988610  -0.016483
   99        7.053527  -0.006266
  100        7.086456  -0.003444
  101        7.128446  -0.001458
  102        7.197744  -0.000282
  103        7.224614  -0.000138
  104        7.413009  -0.000000
  105        7.565222  -0.000000
  106        7.639856  -0.000000
  107        7.707015  -0.000000
  108        7.845058  -0.000000
  109        7.854990  -0.000000
  110        8.148772  -0.000000
  111        8.211491  -0.000000
  112        8.301269  -0.000000
  113        8.361303  -0.000000
  114        8.393475  -0.000000
  115        8.552457  -0.000000
  116        8.589977  -0.000000
  117        8.632439  -0.000000
  118        8.648318  -0.000000
  119        8.683081  -0.000000
  120        8.736070  -0.000000
 
  0.1428571E+00  0.0000000E+00 -0.1561251E-16  0.5830904E-02
    1      -47.709930   1.000000
    2      -47.599994   1.000000
    3      -47.463868   1.000000
    4      -47.439986   1.000000
    5      -47.342582   1.000000
    6      -47.169188   1.000000
    7      -24.205159   1.000000
    8      -23.994293   1.000000
    9      -23.916855   1.000000
   10      -23.840169   1.000000
   11      -23.832846   1.000000
   12      -23.780508   1.000000
   13      -23.714531   1.000000
   14      -23.706218   1.000000
   15      -23.619856   1.000000
   16      -23.588315   1.000000
   17      -23.545783   1.000000
   18      -23.518095   1.000000
   19      -23.478997   1.000000
   20      -23.438272   1.000000
   21      -23.359835   1.000000
   22      -23.328698   1.000000
   23      -23.229453   1.000000
   24      -22.953983   1.000000
   25       -0.011102   1.000000
   26        1.313495   1.000000
   27        1.631318   1.000000
   28        2.306606   1.000000
   29        2.577457   1.000000
   30        2.671051   1.000000
   31        2.686542   1.000000
   32        2.829754   1.000000
   33        2.893526   1.000000
   34        2.943673   1.000000
   35        2.981604   1.000000
   36        3.082379   1.000000
   37        3.128061   1.000000
   38        3.177392   1.000000
   39        3.299170   1.000000
   40        3.326564   1.000000
   41        3.369148   1.000000
   42        3.497525   1.000000
   43        3.545821   1.000000
   44        3.690346   1.000000
   45        3.720234   1.000000
   46        3.764060   1.000000
   47        3.841602   1.000000
   48        3.923330   1.000000
   49        4.005400   1.000000
   50        4.049660   1.000000
   51        4.156899   1.000000
   52        4.194406   1.000000
   53        4.220437   1.000000
   54        4.289185   1.000000
   55        4.327723   1.000000
   56        4.377208   1.000000
   57        4.541466   1.000000
   58        4.590214   1.000000
   59        4.724499   1.000000
   60        4.798944   1.000000
   61        4.882185   1.000000
   62        4.934837   1.000000
   63        4.985219   1.000000
   64        5.032292   1.000000
   65        5.099686   1.000000
   66        5.130653   1.000000
   67        5.161939   1.000000
   68        5.240713   1.000000
   69        5.300524   1.000000
   70        5.322158   1.000000
   71        5.393803   1.000000
   72        5.421536   1.000000
   73        5.479652   1.000000
   74        5.498289   1.000000
   75        5.556927   1.000000
   76        5.639429   1.000000
   77        5.669206   1.000000
   78        5.744726   1.000000
   79        5.790953   1.000000
   80        5.819066   1.000000
   81        5.897400   1.000001
   82        5.959082   1.000008
   83        5.986041   1.000020
   84        6.089776   1.000361
   85        6.110692   1.000603
   86        6.154433   1.001627
   87        6.258391   1.010814
   88        6.289159   1.016480
   89        6.306488   1.020230
   90        6.383205   1.035045
   91        6.417289   1.033010
   92        6.461319   1.009240
   93        6.520477   0.916428
   94        6.589656   0.701503
   95        6.670179   0.369397
   96        6.728188   0.160701
   97        6.813221  -0.006174
   98        6.886713  -0.035427
   99        6.986628  -0.016895
  100        7.002027  -0.013836
  101        7.078484  -0.004006
  102        7.101309  -0.002572
  103        7.206261  -0.000226
  104        7.303650  -0.000014
  105        7.368267  -0.000002
  106        7.398852  -0.000001
  107        7.553824  -0.000000
  108        7.662652  -0.000000
  109        7.758149  -0.000000
  110        7.950264  -0.000000
  111        8.092799  -0.000000
  112        8.118736  -0.000000
  113        8.147264  -0.000000
  114        8.211735  -0.000000
  115        8.299527  -0.000000
  116        8.335506  -0.000000
  117        8.465607  -0.000000
  118        8.485817  -0.000000
  119        8.542138  -0.000000
  120        8.588073  -0.000000
 
  0.2857143E+00  0.1387779E-16  0.3469447E-17  0.5830904E-02
    1      -47.709651   1.000000
    2      -47.592921   1.000000
    3      -47.463217   1.000000
    4      -47.439678   1.000000
    5      -47.342471   1.000000
    6      -47.176744   1.000000
    7      -24.056342   1.000000
    8      -23.989047   1.000000
    9      -23.912332   1.000000
   10      -23.837175   1.000000
   11      -23.828948   1.000000
   12      -23.781214   1.000000
   13      -23.715526   1.000000
   14      -23.702745   1.000000
   15      -23.628321   1.000000
   16      -23.591409   1.000000
   17      -23.550390   1.000000
   18      -23.526432   1.000000
   19      -23.483320   1.000000
   20      -23.441886   1.000000
   21      -23.365707   1.000000
   22      -23.336822   1.000000
   23      -23.231625   1.000000
   24      -23.123558   1.000000
   25        0.450360   1.000000
   26        1.692524   1.000000
   27        1.983774   1.000000
   28        2.407971   1.000000
   29        2.671537   1.000000
   30        2.790901   1.000000
   31        2.932059   1.000000
   32        2.974854   1.000000
   33        3.121067   1.000000
   34        3.174344   1.000000
   35        3.215932   1.000000
   36        3.270492   1.000000
   37        3.326268   1.000000
   38        3.390737   1.000000
   39        3.427389   1.000000
   40        3.464890   1.000000
   41        3.585095   1.000000
   42        3.634139   1.000000
   43        3.705315   1.000000
   44        3.744504   1.000000
   45        3.799790   1.000000
   46        3.884631   1.000000
   47        3.960834   1.000000
   48        4.024177   1.000000
   49        4.124725   1.000000
   50        4.173026   1.000000
   51        4.218609   1.000000
   52        4.299210   1.000000
   53        4.343304   1.000000
   54        4.402541   1.000000
   55        4.526157   1.000000
   56        4.592168   1.000000
   57        4.625360   1.000000
   58        4.724933   1.000000
   59        4.755879   1.000000
   60        4.850721   1.000000
   61        4.884440   1.000000
   62        4.963225   1.000000
   63        5.044273   1.000000
   64        5.082649   1.000000
   65        5.138226   1.000000
   66        5.195803   1.000000
   67        5.233192   1.000000
   68        5.254942   1.000000
   69        5.297664   1.000000
   70        5.360462   1.000000
   71        5.438581   1.000000
   72        5.478212   1.000000
   73        5.505807   1.000000
   74        5.557767   1.000000
   75        5.597282   1.000000
   76        5.624757   1.000000
   77        5.696363   1.000000
   78        5.716020   1.000000
   79        5.764431   1.000000
   80        5.801866   1.000000
   81        5.852099   1.000000
   82        5.897950   1.000001
   83        5.972651   1.000013
   84        6.006333   1.000037
   85        6.047075   1.000117
   86        6.120578   1.000762
   87        6.150780   1.001504
   88        6.211399   1.005001
   89        6.253153   1.009997
   90        6.319972   1.023315
   91        6.392161   1.035446
   92        6.418155   1.032811
   93        6.440040   1.024522
   94        6.518501   0.920893
   95        6.580456   0.735954
   96        6.597827   0.669768
   97        6.645653   0.471413
   98        6.727324   0.163307
   99        6.754655   0.089720
  100        6.802789   0.005135
  101        6.903638  -0.034143
  102        6.966111  -0.021406
  103        7.020416  -0.010651
  104        7.080185  -0.003880
  105        7.116509  -0.001881
  106        7.230776  -0.000117
  107        7.363892  -0.000002
  108        7.366271  -0.000002
  109        7.420641  -0.000000
  110        7.517723  -0.000000
  111        7.652489  -0.000000
  112        7.736006  -0.000000
  113        7.792202  -0.000000
  114        7.895198  -0.000000
  115        7.964958  -0.000000
  116        8.046382  -0.000000
  117        8.122851  -0.000000
  118        8.199868  -0.000000
  119        8.284833  -0.000000
  120        8.330994  -0.000000
 
  0.4285714E+00  0.5551115E-16 -0.4163336E-16  0.5830904E-02
    1      -47.709427   1.000000
    2      -47.587047   1.000000
    3      -47.462693   1.000000
    4      -47.439437   1.000000
    5      -47.342409   1.000000
    6      -47.182974   1.000000
    7      -23.992403   1.000000
    8      -23.919450   1.000000
    9      -23.876580   1.000000
   10      -23.838308   1.000000
   11      -23.795624   1.000000
   12      -23.781268   1.000000
   13      -23.719330   1.000000
   14      -23.695663   1.000000
   15      -23.634936   1.000000
   16      -23.594369   1.000000
   17      -23.556478   1.000000
   18      -23.533447   1.000000
   19      -23.487110   1.000000
   20      -23.447330   1.000000
   21      -23.377939   1.000000
   22      -23.358777   1.000000
   23      -23.315206   1.000000
   24      -23.219304   1.000000
   25        1.118912   1.000000
   26        1.879616   1.000000
   27        2.336457   1.000000
   28        2.469161   1.000000
   29        2.591462   1.000000
   30        2.890210   1.000000
   31        2.957943   1.000000
   32        3.069126   1.000000
   33        3.226595   1.000000
   34        3.285401   1.000000
   35        3.364696   1.000000
   36        3.422270   1.000000
   37        3.512640   1.000000
   38        3.579351   1.000000
   39        3.611269   1.000000
   40        3.687033   1.000000
   41        3.747456   1.000000
   42        3.815397   1.000000
   43        3.831496   1.000000
   44        3.907117   1.000000
   45        3.954653   1.000000
   46        4.048981   1.000000
   47        4.078177   1.000000
   48        4.102317   1.000000
   49        4.212987   1.000000
   50        4.278714   1.000000
   51        4.344855   1.000000
   52        4.418180   1.000000
   53        4.457745   1.000000
   54        4.593111   1.000000
   55        4.637540   1.000000
   56        4.703461   1.000000
   57        4.732541   1.000000
   58        4.808703   1.000000
   59        4.850691   1.000000
   60        4.879732   1.000000
   61        4.939317   1.000000
   62        4.965263   1.000000
   63        5.039120   1.000000
   64        5.048078   1.000000
   65        5.129277   1.000000
   66        5.170902   1.000000
   67        5.225611   1.000000
   68        5.276488   1.000000
   69        5.331285   1.000000
   70        5.384127   1.000000
   71        5.425513   1.000000
   72        5.446509   1.000000
   73        5.487420   1.000000
   74        5.527098   1.000000
   75        5.553516   1.000000
   76        5.638358   1.000000
   77        5.668364   1.000000
   78        5.731129   1.000000
   79        5.760052   1.000000
   80        5.770499   1.000000
   81        5.866390   1.000000
   82        5.888171   1.000001
   83        5.922861   1.000003
   84        5.998355   1.000029
   85        6.046830   1.000116
   86        6.096213   1.000424
   87        6.129517   1.000937
   88        6.164873   1.002028
   89        6.193684   1.003603
   90        6.238235   1.007910
   91        6.298351   1.018429
   92        6.339184   1.027716
   93        6.360370   1.032039
   94        6.402149   1.035184
   95        6.494321   0.967600
   96        6.567031   0.783405
   97        6.608230   0.628072
   98        6.638878   0.500062
   99        6.679426   0.332333
  100        6.747647   0.106816
  101        6.854594  -0.031473
  102        6.922190  -0.031154
  103        6.953290  -0.024363
  104        7.006076  -0.013089
  105        7.024085  -0.010080
  106        7.075072  -0.004269
  107        7.154288  -0.000815
  108        7.164370  -0.000643
  109        7.292641  -0.000019
  110        7.435164  -0.000000
  111        7.478567  -0.000000
  112        7.590766  -0.000000
  113        7.650808  -0.000000
  114        7.711951  -0.000000
  115        7.732869  -0.000000
  116        7.822829  -0.000000
  117        7.916630  -0.000000
  118        8.020068  -0.000000
  119        8.093603  -0.000000
  120        8.174775  -0.000000
 
 -0.6938894E-17  0.1428571E+00  0.1040834E-16  0.5830904E-02
    1      -47.710007   1.000000
    2      -47.603057   1.000000
    3      -47.464205   1.000000
    4      -47.440127   1.000000
    5      -47.342641   1.000000
    6      -47.165895   1.000000
    7      -24.260779   1.000000
    8      -23.994147   1.000000
    9      -23.917030   1.000000
   10      -23.843061   1.000000
   11      -23.832060   1.000000
   12      -23.780264   1.000000
   13      -23.716481   1.000000
   14      -23.705446   1.000000
   15      -23.615911   1.000000
   16      -23.586957   1.000000
   17      -23.544307   1.000000
   18      -23.515959   1.000000
   19      -23.478313   1.000000
   20      -23.437156   1.000000
   21      -23.357457   1.000000
   22      -23.325268   1.000000
   23      -23.229699   1.000000
   24      -22.889369   1.000000
   25       -0.104613   1.000000
   26        1.199867   1.000000
   27        1.564282   1.000000
   28        2.007723   1.000000
   29        2.434267   1.000000
   30        2.564248   1.000000
   31        2.657964   1.000000
   32        2.736560   1.000000
   33        2.819108   1.000000
   34        2.853197   1.000000
   35        2.927922   1.000000
   36        2.968205   1.000000
   37        3.015027   1.000000
   38        3.116059   1.000000
   39        3.207313   1.000000
   40        3.246865   1.000000
   41        3.319749   1.000000
   42        3.503032   1.000000
   43        3.530801   1.000000
   44        3.580402   1.000000
   45        3.650946   1.000000
   46        3.724789   1.000000
   47        3.810012   1.000000
   48        3.913396   1.000000
   49        3.948304   1.000000
   50        4.025926   1.000000
   51        4.102780   1.000000
   52        4.142990   1.000000
   53        4.221042   1.000000
   54        4.259949   1.000000
   55        4.324878   1.000000
   56        4.338309   1.000000
   57        4.468263   1.000000
   58        4.581043   1.000000
   59        4.705346   1.000000
   60        4.820898   1.000000
   61        4.855647   1.000000
   62        4.920991   1.000000
   63        4.980040   1.000000
   64        5.008765   1.000000
   65        5.061652   1.000000
   66        5.101921   1.000000
   67        5.187408   1.000000
   68        5.216469   1.000000
   69        5.283596   1.000000
   70        5.315005   1.000000
   71        5.376191   1.000000
   72        5.402106   1.000000
   73        5.422197   1.000000
   74        5.489645   1.000000
   75        5.590018   1.000000
   76        5.628790   1.000000
   77        5.699755   1.000000
   78        5.737190   1.000000
   79        5.801289   1.000000
   80        5.858031   1.000000
   81        5.907553   1.000001
   82        5.971043   1.000012
   83        6.027416   1.000068
   84        6.095787   1.000419
   85        6.102983   1.000500
   86        6.146389   1.001367
   87        6.254066   1.010136
   88        6.298226   1.018402
   89        6.332191   1.026136
   90        6.357004   1.031422
   91        6.400323   1.035294
   92        6.447025   1.020376
   93        6.536223   0.877341
   94        6.659062   0.415135
   95        6.714446   0.204195
   96        6.784528   0.030674
   97        6.852045  -0.030674
   98        6.955932  -0.023751
   99        7.047860  -0.006898
  100        7.094280  -0.002958
  101        7.199567  -0.000269
  102        7.295954  -0.000017
  103        7.385193  -0.000001
  104        7.493912  -0.000000
  105        7.543488  -0.000000
  106        7.571171  -0.000000
  107        7.656984  -0.000000
  108        7.747250  -0.000000
  109        7.895502  -0.000000
  110        8.059759  -0.000000
  111        8.162373  -0.000000
  112        8.219550  -0.000000
  113        8.261436  -0.000000
  114        8.315618  -0.000000
  115        8.420310  -0.000000
  116        8.468105  -0.000000
  117        8.544540  -0.000000
  118        8.606589  -0.000000
  119        8.644580  -0.000000
  120        8.697015  -0.000000
 
  0.1428571E+00  0.1428571E+00 -0.1387779E-16  0.5830904E-02
    1      -47.709974   1.000000
    2      -47.599995   1.000000
    3      -47.463825   1.000000
    4      -47.439983   1.000000
    5      -47.342584   1.000000
    6      -47.169190   1.000000
    7      -24.205151   1.000000
    8      -23.995890   1.000000
    9      -23.918174   1.000000
   10      -23.840136   1.000000
   11      -23.832875   1.000000
   12      -23.780487   1.000000
   13      -23.714498   1.000000
   14      -23.706120   1.000000
   15      -23.619820   1.000000
   16      -23.588312   1.000000
   17      -23.545582   1.000000
   18      -23.516569   1.000000
   19      -23.477727   1.000000
   20      -23.438228   1.000000
   21      -23.359825   1.000000
   22      -23.328641   1.000000
   23      -23.229451   1.000000
   24      -22.953979   1.000000
   25       -0.007257   1.000000
   26        1.295414   1.000000
   27        1.650722   1.000000
   28        2.305774   1.000000
   29        2.582701   1.000000
   30        2.637112   1.000000
   31        2.677528   1.000000
   32        2.746232   1.000000
   33        2.889112   1.000000
   34        2.925895   1.000000
   35        2.994187   1.000000
   36        3.046854   1.000000
   37        3.087054   1.000000
   38        3.176440   1.000000
   39        3.213745   1.000000
   40        3.327799   1.000000
   41        3.406239   1.000000
   42        3.500924   1.000000
   43        3.598986   1.000000
   44        3.659358   1.000000
   45        3.733088   1.000000
   46        3.785464   1.000000
   47        3.833507   1.000000
   48        3.937942   1.000000
   49        3.991309   1.000000
   50        4.047606   1.000000
   51        4.133529   1.000000
   52        4.192209   1.000000
   53        4.254469   1.000000
   54        4.299285   1.000000
   55        4.362119   1.000000
   56        4.397157   1.000000
   57        4.547594   1.000000
   58        4.613369   1.000000
   59        4.740259   1.000000
   60        4.840258   1.000000
   61        4.884960   1.000000
   62        4.943836   1.000000
   63        4.979288   1.000000
   64        5.024419   1.000000
   65        5.061284   1.000000
   66        5.126731   1.000000
   67        5.174998   1.000000
   68        5.203800   1.000000
   69        5.247333   1.000000
   70        5.297187   1.000000
   71        5.382461   1.000000
   72        5.432813   1.000000
   73        5.455380   1.000000
   74        5.507690   1.000000
   75        5.569616   1.000000
   76        5.615038   1.000000
   77        5.673114   1.000000
   78        5.717086   1.000000
   79        5.762992   1.000000
   80        5.829534   1.000000
   81        5.913172   1.000002
   82        5.933663   1.000004
   83        6.011744   1.000043
   84        6.053508   1.000140
   85        6.079689   1.000279
   86        6.151284   1.001520
   87        6.214805   1.005314
   88        6.298339   1.018427
   89        6.355137   1.031065
   90        6.379400   1.034721
   91        6.438429   1.025366
   92        6.514649   0.929309
   93        6.571007   0.769726
   94        6.651930   0.444963
   95        6.669774   0.371043
   96        6.769020   0.058556
   97        6.816364  -0.009146
   98        6.922103  -0.031171
   99        6.962995  -0.022120
  100        7.027357  -0.009589
  101        7.078667  -0.003993
  102        7.152271  -0.000854
  103        7.186245  -0.000377
  104        7.249571  -0.000069
  105        7.379801  -0.000001
  106        7.440932  -0.000000
  107        7.571949  -0.000000
  108        7.632825  -0.000000
  109        7.751076  -0.000000
  110        7.937867  -0.000000
  111        8.115125  -0.000000
  112        8.163575  -0.000000
  113        8.266905  -0.000000
  114        8.316943  -0.000000
  115        8.473288  -0.000000
  116        8.489131  -0.000000
  117        8.548479  -0.000000
  118        8.573271  -0.000000
  119        8.614008  -0.000000
  120        8.664131  -0.000000
 
  0.2857143E+00  0.1428571E+00  0.2775558E-16  0.5830904E-02
    1      -47.709752   1.000000
    2      -47.592923   1.000000
    3      -47.463118   1.000000
    4      -47.439672   1.000000
    5      -47.342475   1.000000
    6      -47.176747   1.000000
    7      -24.056355   1.000000
    8      -23.992696   1.000000
    9      -23.915516   1.000000
   10      -23.837167   1.000000
   11      -23.828875   1.000000
   12      -23.781179   1.000000
   13      -23.715304   1.000000
   14      -23.702638   1.000000
   15      -23.628304   1.000000
   16      -23.591402   1.000000
   17      -23.550059   1.000000
   18      -23.522539   1.000000
   19      -23.480428   1.000000
   20      -23.441830   1.000000
   21      -23.365676   1.000000
   22      -23.336704   1.000000
   23      -23.231614   1.000000
   24      -23.123546   1.000000
   25        0.394944   1.000000
   26        1.620554   1.000000
   27        1.956848   1.000000
   28        2.557859   1.000000
   29        2.627859   1.000000
   30        2.823656   1.000000
   31        2.883767   1.000000
   32        2.926378   1.000000
   33        3.065702   1.000000
   34        3.108328   1.000000
   35        3.176595   1.000000
   36        3.260076   1.000000
   37        3.300515   1.000000
   38        3.365860   1.000000
   39        3.436035   1.000000
   40        3.538193   1.000000
   41        3.549826   1.000000
   42        3.615260   1.000000
   43        3.722921   1.000000
   44        3.756761   1.000000
   45        3.856114   1.000000
   46        3.938993   1.000000
   47        4.000485   1.000000
   48        4.047080   1.000000
   49        4.085141   1.000000
   50        4.156185   1.000000
   51        4.203295   1.000000
   52        4.245816   1.000000
   53        4.296672   1.000000
   54        4.363998   1.000000
   55        4.491565   1.000000
   56        4.577514   1.000000
   57        4.684383   1.000000
   58        4.727749   1.000000
   59        4.820615   1.000000
   60        4.876001   1.000000
   61        4.920899   1.000000
   62        4.982404   1.000000
   63        5.038430   1.000000
   64        5.086041   1.000000
   65        5.122329   1.000000
   66        5.154558   1.000000
   67        5.205299   1.000000
   68        5.212220   1.000000
   69        5.264227   1.000000
   70        5.336672   1.000000
   71        5.374539   1.000000
   72        5.435799   1.000000
   73        5.476672   1.000000
   74        5.525492   1.000000
   75        5.589075   1.000000
   76        5.626867   1.000000
   77        5.643982   1.000000
   78        5.726599   1.000000
   79        5.783274   1.000000
   80        5.870291   1.000000
   81        5.930599   1.000003
   82        5.961347   1.000009
   83        5.977461   1.000015
   84        6.014336   1.000046
   85        6.048402   1.000122
   86        6.136767   1.001104
   87        6.187708   1.003212
   88        6.226029   1.006459
   89        6.265945   1.012070
   90        6.299972   1.018783
   91        6.378736   1.034656
   92        6.412008   1.034041
   93        6.441068   1.023962
   94        6.458043   1.012126
   95        6.545147   0.852443
   96        6.594733   0.681899
   97        6.625521   0.556441
   98        6.696005   0.268916
   99        6.788831   0.023967
  100        6.818393  -0.010962
  101        6.858009  -0.032414
  102        6.910621  -0.033171
  103        7.010731  -0.012262
  104        7.056604  -0.005943
  105        7.112218  -0.002058
  106        7.260744  -0.000050
  107        7.345625  -0.000003
  108        7.449543  -0.000000
  109        7.530258  -0.000000
  110        7.642779  -0.000000
  111        7.739177  -0.000000
  112        7.953577  -0.000000
  113        8.030064  -0.000000
  114        8.077769  -0.000000
  115        8.133703  -0.000000
  116        8.208446  -0.000000
  117        8.291724  -0.000000
  118        8.361887  -0.000000
  119        8.384328  -0.000000
  120        8.430182  -0.000000
 
  0.4285714E+00  0.1428571E+00 -0.2081668E-16  0.5830904E-02
    1      -47.709507   1.000000
    2      -47.587048   1.000000
    3      -47.462614   1.000000
    4      -47.439432   1.000000
    5      -47.342412   1.000000
    6      -47.182977   1.000000
    7      -23.994795   1.000000
    8      -23.922478   1.000000
    9      -23.876777   1.000000
   10      -23.838334   1.000000
   11      -23.795574   1.000000
   12      -23.781241   1.000000
   13      -23.719092   1.000000
   14      -23.695595   1.000000
   15      -23.634912   1.000000
   16      -23.594362   1.000000
   17      -23.556340   1.000000
   18      -23.529924   1.000000
   19      -23.484934   1.000000
   20      -23.447301   1.000000
   21      -23.377924   1.000000
   22      -23.358703   1.000000
   23      -23.315168   1.000000
   24      -23.219293   1.000000
   25        1.033429   1.000000
   26        1.905708   1.000000
   27        2.302833   1.000000
   28        2.384456   1.000000
   29        2.622040   1.000000
   30        2.723934   1.000000
   31        3.021704   1.000000
   32        3.167901   1.000000
   33        3.200081   1.000000
   34        3.311577   1.000000
   35        3.391367   1.000000
   36        3.426001   1.000000
   37        3.539626   1.000000
   38        3.567789   1.000000
   39        3.632273   1.000000
   40        3.673722   1.000000
   41        3.735545   1.000000
   42        3.823221   1.000000
   43        3.878182   1.000000
   44        3.907860   1.000000
   45        3.969007   1.000000
   46        4.023739   1.000000
   47        4.060265   1.000000