 running on   96 total cores
 distrk:  each k-point on   96 cores,    1 groups
 distr:  one band on    8 cores,   12 groups
 using from now: INCAR     
 vasp.5.4.4.18Apr17-6-g9f103f2a35 (build Aug 09 2018 16:20:53) complex          
  
 POSCAR found :  5 types and      29 ions
 scaLAPACK will be used

 ----------------------------------------------------------------------------- 
|                                                                             |
|  ADVICE TO THIS USER RUNNING 'VASP/VAMP'   (HEAR YOUR MASTER'S VOICE ...):  |
|                                                                             |
|      You enforced a specific xc-type in the INCAR file,                     |
|      a different type was found on the POTCAR file                          |
|          I HOPE YOU KNOW, WHAT YOU ARE  DOING                               |
|                                                                             |
 ----------------------------------------------------------------------------- 

 LDA part: xc-table for Pade appr. of Perdew
 POSCAR found :  5 types and      29 ions
 POSCAR, INCAR and KPOINTS ok, starting setup
 FFT: planning ...
 WAVECAR not read
 initial charge from wavefunction
 entering main loop
       N       E                     dE             d eps       ncg     rms          rms(c)
DAV:   1    -0.411053065456E+04   -0.41105E+04   -0.16449E+05 59448   0.199E+03
DAV:   2    -0.982020687832E+04   -0.57097E+04   -0.54385E+04 68856   0.123E+03
DAV:   3    -0.107589656418E+05   -0.93876E+03   -0.89154E+03 82560   0.555E+02
DAV:   4    -0.110262702870E+05   -0.26730E+03   -0.24914E+03 82560   0.256E+02
DAV:   5    -0.111785127262E+05   -0.15224E+03   -0.14017E+03 82560   0.181E+02    0.684E+03
DAV:   6    -0.102816493453E+04    0.10150E+05   -0.25128E+04 62820   0.647E+02    0.309E+03
DAV:   7    -0.539723757661E+03    0.48844E+03   -0.16926E+04 72036   0.615E+02    0.235E+03
DAV:   8    -0.556216253372E+03   -0.16492E+02   -0.68603E+03 74088   0.414E+02    0.207E+03
DAV:   9    -0.468778606234E+03    0.87438E+02   -0.11285E+03 70476   0.110E+02    0.195E+03
DAV:  10    -0.519020260763E+03   -0.50242E+02   -0.23052E+02 82200   0.475E+01    0.198E+03
DAV:  11    -0.700984188408E+03   -0.18196E+03   -0.63352E+02 74304   0.105E+02    0.183E+03
DAV:  12    -0.107492155827E+04   -0.37394E+03   -0.93068E+02 79848   0.124E+02    0.139E+03
DAV:  13    -0.111282149467E+04   -0.37900E+02   -0.22604E+03 72432   0.238E+02    0.650E+02
DAV:  14    -0.906995032057E+03    0.20583E+03   -0.87756E+02 62736   0.142E+02    0.534E+02
DAV:  15    -0.778923568466E+03    0.12807E+03   -0.93257E+02 65700   0.172E+02    0.303E+02
DAV:  16    -0.601665692828E+03    0.17726E+03   -0.45595E+02 70356   0.125E+02    0.228E+02
DAV:  17    -0.526155790311E+03    0.75510E+02   -0.17871E+02 71484   0.504E+01    0.213E+02
DAV:  18    -0.429049529409E+03    0.97106E+02   -0.15538E+02 74292   0.526E+01    0.193E+02
DAV:  19    -0.361474829886E+03    0.67575E+02   -0.50761E+02 78912   0.641E+01    0.197E+02
DAV:  20    -0.364825757702E+03   -0.33509E+01   -0.21634E+02 73056   0.413E+01    0.157E+02
DAV:  21    -0.398232956253E+03   -0.33407E+02   -0.23191E+02 75924   0.695E+01    0.172E+02
DAV:  22    -0.382288121841E+03    0.15945E+02   -0.97368E+01 76968   0.368E+01    0.140E+02
DAV:  23    -0.323276121206E+03    0.59012E+02   -0.19658E+02 70620   0.878E+01    0.872E+01
DAV:  24    -0.335524290822E+03   -0.12248E+02   -0.14073E+02 78336   0.657E+01    0.917E+01
DAV:  25    -0.329932793436E+03    0.55915E+01   -0.93996E+01 68100   0.463E+01    0.730E+01
DAV:  26    -0.315783885570E+03    0.14149E+02   -0.29404E+01 73488   0.340E+01    0.543E+01
DAV:  27    -0.306219035718E+03    0.95648E+01   -0.34552E+01 67824   0.369E+01    0.421E+01
DAV:  28    -0.305423005340E+03    0.79603E+00   -0.47130E+01 74664   0.279E+01    0.444E+01
DAV:  29    -0.304947572331E+03    0.47543E+00   -0.19138E+01 74100   0.160E+01    0.383E+01
DAV:  30    -0.304301247010E+03    0.64633E+00   -0.69781E+00 74640   0.106E+01    0.337E+01
DAV:  31    -0.304678502794E+03   -0.37726E+00   -0.50315E+00 73860   0.712E+00    0.284E+01
DAV:  32    -0.303864465295E+03    0.81404E+00   -0.78469E+00 71316   0.139E+01    0.253E+01
DAV:  33    -0.303925157317E+03   -0.60692E-01   -0.18929E+00 69648   0.461E+00    0.198E+01
DAV:  34    -0.303748643043E+03    0.17651E+00   -0.54329E-01 68220   0.268E+00    0.156E+01
DAV:  35    -0.303680638476E+03    0.68005E-01   -0.90559E-01 70680   0.345E+00    0.114E+01
DAV:  36    -0.303672640328E+03    0.79981E-02   -0.30673E-01 72372   0.199E+00    0.831E+00
DAV:  37    -0.303681029144E+03   -0.83888E-02   -0.60045E-01 68280   0.308E+00    0.741E+00
DAV:  38    -0.303616861995E+03    0.64167E-01   -0.20982E-01 71316   0.170E+00    0.619E+00
DAV:  39    -0.303582492268E+03    0.34370E-01   -0.85281E-02 74724   0.990E-01    0.545E+00
DAV:  40    -0.303575843771E+03    0.66485E-02   -0.18568E-02 76260   0.496E-01    0.512E+00
DAV:  41    -0.303563978875E+03    0.11865E-01   -0.41346E-02 71928   0.806E-01    0.388E+00
DAV:  42    -0.303543427743E+03    0.20551E-01   -0.28738E-02 66324   0.807E-01    0.302E+00
DAV:  43    -0.303535007588E+03    0.84202E-02   -0.23332E-02 70908   0.658E-01    0.219E+00
DAV:  44    -0.303540992193E+03   -0.59846E-02   -0.34604E-02 67800   0.757E-01    0.180E+00
DAV:  45    -0.303533964818E+03    0.70274E-02   -0.12196E-02 64848   0.489E-01    0.124E+00
DAV:  46    -0.303532221284E+03    0.17435E-02   -0.29062E-03 61788   0.221E-01    0.123E+00
DAV:  47    -0.303530347121E+03    0.18742E-02   -0.19126E-03 59292   0.193E-01    0.915E-01
DAV:  48    -0.303530271014E+03    0.76108E-04   -0.26272E-04 33120   0.868E-02
   1 F= -.30353027E+03 E0= -.30352302E+03  d E =-.303530E+03
 curvature:   0.00 expect dE= 0.000E+00 dE for cont linesearch  0.000E+00
 trial: gam= 0.00000 g(F)=  0.745E+00 g(S)=  0.224E+00 ort = 0.000E+00 (trialstep = 0.100E+01)
 search vector abs. value=  0.969E+00
 bond charge predicted
       N       E                     dE             d eps       ncg     rms          rms(c)
DAV:   1    -0.304360705102E+03   -0.83036E+00   -0.11303E+02 41832   0.436E+01    0.996E+00
DAV:   2    -0.306073589537E+03   -0.17129E+01   -0.23678E+01 74100   0.265E+01    0.106E+01
DAV:   3    -0.304938251909E+03    0.11353E+01   -0.16214E+01 72576   0.172E+01    0.827E+00
DAV:   4    -0.304667758736E+03    0.27049E+00   -0.10185E+01 69876   0.150E+01    0.705E+00
DAV:   5    -0.304283459398E+03    0.38430E+00   -0.45789E+00 69900   0.101E+01    0.411E+00
DAV:   6    -0.304139986784E+03    0.14347E+00   -0.19554E+00 71184   0.592E+00    0.297E+00
DAV:   7    -0.304092497330E+03    0.47489E-01   -0.11568E+00 76620   0.467E+00    0.224E+00
DAV:   8    -0.304086681282E+03    0.58160E-02   -0.54523E-01 74436   0.337E+00    0.188E+00
DAV:   9    -0.304057409671E+03    0.29272E-01   -0.22888E-01 74592   0.217E+00    0.101E+00
DAV:  10    -0.304054407450E+03    0.30022E-02   -0.72476E-02 71556   0.118E+00    0.814E-01
DAV:  11    -0.304057715916E+03   -0.33085E-02   -0.59085E-02 66180   0.110E+00    0.813E-01
DAV:  12    -0.304057535163E+03    0.18075E-03   -0.35664E-02 69384   0.827E-01    0.375E-01
DAV:  13    -0.304059610905E+03   -0.20757E-02   -0.27216E-02 72468   0.688E-01    0.438E-01
DAV:  14    -0.304058712462E+03    0.89844E-03   -0.23938E-02 67656   0.722E-01    0.286E-01
DAV:  15    -0.304058081369E+03    0.63109E-03   -0.73651E-03 67524   0.397E-01    0.133E-01
DAV:  16    -0.304058021334E+03    0.60034E-04   -0.25174E-03 59460   0.227E-01    0.118E-01
DAV:  17    -0.304057935475E+03    0.85859E-04   -0.93557E-04 49968   0.160E-01
   2 F= -.30405794E+03 E0= -.30405224E+03  d E =-.527664E+00
 trial-energy change:   -0.527664  1 .order   -0.537678   -0.969434   -0.105922
 step:   1.1332(harm=  1.1227)  dis= 0.04934  next Energy=  -304.064964 (dE=-0.535E+00)
 bond charge predicted
       N       E                     dE             d eps       ncg     rms          rms(c)
DAV:   1    -0.304066811800E+03   -0.87905E-02   -0.20301E+00 44772   0.589E+00    0.130E+00
DAV:   2    -0.304094637177E+03   -0.27825E-01   -0.39871E-01 73344   0.338E+00    0.143E+00
DAV:   3    -0.304077769254E+03    0.16868E-01   -0.28711E-01 73032   0.243E+00    0.104E+00
DAV:   4    -0.304074026337E+03    0.37429E-02   -0.15976E-01 71124   0.175E+00    0.957E-01
DAV:   5    -0.304067169200E+03    0.68571E-02   -0.86766E-02 68640   0.132E+00    0.603E-01
DAV:   6    -0.304064244308E+03    0.29249E-02   -0.39217E-02 71148   0.861E-01    0.383E-01
DAV:   7    -0.304063546584E+03    0.69772E-03   -0.19224E-02 74724   0.599E-01    0.307E-01
DAV:   8    -0.304063276097E+03    0.27049E-03   -0.92169E-03 65808   0.440E-01    0.237E-01
DAV:   9    -0.304062888253E+03    0.38784E-03   -0.36089E-03 61836   0.287E-01    0.148E-01
DAV:  10    -0.304062820738E+03    0.67516E-04   -0.13112E-03 57492   0.168E-01    0.117E-01
DAV:  11    -0.304062899937E+03   -0.79200E-04   -0.10838E-03 52980   0.157E-01    0.119E-01
DAV:  12    -0.304062896038E+03    0.38990E-05   -0.70803E-04 46956   0.134E-01
   3 F= -.30406290E+03 E0= -.30405736E+03  d E =-.532625E+00
 curvature:  -0.56 expect dE=-0.714E+00 dE for cont linesearch -0.136E-03
 trial: gam= 1.33824 g(F)=  0.318E+00 g(S)=  0.964E+00 ort =-0.154E-01 (trialstep = 0.334E+00)
 search vector abs. value=  0.298E+01
 bond charge predicted
       N       E                     dE             d eps       ncg     rms          rms(c)
DAV:   1    -0.304215186532E+03   -0.15229E+00   -0.37070E+01 41280   0.222E+01    0.298E+00
DAV:   2    -0.304713455458E+03   -0.49827E+00   -0.52970E+00 70536   0.108E+01    0.468E+00
DAV:   3    -0.304473688976E+03    0.23977E+00   -0.26083E+00 73056   0.720E+00    0.241E+00
DAV:   4    -0.304451913971E+03    0.21775E-01   -0.64239E-01 69900   0.378E+00    0.207E+00
DAV:   5    -0.304422936030E+03    0.28978E-01   -0.42607E-01 66648   0.300E+00    0.136E+00
DAV:   6    -0.304409770512E+03    0.13166E-01   -0.19201E-01 71568   0.190E+00    0.907E-01
DAV:   7    -0.304409504422E+03    0.26609E-03   -0.11417E-01 74664   0.164E+00    0.929E-01
DAV:   8    -0.304402827448E+03    0.66770E-02   -0.78682E-02 72456   0.138E+00    0.510E-01
DAV:   9    -0.304400513796E+03    0.23137E-02   -0.21394E-02 71688   0.646E-01    0.304E-01
DAV:  10    -0.304400200184E+03    0.31361E-03   -0.81527E-03 62064   0.388E-01    0.244E-01
DAV:  11    -0.304400107061E+03    0.93123E-04   -0.36593E-03 60216   0.279E-01    0.184E-01
DAV:  12    -0.304400184737E+03   -0.77676E-04   -0.23310E-03 63768   0.202E-01    0.144E-01
DAV:  13    -0.304400347194E+03   -0.16246E-03   -0.25490E-03 58932   0.241E-01    0.155E-01
DAV:  14    -0.304400220642E+03    0.12655E-03   -0.24319E-03 58488   0.252E-01    0.919E-02
DAV:  15    -0.304400144561E+03    0.76080E-04   -0.93411E-04 53472   0.139E-01
   4 F= -.30440014E+03 E0= -.30439496E+03  d E =-.337249E+00
 trial-energy change:   -0.337249  1 .order   -0.336137   -0.421698   -0.250576
 step:   0.7830(harm=  0.8239)  dis= 0.06716  next Energy=  -304.570948 (dE=-0.508E+00)
 bond charge predicted
       N       E                     dE             d eps       ncg     rms          rms(c)
DAV:   1    -0.304250619588E+03    0.14960E+00   -0.66715E+01 41280   0.299E+01    0.392E+00
DAV:   2    -0.305153977320E+03   -0.90336E+00   -0.95637E+00 70608   0.147E+01    0.631E+00
DAV:   3    -0.304699909081E+03    0.45407E+00   -0.46144E+00 74244   0.951E+00    0.299E+00
DAV:   4    -0.304669569266E+03    0.30340E-01   -0.10620E+00 69996   0.485E+00    0.267E+00
DAV:   5    -0.304620455188E+03    0.49114E-01   -0.71709E-01 67068   0.393E+00    0.170E+00
DAV:   6    -0.304600768724E+03    0.19686E-01   -0.31886E-01 72096   0.244E+00    0.118E+00
DAV:   7    -0.304598553450E+03    0.22153E-02   -0.19194E-01 75360   0.208E+00    0.115E+00
DAV:   8    -0.304588673734E+03    0.98797E-02   -0.12590E-01 72456   0.177E+00    0.669E-01
DAV:   9    -0.304584774731E+03    0.38990E-02   -0.36253E-02 74100   0.844E-01    0.390E-01
DAV:  10    -0.304584364950E+03    0.40978E-03   -0.13929E-02 62268   0.506E-01    0.321E-01
DAV:  11    -0.304584293894E+03    0.71055E-04   -0.70550E-03 59796   0.388E-01    0.248E-01
DAV:  12    -0.304584385681E+03   -0.91786E-04   -0.46590E-03 64344   0.290E-01    0.185E-01
DAV:  13    -0.304584606954E+03   -0.22127E-03   -0.44648E-03 63492   0.314E-01    0.190E-01
DAV:  14    -0.304584450785E+03    0.15617E-03   -0.40225E-03 58296   0.312E-01    0.123E-01
DAV:  15    -0.304584316479E+03    0.13431E-03   -0.15884E-03 60672   0.174E-01    0.507E-02
DAV:  16    -0.304584270032E+03    0.46447E-04   -0.27842E-04 34764   0.872E-02
   5 F= -.30458427E+03 E0= -.30457919E+03  d E =-.521374E+00
 curvature:  -0.97 expect dE=-0.213E+00 dE for cont linesearch -0.163E-02
 ZBRENT: extrapolating
 opt :   0.8298  next Energy=  -304.585927 (dE=-0.523E+00)
 bond charge predicted
       N       E                     dE             d eps       ncg     rms          rms(c)
DAV:   1    -0.304582481148E+03    0.18353E-02   -0.71897E-01 41892   0.306E+00    0.405E-01
DAV:   2    -0.304591929587E+03   -0.94484E-02   -0.10151E-01 70212   0.152E+00    0.649E-01
DAV:   3    -0.304587426319E+03    0.45033E-02   -0.49598E-02 71892   0.104E+00    0.326E-01
DAV:   4    -0.304586937225E+03    0.48909E-03   -0.11177E-02 63744   0.505E-01    0.271E-01
DAV:   5    -0.304586405721E+03    0.53150E-03   -0.73651E-03 59796   0.392E-01    0.176E-01
DAV:   6    -0.304586174338E+03    0.23138E-03   -0.32047E-03 64500   0.256E-01    0.112E-01
DAV:   7    -0.304586174933E+03   -0.59512E-06   -0.19395E-03 61524   0.218E-01    0.120E-01
DAV:   8    -0.304586064324E+03    0.11061E-03   -0.12765E-03 54984   0.192E-01    0.664E-02
DAV:   9    -0.304586013699E+03    0.50626E-04   -0.23442E-04 32004   0.104E-01
   6 F= -.30458601E+03 E0= -.30458093E+03  d E =-.523118E+00
 curvature:  -0.98 expect dE=-0.214E+00 dE for cont linesearch -0.926E-05
 trial: gam=-0.01017 g(F)=  0.183E+00 g(S)=  0.343E-01 ort = 0.529E-02 (trialstep = 0.433E+00)
 search vector abs. value=  0.217E+00
 bond charge predicted
       N       E                     dE             d eps       ncg     rms          rms(c)
DAV:   1    -0.304637887494E+03   -0.51823E-01   -0.57113E+00 41676   0.928E+00    0.166E+00
DAV:   2    -0.304698943006E+03   -0.61056E-01   -0.87013E-01 70404   0.484E+00    0.175E+00
DAV:   3    -0.304694212605E+03    0.47304E-02   -0.55130E-01 69612   0.366E+00    0.168E+00
DAV:   4    -0.304673945807E+03    0.20267E-01   -0.27713E-01 69264   0.248E+00    0.962E-01
DAV:   5    -0.304667031677E+03    0.69141E-02   -0.98995E-02 70728   0.139E+00    0.773E-01
DAV:   6    -0.304662384226E+03    0.46475E-02   -0.65440E-02 70944   0.114E+00    0.456E-01
DAV:   7    -0.304661479212E+03    0.90501E-03   -0.29312E-02 75300   0.727E-01    0.353E-01
DAV:   8    -0.304660818492E+03    0.66072E-03   -0.13910E-02 67908   0.493E-01    0.247E-01
DAV:   9    -0.304660382073E+03    0.43642E-03   -0.43800E-03 61404   0.303E-01    0.163E-01
DAV:  10    -0.304660333626E+03    0.48447E-04   -0.18316E-03 60192   0.190E-01    0.133E-01
DAV:  11    -0.304660420198E+03   -0.86572E-04   -0.10371E-03 53712   0.150E-01    0.113E-01
DAV:  12    -0.304660452818E+03   -0.32620E-04   -0.13631E-03 55812   0.180E-01    0.837E-02
DAV:  13    -0.304660387767E+03    0.65050E-04   -0.73639E-04 49524   0.137E-01
   7 F= -.30466039E+03 E0= -.30465542E+03  d E =-.743741E-01
 trial-energy change:   -0.074374  1 .order   -0.074927   -0.094117   -0.055737
 step:   1.2782(harm=  1.0628)  dis= 0.03574  next Energy=  -304.710614 (dE=-0.125E+00)
 bond charge predicted
       N       E                     dE             d eps       ncg     rms          rms(c)
DAV:   1    -0.304611054949E+03    0.49398E-01   -0.21725E+01 42072   0.181E+01    0.317E+00
DAV:   2    -0.304833564390E+03   -0.22251E+00   -0.32328E+00 70140   0.919E+00    0.332E+00
DAV:   3    -0.304823731876E+03    0.98325E-02   -0.20650E+00 69732   0.703E+00    0.327E+00
DAV:   4    -0.304746305062E+03    0.77427E-01   -0.10404E+00 68604   0.479E+00    0.185E+00
DAV:   5    -0.304720346230E+03    0.25959E-01   -0.37515E-01 70620   0.263E+00    0.150E+00
DAV:   6    -0.304703756946E+03    0.16589E-01   -0.25288E-01 71364   0.225E+00    0.919E-01
DAV:   7    -0.304699921828E+03    0.38351E-02   -0.11602E-01 75036   0.144E+00    0.706E-01
DAV:   8    -0.304697434440E+03    0.24874E-02   -0.57785E-02 73824   0.101E+00    0.508E-01
DAV:   9    -0.304695619512E+03    0.18149E-02   -0.18938E-02 64800   0.632E-01    0.328E-01
DAV:  10    -0.304695251878E+03    0.36763E-03   -0.69335E-03 63204   0.352E-01    0.243E-01
DAV:  11    -0.304695623938E+03   -0.37206E-03   -0.40038E-03 62292   0.279E-01    0.233E-01
DAV:  12    -0.304695691836E+03   -0.67898E-04   -0.46135E-03 63792   0.315E-01    0.163E-01
DAV:  13    -0.304695786586E+03   -0.94749E-04   -0.34177E-03 60780   0.277E-01    0.154E-01
DAV:  14    -0.304695676565E+03    0.11002E-03   -0.28652E-03 59712   0.268E-01    0.105E-01
DAV:  15    -0.304695565876E+03    0.11069E-03   -0.80814E-04 49764   0.146E-01    0.343E-02
DAV:  16    -0.304695556928E+03    0.89484E-05   -0.13850E-04 26832   0.807E-02
   8 F= -.30469556E+03 E0= -.30469090E+03  d E =-.109543E+00
 curvature:  -0.47 expect dE=-0.128E+00 dE for cont linesearch -0.369E-02
 ZBRENT: interpolating
 opt :   1.0728  next Energy=  -304.699800 (dE=-0.114E+00)
 bond charge predicted
       N       E                     dE             d eps       ncg     rms          rms(c)
DAV:   1    -0.304695524813E+03    0.41063E-04   -0.12772E+00 41340   0.436E+00    0.793E-01
DAV:   2    -0.304709284139E+03   -0.13759E-01   -0.20027E-01 71064   0.231E+00    0.833E-01
DAV:   3    -0.304707872462E+03    0.14117E-02   -0.12688E-01 69768   0.172E+00    0.811E-01
DAV:   4    -0.304703315177E+03    0.45573E-02   -0.66283E-02 67632   0.119E+00    0.487E-01
DAV:   5    -0.304701568097E+03    0.17471E-02   -0.24108E-02 67836   0.679E-01    0.374E-01
DAV:   6    -0.304700465384E+03    0.11027E-02   -0.15454E-02 70308   0.544E-01    0.224E-01
DAV:   7    -0.304700242929E+03    0.22246E-03   -0.73715E-03 65880   0.358E-01    0.176E-01
DAV:   8    -0.304700123119E+03    0.11981E-03   -0.39000E-03 61776   0.266E-01    0.134E-01
DAV:   9    -0.304699979558E+03    0.14356E-03   -0.13372E-03 54468   0.177E-01    0.789E-02
DAV:  10    -0.304699934845E+03    0.44713E-04   -0.27932E-04 33120   0.100E-01
   9 F= -.30469993E+03 E0= -.30469521E+03  d E =-.113921E+00
 curvature:  -0.54 expect dE=-0.104E+00 dE for cont linesearch -0.244E-04
 trial: gam= 0.90355 g(F)=  0.458E-01 g(S)=  0.147E+00 ort =-0.313E-02 (trialstep = 0.334E+00)
 search vector abs. value=  0.365E+00
 bond charge predicted
       N       E                     dE             d eps       ncg     rms          rms(c)
DAV:   1    -0.304726465718E+03   -0.26486E-01   -0.58199E+00 41304   0.946E+00    0.161E+00
DAV:   2    -0.304776922989E+03   -0.50457E-01   -0.87955E-01 69132   0.441E+00    0.141E+00
DAV:   3    -0.304785914679E+03   -0.89917E-02   -0.52158E-01 69144   0.339E+00    0.171E+00
DAV:   4    -0.304759841761E+03    0.26073E-01   -0.22654E-01 68256   0.235E+00    0.828E-01
DAV:   5    -0.304754628751E+03    0.52130E-02   -0.98901E-02 71568   0.131E+00    0.694E-01
DAV:   6    -0.304751391941E+03    0.32368E-02   -0.53311E-02 69528   0.105E+00    0.466E-01
DAV:   7    -0.304749823949E+03    0.15680E-02   -0.24649E-02 75840   0.635E-01    0.259E-01
DAV:   8    -0.304749744774E+03    0.79175E-04   -0.86447E-03 73188   0.383E-01    0.239E-01
DAV:   9    -0.304749480766E+03    0.26401E-03   -0.44018E-03 58296   0.321E-01    0.178E-01
DAV:  10    -0.304749386669E+03    0.94097E-04   -0.18956E-03 58980   0.196E-01    0.123E-01
DAV:  11    -0.304749512410E+03   -0.12574E-03   -0.82833E-04 50304   0.125E-01    0.928E-02
DAV:  12    -0.304749628558E+03   -0.11615E-03   -0.13483E-03 57996   0.189E-01    0.101E-01
DAV:  13    -0.304749568559E+03    0.59999E-04   -0.87358E-04 50184   0.157E-01
  10 F= -.30474957E+03 E0= -.30474498E+03  d E =-.496337E-01
 trial-energy change:   -0.049634  1 .order   -0.050034   -0.063629   -0.036439
 step:   0.9281(harm=  0.7825)  dis= 0.04163  next Energy=  -304.779680 (dE=-0.797E-01)
 bond charge predicted
       N       E                     dE             d eps       ncg     rms          rms(c)
DAV:   1    -0.304694295233E+03    0.55333E-01   -0.18295E+01 41304   0.167E+01    0.292E+00
DAV:   2    -0.304849549302E+03   -0.15525E+00   -0.27668E+00 69132   0.789E+00    0.242E+00
DAV:   3    -0.304876168974E+03   -0.26620E-01   -0.15445E+00 69516   0.591E+00    0.294E+00
DAV:   4    -0.304800033503E+03    0.76135E-01   -0.70895E-01 69492   0.424E+00    0.152E+00
DAV:   5    -0.304782573964E+03    0.17460E-01   -0.32363E-01 71196   0.242E+00    0.124E+00
DAV:   6    -0.304772075738E+03    0.10498E-01   -0.17080E-01 69672   0.188E+00    0.811E-01
DAV:   7    -0.304767181168E+03    0.48946E-02   -0.78241E-02 75048   0.115E+00    0.452E-01
DAV:   8    -0.304766968504E+03    0.21266E-03   -0.26930E-02 76968   0.678E-01    0.414E-01
DAV:   9    -0.304765989588E+03    0.97892E-03   -0.13435E-02 64656   0.550E-01    0.293E-01
DAV:  10    -0.304765777767E+03    0.21182E-03   -0.55155E-03 61704   0.325E-01    0.213E-01
DAV:  11    -0.304766143678E+03   -0.36591E-03   -0.27876E-03 63408   0.224E-01    0.181E-01
DAV:  12    -0.304766338247E+03   -0.19457E-03   -0.35397E-03 59736   0.295E-01    0.154E-01
DAV:  13    -0.304766298302E+03    0.39945E-04   -0.28022E-03 68952   0.251E-01    0.863E-02
DAV:  14    -0.304766251143E+03    0.47159E-04   -0.12700E-03 59460   0.159E-01    0.606E-02
DAV:  15    -0.304766212466E+03    0.38678E-04   -0.24977E-04 30048   0.113E-01
  11 F= -.30476621E+03 E0= -.30476188E+03  d E =-.662776E-01
 curvature:  -0.67 expect dE=-0.656E-01 dE for cont linesearch -0.485E-02
 ZBRENT: interpolating
 opt :   0.7379  next Energy=  -304.771098 (dE=-0.712E-01)
 bond charge predicted
       N       E                     dE             d eps       ncg     rms          rms(c)
DAV:   1    -0.304763787067E+03    0.24641E-02   -0.18934E+00 41676   0.542E+00    0.928E-01
DAV:   2    -0.304779707298E+03   -0.15920E-01   -0.28153E-01 68304   0.251E+00    0.798E-01
DAV:   3    -0.304783144100E+03   -0.34368E-02   -0.16252E-01 69540   0.194E+00    0.977E-01
DAV:   4    -0.304775115746E+03    0.80284E-02   -0.73314E-02 69048   0.138E+00    0.507E-01
DAV:   5    -0.304772964120E+03    0.21516E-02   -0.33852E-02 68496   0.779E-01    0.402E-01
DAV:   6    -0.304771845733E+03    0.11184E-02   -0.18323E-02 68400   0.614E-01    0.263E-01
DAV:   7    -0.304771343982E+03    0.50175E-03   -0.87926E-03 70428   0.384E-01    0.152E-01
DAV:   8    -0.304771252905E+03    0.91078E-04   -0.30828E-03 62724   0.231E-01    0.131E-01
DAV:   9    -0.304771151533E+03    0.10137E-03   -0.15014E-03 56964   0.188E-01    0.940E-02
DAV:  10    -0.304771109133E+03    0.42400E-04   -0.51560E-04 42528   0.116E-01
  12 F= -.30477111E+03 E0= -.30476667E+03  d E =-.711743E-01
 curvature:  -0.68 expect dE=-0.377E-01 dE for cont linesearch -0.595E-05
 trial: gam= 0.28268 g(F)=  0.496E-01 g(S)=  0.621E-02 ort =-0.179E-02 (trialstep = 0.415E+00)
 search vector abs. value=  0.840E-01
 bond charge predicted
       N       E                     dE             d eps       ncg     rms          rms(c)
DAV:   1    -0.304776528295E+03   -0.53768E-02   -0.20298E+00 42192   0.497E+00    0.418E-01
DAV:   2    -0.304797276771E+03   -0.20748E-01   -0.20695E-01 65472   0.229E+00    0.716E-01
DAV:   3    -0.304794114286E+03    0.31625E-02   -0.62250E-02 66924   0.136E+00    0.408E-01
DAV:   4    -0.304793002655E+03    0.11116E-02   -0.12383E-02 65652   0.570E-01    0.241E-01
DAV:   5    -0.304792512672E+03    0.48998E-03   -0.47425E-03 65604   0.323E-01    0.150E-01
DAV:   6    -0.304792450093E+03    0.62580E-04   -0.19211E-03 57684   0.209E-01    0.140E-01
DAV:   7    -0.304792466684E+03   -0.16592E-04   -0.25084E-03 64776   0.229E-01    0.140E-01
DAV:   8    -0.304792376789E+03    0.89895E-04   -0.16409E-03 56580   0.212E-01    0.104E-01
DAV:   9    -0.304792238803E+03    0.13799E-03   -0.71540E-04 45780   0.142E-01    0.442E-02
DAV:  10    -0.304792221835E+03    0.16967E-04   -0.18324E-04 27156   0.929E-02
  13 F= -.30479222E+03 E0= -.30478788E+03  d E =-.211127E-01
 ZBRENT: can't locate minimum, use default step
 trial-energy change:   -0.021113  1 .order   -0.021104   -0.022970   -0.019237
 step:   1.6603(harm=  2.5544)  dis= 0.04161  next Energy=  -304.841789 (dE=-0.707E-01)
 bond charge predicted
       N       E                     dE             d eps       ncg     rms          rms(c)
DAV:   1    -0.304683901068E+03    0.10834E+00   -0.18229E+01 41796   0.150E+01    0.139E+00
DAV:   2    -0.304873516109E+03   -0.18962E+00   -0.19237E+00 65796   0.702E+00    0.203E+00
DAV:   3    -0.304855802489E+03    0.17714E-01   -0.58385E-01 66120   0.418E+00    0.144E+00
DAV:   4    -0.304838953257E+03    0.16849E-01   -0.13117E-01 68124   0.187E+00    0.708E-01
DAV:   5    -0.304835425829E+03    0.35274E-02   -0.38989E-02 68736   0.912E-01    0.514E-01
DAV:   6    -0.304834847570E+03    0.57826E-03   -0.17787E-02 67416   0.642E-01    0.474E-01
DAV:   7    -0.304835004302E+03   -0.15673E-03   -0.23129E-02 69876   0.672E-01    0.455E-01
DAV:   8    -0.304834214233E+03    0.79007E-03   -0.17149E-02 63540   0.681E-01    0.356E-01
DAV:   9    -0.304832853468E+03    0.13608E-02   -0.92888E-03 75024   0.450E-01    0.137E-01
DAV:  10    -0.304832854942E+03   -0.14744E-05   -0.32971E-03 65592   0.262E-01    0.138E-01
DAV:  11    -0.304832732789E+03    0.12215E-03   -0.16149E-03 56772   0.189E-01    0.694E-02
DAV:  12    -0.304832673092E+03    0.59697E-04   -0.41695E-04 40260   0.101E-01
  14 F= -.30483267E+03 E0= -.30482855E+03  d E =-.615640E-01
 curvature:  -1.60 expect dE=-0.266E-01 dE for cont linesearch -0.578E-02
 ZBRENT: increasing intervall
 opt :   4.1507  next Energy=  -304.804000 (dE=-0.329E-01)
 bond charge predicted
       N       E                     dE             d eps       ncg     rms          rms(c)
DAV:   1    -0.304250470782E+03    0.58226E+00   -0.73918E+01 43020   0.302E+01    0.279E+00
DAV:   2    -0.304989790693E+03   -0.73932E+00   -0.74225E+00 64776   0.131E+01    0.416E+00
DAV:   3    -0.304899616995E+03    0.90174E-01   -0.23848E+00 66684   0.851E+00    0.280E+00
DAV:   4    -0.304831429068E+03    0.68188E-01   -0.52787E-01 70356   0.368E+00    0.141E+00
DAV:   5    -0.304821108418E+03    0.10321E-01   -0.16607E-01 68064   0.188E+00    0.110E+00
DAV:   6    -0.304816455533E+03    0.46529E-02   -0.65952E-02 65820   0.124E+00    0.923E-01
DAV:   7    -0.304818998239E+03   -0.25427E-02   -0.84904E-02 68748   0.127E+00    0.975E-01
DAV:   8    -0.304814393801E+03    0.46044E-02   -0.70870E-02 62568   0.138E+00    0.689E-01
DAV:   9    -0.304809274993E+03    0.51188E-02   -0.37891E-02 73488   0.912E-01    0.276E-01
DAV:  10    -0.304809302960E+03   -0.27968E-04   -0.14393E-02 76308   0.539E-01    0.300E-01
DAV:  11    -0.304808654796E+03    0.64816E-03   -0.76207E-03 60984   0.401E-01    0.138E-01
DAV:  12    -0.304808452231E+03    0.20257E-03   -0.19256E-03 61404   0.180E-01    0.788E-02
DAV:  13    -0.304808409219E+03    0.43012E-04   -0.72823E-04 48432   0.126E-01
  15 F= -.30480841E+03 E0= -.30480470E+03  d E =-.373001E-01
 curvature:   7.94 expect dE= 0.659E+00 dE for cont linesearch  0.148E+00
 ZBRENT: bracketing found
 ZBRENT: interpolating
 opt :   2.4214  next Energy=  -304.839301 (dE=-0.682E-01)
 bond charge predicted
       N       E                     dE             d eps       ncg     rms          rms(c)
DAV:   1    -0.304579742673E+03    0.22871E+00   -0.35366E+01 43344   0.206E+01    0.186E+00
DAV:   2    -0.304901429965E+03   -0.32169E+00   -0.33111E+00 64200   0.866E+00    0.263E+00
DAV:   3    -0.304878476432E+03    0.22954E-01   -0.10401E+00 66912   0.562E+00    0.183E+00
DAV:   4    -0.304855057320E+03    0.23419E-01   -0.23925E-01 67404   0.256E+00    0.105E+00
DAV:   5    -0.304844548010E+03    0.10509E-01   -0.72425E-02 68424   0.128E+00    0.625E-01
DAV:   6    -0.304845101037E+03   -0.55303E-03   -0.33996E-02 69108   0.814E-01    0.644E-01
DAV:   7    -0.304844615453E+03    0.48558E-03   -0.46893E-02 64644   0.103E+00    0.616E-01
DAV:   8    -0.304841250707E+03    0.33647E-02   -0.26281E-02 69492   0.811E-01    0.285E-01
DAV:   9    -0.304840759800E+03    0.49091E-03   -0.10255E-02 75300   0.441E-01    0.213E-01
DAV:  10    -0.304840552328E+03    0.20747E-03   -0.54366E-03 60384   0.342E-01    0.151E-01
DAV:  11    -0.304840351712E+03    0.20062E-03   -0.20047E-03 59484   0.209E-01    0.779E-02
DAV:  12    -0.304840295542E+03    0.56170E-04   -0.72233E-04 48768   0.122E-01
  16 F= -.30484030E+03 E0= -.30483630E+03  d E =-.691864E-01
 curvature:  -0.36 expect dE=-0.797E-02 dE for cont linesearch -0.254E-04
 trial: gam= 0.30469 g(F)=  0.210E-01 g(S)=  0.140E-02 ort = 0.245E-02 (trialstep = 0.816E+00)
 search vector abs. value=  0.317E-01
 bond charge predicted
       N       E                     dE             d eps       ncg     rms          rms(c)
DAV:   1    -0.304833426507E+03    0.69252E-02   -0.28694E+00 41448   0.602E+00    0.617E-01
DAV:   2    -0.304865196436E+03   -0.31770E-01   -0.34203E-01 66816   0.284E+00    0.962E-01
DAV:   3    -0.304860131459E+03    0.50650E-02   -0.10776E-01 69336   0.172E+00    0.654E-01
DAV:   4    -0.304856529933E+03    0.36015E-02   -0.26844E-02 69876   0.825E-01    0.321E-01
DAV:   5    -0.304855783230E+03    0.74670E-03   -0.12974E-02 68328   0.455E-01    0.264E-01
DAV:   6    -0.304855659346E+03    0.12388E-03   -0.85636E-03 65412   0.436E-01    0.255E-01
DAV:   7    -0.304855318653E+03    0.34069E-03   -0.58109E-03 64476   0.350E-01    0.158E-01
DAV:   8    -0.304855212174E+03    0.10648E-03   -0.38094E-03 66228   0.280E-01    0.146E-01
DAV:   9    -0.304854987495E+03    0.22468E-03   -0.17629E-03 57132   0.206E-01    0.639E-02
DAV:  10    -0.304854941704E+03    0.45791E-04   -0.28432E-04 33708   0.991E-02
  17 F= -.30485494E+03 E0= -.30485091E+03  d E =-.146462E-01
 trial-energy change:   -0.014646  1 .order   -0.015087   -0.018909   -0.011265
 step:   2.0193(harm=  2.0193)  dis= 0.02573  next Energy=  -304.863683 (dE=-0.234E-01)
 bond charge predicted
       N       E                     dE             d eps       ncg     rms          rms(c)
DAV:   1    -0.304817051800E+03    0.37936E-01   -0.62549E+00 41460   0.888E+00    0.894E-01
DAV:   2    -0.304888517173E+03   -0.71465E-01   -0.75803E-01 67164   0.423E+00    0.150E+00
DAV:   3    -0.304873877632E+03    0.14640E-01   -0.24154E-01 69108   0.255E+00    0.929E-01
DAV:   4    -0.304867013082E+03    0.68646E-02   -0.56555E-02 70644   0.118E+00    0.492E-01
DAV:   5    -0.304865424573E+03    0.15885E-02   -0.29314E-02 68400   0.707E-01    0.401E-01
DAV:   6    -0.304864835084E+03    0.58949E-03   -0.17811E-02 68256   0.629E-01    0.347E-01
DAV:   7    -0.304864362676E+03    0.47241E-03   -0.12413E-02 70272   0.493E-01    0.246E-01
DAV:   8    -0.304864112051E+03    0.25062E-03   -0.87137E-03 68532   0.428E-01    0.223E-01
DAV:   9    -0.304863599895E+03    0.51216E-03   -0.39043E-03 60408   0.290E-01    0.949E-02
DAV:  10    -0.304863550712E+03    0.49183E-04   -0.10049E-03 53424   0.138E-01    0.732E-02
DAV:  11    -0.304863543346E+03    0.73660E-05   -0.28562E-04 33444   0.110E-01
  18 F= -.30486354E+03 E0= -.30485950E+03  d E =-.232478E-01
 curvature:  -1.38 expect dE=-0.377E-01 dE for cont linesearch -0.741E-05
 trial: gam= 1.21133 g(F)=  0.914E-02 g(S)=  0.181E-01 ort = 0.412E-03 (trialstep = 0.448E+00)
 search vector abs. value=  0.748E-01
 bond charge predicted
       N       E                     dE             d eps       ncg     rms          rms(c)
DAV:   1    -0.304867805449E+03   -0.42547E-02   -0.20080E+00 41952   0.542E+00    0.969E-01
DAV:   2    -0.304885663356E+03   -0.17858E-01   -0.28259E-01 69780   0.263E+00    0.997E-01
DAV:   3    -0.304885663466E+03   -0.10940E-06   -0.17726E-01 68076   0.211E+00    0.109E+00
DAV:   4    -0.304877309176E+03    0.83543E-02   -0.92849E-02 71064   0.151E+00    0.561E-01
DAV:   5    -0.304874356966E+03    0.29522E-02   -0.36925E-02 71784   0.800E-01    0.395E-01
DAV:   6    -0.304873321181E+03    0.10358E-02   -0.22505E-02 68916   0.636E-01    0.294E-01
DAV:   7    -0.304872784212E+03    0.53697E-03   -0.11169E-02 69936   0.448E-01    0.201E-01
DAV:   8    -0.304872666162E+03    0.11805E-03   -0.48968E-03 64092   0.311E-01    0.165E-01
DAV:   9    -0.304872445832E+03    0.22033E-03   -0.20945E-03 59712   0.219E-01    0.927E-02
DAV:  10    -0.304872411830E+03    0.34002E-04   -0.73001E-04 49044   0.123E-01
  19 F= -.30487241E+03 E0= -.30486835E+03  d E =-.886848E-02
 trial-energy change:   -0.008868  1 .order   -0.009051   -0.012443   -0.005659
 step:   0.8219(harm=  0.8219)  dis= 0.01446  next Energy=  -304.874955 (dE=-0.114E-01)
 bond charge predicted
       N       E                     dE             d eps       ncg     rms          rms(c)
DAV:   1    -0.304871209125E+03    0.12367E-02   -0.14002E+00 42048   0.454E+00    0.800E-01
DAV:   2    -0.304883168701E+03   -0.11960E-01   -0.19253E-01 69048   0.215E+00    0.811E-01
DAV:   3    -0.304883423479E+03   -0.25478E-03   -0.12381E-01 68508   0.175E+00    0.908E-01
DAV:   4    -0.304877533849E+03    0.58896E-02   -0.61604E-02 69180   0.125E+00    0.458E-01
DAV:   5    -0.304875431978E+03    0.21019E-02   -0.25379E-02 72828   0.635E-01    0.310E-01
DAV:   6    -0.304874956502E+03    0.47548E-03   -0.14647E-02 66276   0.533E-01    0.262E-01
DAV:   7    -0.304874480518E+03    0.47598E-03   -0.72443E-03 63600   0.372E-01    0.152E-01
DAV:   8    -0.304874450342E+03    0.30175E-04   -0.27259E-03 66108   0.230E-01    0.132E-01
DAV:   9    -0.304874350703E+03    0.99640E-04   -0.12983E-03 53952   0.181E-01    0.886E-02
DAV:  10    -0.304874330798E+03    0.19904E-04   -0.55975E-04 44724   0.116E-01
  20 F= -.30487433E+03 E0= -.30487025E+03  d E =-.107875E-01
 curvature:  -1.11 expect dE=-0.219E-01 dE for cont linesearch -0.180E-05
 trial: gam= 0.76554 g(F)=  0.121E-01 g(S)=  0.769E-02 ort =-0.348E-03 (trialstep = 0.523E+00)
 search vector abs. value=  0.630E-01
 bond charge predicted
       N       E                     dE             d eps       ncg     rms          rms(c)
DAV:   1    -0.304870897564E+03    0.34531E-02   -0.22539E+00 43140   0.510E+00    0.422E-01
DAV:   2    -0.304890865861E+03   -0.19968E-01   -0.20780E-01 67332   0.226E+00    0.819E-01
DAV:   3    -0.304885835260E+03    0.50306E-02   -0.66503E-02 68136   0.136E+00    0.432E-01
DAV:   4    -0.304884290707E+03    0.15446E-02   -0.12915E-02 68136   0.567E-01    0.227E-01
DAV:   5    -0.304883941989E+03    0.34872E-03   -0.57905E-03 65784   0.307E-01    0.183E-01
DAV:   6    -0.304883940705E+03    0.12848E-05   -0.42909E-03 59280   0.316E-01    0.192E-01
DAV:   7    -0.304883753430E+03    0.18727E-03   -0.37525E-03 64140   0.281E-01    0.122E-01
DAV:   8    -0.304883684346E+03    0.69084E-04   -0.21663E-03 62136   0.218E-01    0.124E-01
DAV:   9    -0.304883535807E+03    0.14854E-03   -0.10874E-03 51492   0.163E-01    0.409E-02
DAV:  10    -0.304883516208E+03    0.19599E-04   -0.14055E-04 26832   0.740E-02
  21 F= -.30488352E+03 E0= -.30487952E+03  d E =-.918541E-02
 ZBRENT: can't locate minimum, use default step
 trial-energy change:   -0.009185  1 .order   -0.009188   -0.010185   -0.008191
 step:   2.0913(harm=  2.6708)  dis= 0.03313  next Energy=  -304.900346 (dE=-0.260E-01)
 bond charge predicted
       N       E                     dE             d eps       ncg     rms          rms(c)
DAV:   1    -0.304767180900E+03    0.11635E+00   -0.20157E+01 42552   0.153E+01    0.141E+00
DAV:   2    -0.304960001376E+03   -0.19282E+00   -0.20018E+00 67116   0.686E+00    0.234E+00
DAV:   3    -0.304925013351E+03    0.34988E-01   -0.62826E-01 67284   0.415E+00    0.151E+00
DAV:   4    -0.304905090937E+03    0.19922E-01   -0.13980E-01 70176   0.189E+00    0.657E-01
DAV:   5    -0.304902223005E+03    0.28679E-02   -0.47636E-02 65832   0.818E-01    0.521E-01
DAV:   6    -0.304901807388E+03    0.41562E-03   -0.29861E-02 69300   0.780E-01    0.515E-01
DAV:   7    -0.304901615941E+03    0.19145E-03   -0.32683E-02 68508   0.831E-01    0.443E-01
DAV:   8    -0.304899716533E+03    0.18994E-02   -0.17943E-02 68904   0.623E-01    0.285E-01
DAV:   9    -0.304899002964E+03    0.71357E-03   -0.77273E-03 70260   0.416E-01    0.148E-01
DAV:  10    -0.304898876759E+03    0.12620E-03   -0.22047E-03 64164   0.199E-01    0.866E-02
DAV:  11    -0.304898875821E+03    0.93793E-06   -0.12346E-03 54576   0.160E-01    0.844E-02
DAV:  12    -0.304898802310E+03    0.73512E-04   -0.45153E-04 41436   0.120E-01
  22 F= -.30489880E+03 E0= -.30489512E+03  d E =-.244715E-01
 curvature:  -4.01 expect dE=-0.595E-01 dE for cont linesearch -0.424E-03
 trial: gam= 0.35056 g(F)=  0.121E-01 g(S)=  0.269E-02 ort = 0.258E-02 (trialstep = 0.837E+00)
 search vector abs. value=  0.244E-01
 bond charge predicted
       N       E                     dE             d eps       ncg     rms          rms(c)
DAV:   1    -0.304895714879E+03    0.31609E-02   -0.23447E+00 41280   0.594E+00    0.946E-01
DAV:   2    -0.304918154555E+03   -0.22440E-01   -0.32255E-01 68988   0.285E+00    0.934E-01
DAV:   3    -0.304920038219E+03   -0.18837E-02   -0.17966E-01 69312   0.211E+00    0.103E+00
DAV:   4    -0.304910908453E+03    0.91298E-02   -0.84192E-02 69276   0.138E+00    0.474E-01
DAV:   5    -0.304908802743E+03    0.21057E-02   -0.29980E-02 66072   0.728E-01    0.381E-01
DAV:   6    -0.304907984493E+03    0.81825E-03   -0.19961E-02 69324   0.641E-01    0.270E-01
DAV:   7    -0.304907625074E+03    0.35942E-03   -0.93287E-03 65844   0.439E-01    0.207E-01
DAV:   8    -0.304907449184E+03    0.17589E-03   -0.44018E-03 59700   0.326E-01    0.157E-01
DAV:   9    -0.304907237136E+03    0.21205E-03   -0.12928E-03 54552   0.188E-01    0.787E-02
DAV:  10    -0.304907216089E+03    0.21047E-04   -0.29742E-04 34164   0.903E-02
  23 F= -.30490722E+03 E0= -.30490354E+03  d E =-.841378E-02
 trial-energy change:   -0.008414  1 .order   -0.008577   -0.013173   -0.003980
 step:   1.1987(harm=  1.1987)  dis= 0.00898  next Energy=  -304.908241 (dE=-0.944E-02)
 bond charge predicted
       N       E                     dE             d eps       ncg     rms          rms(c)
DAV:   1    -0.304905955689E+03    0.12814E-02   -0.44020E-01 41400   0.258E+00    0.407E-01
DAV:   2    -0.304910114948E+03   -0.41593E-02   -0.60259E-02 69036   0.122E+00    0.406E-01
DAV:   3    -0.304910380004E+03   -0.26506E-03   -0.35025E-02 69624   0.911E-01    0.455E-01
DAV:   4    -0.304908675340E+03    0.17047E-02   -0.16565E-02 60372   0.610E-01    0.216E-01
DAV:   5    -0.304908213087E+03    0.46225E-03   -0.57412E-03 67836   0.316E-01    0.152E-01
DAV:   6    -0.304908118969E+03    0.94118E-04   -0.35273E-03 58968   0.282E-01    0.130E-01
DAV:   7    -0.304908033277E+03    0.85692E-04   -0.18155E-03 60384   0.205E-01    0.909E-02
DAV:   8    -0.304907985243E+03    0.48034E-04   -0.71809E-04 46476   0.145E-01
  24 F= -.30490799E+03 E0= -.30490431E+03  d E =-.918293E-02
 curvature:  -0.93 expect dE=-0.201E-01 dE for cont linesearch -0.794E-06
 trial: gam= 1.55810 g(F)=  0.345E-02 g(S)=  0.181E-01 ort =-0.144E-03 (trialstep = 0.276E+00)
 search vector abs. value=  0.804E-01
 bond charge predicted
       N       E                     dE             d eps       ncg     rms          rms(c)
DAV:   1    -0.304907279271E+03    0.75401E-03   -0.82299E-01 41280   0.330E+00    0.364E-01
DAV:   2    -0.304915550327E+03   -0.82711E-02   -0.10032E-01 68664   0.159E+00    0.487E-01
DAV:   3    -0.304914847509E+03    0.70282E-03   -0.35463E-02 68196   0.944E-01    0.398E-01
DAV:   4    -0.304913469571E+03    0.13779E-02   -0.10610E-02 61848   0.507E-01    0.200E-01
DAV:   5    -0.304913153953E+03    0.31562E-03   -0.43531E-03 65964   0.289E-01    0.158E-01
DAV:   6    -0.304913087956E+03    0.65996E-04   -0.30327E-03 61212   0.258E-01    0.138E-01
DAV:   7    -0.304912996598E+03    0.91359E-04   -0.21417E-03 65496   0.220E-01    0.936E-02
DAV:   8    -0.304912942326E+03    0.54271E-04   -0.12275E-03 54360   0.170E-01    0.797E-02
DAV:   9    -0.304912877929E+03    0.64397E-04   -0.58651E-04 43332   0.137E-01
  25 F= -.30491288E+03 E0= -.30490919E+03  d E =-.489269E-02
 trial-energy change:   -0.004893  1 .order   -0.004983   -0.005896   -0.004069
 step:   0.8905(harm=  0.8905)  dis= 0.01243  next Energy=  -304.917500 (dE=-0.951E-02)
 bond charge predicted
       N       E                     dE             d eps       ncg     rms          rms(c)
DAV:   1    -0.304890261918E+03    0.22680E-01   -0.40910E+00 41640   0.734E+00    0.780E-01
DAV:   2    -0.304929095469E+03   -0.38834E-01   -0.47035E-01 68340   0.345E+00    0.102E+00
DAV:   3    -0.304926701347E+03    0.23941E-02   -0.15794E-01 67812   0.202E+00    0.858E-01
DAV:   4    -0.304920111674E+03    0.65897E-02   -0.51002E-02 71076   0.110E+00    0.389E-01
DAV:   5    -0.304918814214E+03    0.12975E-02   -0.18465E-02 71832   0.572E-01    0.317E-01
DAV:   6    -0.304918586818E+03    0.22740E-03   -0.13625E-02 70596   0.522E-01    0.277E-01
DAV:   7    -0.304918260776E+03    0.32604E-03   -0.85980E-03 72348   0.437E-01    0.206E-01
DAV:   8    -0.304917947456E+03    0.31332E-03   -0.47948E-03 64608   0.327E-01    0.148E-01
DAV:   9    -0.304917756573E+03    0.19088E-03   -0.20465E-03 58116   0.218E-01    0.839E-02
DAV:  10    -0.304917709905E+03    0.46668E-04   -0.48239E-04 41604   0.111E-01
  26 F= -.30491771E+03 E0= -.30491403E+03  d E =-.972466E-02
 curvature:  -1.68 expect dE=-0.121E-01 dE for cont linesearch -0.959E-05
 trial: gam= 0.17466 g(F)=  0.691E-02 g(S)=  0.337E-03 ort = 0.678E-03 (trialstep = 0.399E+00)
 search vector abs. value=  0.994E-02
 bond charge predicted
       N       E                     dE             d eps       ncg     rms          rms(c)
DAV:   1    -0.304919524499E+03   -0.17679E-02   -0.18741E-01 41376   0.154E+00    0.224E-01
DAV:   2    -0.304921057519E+03   -0.15330E-02   -0.20716E-02 69732   0.700E-01    0.266E-01
DAV:   3    -0.304920887490E+03    0.17003E-03   -0.11086E-02 68832   0.514E-01    0.241E-01
DAV:   4    -0.304920412167E+03    0.47532E-03   -0.43657E-03 60804   0.311E-01    0.107E-01
DAV:   5    -0.304920336846E+03    0.75321E-04   -0.18026E-03 60072   0.186E-01    0.930E-02
DAV:   6    -0.304920294629E+03    0.42217E-04   -0.11103E-03 53352   0.171E-01    0.716E-02
DAV:   7    -0.304920249216E+03    0.45413E-04   -0.32377E-04 35112   0.117E-01
  27 F= -.30492025E+03 E0= -.30491658E+03  d E =-.253931E-02
 ZBRENT: can't locate minimum, use default step
 trial-energy change:   -0.002539  1 .order   -0.002595   -0.002938   -0.002253
 step:   1.5954(harm=  1.7088)  dis= 0.00731  next Energy=  -304.924005 (dE=-0.629E-02)
 bond charge predicted
       N       E                     dE             d eps       ncg     rms          rms(c)
DAV:   1    -0.304916983240E+03    0.33114E-02   -0.16737E+00 41280   0.457E+00    0.678E-01
DAV:   2    -0.304929286457E+03   -0.12303E-01   -0.18285E-01 70152   0.209E+00    0.703E-01
DAV:   3    -0.304928695891E+03    0.59057E-03   -0.86496E-02 69144   0.145E+00    0.692E-01
DAV:   4    -0.304925055268E+03    0.36406E-02   -0.44472E-02 66804   0.972E-01    0.372E-01
DAV:   5    -0.304923746526E+03    0.13087E-02   -0.16548E-02 70224   0.579E-01    0.256E-01
DAV:   6    -0.304923384521E+03    0.36201E-03   -0.89937E-03 67872   0.430E-01    0.176E-01
DAV:   7    -0.304923127657E+03    0.25686E-03   -0.43149E-03 64968   0.261E-01    0.117E-01
DAV:   8    -0.304923125920E+03    0.17365E-05   -0.15500E-03 59952   0.187E-01    0.110E-01
DAV:   9    -0.304923025497E+03    0.10042E-03   -0.54024E-04 40656   0.137E-01    0.615E-02
DAV:  10    -0.304923036137E+03   -0.10640E-04   -0.19373E-04 27096   0.900E-02
  28 F= -.30492304E+03 E0= -.30491942E+03  d E =-.532623E-02
 curvature:  -1.14 expect dE=-0.115E-01 dE for cont linesearch -0.209E-04
 trial: gam= 1.46988 g(F)=  0.188E-02 g(S)=  0.820E-02 ort =-0.426E-03 (trialstep = 0.209E+00)
 search vector abs. value=  0.303E-01
 bond charge predicted
       N       E                     dE             d eps       ncg     rms          rms(c)
DAV:   1    -0.304924142729E+03   -0.11172E-02   -0.16054E-01 41352   0.147E+00    0.228E-01
DAV:   2    -0.304925458461E+03   -0.13157E-02   -0.19742E-02 69132   0.651E-01    0.218E-01
DAV:   3    -0.304925532647E+03   -0.74186E-04   -0.92596E-03 69288   0.474E-01    0.241E-01
DAV:   4    -0.304925079746E+03    0.45290E-03   -0.44328E-03 60396   0.325E-01    0.124E-01
DAV:   5    -0.304924926738E+03    0.15301E-03   -0.19662E-03 59724   0.190E-01    0.921E-02
DAV:   6    -0.304924907314E+03    0.19424E-04   -0.12968E-03 53532   0.174E-01    0.840E-02
DAV:   7    -0.304924841623E+03    0.65690E-04   -0.55445E-04 42240   0.130E-01
  29 F= -.30492484E+03 E0= -.30492127E+03  d E =-.180549E-02
 ZBRENT: can't locate minimum, use default step
 trial-energy change:   -0.001805  1 .order   -0.001738   -0.001980   -0.001496
 step:   0.8370(harm=  0.8564)  dis= 0.00755  next Energy=  -304.927088 (dE=-0.405E-02)
 bond charge predicted
       N       E                     dE             d eps       ncg     rms          rms(c)
DAV:   1    -0.304920221366E+03    0.46859E-02   -0.14401E+00 41292   0.441E+00    0.663E-01
DAV:   2    -0.304933011593E+03   -0.12790E-01   -0.17567E-01 67848   0.199E+00    0.725E-01
DAV:   3    -0.304932640025E+03    0.37157E-03   -0.91072E-02 68484   0.152E+00    0.734E-01
DAV:   4    -0.304928452355E+03    0.41877E-02   -0.37329E-02 67680   0.930E-01    0.326E-01
DAV:   5    -0.304927056867E+03    0.13955E-02   -0.14172E-02 70608   0.448E-01    0.209E-01
DAV:   6    -0.304927122960E+03   -0.66093E-04   -0.92936E-03 61296   0.444E-01    0.247E-01
DAV:   7    -0.304926772757E+03    0.35020E-03   -0.57054E-03 64104   0.345E-01    0.148E-01
DAV:   8    -0.304926603085E+03    0.16967E-03   -0.21454E-03 60984   0.217E-01    0.887E-02
DAV:   9    -0.304926550788E+03    0.52297E-04   -0.66025E-04 45528   0.139E-01
  30 F= -.30492655E+03 E0= -.30492305E+03  d E =-.351465E-02
 curvature:  -1.37 expect dE=-0.702E-02 dE for cont linesearch -0.223E-04
 trial: gam= 0.44391 g(F)=  0.490E-02 g(S)=  0.221E-03 ort =-0.703E-03 (trialstep = 0.335E+00)
 search vector abs. value=  0.105E-01
 bond charge predicted
       N       E                     dE             d eps       ncg     rms          rms(c)
DAV:   1    -0.304926801092E+03   -0.19801E-03   -0.15969E-01 42276   0.139E+00    0.115E-01
DAV:   2    -0.304928127584E+03   -0.13265E-02   -0.14165E-02 65580   0.545E-01    0.119E-01
DAV:   3    -0.304928144239E+03   -0.16655E-04   -0.29140E-03 67992   0.273E-01    0.123E-01
DAV:   4    -0.304928017268E+03    0.12697E-03   -0.87054E-04 48960   0.161E-01    0.573E-02
DAV:   5    -0.304927993617E+03    0.23651E-04   -0.19052E-04 29244   0.974E-02
  31 F= -.30492799E+03 E0= -.30492451E+03  d E =-.144283E-02
 ZBRENT: can't locate minimum, use default step
 trial-energy change:   -0.001443  1 .order   -0.001509   -0.001610   -0.001409
 step:   1.3393(harm=  2.6815)  dis= 0.00794  next Energy=  -304.932996 (dE=-0.645E-02)
 bond charge predicted
       N       E                     dE             d eps       ncg     rms          rms(c)
DAV:   1    -0.304920300489E+03    0.77168E-02   -0.14325E+00 42264   0.416E+00    0.310E-01
DAV:   2    -0.304932451426E+03   -0.12151E-01   -0.12930E-01 66576   0.168E+00    0.413E-01
DAV:   3    -0.304932047427E+03    0.40400E-03   -0.27700E-02 68616   0.854E-01    0.348E-01
DAV:   4    -0.304931102792E+03    0.94464E-03   -0.71886E-03 61704   0.427E-01    0.169E-01
DAV:   5    -0.304931001522E+03    0.10127E-03   -0.22199E-03 62004   0.223E-01    0.153E-01
DAV:   6    -0.304930999674E+03    0.18485E-05   -0.18474E-03 59400   0.229E-01    0.150E-01
DAV:   7    -0.304930902653E+03    0.97020E-04   -0.19347E-03 65940   0.211E-01    0.105E-01
DAV:   8    -0.304930790326E+03    0.11233E-03   -0.98932E-04 52560   0.160E-01    0.614E-02
DAV:   9    -0.304930744866E+03    0.45461E-04   -0.30687E-04 35220   0.107E-01
  32 F= -.30493074E+03 E0= -.30492733E+03  d E =-.419408E-02
 curvature:  -1.96 expect dE=-0.767E-02 dE for cont linesearch -0.506E-03
 trial: gam= 0.31542 g(F)=  0.127E-02 g(S)=  0.263E-02 ort = 0.164E-02 (trialstep = 0.536E+00)
 search vector abs. value=  0.598E-02
 bond charge predicted
       N       E                     dE             d eps       ncg     rms          rms(c)
DAV:   1    -0.304933755212E+03   -0.29649E-02   -0.26651E-01 55272   0.230E+00    0.510E-01
DAV:   2    -0.304935302412E+03   -0.15472E-02   -0.57240E-02 75024   0.107E+00    0.397E-01
DAV:   3    -0.304933799823E+03    0.15026E-02   -0.36785E-02 70416   0.666E-01    0.323E-01
DAV:   4    -0.304933188564E+03    0.61126E-03   -0.17937E-02 62676   0.539E-01    0.304E-01
DAV:   5    -0.304932556378E+03    0.63219E-03   -0.11303E-02 63744   0.496E-01    0.205E-01
DAV:   6    -0.304932221272E+03    0.33511E-03   -0.45557E-03 65712   0.297E-01    0.116E-01
DAV:   7    -0.304932143642E+03    0.77630E-04   -0.20045E-03 61632   0.206E-01    0.875E-02
DAV:   8    -0.304932131406E+03    0.12237E-04   -0.11214E-03 53316   0.172E-01    0.755E-02
DAV:   9    -0.304932071075E+03    0.60331E-04   -0.26896E-04 33288   0.107E-01
  33 F= -.30493207E+03 E0= -.30492869E+03  d E =-.132621E-02
 trial-energy change:   -0.001326  1 .order   -0.001392   -0.002368   -0.000416
 step:   0.6498(harm=  0.6498)  dis= 0.00228  next Energy=  -304.932181 (dE=-0.144E-02)
 bond charge predicted
       N       E                     dE             d eps       ncg     rms          rms(c)
DAV:   1    -0.304932129957E+03    0.14482E-05   -0.12181E-02 55884   0.491E-01    0.993E-02
DAV:   2    -0.304932248722E+03   -0.11876E-03   -0.22702E-03 68124   0.240E-01    0.999E-02
DAV:   3    -0.304932228874E+03    0.19848E-04   -0.19082E-03 58956   0.202E-01    0.104E-01
DAV:   4    -0.304932163058E+03    0.65816E-04   -0.83939E-04 48180   0.156E-01
  34 F= -.30493216E+03 E0= -.30492878E+03  d E =-.141819E-02
 curvature:  -0.44 expect dE=-0.515E-03 dE for cont linesearch -0.450E-05
 trial: gam= 0.35030 g(F)=  0.770E-03 g(S)=  0.402E-03 ort = 0.247E-03 (trialstep = 0.559E+00)
 search vector abs. value=  0.208E-02
 bond charge predicted
       N       E                     dE             d eps       ncg     rms          rms(c)
DAV:   1    -0.304932067318E+03    0.16156E-03   -0.94734E-02 42360   0.107E+00    0.802E-02
DAV:   2    -0.304932902859E+03   -0.83554E-03   -0.89244E-03 66672   0.460E-01    0.100E-01
DAV:   3    -0.304932907542E+03   -0.46834E-05   -0.14884E-03 60444   0.212E-01    0.905E-02
DAV:   4    -0.304932826075E+03    0.81468E-04   -0.24517E-04 31788   0.116E-01
  35 F= -.30493283E+03 E0= -.30492950E+03  d E =-.663016E-03
 ZBRENT: can't locate minimum, use default step
 trial-energy change:   -0.000663  1 .order   -0.000683   -0.000703   -0.000662
 step:   2.2341(harm=  9.6538)  dis= 0.00592  next Energy=  -304.938239 (dE=-0.608E-02)
 bond charge predicted
       N       E                     dE             d eps       ncg     rms          rms(c)
DAV:   1    -0.304927577944E+03    0.53296E-02   -0.84610E-01 42336   0.320E+00    0.248E-01
DAV:   2    -0.304935634019E+03   -0.80561E-02   -0.81937E-02 66948   0.143E+00    0.416E-01
DAV:   3    -0.304934634431E+03    0.99959E-03   -0.16736E-02 68460   0.711E-01    0.231E-01
DAV:   4    -0.304934240588E+03    0.39384E-03   -0.31671E-03 62856   0.297E-01    0.138E-01
DAV:   5    -0.304934154500E+03    0.86089E-04   -0.14821E-03 57564   0.171E-01    0.124E-01
DAV:   6    -0.304934208339E+03   -0.53839E-04   -0.14506E-03 54912   0.203E-01    0.133E-01
DAV:   7    -0.304934082370E+03    0.12597E-03   -0.14910E-03 59292   0.197E-01    0.760E-02
DAV:   8    -0.304934018098E+03    0.64272E-04   -0.56526E-04 44076   0.124E-01
  36 F= -.30493402E+03 E0= -.30493081E+03  d E =-.185504E-02
 curvature:  -2.67 expect dE=-0.326E-02 dE for cont linesearch -0.260E-03
 trial: gam= 0.00000 g(F)=  0.803E-03 g(S)=  0.420E-03 ort = 0.450E-03 (trialstep = 0.894E+00)
 search vector abs. value=  0.122E-02
 bond charge predicted
       N       E                     dE             d eps       ncg     rms          rms(c)
DAV:   1    -0.304935046347E+03   -0.96398E-03   -0.13945E-01 52332   0.158E+00    0.348E-01
DAV:   2    -0.304936261927E+03   -0.12156E-02   -0.28776E-02 73092   0.755E-01    0.324E-01
DAV:   3    -0.304935421218E+03    0.84071E-03   -0.22122E-02 72312   0.556E-01    0.278E-01
DAV:   4    -0.304935124442E+03    0.29678E-03   -0.93652E-03 60168   0.461E-01    0.242E-01
DAV:   5    -0.304934602184E+03    0.52226E-03   -0.59002E-03 62976   0.357E-01    0.140E-01
DAV:   6    -0.304934424115E+03    0.17807E-03   -0.24964E-03 61812   0.231E-01    0.868E-02
DAV:   7    -0.304934364943E+03    0.59173E-04   -0.90638E-04 53244   0.155E-01
  37 F= -.30493436E+03 E0= -.30493117E+03  d E =-.346845E-03
 trial-energy change:   -0.000347  1 .order   -0.000475   -0.001093    0.000143
 step:   0.7905(harm=  0.7905)  dis= 0.00137  next Energy=  -304.934502 (dE=-0.484E-03)
 bond charge predicted
       N       E                     dE             d eps       ncg     rms          rms(c)
DAV:   1    -0.304934409926E+03    0.14189E-04   -0.26050E-03 59508   0.221E-01    0.706E-02
DAV:   2    -0.304934777685E+03   -0.36776E-03   -0.28537E-03 68580   0.266E-01    0.186E-01
DAV:   3    -0.304934413774E+03    0.36391E-03   -0.22141E-03 58908   0.230E-01    0.564E-02
DAV:   4    -0.304934378842E+03    0.34932E-04   -0.22025E-04 32592   0.864E-02
  38 F= -.30493438E+03 E0= -.30493117E+03  d E =-.360744E-03
 curvature:  -0.40 expect dE=-0.624E-03 dE for cont linesearch -0.140E-05
 trial: gam= 1.34514 g(F)=  0.483E-03 g(S)=  0.110E-02 ort =-0.659E-04 (trialstep = 0.295E+00)
 search vector abs. value=  0.362E-02
 reached required accuracy - stopping structural energy minimisation
 writing wavefunctions
VASP is done!
