<?xml version="1.0" encoding="ISO-8859-1"?>
<modeling>
 <generator>
  <i name="program" type="string">vasp </i>
  <i name="version" type="string">5.4.4.18Apr17-6-g9f103f2a35  </i>
  <i name="subversion" type="string">(build Aug 09 2018 16:20:53) complex            parallel </i>
  <i name="platform" type="string">LinuxIFC </i>
  <i name="date" type="string">2020 05 01 </i>
  <i name="time" type="string">04:50:01 </i>
 </generator>
 <incar>
  <i type="string" name="SYSTEM"> Nb - Mo - Ta - Ti - V SQS</i>
  <i type="string" name="PREC">normal</i>
  <i type="int" name="ICHARG">     0</i>
  <i type="int" name="IBRION">     2</i>
  <i type="int" name="NSW">    50</i>
  <i type="int" name="ISIF">     3</i>
  <i name="ENCUT">    600.00000000</i>
  <i type="string" name="LREAL"> Auto</i>
  <i type="int" name="ISMEAR">     1</i>
  <i name="SIGMA">      0.20000000</i>
  <v type="int" name="KPOINT_BSE">    -1     0     0     0</v>
  <i type="string" name="GGA"> PS</i>
 </incar>
 <structure name="primitive_cell" >
  <crystal>
   <varray name="basis" >
    <v>      -3.16000000      -3.16000000      -3.16000000 </v>
    <v>       1.58000000       1.58000000      -7.90000000 </v>
    <v>       7.90000000      -7.90000000      -1.58000000 </v>
   </varray>
   <i name="volume">    473.31744000 </i>
   <varray name="rec_basis" >
    <v>      -0.13713080      -0.12658228      -0.05274262 </v>
    <v>       0.04219409       0.06329114      -0.10548523 </v>
    <v>       0.06329114      -0.06329114       0.00000000 </v>
   </varray>
  </crystal>
  <varray name="positions" >
   <v>      -0.03333333      -0.06666667       0.40000000 </v>
   <v>       0.30000000      -0.40000000       0.40000000 </v>
   <v>       0.06666667       0.13333333       0.20000000 </v>
   <v>       0.46666667      -0.06666667       0.40000000 </v>
   <v>      -0.13333333      -0.26666667      -0.40000000 </v>
   <v>       0.03333333       0.06666667      -0.40000000 </v>
   <v>      -0.36666667       0.26666667       0.40000000 </v>
   <v>       0.40000000      -0.20000000       0.20000000 </v>
   <v>      -0.20000000      -0.40000000       0.40000000 </v>
   <v>      -0.43333333       0.13333333       0.20000000 </v>
   <v>       0.36666667      -0.26666667      -0.40000000 </v>
   <v>       0.13333333       0.26666667       0.40000000 </v>
   <v>      -0.46666667       0.06666667      -0.40000000 </v>
   <v>       0.23333333       0.46666667       0.20000000 </v>
   <v>       0.20000000       0.40000000      -0.40000000 </v>
   <v>       0.00000000       0.00000000       0.00000000 </v>
   <v>      -0.06666667      -0.13333333      -0.20000000 </v>
   <v>      -0.30000000       0.40000000      -0.40000000 </v>
   <v>      -0.26666667       0.46666667       0.20000000 </v>
   <v>       0.33333333      -0.33333333       0.00000000 </v>
   <v>       0.43333333      -0.13333333      -0.20000000 </v>
   <v>      -0.50000000       0.00000000       0.00000000 </v>
   <v>       0.26666667      -0.46666667      -0.20000000 </v>
   <v>      -0.33333333       0.33333333       0.00000000 </v>
   <v>      -0.40000000       0.20000000      -0.20000000 </v>
   <v>      -0.16666667      -0.33333333       0.00000000 </v>
   <v>      -0.23333333      -0.46666667      -0.20000000 </v>
   <v>       0.16666667       0.33333333       0.00000000 </v>
   <v>       0.10000000       0.20000000      -0.20000000 </v>
  </varray>
 </structure>
 <varray name="primitive_index" >
  <v type="int" >        1 </v>
  <v type="int" >       17 </v>
  <v type="int" >       23 </v>
  <v type="int" >       19 </v>
  <v type="int" >       18 </v>
  <v type="int" >        6 </v>
  <v type="int" >        2 </v>
  <v type="int" >       15 </v>
  <v type="int" >        7 </v>
  <v type="int" >       14 </v>
  <v type="int" >       10 </v>
  <v type="int" >       11 </v>
  <v type="int" >       27 </v>
  <v type="int" >       29 </v>
  <v type="int" >       22 </v>
  <v type="int" >        4 </v>
  <v type="int" >       13 </v>
  <v type="int" >       25 </v>
  <v type="int" >        8 </v>
  <v type="int" >       28 </v>
  <v type="int" >       16 </v>
  <v type="int" >        3 </v>
  <v type="int" >       21 </v>
  <v type="int" >        9 </v>
  <v type="int" >       26 </v>
  <v type="int" >       12 </v>
  <v type="int" >       24 </v>
  <v type="int" >       20 </v>
  <v type="int" >        5 </v>
 </varray>
 <kpoints>
  <generation param="Gamma">
   <v type="int" name="divisions">       7        7        7 </v>
   <v name="usershift">      0.00000000       0.00000000       0.00000000 </v>
   <v name="genvec1">      0.14285714       0.00000000       0.00000000 </v>
   <v name="genvec2">     -0.00000000       0.14285714       0.00000000 </v>
   <v name="genvec3">      0.00000000       0.00000000       0.14285714 </v>
   <v name="shift">      0.00000000       0.00000000       0.00000000 </v>
  </generation>
  <varray name="kpointlist" >
   <v>       0.00000000       0.00000000       0.00000000 </v>
   <v>       0.14285714       0.00000000      -0.00000000 </v>
   <v>       0.28571429       0.00000000       0.00000000 </v>
   <v>       0.42857143       0.00000000      -0.00000000 </v>
   <v>      -0.00000000       0.14285714       0.00000000 </v>
   <v>       0.14285714       0.14285714      -0.00000000 </v>
   <v>       0.28571429       0.14285714       0.00000000 </v>
   <v>       0.42857143       0.14285714      -0.00000000 </v>
   <v>      -0.42857143       0.14285714       0.00000000 </v>
   <v>      -0.28571429       0.14285714       0.00000000 </v>
   <v>      -0.14285714       0.14285714       0.00000000 </v>
   <v>       0.00000000       0.28571429      -0.00000000 </v>
   <v>       0.14285714       0.28571429      -0.00000000 </v>
   <v>       0.28571429       0.28571429      -0.00000000 </v>
   <v>       0.42857143       0.28571429      -0.00000000 </v>
   <v>      -0.42857143       0.28571429      -0.00000000 </v>
   <v>      -0.28571429       0.28571429      -0.00000000 </v>
   <v>      -0.14285714       0.28571429      -0.00000000 </v>
   <v>      -0.00000000       0.42857143      -0.00000000 </v>
   <v>       0.14285714       0.42857143       0.00000000 </v>
   <v>       0.28571429       0.42857143       0.00000000 </v>
   <v>       0.42857143       0.42857143      -0.00000000 </v>
   <v>      -0.42857143       0.42857143       0.00000000 </v>
   <v>      -0.28571429       0.42857143      -0.00000000 </v>
   <v>      -0.14285714       0.42857143      -0.00000000 </v>
   <v>       0.00000000       0.00000000       0.14285714 </v>
   <v>       0.14285714       0.00000000       0.14285714 </v>
   <v>       0.28571429       0.00000000       0.14285714 </v>
   <v>       0.42857143       0.00000000       0.14285714 </v>
   <v>      -0.42857143       0.00000000       0.14285714 </v>
   <v>      -0.28571429       0.00000000       0.14285714 </v>
   <v>      -0.14285714      -0.00000000       0.14285714 </v>
   <v>      -0.00000000       0.14285714       0.14285714 </v>
   <v>       0.14285714       0.14285714       0.14285714 </v>
   <v>       0.28571429       0.14285714       0.14285714 </v>
   <v>       0.42857143       0.14285714       0.14285714 </v>
   <v>      -0.42857143       0.14285714       0.14285714 </v>
   <v>      -0.28571429       0.14285714       0.14285714 </v>
   <v>      -0.14285714       0.14285714       0.14285714 </v>
   <v>      -0.00000000       0.28571429       0.14285714 </v>
   <v>       0.14285714       0.28571429       0.14285714 </v>
   <v>       0.28571429       0.28571429       0.14285714 </v>
   <v>       0.42857143       0.28571429       0.14285714 </v>
   <v>      -0.42857143       0.28571429       0.14285714 </v>
   <v>      -0.28571429       0.28571429       0.14285714 </v>
   <v>      -0.14285714       0.28571429       0.14285714 </v>
   <v>       0.00000000       0.42857143       0.14285714 </v>
   <v>       0.14285714       0.42857143       0.14285714 </v>
   <v>       0.28571429       0.42857143       0.14285714 </v>
   <v>       0.42857143       0.42857143       0.14285714 </v>
   <v>      -0.42857143       0.42857143       0.14285714 </v>
   <v>      -0.28571429       0.42857143       0.14285714 </v>
   <v>      -0.14285714       0.42857143       0.14285714 </v>
   <v>       0.00000000      -0.42857143       0.14285714 </v>
   <v>       0.14285714      -0.42857143       0.14285714 </v>
   <v>       0.28571429      -0.42857143       0.14285714 </v>
   <v>       0.42857143      -0.42857143       0.14285714 </v>
   <v>      -0.42857143      -0.42857143       0.14285714 </v>
   <v>      -0.28571429      -0.42857143       0.14285714 </v>
   <v>      -0.14285714      -0.42857143       0.14285714 </v>
   <v>       0.00000000      -0.28571429       0.14285714 </v>
   <v>       0.14285714      -0.28571429       0.14285714 </v>
   <v>       0.28571429      -0.28571429       0.14285714 </v>
   <v>       0.42857143      -0.28571429       0.14285714 </v>
   <v>      -0.42857143      -0.28571429       0.14285714 </v>
   <v>      -0.28571429      -0.28571429       0.14285714 </v>
   <v>      -0.14285714      -0.28571429       0.14285714 </v>
   <v>       0.00000000      -0.14285714       0.14285714 </v>
   <v>       0.14285714      -0.14285714       0.14285714 </v>
   <v>       0.28571429      -0.14285714       0.14285714 </v>
   <v>       0.42857143      -0.14285714       0.14285714 </v>
   <v>      -0.42857143      -0.14285714       0.14285714 </v>
   <v>      -0.28571429      -0.14285714       0.14285714 </v>
   <v>      -0.14285714      -0.14285714       0.14285714 </v>
   <v>       0.00000000       0.00000000       0.28571429 </v>
   <v>       0.14285714       0.00000000       0.28571429 </v>
   <v>       0.28571429       0.00000000       0.28571429 </v>
   <v>       0.42857143       0.00000000       0.28571429 </v>
   <v>      -0.42857143      -0.00000000       0.28571429 </v>
   <v>      -0.28571429      -0.00000000       0.28571429 </v>
   <v>      -0.14285714      -0.00000000       0.28571429 </v>
   <v>      -0.00000000       0.14285714       0.28571429 </v>
   <v>       0.14285714       0.14285714       0.28571429 </v>
   <v>       0.28571429       0.14285714       0.28571429 </v>
   <v>       0.42857143       0.14285714       0.28571429 </v>
   <v>      -0.42857143       0.14285714       0.28571429 </v>
   <v>      -0.28571429       0.14285714       0.28571429 </v>
   <v>      -0.14285714       0.14285714       0.28571429 </v>
   <v>      -0.00000000       0.28571429       0.28571429 </v>
   <v>       0.14285714       0.28571429       0.28571429 </v>
   <v>       0.28571429       0.28571429       0.28571429 </v>
   <v>       0.42857143       0.28571429       0.28571429 </v>
   <v>      -0.42857143       0.28571429       0.28571429 </v>
   <v>      -0.28571429       0.28571429       0.28571429 </v>
   <v>      -0.14285714       0.28571429       0.28571429 </v>
   <v>       0.00000000       0.42857143       0.28571429 </v>
   <v>       0.14285714       0.42857143       0.28571429 </v>
   <v>       0.28571429       0.42857143       0.28571429 </v>
   <v>       0.42857143       0.42857143       0.28571429 </v>
   <v>      -0.42857143       0.42857143       0.28571429 </v>
   <v>      -0.28571429       0.42857143       0.28571429 </v>
   <v>      -0.14285714       0.42857143       0.28571429 </v>
   <v>      -0.00000000      -0.42857143       0.28571429 </v>
   <v>       0.14285714      -0.42857143       0.28571429 </v>
   <v>       0.28571429      -0.42857143       0.28571429 </v>
   <v>       0.42857143      -0.42857143       0.28571429 </v>
   <v>      -0.42857143      -0.42857143       0.28571429 </v>
   <v>      -0.28571429      -0.42857143       0.28571429 </v>
   <v>      -0.14285714      -0.42857143       0.28571429 </v>
   <v>       0.00000000      -0.28571429       0.28571429 </v>
   <v>       0.14285714      -0.28571429       0.28571429 </v>
   <v>       0.28571429      -0.28571429       0.28571429 </v>
   <v>       0.42857143      -0.28571429       0.28571429 </v>
   <v>      -0.42857143      -0.28571429       0.28571429 </v>
   <v>      -0.28571429      -0.28571429       0.28571429 </v>
   <v>      -0.14285714      -0.28571429       0.28571429 </v>
   <v>       0.00000000      -0.14285714       0.28571429 </v>
   <v>       0.14285714      -0.14285714       0.28571429 </v>
   <v>       0.28571429      -0.14285714       0.28571429 </v>
   <v>       0.42857143      -0.14285714       0.28571429 </v>
   <v>      -0.42857143      -0.14285714       0.28571429 </v>
   <v>      -0.28571429      -0.14285714       0.28571429 </v>
   <v>      -0.14285714      -0.14285714       0.28571429 </v>
   <v>       0.00000000       0.00000000       0.42857143 </v>
   <v>       0.14285714       0.00000000       0.42857143 </v>
   <v>       0.28571429       0.00000000       0.42857143 </v>
   <v>       0.42857143      -0.00000000       0.42857143 </v>
   <v>      -0.42857143      -0.00000000       0.42857143 </v>
   <v>      -0.28571429       0.00000000       0.42857143 </v>
   <v>      -0.14285714      -0.00000000       0.42857143 </v>
   <v>      -0.00000000       0.14285714       0.42857143 </v>
   <v>       0.14285714       0.14285714       0.42857143 </v>
   <v>       0.28571429       0.14285714       0.42857143 </v>
   <v>       0.42857143       0.14285714       0.42857143 </v>
   <v>      -0.42857143       0.14285714       0.42857143 </v>
   <v>      -0.28571429       0.14285714       0.42857143 </v>
   <v>      -0.14285714       0.14285714       0.42857143 </v>
   <v>       0.00000000       0.28571429       0.42857143 </v>
   <v>       0.14285714       0.28571429       0.42857143 </v>
   <v>       0.28571429       0.28571429       0.42857143 </v>
   <v>       0.42857143       0.28571429       0.42857143 </v>
   <v>      -0.42857143       0.28571429       0.42857143 </v>
   <v>      -0.28571429       0.28571429       0.42857143 </v>
   <v>      -0.14285714       0.28571429       0.42857143 </v>
   <v>       0.00000000       0.42857143       0.42857143 </v>
   <v>       0.14285714       0.42857143       0.42857143 </v>
   <v>       0.28571429       0.42857143       0.42857143 </v>
   <v>       0.42857143       0.42857143       0.42857143 </v>
   <v>      -0.42857143       0.42857143       0.42857143 </v>
   <v>      -0.28571429       0.42857143       0.42857143 </v>
   <v>      -0.14285714       0.42857143       0.42857143 </v>
   <v>       0.00000000      -0.42857143       0.42857143 </v>
   <v>       0.14285714      -0.42857143       0.42857143 </v>
   <v>       0.28571429      -0.42857143       0.42857143 </v>
   <v>       0.42857143      -0.42857143       0.42857143 </v>
   <v>      -0.42857143      -0.42857143       0.42857143 </v>
   <v>      -0.28571429      -0.42857143       0.42857143 </v>
   <v>      -0.14285714      -0.42857143       0.42857143 </v>
   <v>      -0.00000000      -0.28571429       0.42857143 </v>
   <v>       0.14285714      -0.28571429       0.42857143 </v>
   <v>       0.28571429      -0.28571429       0.42857143 </v>
   <v>       0.42857143      -0.28571429       0.42857143 </v>
   <v>      -0.42857143      -0.28571429       0.42857143 </v>
   <v>      -0.28571429      -0.28571429       0.42857143 </v>
   <v>      -0.14285714      -0.28571429       0.42857143 </v>
   <v>       0.00000000      -0.14285714       0.42857143 </v>
   <v>       0.14285714      -0.14285714       0.42857143 </v>
   <v>       0.28571429      -0.14285714       0.42857143 </v>
   <v>       0.42857143      -0.14285714       0.42857143 </v>
   <v>      -0.42857143      -0.14285714       0.42857143 </v>
   <v>      -0.28571429      -0.14285714       0.42857143 </v>
   <v>      -0.14285714      -0.14285714       0.42857143 </v>
  </varray>
  <varray name="weights" >
   <v>       0.00291545 </v>
   <v>       0.00583090 </v>
   <v>       0.00583090 </v>
   <v>       0.00583090 </v>
   <v>       0.00583090 </v>
   <v>       0.00583090 </v>
   <v>       0.00583090 </v>
   <v>       0.00583090 </v>
   <v>       0.00583090 </v>
   <v>       0.00583090 </v>
   <v>       0.00583090 </v>
   <v>       0.00583090 </v>
   <v>       0.00583090 </v>
   <v>       0.00583090 </v>
   <v>       0.00583090 </v>
   <v>       0.00583090 </v>
   <v>       0.00583090 </v>
   <v>       0.00583090 </v>
   <v>       0.00583090 </v>
   <v>       0.00583090 </v>
   <v>       0.00583090 </v>
   <v>       0.00583090 </v>
   <v>       0.00583090 </v>
   <v>       0.00583090 </v>
   <v>       0.00583090 </v>
   <v>       0.00583090 </v>
   <v>       0.00583090 </v>
   <v>       0.00583090 </v>
   <v>       0.00583090 </v>
   <v>       0.00583090 </v>
   <v>       0.00583090 </v>
   <v>       0.00583090 </v>
   <v>       0.00583090 </v>
   <v>       0.00583090 </v>
   <v>       0.00583090 </v>
   <v>       0.00583090 </v>
   <v>       0.00583090 </v>
   <v>       0.00583090 </v>
   <v>       0.00583090 </v>
   <v>       0.00583090 </v>
   <v>       0.00583090 </v>
   <v>       0.00583090 </v>
   <v>       0.00583090 </v>
   <v>       0.00583090 </v>
   <v>       0.00583090 </v>
   <v>       0.00583090 </v>
   <v>       0.00583090 </v>
   <v>       0.00583090 </v>
   <v>       0.00583090 </v>
   <v>       0.00583090 </v>
   <v>       0.00583090 </v>
   <v>       0.00583090 </v>
   <v>       0.00583090 </v>
   <v>       0.00583090 </v>
   <v>       0.00583090 </v>
   <v>       0.00583090 </v>
   <v>       0.00583090 </v>
   <v>       0.00583090 </v>
   <v>       0.00583090 </v>
   <v>       0.00583090 </v>
   <v>       0.00583090 </v>
   <v>       0.00583090 </v>
   <v>       0.00583090 </v>
   <v>       0.00583090 </v>
   <v>       0.00583090 </v>
   <v>       0.00583090 </v>
   <v>       0.00583090 </v>
   <v>       0.00583090 </v>
   <v>       0.00583090 </v>
   <v>       0.00583090 </v>
   <v>       0.00583090 </v>
   <v>       0.00583090 </v>
   <v>       0.00583090 </v>
   <v>       0.00583090 </v>
   <v>       0.00583090 </v>
   <v>       0.00583090 </v>
   <v>       0.00583090 </v>
   <v>       0.00583090 </v>
   <v>       0.00583090 </v>
   <v>       0.00583090 </v>
   <v>       0.00583090 </v>
   <v>       0.00583090 </v>
   <v>       0.00583090 </v>
   <v>       0.00583090 </v>
   <v>       0.00583090 </v>
   <v>       0.00583090 </v>
   <v>       0.00583090 </v>
   <v>       0.00583090 </v>
   <v>       0.00583090 </v>
   <v>       0.00583090 </v>
   <v>       0.00583090 </v>
   <v>       0.00583090 </v>
   <v>       0.00583090 </v>
   <v>       0.00583090 </v>
   <v>       0.00583090 </v>
   <v>       0.00583090 </v>
   <v>       0.00583090 </v>
   <v>       0.00583090 </v>
   <v>       0.00583090 </v>
   <v>       0.00583090 </v>
   <v>       0.00583090 </v>
   <v>       0.00583090 </v>
   <v>       0.00583090 </v>
   <v>       0.00583090 </v>
   <v>       0.00583090 </v>
   <v>       0.00583090 </v>
   <v>       0.00583090 </v>
   <v>       0.00583090 </v>
   <v>       0.00583090 </v>
   <v>       0.00583090 </v>
   <v>       0.00583090 </v>
   <v>       0.00583090 </v>
   <v>       0.00583090 </v>
   <v>       0.00583090 </v>
   <v>       0.00583090 </v>
   <v>       0.00583090 </v>
   <v>       0.00583090 </v>
   <v>       0.00583090 </v>
   <v>       0.00583090 </v>
   <v>       0.00583090 </v>
   <v>       0.00583090 </v>
   <v>       0.00583090 </v>
   <v>       0.00583090 </v>
   <v>       0.00583090 </v>
   <v>       0.00583090 </v>
   <v>       0.00583090 </v>
   <v>       0.00583090 </v>
   <v>       0.00583090 </v>
   <v>       0.00583090 </v>
   <v>       0.00583090 </v>
   <v>       0.00583090 </v>
   <v>       0.00583090 </v>
   <v>       0.00583090 </v>
   <v>       0.00583090 </v>
   <v>       0.00583090 </v>
   <v>       0.00583090 </v>
   <v>       0.00583090 </v>
   <v>       0.00583090 </v>
   <v>       0.00583090 </v>
   <v>       0.00583090 </v>
   <v>       0.00583090 </v>
   <v>       0.00583090 </v>
   <v>       0.00583090 </v>
   <v>       0.00583090 </v>
   <v>       0.00583090 </v>
   <v>       0.00583090 </v>
   <v>       0.00583090 </v>
   <v>       0.00583090 </v>
   <v>       0.00583090 </v>
   <v>       0.00583090 </v>
   <v>       0.00583090 </v>
   <v>       0.00583090 </v>
   <v>       0.00583090 </v>
   <v>       0.00583090 </v>
   <v>       0.00583090 </v>
   <v>       0.00583090 </v>
   <v>       0.00583090 </v>
   <v>       0.00583090 </v>
   <v>       0.00583090 </v>
   <v>       0.00583090 </v>
   <v>       0.00583090 </v>
   <v>       0.00583090 </v>
   <v>       0.00583090 </v>
   <v>       0.00583090 </v>
   <v>       0.00583090 </v>
   <v>       0.00583090 </v>
   <v>       0.00583090 </v>
   <v>       0.00583090 </v>
   <v>       0.00583090 </v>
   <v>       0.00583090 </v>
   <v>       0.00583090 </v>
   <v>       0.00583090 </v>
  </varray>
 </kpoints>
 <parameters>
  <separator name="general" >
   <i type="string" name="SYSTEM">Nb - Mo - Ta - Ti - V SQS</i>
   <i type="logical" name="LCOMPAT"> F  </i>
  </separator>
  <separator name="electronic" >
   <i type="string" name="PREC">normal</i>
   <i name="ENMAX">    600.00000000</i>
   <i name="ENAUG">    455.65900000</i>
   <i name="EDIFF">      0.00010000</i>
   <i type="int" name="IALGO">    38</i>
   <i type="int" name="IWAVPR">    11</i>
   <i type="int" name="NBANDS">   120</i>
   <i name="NELECT">    192.00000000</i>
   <i type="int" name="TURBO">     0</i>
   <i type="int" name="IRESTART">     0</i>
   <i type="int" name="NREBOOT">     0</i>
   <i type="int" name="NMIN">     0</i>
   <i name="EREF">      0.00000000</i>
   <separator name="electronic smearing" >
    <i type="int" name="ISMEAR">     1</i>
    <i name="SIGMA">      0.20000000</i>
    <i name="KSPACING">      0.50000000</i>
    <i type="logical" name="KGAMMA"> T  </i>
   </separator>
   <separator name="electronic projectors" >
    <i type="logical" name="LREAL"> T  </i>
    <v name="ROPT">     -0.00050000     -0.00050000     -0.00050000     -0.00050000     -0.00050000</v>
    <i type="int" name="LMAXPAW">  -100</i>
    <i type="int" name="LMAXMIX">     2</i>
    <i type="logical" name="NLSPLINE"> F  </i>
   </separator>
   <separator name="electronic startup" >
    <i type="int" name="ISTART">     0</i>
    <i type="int" name="ICHARG">     0</i>
    <i type="int" name="INIWAV">     1</i>
   </separator>
   <separator name="electronic spin" >
    <i type="int" name="ISPIN">     1</i>
    <i type="logical" name="LNONCOLLINEAR"> F  </i>
    <v name="MAGMOM">      1.00000000      1.00000000      1.00000000      1.00000000      1.00000000      1.00000000      1.00000000      1.00000000      1.00000000      1.00000000      1.00000000      1.00000000      1.00000000      1.00000000      1.00000000      1.00000000      1.00000000      1.00000000      1.00000000      1.00000000
      1.00000000      1.00000000      1.00000000      1.00000000      1.00000000      1.00000000      1.00000000      1.00000000      1.00000000</v>
    <i name="NUPDOWN">     -1.00000000</i>
    <i type="logical" name="LSORBIT"> F  </i>
    <v name="SAXIS">      0.00000000      0.00000000      1.00000000</v>
    <i type="logical" name="LSPIRAL"> F  </i>
    <v name="QSPIRAL">      0.00000000      0.00000000      0.00000000</v>
    <i type="logical" name="LZEROZ"> F  </i>
   </separator>
   <separator name="electronic exchange-correlation" >
    <i type="logical" name="LASPH"> F  </i>
    <i type="logical" name="LMETAGGA"> F  </i>
   </separator>
   <separator name="electronic convergence" >
    <i type="int" name="NELM">    60</i>
    <i type="int" name="NELMDL">    -5</i>
    <i type="int" name="NELMIN">     2</i>
    <i name="ENINI">    600.00000000</i>
    <separator name="electronic convergence detail" >
     <i type="logical" name="LDIAG"> T  </i>
     <i type="logical" name="LSUBROT"> F  </i>
     <i name="WEIMIN">      0.00100000</i>
     <i name="EBREAK">      0.00000021</i>
     <i name="DEPER">      0.30000000</i>
     <i type="int" name="NRMM">     4</i>
     <i name="TIME">      0.40000000</i>
    </separator>
   </separator>
   <separator name="electronic mixer" >
    <i name="AMIX">      0.40000000</i>
    <i name="BMIX">      1.00000000</i>
    <i name="AMIN">      0.10000000</i>
    <i name="AMIX_MAG">      1.60000000</i>
    <i name="BMIX_MAG">      1.00000000</i>
    <separator name="electronic mixer details" >
     <i type="int" name="IMIX">     4</i>
     <i type="logical" name="MIXFIRST"> F  </i>
     <i type="int" name="MAXMIX">   -45</i>
     <i name="WC">    100.00000000</i>
     <i type="int" name="INIMIX">     1</i>
     <i type="int" name="MIXPRE">     1</i>
     <i type="int" name="MREMOVE">     5</i>
    </separator>
   </separator>
   <separator name="electronic dipolcorrection" >
    <i type="logical" name="LDIPOL"> F  </i>
    <i type="logical" name="LMONO"> F  </i>
    <i type="int" name="IDIPOL">     0</i>
    <i name="EPSILON">      1.00000000</i>
    <v name="DIPOL">   -100.00000000   -100.00000000   -100.00000000</v>
    <i name="EFIELD">      0.00000000</i>
   </separator>
  </separator>
  <separator name="grids" >
   <i type="int" name="NGX">    36</i>
   <i type="int" name="NGY">    50</i>
   <i type="int" name="NGZ">    70</i>
   <i type="int" name="NGXF">    72</i>
   <i type="int" name="NGYF">   100</i>
   <i type="int" name="NGZF">   140</i>
   <i type="logical" name="ADDGRID"> F  </i>
  </separator>
  <separator name="ionic" >
   <i type="int" name="NSW">    50</i>
   <i type="int" name="IBRION">     2</i>
   <i type="int" name="MDALGO">     0</i>
   <i type="int" name="ISIF">     3</i>
   <i name="PSTRESS">      0.00000000</i>
   <i name="EDIFFG">      0.00100000</i>
   <i type="int" name="NFREE">     1</i>
   <i name="POTIM">      0.50000000</i>
   <i name="SMASS">     -3.00000000</i>
   <i name="SCALEE">      1.00000000</i>
  </separator>
  <separator name="ionic md" >
   <i name="TEBEG">      0.00010000</i>
   <i name="TEEND">      0.00010000</i>
   <i type="int" name="NBLOCK">     1</i>
   <i type="int" name="KBLOCK">    50</i>
   <i type="int" name="NPACO">   256</i>
   <i name="APACO">     16.00000000</i>
  </separator>
  <separator name="symmetry" >
   <i type="int" name="ISYM">     2</i>
   <i name="SYMPREC">      0.00001000</i>
  </separator>
  <separator name="dos" >
   <i type="int" name="LORBIT">     0</i>
   <v name="RWIGS">     -1.00000000     -1.00000000     -1.00000000     -1.00000000     -1.00000000</v>
   <i type="int" name="NEDOS">   301</i>
   <i name="EMIN">     10.00000000</i>
   <i name="EMAX">    -10.00000000</i>
   <i name="EFERMI">      0.00000000</i>
  </separator>
  <separator name="writing" >
   <i type="int" name="NWRITE">     2</i>
   <i type="logical" name="LWAVE"> T  </i>
   <i type="logical" name="LDOWNSAMPLE"> F  </i>
   <i type="logical" name="LCHARG"> T  </i>
   <i type="logical" name="LPARD"> F  </i>
   <i type="logical" name="LVTOT"> F  </i>
   <i type="logical" name="LVHAR"> F  </i>
   <i type="logical" name="LELF"> F  </i>
   <i type="logical" name="LOPTICS"> F  </i>
   <v name="STM">      0.00000000      0.00000000      0.00000000      0.00000000      0.00000000      0.00000000      0.00000000</v>
  </separator>
  <separator name="performance" >
   <i type="int" name="NPAR">    12</i>
   <i type="int" name="NSIM">     4</i>
   <i type="int" name="NBLK">    -1</i>
   <i type="logical" name="LPLANE"> T  </i>
   <i type="logical" name="LSCALAPACK"> T  </i>
   <i type="logical" name="LSCAAWARE"> F  </i>
   <i type="logical" name="LSCALU"> F  </i>
   <i type="logical" name="LASYNC"> F  </i>
   <i type="logical" name="LORBITALREAL"> F  </i>
  </separator>
  <separator name="miscellaneous" >
   <i type="int" name="IDIOT">     3</i>
   <i type="int" name="ISPECIAL">     0</i>
   <i type="logical" name="LMUSIC"> F  </i>
   <v name="POMASS">     92.91000000     95.94000000    180.94800000     47.88000000     50.94100000</v>
   <v name="DARWINR">      0.00000000      0.00000000      0.00000000      0.00000000      0.00000000</v>
   <v name="DARWINV">      1.00000000      1.00000000      1.00000000      1.00000000      1.00000000</v>
   <i type="logical" name="LCORR"> T  </i>
  </separator>
  <i type="logical" name="GGA_COMPAT"> T  </i>
  <i type="logical" name="LBERRY"> F  </i>
  <i type="int" name="ICORELEVEL">     0</i>
  <i type="logical" name="LDAU"> F  </i>
  <i type="int" name="I_CONSTRAINED_M">     0</i>
  <separator name="electronic exchange-correlation" >
   <i type="string" name="GGA">PS</i>
   <i type="int" name="VOSKOWN">     0</i>
   <i type="logical" name="LHFCALC"> F  </i>
   <i type="string" name="PRECFOCK"></i>
   <i type="logical" name="LSYMGRAD"> F  </i>
   <i type="logical" name="LHFONE"> F  </i>
   <i type="logical" name="LRHFCALC"> F  </i>
   <i type="logical" name="LTHOMAS"> F  </i>
   <i type="logical" name="LMODELHF"> F  </i>
   <i name="ENCUT4O">     -1.00000000</i>
   <i type="int" name="EXXOEP">     0</i>
   <i type="int" name="FOURORBIT">     0</i>
   <i name="AEXX">      0.00000000</i>
   <i name="HFALPHA">      0.00000000</i>
   <i name="MCALPHA">      0.00000000</i>
   <i name="ALDAX">      1.00000000</i>
   <i name="AGGAX">      1.00000000</i>
   <i name="ALDAC">      1.00000000</i>
   <i name="AGGAC">      1.00000000</i>
   <i type="int" name="NKREDX">     1</i>
   <i type="int" name="NKREDY">     1</i>
   <i type="int" name="NKREDZ">     1</i>
   <i type="logical" name="SHIFTRED"> F  </i>
   <i type="logical" name="ODDONLY"> F  </i>
   <i type="logical" name="EVENONLY"> F  </i>
   <i type="int" name="LMAXFOCK">     0</i>
   <i type="int" name="NMAXFOCKAE">     0</i>
   <i type="logical" name="LFOCKAEDFT"> F  </i>
   <i name="HFSCREEN">      0.00000000</i>
   <i name="HFSCREENC">      0.00000000</i>
   <i type="int" name="NBANDSGWLOW">     0</i>
  </separator>
  <separator name="vdW DFT" >
   <i type="logical" name="LUSE_VDW"> F  </i>
   <i name="Zab_VDW">     -0.84910000</i>
   <i name="PARAM1">      0.12340000</i>
   <i name="PARAM2">      1.00000000</i>
   <i name="PARAM3">      0.00000000</i>
  </separator>
  <separator name="model GW" >
   <i type="int" name="MODEL_GW">     0</i>
   <i name="MODEL_EPS0">      9.79277462</i>
   <i name="MODEL_ALPHA">      1.00000000</i>
  </separator>
  <separator name="linear response parameters" >
   <i type="logical" name="LEPSILON"> F  </i>
   <i type="logical" name="LRPA"> F  </i>
   <i type="logical" name="LNABLA"> F  </i>
   <i type="logical" name="LVEL"> F  </i>
   <i type="int" name="KINTER">     0</i>
   <i name="CSHIFT">      0.10000000</i>
   <i name="OMEGAMAX">     -1.00000000</i>
   <i name="DEG_THRESHOLD">      0.00200000</i>
   <i name="RTIME">     -0.10000000</i>
   <i name="WPLASMAI">      0.00000000</i>
   <v name="DFIELD">      0.00000000      0.00000000      0.00000000</v>
   <v name="WPLASMA">      0.00000000      0.00000000      0.00000000      0.00000000      0.00000000      0.00000000      0.00000000      0.00000000      0.00000000</v>
  </separator>
  <separator name="orbital magnetization" >
   <i type="logical" name="NUCIND"> F  </i>
   <v name="MAGPOS">      0.00000000      0.00000000      0.00000000</v>
   <i type="logical" name="LNICSALL"> T  </i>
   <i type="logical" name="ORBITALMAG"> F  </i>
   <i type="logical" name="LMAGBLOCH"> F  </i>
   <i type="logical" name="LCHIMAG"> F  </i>
   <i type="logical" name="LGAUGE"> T  </i>
   <i type="int" name="MAGATOM">     0</i>
   <v name="MAGDIPOL">      0.00000000      0.00000000      0.00000000</v>
   <v name="AVECCONST">      0.00000000      0.00000000      0.00000000</v>
  </separator>
  <separator name="response functions" >
   <i type="logical" name="LADDER"> F  </i>
   <i type="logical" name="LRPAFORCE"> F  </i>
   <i type="logical" name="LFXC"> F  </i>
   <i type="logical" name="LHARTREE"> T  </i>
   <i type="int" name="IBSE">     0</i>
   <v type="int" name="KPOINT">    -1     0     0     0</v>
   <i type="logical" name="LTCTE"> F  </i>
   <i type="logical" name="LTETE"> F  </i>
   <i type="logical" name="LTRIPLET"> F  </i>
   <i type="logical" name="LFXCEPS"> F  </i>
   <i type="logical" name="LFXHEG"> F  </i>
   <i type="int" name="NATURALO">     2</i>
   <i type="logical" name="L2ORDER"> F  </i>
   <i type="logical" name="LMP2LT"> F  </i>
   <i type="logical" name="LUSEW"> F  </i>
   <i name="ENCUTGW">     -2.00000000</i>
   <i name="ENCUTGWSOFT">     -2.00000000</i>
   <i name="ENCUTLF">     -1.00000000</i>
   <i type="int" name="LMAXMP2">    -1</i>
   <i name="SCISSOR">      0.00000000</i>
   <i type="int" name="NOMEGA">     0</i>
   <i type="int" name="NOMEGAR">     0</i>
   <i type="int" name="NBANDSGW">    -1</i>
   <i type="int" name="NBANDSO">    -1</i>
   <i type="int" name="NBANDSV">    -1</i>
   <i type="int" name="NELM">     1</i>
   <i type="int" name="NELMHF">     1</i>
   <i type="int" name="DIM">     3</i>
   <i type="int" name="ANTIRES">     0</i>
   <i name="OMEGAMAX">    -30.00000000</i>
   <i name="OMEGAMIN">    -30.00000000</i>
   <i name="OMEGATL">   -200.00000000</i>
   <i type="int" name="OMEGAGRID">   140</i>
   <i name="CSHIFT">     -0.10000000</i>
   <i type="logical" name="SELFENERGY"> F  </i>
   <i type="logical" name="LSPECTRAL"> F  </i>
   <i type="logical" name="LSPECTRALGW"> F  </i>
   <i type="logical" name="LSINGLES"> F  </i>
   <i type="logical" name="LFERMIGW"> F  </i>
   <i type="logical" name="ODDONLYGW"> F  </i>
   <i type="logical" name="EVENONLYGW"> F  </i>
   <i type="int" name="NKREDLFX">     1</i>
   <i type="int" name="NKREDLFY">     1</i>
   <i type="int" name="NKREDLFZ">     1</i>
   <i type="int" name="MAXMEM">  2800</i>
   <i type="int" name="TELESCOPE">     0</i>
   <i type="int" name="TAUPAR">     1</i>
   <i type="int" name="OMEGAPAR">    -1</i>
   <i name="LAMBDA">      1.00000000</i>
  </separator>
  <separator name="External order field" >
   <i name="OFIELD_KAPPA">      0.00000000</i>
   <v name="OFIELD_K">      0.00000000      0.00000000      0.00000000</v>
   <i name="OFIELD_Q6_NEAR">      0.00000000</i>
   <i name="OFIELD_Q6_FAR">      0.00000000</i>
   <i name="OFIELD_A">      0.00000000</i>
  </separator>
  <separator name="solvation model" >
   <i type="logical" name="LSOL"> F  </i>
  </separator>
 </parameters>
 <atominfo>
  <atoms>      29 </atoms>
  <types>       5 </types>
  <array name="atoms" >
   <dimension dim="1">ion</dimension>
   <field type="string">element</field>
   <field type="int">atomtype</field>
   <set>
    <rc><c>Nb</c><c>   1</c></rc>
    <rc><c>Nb</c><c>   1</c></rc>
    <rc><c>Nb</c><c>   1</c></rc>
    <rc><c>Nb</c><c>   1</c></rc>
    <rc><c>Nb</c><c>   1</c></rc>
    <rc><c>Nb</c><c>   1</c></rc>
    <rc><c>Mo</c><c>   2</c></rc>
    <rc><c>Mo</c><c>   2</c></rc>
    <rc><c>Mo</c><c>   2</c></rc>
    <rc><c>Mo</c><c>   2</c></rc>
    <rc><c>Mo</c><c>   2</c></rc>
    <rc><c>Ta</c><c>   3</c></rc>
    <rc><c>Ta</c><c>   3</c></rc>
    <rc><c>Ta</c><c>   3</c></rc>
    <rc><c>Ta</c><c>   3</c></rc>
    <rc><c>Ta</c><c>   3</c></rc>
    <rc><c>Ta</c><c>   3</c></rc>
    <rc><c>Ti</c><c>   4</c></rc>
    <rc><c>Ti</c><c>   4</c></rc>
    <rc><c>Ti</c><c>   4</c></rc>
    <rc><c>Ti</c><c>   4</c></rc>
    <rc><c>Ti</c><c>   4</c></rc>
    <rc><c>Ti</c><c>   4</c></rc>
    <rc><c>V </c><c>   5</c></rc>
    <rc><c>V </c><c>   5</c></rc>
    <rc><c>V </c><c>   5</c></rc>
    <rc><c>V </c><c>   5</c></rc>
    <rc><c>V </c><c>   5</c></rc>
    <rc><c>V </c><c>   5</c></rc>
   </set>
  </array>
  <array name="atomtypes" >
   <dimension dim="1">type</dimension>
   <field type="int">atomspertype</field>
   <field type="string">element</field>
   <field>mass</field>
   <field>valence</field>
   <field type="string">pseudopotential</field>
   <set>
    <rc><c>   6</c><c>Nb</c><c>     92.91000000</c><c>     13.00000000</c><c>  PAW_PBE Nb_sv 25May2007               </c></rc>
    <rc><c>   5</c><c>Mo</c><c>     95.94000000</c><c>      6.00000000</c><c>  PAW_PBE Mo 08Apr2002                  </c></rc>
    <rc><c>   6</c><c>Ta</c><c>    180.94800000</c><c>      5.00000000</c><c>  PAW_PBE Ta 17Jan2003                  </c></rc>
    <rc><c>   6</c><c>Ti</c><c>     47.88000000</c><c>      4.00000000</c><c>  PAW_PBE Ti 08Apr2002                  </c></rc>
    <rc><c>   6</c><c>V </c><c>     50.94100000</c><c>      5.00000000</c><c>  PAW_PBE V 08Apr2002                   </c></rc>
   </set>
  </array>
 </atominfo>
 <structure name="initialpos" >
  <crystal>
   <varray name="basis" >
    <v>      -3.16000000      -3.16000000      -3.16000000 </v>
    <v>       1.58000000       1.58000000      -7.90000000 </v>
    <v>       7.90000000      -7.90000000      -1.58000000 </v>
   </varray>
   <i name="volume">    473.31744000 </i>
   <varray name="rec_basis" >
    <v>      -0.13713080      -0.12658228      -0.05274262 </v>
    <v>       0.04219409       0.06329114      -0.10548523 </v>
    <v>       0.06329114      -0.06329114       0.00000000 </v>
   </varray>
  </crystal>
  <varray name="positions" >
   <v>       0.96666667       0.93333333       0.40000000 </v>
   <v>       0.63333333       0.26666667       0.40000000 </v>
   <v>       0.50000000       0.00000000       0.00000000 </v>
   <v>       0.00000000       0.00000000       0.00000000 </v>
   <v>       0.10000000       0.20000000       0.80000000 </v>
   <v>       0.03333333       0.06666667       0.60000000 </v>
   <v>       0.80000000       0.60000000       0.40000000 </v>
   <v>       0.73333333       0.46666667       0.20000000 </v>
   <v>       0.66666667       0.33333333       0.00000000 </v>
   <v>       0.36666667       0.73333333       0.60000000 </v>
   <v>       0.13333333       0.26666667       0.40000000 </v>
   <v>       0.83333333       0.66666667       0.00000000 </v>
   <v>       0.93333333       0.86666667       0.80000000 </v>
   <v>       0.56666667       0.13333333       0.20000000 </v>
   <v>       0.40000000       0.80000000       0.20000000 </v>
   <v>       0.43333333       0.86666667       0.80000000 </v>
   <v>       0.30000000       0.60000000       0.40000000 </v>
   <v>       0.86666667       0.73333333       0.60000000 </v>
   <v>       0.46666667       0.93333333       0.40000000 </v>
   <v>       0.16666667       0.33333333       0.00000000 </v>
   <v>       0.26666667       0.53333333       0.80000000 </v>
   <v>       0.20000000       0.40000000       0.60000000 </v>
   <v>       0.06666667       0.13333333       0.20000000 </v>
   <v>       0.76666667       0.53333333       0.80000000 </v>
   <v>       0.70000000       0.40000000       0.60000000 </v>
   <v>       0.60000000       0.20000000       0.80000000 </v>
   <v>       0.53333333       0.06666667       0.60000000 </v>
   <v>       0.33333333       0.66666667       0.00000000 </v>
   <v>       0.23333333       0.46666667       0.20000000 </v>
  </varray>
 </structure>
 <calculation>
  <scstep>
   <time name="dav">   43.38   43.44</time>
   <time name="total">   43.52   43.58</time>
   <energy>
    <i name="alphaZ">   1146.37395419 </i>
    <i name="ewald"> -10990.67815613 </i>
    <i name="hartreedc">   -110.45454319 </i>
    <i name="XCdc">   -921.53790298 </i>
    <i name="pawpsdc"> 562683.66954983 </i>
    <i name="pawaedc">-561443.92121408 </i>
    <i name="eentropy">     -0.00136809 </i>
    <i name="bandstr">  -7262.45924008 </i>
    <i name="atom">  12788.47826598 </i>
    <i name="e_fr_energy">  -4110.53065456 </i>
    <i name="e_wo_entrp">  -4110.52928647 </i>
    <i name="e_0_energy">  -4110.53019853 </i>
   </energy>
  </scstep>
  <scstep>
   <time name="dav">   48.35   48.42</time>
   <time name="total">   48.36   48.43</time>
   <energy>
    <i name="e_fr_energy">  -9820.20687832 </i>
    <i name="e_wo_entrp">  -9820.20950317 </i>
    <i name="e_0_energy">  -9820.20775327 </i>
   </energy>
  </scstep>
  <scstep>
   <time name="dav">   56.68   56.77</time>
   <time name="total">   56.69   56.78</time>
   <energy>
    <i name="e_fr_energy"> -10758.96564185 </i>
    <i name="e_wo_entrp"> -10758.96871208 </i>
    <i name="e_0_energy"> -10758.96666526 </i>
   </energy>
  </scstep>
  <scstep>
   <time name="dav">   56.32   56.39</time>
   <time name="total">   56.33   56.40</time>
   <energy>
    <i name="e_fr_energy"> -11026.27028699 </i>
    <i name="e_wo_entrp"> -11026.27021399 </i>
    <i name="e_0_energy"> -11026.27026266 </i>
   </energy>
  </scstep>
  <scstep>
   <time name="dav">   56.30   56.39</time>
   <time name="total">   56.85   56.94</time>
   <energy>
    <i name="e_fr_energy"> -11178.51272623 </i>
    <i name="e_wo_entrp"> -11178.51072135 </i>
    <i name="e_0_energy"> -11178.51205794 </i>
   </energy>
  </scstep>
  <scstep>
   <time name="dav">   45.07   45.12</time>
   <time name="total">   45.80   45.86</time>
   <energy>
    <i name="e_fr_energy">  -1028.16493453 </i>
    <i name="e_wo_entrp">  -1028.16324073 </i>
    <i name="e_0_energy">  -1028.16436993 </i>
   </energy>
  </scstep>
  <scstep>
   <time name="dav">   50.47   50.54</time>
   <time name="total">   51.17   51.25</time>
   <energy>
    <i name="e_fr_energy">   -539.72375766 </i>
    <i name="e_wo_entrp">   -539.72464538 </i>
    <i name="e_0_energy">   -539.72405357 </i>
   </energy>
  </scstep>
  <scstep>
   <time name="dav">   51.48   51.55</time>
   <time name="total">   52.14   52.21</time>
   <energy>
    <i name="e_fr_energy">   -556.21625337 </i>
    <i name="e_wo_entrp">   -556.22012324 </i>
    <i name="e_0_energy">   -556.21754333 </i>
   </energy>
  </scstep>
  <scstep>
   <time name="dav">   49.30   49.36</time>
   <time name="total">   49.97   50.04</time>
   <energy>
    <i name="e_fr_energy">   -468.77860623 </i>
    <i name="e_wo_entrp">   -468.77708078 </i>
    <i name="e_0_energy">   -468.77809775 </i>
   </energy>
  </scstep>
  <scstep>
   <time name="dav">   56.21   56.28</time>
   <time name="total">   56.87   56.94</time>
   <energy>
    <i name="e_fr_energy">   -519.02026076 </i>
    <i name="e_wo_entrp">   -519.03632090 </i>
    <i name="e_0_energy">   -519.02561414 </i>
   </energy>
  </scstep>
  <scstep>
   <time name="dav">   52.87   52.94</time>
   <time name="total">   53.55   53.63</time>
   <energy>
    <i name="e_fr_energy">   -700.98418841 </i>
    <i name="e_wo_entrp">   -700.97612785 </i>
    <i name="e_0_energy">   -700.98150155 </i>
   </energy>
  </scstep>
  <scstep>
   <time name="dav">   54.89   54.96</time>
   <time name="total">   55.55   55.62</time>
   <energy>
    <i name="e_fr_energy">  -1074.92155827 </i>
    <i name="e_wo_entrp">  -1074.91504500 </i>
    <i name="e_0_energy">  -1074.91938718 </i>
   </energy>
  </scstep>
  <scstep>
   <time name="dav">   50.39   50.45</time>
   <time name="total">   51.06   51.13</time>
   <energy>
    <i name="e_fr_energy">  -1112.82149467 </i>
    <i name="e_wo_entrp">  -1112.81780190 </i>
    <i name="e_0_energy">  -1112.82026374 </i>
   </energy>
  </scstep>
  <scstep>
   <time name="dav">   45.10   45.16</time>
   <time name="total">   45.77   45.83</time>
   <energy>
    <i name="e_fr_energy">   -906.99503206 </i>
    <i name="e_wo_entrp">   -906.99598955 </i>
    <i name="e_0_energy">   -906.99535122 </i>
   </energy>
  </scstep>
  <scstep>
   <time name="dav">   46.64   46.70</time>
   <time name="total">   47.30   47.37</time>
   <energy>
    <i name="e_fr_energy">   -778.92356847 </i>
    <i name="e_wo_entrp">   -778.92266921 </i>
    <i name="e_0_energy">   -778.92326872 </i>
   </energy>
  </scstep>
  <scstep>
   <time name="dav">   49.09   49.15</time>
   <time name="total">   49.75   49.81</time>
   <energy>
    <i name="e_fr_energy">   -601.66569283 </i>
    <i name="e_wo_entrp">   -601.65943211 </i>
    <i name="e_0_energy">   -601.66360592 </i>
   </energy>
  </scstep>
  <scstep>
   <time name="dav">   49.97   50.05</time>
   <time name="total">   50.63   50.72</time>
   <energy>
    <i name="e_fr_energy">   -526.15579031 </i>
    <i name="e_wo_entrp">   -526.16110493 </i>
    <i name="e_0_energy">   -526.15756185 </i>
   </energy>
  </scstep>
  <scstep>
   <time name="dav">   51.83   51.91</time>
   <time name="total">   52.49   52.57</time>
   <energy>
    <i name="e_fr_energy">   -429.04952941 </i>
    <i name="e_wo_entrp">   -429.05388645 </i>
    <i name="e_0_energy">   -429.05098176 </i>
   </energy>
  </scstep>
  <scstep>
   <time name="dav">   54.35   54.44</time>
   <time name="total">   55.03   55.12</time>
   <energy>
    <i name="e_fr_energy">   -361.47482989 </i>
    <i name="e_wo_entrp">   -361.46917140 </i>
    <i name="e_0_energy">   -361.47294373 </i>
   </energy>
  </scstep>
  <scstep>
   <time name="dav">   51.07   51.15</time>
   <time name="total">   51.73   51.81</time>
   <energy>
    <i name="e_fr_energy">   -364.82575770 </i>
    <i name="e_wo_entrp">   -364.82476546 </i>
    <i name="e_0_energy">   -364.82542696 </i>
   </energy>
  </scstep>
  <scstep>
   <time name="dav">   52.65   52.74</time>
   <time name="total">   53.33   53.42</time>
   <energy>
    <i name="e_fr_energy">   -398.23295625 </i>
    <i name="e_wo_entrp">   -398.22073486 </i>
    <i name="e_0_energy">   -398.22888245 </i>
   </energy>
  </scstep>
  <scstep>
   <time name="dav">   53.17   53.26</time>
   <time name="total">   53.84   53.92</time>
   <energy>
    <i name="e_fr_energy">   -382.28812184 </i>
    <i name="e_wo_entrp">   -382.28013232 </i>
    <i name="e_0_energy">   -382.28545867 </i>
   </energy>
  </scstep>
  <scstep>
   <time name="dav">   49.71   49.79</time>
   <time name="total">   50.40   50.49</time>
   <energy>
    <i name="e_fr_energy">   -323.27612121 </i>
    <i name="e_wo_entrp">   -323.27351306 </i>
    <i name="e_0_energy">   -323.27525182 </i>
   </energy>
  </scstep>
  <scstep>
   <time name="dav">   53.97   54.05</time>
   <time name="total">   54.63   54.72</time>
   <energy>
    <i name="e_fr_energy">   -335.52429082 </i>
    <i name="e_wo_entrp">   -335.51987727 </i>
    <i name="e_0_energy">   -335.52281964 </i>
   </energy>
  </scstep>
  <scstep>
   <time name="dav">   48.02   48.10</time>
   <time name="total">   48.69   48.78</time>
   <energy>
    <i name="e_fr_energy">   -329.93279344 </i>
    <i name="e_wo_entrp">   -329.93618909 </i>
    <i name="e_0_energy">   -329.93392532 </i>
   </energy>
  </scstep>
  <scstep>
   <time name="dav">   51.13   51.21</time>
   <time name="total">   51.80   51.88</time>
   <energy>
    <i name="e_fr_energy">   -315.78388557 </i>
    <i name="e_wo_entrp">   -315.77228144 </i>
    <i name="e_0_energy">   -315.78001753 </i>
   </energy>
  </scstep>
  <scstep>
   <time name="dav">   47.99   48.07</time>
   <time name="total">   48.66   48.75</time>
   <energy>
    <i name="e_fr_energy">   -306.21903572 </i>
    <i name="e_wo_entrp">   -306.20631322 </i>
    <i name="e_0_energy">   -306.21479488 </i>
   </energy>
  </scstep>
  <scstep>
   <time name="dav">   52.09   52.17</time>
   <time name="total">   52.75   52.83</time>
   <energy>
    <i name="e_fr_energy">   -305.42300534 </i>
    <i name="e_wo_entrp">   -305.40579531 </i>
    <i name="e_0_energy">   -305.41726866 </i>
   </energy>
  </scstep>
  <scstep>
   <time name="dav">   52.12   52.20</time>
   <time name="total">   52.80   52.90</time>
   <energy>
    <i name="e_fr_energy">   -304.94757233 </i>
    <i name="e_wo_entrp">   -304.93544622 </i>
    <i name="e_0_energy">   -304.94353029 </i>
   </energy>
  </scstep>
  <scstep>
   <time name="dav">   51.94   52.02</time>
   <time name="total">   52.60   52.69</time>
   <energy>
    <i name="e_fr_energy">   -304.30124701 </i>
    <i name="e_wo_entrp">   -304.27922888 </i>
    <i name="e_0_energy">   -304.29390763 </i>
   </energy>
  </scstep>
  <scstep>
   <time name="dav">   51.55   51.63</time>
   <time name="total">   52.22   52.32</time>
   <energy>
    <i name="e_fr_energy">   -304.67850279 </i>
    <i name="e_wo_entrp">   -304.66332194 </i>
    <i name="e_0_energy">   -304.67344251 </i>
   </energy>
  </scstep>
  <scstep>
   <time name="dav">   49.76   49.84</time>
   <time name="total">   50.43   50.51</time>
   <energy>
    <i name="e_fr_energy">   -303.86446530 </i>
    <i name="e_wo_entrp">   -303.83739422 </i>
    <i name="e_0_energy">   -303.85544160 </i>
   </energy>
  </scstep>
  <scstep>
   <time name="dav">   48.82   48.90</time>
   <time name="total">   49.51   49.60</time>
   <energy>
    <i name="e_fr_energy">   -303.92515732 </i>
    <i name="e_wo_entrp">   -303.90201315 </i>
    <i name="e_0_energy">   -303.91744259 </i>
   </energy>
  </scstep>
  <scstep>
   <time name="dav">   47.98   48.06</time>
   <time name="total">   48.64   48.72</time>
   <energy>
    <i name="e_fr_energy">   -303.74864304 </i>
    <i name="e_wo_entrp">   -303.72295715 </i>
    <i name="e_0_energy">   -303.74008108 </i>
   </energy>
  </scstep>
  <scstep>
   <time name="dav">   49.69   49.77</time>
   <time name="total">   50.36   50.45</time>
   <energy>
    <i name="e_fr_energy">   -303.68063848 </i>
    <i name="e_wo_entrp">   -303.65731301 </i>
    <i name="e_0_energy">   -303.67286332 </i>
   </energy>
  </scstep>
  <scstep>
   <time name="dav">   50.34   50.42</time>
   <time name="total">   51.01   51.09</time>
   <energy>
    <i name="e_fr_energy">   -303.67264033 </i>
    <i name="e_wo_entrp">   -303.64738150 </i>
    <i name="e_0_energy">   -303.66422072 </i>
   </energy>
  </scstep>
  <scstep>
   <time name="dav">   48.05   48.13</time>
   <time name="total">   48.74   48.82</time>
   <energy>
    <i name="e_fr_energy">   -303.68102914 </i>
    <i name="e_wo_entrp">   -303.65848906 </i>
    <i name="e_0_energy">   -303.67351578 </i>
   </energy>
  </scstep>
  <scstep>
   <time name="dav">   49.91   49.99</time>
   <time name="total">   50.57   50.66</time>
   <energy>
    <i name="e_fr_energy">   -303.61686200 </i>
    <i name="e_wo_entrp">   -303.59312709 </i>
    <i name="e_0_energy">   -303.60895036 </i>
   </energy>
  </scstep>
  <scstep>
   <time name="dav">   51.81   51.89</time>
   <time name="total">   52.48   52.57</time>
   <energy>
    <i name="e_fr_energy">   -303.58249227 </i>
    <i name="e_wo_entrp">   -303.55907584 </i>
    <i name="e_0_energy">   -303.57468679 </i>
   </energy>
  </scstep>
  <scstep>
   <time name="dav">   52.58   52.66</time>
   <time name="total">   53.24   53.32</time>
   <energy>
    <i name="e_fr_energy">   -303.57584377 </i>
    <i name="e_wo_entrp">   -303.55300587 </i>
    <i name="e_0_energy">   -303.56823114 </i>
   </energy>
  </scstep>
  <scstep>
   <time name="dav">   50.94   51.02</time>
   <time name="total">   51.61   51.71</time>
   <energy>
    <i name="e_fr_energy">   -303.56397887 </i>
    <i name="e_wo_entrp">   -303.54120468 </i>
    <i name="e_0_energy">   -303.55638748 </i>
   </energy>
  </scstep>
  <scstep>
   <time name="dav">   46.91   46.99</time>
   <time name="total">   47.58   47.65</time>
   <energy>
    <i name="e_fr_energy">   -303.54342774 </i>
    <i name="e_wo_entrp">   -303.52132172 </i>
    <i name="e_0_energy">   -303.53605907 </i>
   </energy>
  </scstep>
  <scstep>
   <time name="dav">   49.49   49.57</time>
   <time name="total">   50.16   50.25</time>
   <energy>
    <i name="e_fr_energy">   -303.53500759 </i>
    <i name="e_wo_entrp">   -303.51329572 </i>
    <i name="e_0_energy">   -303.52777030 </i>
   </energy>
  </scstep>
  <scstep>
   <time name="dav">   47.93   48.01</time>
   <time name="total">   48.59   48.67</time>
   <energy>
    <i name="e_fr_energy">   -303.54099219 </i>
    <i name="e_wo_entrp">   -303.51934187 </i>
    <i name="e_0_energy">   -303.53377542 </i>
   </energy>
  </scstep>
  <scstep>
   <time name="dav">   46.20   46.27</time>
   <time name="total">   46.86   46.95</time>
   <energy>
    <i name="e_fr_energy">   -303.53396482 </i>
    <i name="e_wo_entrp">   -303.51229939 </i>
    <i name="e_0_energy">   -303.52674301 </i>
   </energy>
  </scstep>
  <scstep>
   <time name="dav">   44.61   44.68</time>
   <time name="total">   45.27   45.34</time>
   <energy>
    <i name="e_fr_energy">   -303.53222128 </i>
    <i name="e_wo_entrp">   -303.51044850 </i>
    <i name="e_0_energy">   -303.52496369 </i>
   </energy>
  </scstep>
  <scstep>
   <time name="dav">   43.41   43.48</time>
   <time name="total">   44.09   44.17</time>
   <energy>
    <i name="e_fr_energy">   -303.53034712 </i>
    <i name="e_wo_entrp">   -303.50864904 </i>
    <i name="e_0_energy">   -303.52311443 </i>
   </energy>
  </scstep>
  <scstep>
   <time name="dav">   28.95   29.00</time>
   <time name="total">   29.02   29.07</time>
   <energy>
    <i name="alphaZ">   1146.37395419 </i>
    <i name="ewald"> -10990.67815613 </i>
    <i name="hartreedc">  -3091.76680671 </i>
    <i name="XCdc">   -828.88720561 </i>
    <i name="pawpsdc">  18629.56094090 </i>
    <i name="pawaedc"> -17188.31833051 </i>
    <i name="eentropy">     -0.02174303 </i>
    <i name="bandstr">   -768.27119009 </i>
    <i name="atom">  12788.47826598 </i>
    <i name="e_fr_energy">   -303.53027101 </i>
    <i name="e_wo_entrp">   -303.50852798 </i>
    <i name="e_0_energy">   -303.52302334 </i>
   </energy>
  </scstep>
  <structure>
   <crystal>
    <varray name="basis" >
     <v>      -3.16000000      -3.16000000      -3.16000000 </v>
     <v>       1.58000000       1.58000000      -7.90000000 </v>
     <v>       7.90000000      -7.90000000      -1.58000000 </v>
    </varray>
    <i name="volume">    473.31744000 </i>
    <varray name="rec_basis" >
     <v>      -0.13713080      -0.12658228      -0.05274262 </v>
     <v>       0.04219409       0.06329114      -0.10548523 </v>
     <v>       0.06329114      -0.06329114       0.00000000 </v>
    </varray>
   </crystal>
   <varray name="positions" >
    <v>       0.96666667       0.93333333       0.40000000 </v>
    <v>       0.63333333       0.26666667       0.40000000 </v>
    <v>       0.50000000       0.00000000       0.00000000 </v>
    <v>       0.00000000       0.00000000       0.00000000 </v>
    <v>       0.10000000       0.20000000       0.80000000 </v>
    <v>       0.03333333       0.06666667       0.60000000 </v>
    <v>       0.80000000       0.60000000       0.40000000 </v>
    <v>       0.73333333       0.46666667       0.20000000 </v>
    <v>       0.66666667       0.33333333       0.00000000 </v>
    <v>       0.36666667       0.73333333       0.60000000 </v>
    <v>       0.13333333       0.26666667       0.40000000 </v>
    <v>       0.83333333       0.66666667       0.00000000 </v>
    <v>       0.93333333       0.86666667       0.80000000 </v>
    <v>       0.56666667       0.13333333       0.20000000 </v>
    <v>       0.40000000       0.80000000       0.20000000 </v>
    <v>       0.43333333       0.86666667       0.80000000 </v>
    <v>       0.30000000       0.60000000       0.40000000 </v>
    <v>       0.86666667       0.73333333       0.60000000 </v>
    <v>       0.46666667       0.93333333       0.40000000 </v>
    <v>       0.16666667       0.33333333       0.00000000 </v>
    <v>       0.26666667       0.53333333       0.80000000 </v>
    <v>       0.20000000       0.40000000       0.60000000 </v>
    <v>       0.06666667       0.13333333       0.20000000 </v>
    <v>       0.76666667       0.53333333       0.80000000 </v>
    <v>       0.70000000       0.40000000       0.60000000 </v>
    <v>       0.60000000       0.20000000       0.80000000 </v>
    <v>       0.53333333       0.06666667       0.60000000 </v>
    <v>       0.33333333       0.66666667       0.00000000 </v>
    <v>       0.23333333       0.46666667       0.20000000 </v>
   </varray>
  </structure>
  <varray name="forces" >
   <v>      -0.42857981       0.72933262       0.61594395 </v>
   <v>       0.24757706      -0.00486224       0.01358276 </v>
   <v>       0.01893620       0.44968874      -0.09604598 </v>
   <v>       0.40013695      -0.47299511       0.29277419 </v>
   <v>      -0.15404181       0.90250139      -0.65910159 </v>
   <v>      -0.16913860       0.18285147      -0.35044607 </v>
   <v>      -0.62353886      -0.10973371       0.38588586 </v>
   <v>       0.01012830       0.33599026       0.07304115 </v>
   <v>       0.20700030       0.47647117      -0.57689863 </v>
   <v>      -0.22393749      -0.25135261       0.20754641 </v>
   <v>       0.05236413       0.26481566      -0.59532884 </v>
   <v>       0.36208059      -0.72409768       0.22567589 </v>
   <v>       0.32170593       0.27748911       0.01944113 </v>
   <v>      -0.41527096       0.37856783       0.19111020 </v>
   <v>      -0.75641066      -0.16031702       0.83780137 </v>
   <v>      -0.75904547      -0.35943964       0.58960480 </v>
   <v>       0.27570677      -0.29480245      -0.18638189 </v>
   <v>       0.07171818       0.21085832       0.53273130 </v>
   <v>       0.89988789      -0.50120310       0.22466676 </v>
   <v>       0.03643771      -0.25200706      -0.38832257 </v>
   <v>      -0.19087989      -0.01688459      -0.23232384 </v>
   <v>      -0.14709837       0.01835524       0.46821620 </v>
   <v>       0.58459126      -0.23649237      -1.32920662 </v>
   <v>      -0.05917740      -0.38397869       0.55585948 </v>
   <v>       0.61982513       0.01659651      -0.43084143 </v>
   <v>       0.00574637       0.17255725      -0.21752376 </v>
   <v>       0.06368198      -0.50580887      -0.44061628 </v>
   <v>      -0.47586346      -0.37058049       0.51260745 </v>
   <v>       0.22545806       0.22848004      -0.24345142 </v>
  </varray>
  <varray name="stress" >
   <v>     -15.65935653      -1.07631602       0.93566452 </v>
   <v>      -1.07631600     -28.26945690      -2.92832331 </v>
   <v>       0.93566447      -2.92832330     -21.88586525 </v>
  </varray>
  <energy>
   <i name="e_fr_energy">   -303.53027101 </i>
   <i name="e_wo_entrp">   -303.52302334 </i>
   <i name="e_0_energy">     -0.02174303 </i>
  </energy>
  <time name="totalsc"> 2440.53 2444.54</time>
 </calculation>
 <calculation>
  <scstep>
   <time name="dav">   33.44   33.50</time>
   <time name="total">   34.10   34.17</time>
   <energy>
    <i name="alphaZ">   1184.28148133 </i>
    <i name="ewald"> -11167.12184932 </i>
    <i name="hartreedc">  -3071.58921430 </i>
    <i name="XCdc">   -824.78197578 </i>
    <i name="pawpsdc">  18614.93712275 </i>
    <i name="pawaedc"> -17173.62968871 </i>
    <i name="eentropy">     -0.01198638 </i>
    <i name="bandstr">   -654.92286067 </i>
    <i name="atom">  12788.47826598 </i>
    <i name="e_fr_energy">   -304.36070510 </i>
    <i name="e_wo_entrp">   -304.34871872 </i>
    <i name="e_0_energy">   -304.35670964 </i>
   </energy>
  </scstep>
  <scstep>
   <time name="dav">   51.92   52.01</time>
   <time name="total">   52.57   52.67</time>
   <energy>
    <i name="e_fr_energy">   -306.07358954 </i>
    <i name="e_wo_entrp">   -306.06041738 </i>
    <i name="e_0_energy">   -306.06919882 </i>
   </energy>
  </scstep>
  <scstep>
   <time name="dav">   51.06   51.14</time>
   <time name="total">   51.72   51.82</time>
   <energy>
    <i name="e_fr_energy">   -304.93825191 </i>
    <i name="e_wo_entrp">   -304.92901542 </i>
    <i name="e_0_energy">   -304.93517308 </i>
   </energy>
  </scstep>
  <scstep>
   <time name="dav">   49.28   49.36</time>
   <time name="total">   49.95   50.03</time>
   <energy>
    <i name="e_fr_energy">   -304.66775874 </i>
    <i name="e_wo_entrp">   -304.65113245 </i>
    <i name="e_0_energy">   -304.66221664 </i>
   </energy>
  </scstep>
  <scstep>
   <time name="dav">   49.37   49.45</time>
   <time name="total">   50.04   50.13</time>
   <energy>
    <i name="e_fr_energy">   -304.28345940 </i>
    <i name="e_wo_entrp">   -304.26906514 </i>
    <i name="e_0_energy">   -304.27866131 </i>
   </energy>
  </scstep>
  <scstep>
   <time name="dav">   50.23   50.31</time>
   <time name="total">   50.89   50.97</time>
   <energy>
    <i name="e_fr_energy">   -304.13998678 </i>
    <i name="e_wo_entrp">   -304.12547334 </i>
    <i name="e_0_energy">   -304.13514897 </i>
   </energy>
  </scstep>
  <scstep>
   <time name="dav">   53.26   53.35</time>
   <time name="total">   53.92   54.02</time>
   <energy>
    <i name="e_fr_energy">   -304.09249733 </i>
    <i name="e_wo_entrp">   -304.07591677 </i>
    <i name="e_0_energy">   -304.08697048 </i>
   </energy>
  </scstep>
  <scstep>
   <time name="dav">   52.03   52.11</time>
   <time name="total">   52.69   52.77</time>
   <energy>
    <i name="e_fr_energy">   -304.08668128 </i>
    <i name="e_wo_entrp">   -304.06730054 </i>
    <i name="e_0_energy">   -304.08022104 </i>
   </energy>
  </scstep>
  <scstep>
   <time name="dav">   52.18   52.26</time>
   <time name="total">   52.85   52.95</time>
   <energy>
    <i name="e_fr_energy">   -304.05740967 </i>
    <i name="e_wo_entrp">   -304.04021071 </i>
    <i name="e_0_energy">   -304.05167668 </i>
   </energy>
  </scstep>
  <scstep>
   <time name="dav">   50.38   50.46</time>
   <time name="total">   51.05   51.13</time>
   <energy>
    <i name="e_fr_energy">   -304.05440745 </i>
    <i name="e_wo_entrp">   -304.03837175 </i>
    <i name="e_0_energy">   -304.04906221 </i>
   </energy>
  </scstep>
  <scstep>
   <time name="dav">   47.23   47.30</time>
   <time name="total">   47.89   47.98</time>
   <energy>
    <i name="e_fr_energy">   -304.05771592 </i>
    <i name="e_wo_entrp">   -304.03948484 </i>
    <i name="e_0_energy">   -304.05163889 </i>
   </energy>
  </scstep>
  <scstep>
   <time name="dav">   49.10   49.18</time>
   <time name="total">   49.76   49.84</time>
   <energy>
    <i name="e_fr_energy">   -304.05753516 </i>
    <i name="e_wo_entrp">   -304.04028854 </i>
    <i name="e_0_energy">   -304.05178629 </i>
   </energy>
  </scstep>
  <scstep>
   <time name="dav">   50.94   51.02</time>
   <time name="total">   51.61   51.70</time>
   <energy>
    <i name="e_fr_energy">   -304.05961090 </i>
    <i name="e_wo_entrp">   -304.04272357 </i>
    <i name="e_0_energy">   -304.05398179 </i>
   </energy>
  </scstep>
  <scstep>
   <time name="dav">   48.01   48.09</time>
   <time name="total">   48.67   48.74</time>
   <energy>
    <i name="e_fr_energy">   -304.05871246 </i>
    <i name="e_wo_entrp">   -304.04159237 </i>
    <i name="e_0_energy">   -304.05300576 </i>
   </energy>
  </scstep>
  <scstep>
   <time name="dav">   48.17   48.25</time>
   <time name="total">   48.85   48.94</time>
   <energy>
    <i name="e_fr_energy">   -304.05808137 </i>
    <i name="e_wo_entrp">   -304.04091008 </i>
    <i name="e_0_energy">   -304.05235761 </i>
   </energy>
  </scstep>
  <scstep>
   <time name="dav">   43.58   43.65</time>
   <time name="total">   44.25   44.32</time>
   <energy>
    <i name="e_fr_energy">   -304.05802133 </i>
    <i name="e_wo_entrp">   -304.04085992 </i>
    <i name="e_0_energy">   -304.05230086 </i>
   </energy>
  </scstep>
  <scstep>
   <time name="dav">   38.30   38.37</time>
   <time name="total">   38.39   38.46</time>
   <energy>
    <i name="alphaZ">   1184.28148133 </i>
    <i name="ewald"> -11167.12184932 </i>
    <i name="hartreedc">  -3008.99832351 </i>
    <i name="XCdc">   -826.75298707 </i>
    <i name="pawpsdc">  19338.65104443 </i>
    <i name="pawaedc"> -17898.19938787 </i>
    <i name="eentropy">     -0.01708024 </i>
    <i name="bandstr">   -714.37909922 </i>
    <i name="atom">  12788.47826598 </i>
    <i name="e_fr_energy">   -304.05793548 </i>
    <i name="e_wo_entrp">   -304.04085524 </i>
    <i name="e_0_energy">   -304.05224206 </i>
   </energy>
  </scstep>
  <structure>
   <crystal>
    <varray name="basis" >
     <v>      -3.13546311      -3.10987940      -3.12291744 </v>
     <v>       1.56337239       1.56858247      -7.81657721 </v>
     <v>       7.84265602      -7.79215109      -1.54800437 </v>
    </varray>
    <i name="volume">    458.16707753 </i>
    <varray name="rec_basis" >
     <v>      -0.13823805      -0.12851779      -0.05343877 </v>
     <v>       0.04260485       0.06405017      -0.10655876 </v>
     <v>       0.06374785      -0.06414881      -0.00012295 </v>
    </varray>
   </crystal>
   <varray name="positions" >
    <v>       0.96348094       0.93155336       0.39646451 </v>
    <v>       0.63169060       0.26708666       0.40077078 </v>
    <v>       0.49737301       0.00190036      -0.00131523 </v>
    <v>      -0.00050365      -0.00211961       0.00266596 </v>
    <v>       0.09718485       0.20579617       0.79677402 </v>
    <v>       0.03422735       0.06866407       0.59892526 </v>
    <v>       0.80381330       0.59643197       0.39843118 </v>
    <v>       0.73102870       0.46734148       0.19900504 </v>
    <v>       0.66385548       0.33814529      -0.00082278 </v>
    <v>       0.36915498       0.73105385       0.60008371 </v>
    <v>       0.13288455       0.27061139       0.39935131 </v>
    <v>       0.83478557       0.66404435       0.00331646 </v>
    <v>       0.92946107       0.86806985       0.80013501 </v>
    <v>       0.56661586       0.13267138       0.19757615 </v>
    <v>       0.40385134       0.79370731       0.19817993 </v>
    <v>       0.43904960       0.86102367       0.79877987 </v>
    <v>       0.30045055       0.60060956       0.40174195 </v>
    <v>       0.86354907       0.73141213       0.59957516 </v>
    <v>       0.46320244       0.93249146       0.40427800 </v>
    <v>       0.16895260       0.33461417       0.00088072 </v>
    <v>       0.26862369       0.53407550       0.79946873 </v>
    <v>       0.19966970       0.39737392       0.59949482 </v>
    <v>       0.06762555       0.14056539       0.20250704 </v>
    <v>       0.76798864       0.52921175       0.80099173 </v>
    <v>       0.69689442       0.40350487       0.60184186 </v>
    <v>       0.59946171       0.20164553       0.79949067 </v>
    <v>       0.53712197       0.06749414       0.60173884 </v>
    <v>       0.33744014       0.66195792      -0.00032146 </v>
    <v>       0.23106600       0.46906212       0.19999077 </v>
   </varray>
  </structure>
  <varray name="forces" >
   <v>      -0.38746782       0.79143583       0.54865589 </v>
   <v>       0.10063071      -0.05276933       0.05156678 </v>
   <v>      -0.10496491       0.32879011       0.01207561 </v>
   <v>       0.42170768      -0.42142960       0.23353830 </v>
   <v>      -0.08338428       0.39373665      -0.32563109 </v>
   <v>      -0.10554990       0.17250561      -0.18425315 </v>
   <v>      -0.37356405       0.01331702       0.04931244 </v>
   <v>       0.03276567       0.06661713       0.10918881 </v>
   <v>      -0.01240535       0.42545336      -0.31523415 </v>
   <v>      -0.12513301      -0.21709098       0.22481257 </v>
   <v>       0.11853318       0.09807506      -0.24696394 </v>
   <v>       0.30681907      -0.59716909      -0.20547404 </v>
   <v>       0.08125608       0.11139847      -0.11715310 </v>
   <v>      -0.31772298      -0.06670786       0.19463620 </v>
   <v>      -0.29998359      -0.00661900       0.34079968 </v>
   <v>      -0.21016570       0.02262478       0.35684674 </v>
   <v>       0.12368404      -0.22547420      -0.06297776 </v>
   <v>       0.04471886       0.16091856       0.32815660 </v>
   <v>       0.53814640      -0.27304816       0.14901445 </v>
   <v>      -0.05642458      -0.10892047      -0.33349464 </v>
   <v>      -0.20457701      -0.03130940      -0.08116327 </v>
   <v>      -0.13358416       0.07008848       0.29923990 </v>
   <v>       0.36044919      -0.13942204      -0.85174964 </v>
   <v>      -0.08355434      -0.23314605       0.46599981 </v>
   <v>       0.55833982      -0.07546557      -0.25332729 </v>
   <v>      -0.08084999       0.25593294      -0.25638555 </v>
   <v>       0.10325274      -0.48772349      -0.36714448 </v>
   <v>      -0.41205016      -0.27630151       0.52802852 </v>
   <v>       0.20107839       0.30170275      -0.29092020 </v>
  </varray>
  <varray name="stress" >
   <v>      43.57796830      -1.25157859       0.63653533 </v>
   <v>      -1.25157854      36.40080535      -1.80420775 </v>
   <v>       0.63653525      -1.80420780      40.68531099 </v>
  </varray>
  <energy>
   <i name="e_fr_energy">   -304.05793548 </i>
   <i name="e_wo_entrp">   -304.05224206 </i>
   <i name="e_0_energy">     -0.01708024 </i>
  </energy>
  <time name="totalsc">  848.66  850.12</time>
 </calculation>
 <calculation>
  <scstep>
   <time name="dav">   35.36   35.45</time>
   <time name="total">   36.02   36.12</time>
   <energy>
    <i name="alphaZ">   1189.45714438 </i>
    <i name="ewald"> -11190.39614532 </i>
    <i name="hartreedc">  -3006.73093050 </i>
    <i name="XCdc">   -826.20139724 </i>
    <i name="pawpsdc">  19338.38680748 </i>
    <i name="pawaedc"> -17897.83750113 </i>
    <i name="eentropy">     -0.01614291 </i>
    <i name="bandstr">   -699.20691254 </i>
    <i name="atom">  12788.47826598 </i>
    <i name="e_fr_energy">   -304.06681180 </i>
    <i name="e_wo_entrp">   -304.05066889 </i>
    <i name="e_0_energy">   -304.06143083 </i>
   </energy>
  </scstep>
  <scstep>
   <time name="dav">   51.62   51.69</time>
   <time name="total">   52.30   52.37</time>
   <energy>
    <i name="e_fr_energy">   -304.09463718 </i>
    <i name="e_wo_entrp">   -304.07744103 </i>
    <i name="e_0_energy">   -304.08890513 </i>
   </energy>
  </scstep>
  <scstep>
   <time name="dav">   51.31   51.38</time>
   <time name="total">   51.98   52.04</time>
   <energy>
    <i name="e_fr_energy">   -304.07776925 </i>
    <i name="e_wo_entrp">   -304.06215172 </i>
    <i name="e_0_energy">   -304.07256341 </i>
   </energy>
  </scstep>
  <scstep>
   <time name="dav">   50.19   50.26</time>
   <time name="total">   50.88   50.95</time>
   <energy>
    <i name="e_fr_energy">   -304.07402634 </i>
    <i name="e_wo_entrp">   -304.05663111 </i>
    <i name="e_0_energy">   -304.06822793 </i>
   </energy>
  </scstep>
  <scstep>
   <time name="dav">   48.77   48.83</time>
   <time name="total">   49.43   49.50</time>
   <energy>
    <i name="e_fr_energy">   -304.06716920 </i>
    <i name="e_wo_entrp">   -304.05077903 </i>
    <i name="e_0_energy">   -304.06170581 </i>
   </energy>
  </scstep>
  <scstep>
   <time name="dav">   50.19   50.26</time>
   <time name="total">   50.86   50.94</time>
   <energy>
    <i name="e_fr_energy">   -304.06424431 </i>
    <i name="e_wo_entrp">   -304.04788523 </i>
    <i name="e_0_energy">   -304.05879128 </i>
   </energy>
  </scstep>
  <scstep>
   <time name="dav">   52.27   52.34</time>
   <time name="total">   52.94   53.01</time>
   <energy>
    <i name="e_fr_energy">   -304.06354658 </i>
    <i name="e_wo_entrp">   -304.04699889 </i>
    <i name="e_0_energy">   -304.05803068 </i>
   </energy>
  </scstep>
  <scstep>
   <time name="dav">   47.29   47.35</time>
   <time name="total">   47.96   48.03</time>
   <energy>
    <i name="e_fr_energy">   -304.06327610 </i>
    <i name="e_wo_entrp">   -304.04633635 </i>
    <i name="e_0_energy">   -304.05762952 </i>
   </energy>
  </scstep>
  <scstep>
   <time name="dav">   45.02   45.08</time>
   <time name="total">   45.68   45.74</time>
   <energy>
    <i name="e_fr_energy">   -304.06288825 </i>
    <i name="e_wo_entrp">   -304.04629410 </i>
    <i name="e_0_energy">   -304.05735687 </i>
   </energy>
  </scstep>
  <scstep>
   <time name="dav">   42.55   42.61</time>
   <time name="total">   43.23   43.30</time>
   <energy>
    <i name="e_fr_energy">   -304.06282074 </i>
    <i name="e_wo_entrp">   -304.04633014 </i>
    <i name="e_0_energy">   -304.05732387 </i>
   </energy>
  </scstep>
  <scstep>
   <time name="dav">   40.07   40.12</time>
   <time name="total">   40.73   40.79</time>
   <energy>
    <i name="e_fr_energy">   -304.06289994 </i>
    <i name="e_wo_entrp">   -304.04614363 </i>
    <i name="e_0_energy">   -304.05731450 </i>
   </energy>
  </scstep>
  <scstep>
   <time name="dav">   36.71   36.76</time>
   <time name="total">   36.79   36.85</time>
   <energy>
    <i name="alphaZ">   1189.45714438 </i>
    <i name="ewald"> -11190.39614532 </i>
    <i name="hartreedc">  -2998.62544187 </i>
    <i name="XCdc">   -826.45861135 </i>
    <i name="pawpsdc">  19442.59716495 </i>
    <i name="pawaedc"> -18002.22367491 </i>
    <i name="eentropy">     -0.01661804 </i>
    <i name="bandstr">   -706.87497986 </i>
    <i name="atom">  12788.47826598 </i>
    <i name="e_fr_energy">   -304.06289604 </i>
    <i name="e_wo_entrp">   -304.04627800 </i>
    <i name="e_0_energy">   -304.05735669 </i>
   </energy>
  </scstep>
  <structure>
   <crystal>
    <varray name="basis" >
     <v>      -3.13219569      -3.10320515      -3.11797939 </v>
     <v>       1.56115819       1.56706206      -7.80546831 </v>
     <v>       7.83501988      -7.77778952      -1.54374372 </v>
    </varray>
    <i name="volume">    456.17346354 </i>
    <varray name="rec_basis" >
     <v>      -0.13838690      -0.12877990      -0.05353297 </v>
     <v>       0.04266016       0.06415265      -0.10670334 </v>
     <v>       0.06380914      -0.06426484      -0.00013975 </v>
    </varray>
   </crystal>
   <varray name="positions" >
    <v>       0.96304794       0.93131451       0.39598795 </v>
    <v>       0.63147009       0.26714312       0.40087416 </v>
    <v>       0.49701790       0.00215633      -0.00149272 </v>
    <v>      -0.00056899      -0.00240513       0.00302452 </v>
    <v>       0.09680279       0.20657655       0.79633953 </v>
    <v>       0.03434690       0.06893291       0.59878091 </v>
    <v>       0.80432516       0.59595199       0.39822074 </v>
    <v>       0.73071723       0.46743250       0.19887066 </v>
    <v>       0.66347632       0.33879291      -0.00093391 </v>
    <v>       0.36949012       0.73074706       0.60009542 </v>
    <v>       0.13282379       0.27114222       0.39926410 </v>
    <v>       0.83498437       0.66369103       0.00376297 </v>
    <v>       0.92893960       0.86825877       0.80015239 </v>
    <v>       0.56660649       0.13258266       0.19724992 </v>
    <v>       0.40436783       0.79286079       0.19793556 </v>
    <v>       0.43981803       0.86026440       0.79861668 </v>
    <v>       0.30051308       0.60069131       0.40197650 </v>
    <v>       0.86312840       0.73115384       0.59951721 </v>
    <v>       0.46273996       0.93237773       0.40485290 </v>
    <v>       0.16926162       0.33478628       0.00099980 </v>
    <v>       0.26888690       0.53417535       0.79939771 </v>
    <v>       0.19962444       0.39702069       0.59942664 </v>
    <v>       0.06775796       0.14153800       0.20284496 </v>
    <v>       0.76816738       0.52865704       0.80112529 </v>
    <v>       0.69647818       0.40397628       0.60208919 </v>
    <v>       0.59938882       0.20186701       0.79942208 </v>
    <v>       0.53763428       0.06760507       0.60197372 </v>
    <v>       0.33799272       0.66132428      -0.00036403 </v>
    <v>       0.23076071       0.46938450       0.19998914 </v>
   </varray>
  </structure>
  <varray name="forces" >
   <v>      -0.39076766       0.80202711       0.53788672 </v>
   <v>       0.07561330      -0.05793753       0.05861389 </v>
   <v>      -0.12378249       0.30994635       0.03282088 </v>
   <v>       0.42696877      -0.41940841       0.22339154 </v>
   <v>      -0.07304595       0.31719470      -0.27461164 </v>
   <v>      -0.09630999       0.15953170      -0.15532772 </v>
   <v>      -0.33914007       0.03748981      -0.00307120 </v>
   <v>       0.03152895       0.02053860       0.11989041 </v>
   <v>      -0.04685081       0.41044139      -0.27140923 </v>
   <v>      -0.10401880      -0.20831887       0.22411698 </v>
   <v>       0.11675347       0.07089771      -0.18915642 </v>
   <v>       0.29879215      -0.56376365      -0.27444905 </v>
   <v>       0.04259025       0.09313923      -0.13150664 </v>
   <v>      -0.29851247      -0.11820804       0.19023960 </v>
   <v>      -0.22207630       0.02563741       0.26281753 </v>
   <v>      -0.14068878       0.07056933       0.32604641 </v>
   <v>       0.11074034      -0.20085107      -0.04845884 </v>
   <v>       0.04265946       0.14523806       0.29770223 </v>
   <v>       0.48481268      -0.23897272       0.13268775 </v>
   <v>      -0.06414877      -0.09206654      -0.32125848 </v>
   <v>      -0.20144641      -0.03322022      -0.06608526 </v>
   <v>      -0.13669489       0.07562875       0.27036360 </v>
   <v>       0.32393595      -0.12643884      -0.77329423 </v>
   <v>      -0.07973388      -0.21465654       0.44130186 </v>
   <v>       0.55288677      -0.09097691      -0.22806509 </v>
   <v>      -0.09310378       0.26099654      -0.25575444 </v>
   <v>       0.10957031      -0.48425935      -0.35216891 </v>
   <v>      -0.39997671      -0.25761180       0.52359012 </v>
   <v>       0.19344537       0.30741378      -0.29685236 </v>
  </varray>
  <varray name="stress" >
   <v>      51.42314929      -1.13512747       0.47402002 </v>
   <v>      -1.13512757      45.38018465      -1.68277146 </v>
   <v>       0.47402003      -1.68277141      49.34005462 </v>
  </varray>
  <energy>
   <i name="e_fr_energy">   -304.06289604 </i>
   <i name="e_wo_entrp">   -304.05735669 </i>
   <i name="e_0_energy">     -0.01661804 </i>
  </energy>
  <time name="totalsc">  578.20  579.07</time>
 </calculation>
 <calculation>
  <scstep>
   <time name="dav">   33.13   33.26</time>
   <time name="total">   33.77   33.94</time>
   <energy>
    <i name="alphaZ">   1179.20803228 </i>
    <i name="ewald"> -11190.72382344 </i>
    <i name="hartreedc">  -2958.65000567 </i>
    <i name="XCdc">   -827.71514048 </i>
    <i name="pawpsdc">  19440.74228821 </i>
    <i name="pawaedc"> -18000.24532442 </i>
    <i name="eentropy">     -0.01313130 </i>
    <i name="bandstr">   -735.29634769 </i>
    <i name="atom">  12788.47826598 </i>
    <i name="e_fr_energy">   -304.21518653 </i>
    <i name="e_wo_entrp">   -304.20205523 </i>
    <i name="e_0_energy">   -304.21080943 </i>
   </energy>
  </scstep>
  <scstep>
   <time name="dav">   49.85   49.92</time>
   <time name="total">   50.52   50.60</time>
   <energy>
    <i name="e_fr_energy">   -304.71345546 </i>
    <i name="e_wo_entrp">   -304.69088438 </i>
    <i name="e_0_energy">   -304.70593177 </i>
   </energy>
  </scstep>
  <scstep>
   <time name="dav">   51.30   51.36</time>
   <time name="total">   51.96   52.02</time>
   <energy>
    <i name="e_fr_energy">   -304.47368898 </i>
    <i name="e_wo_entrp">   -304.46144728 </i>
    <i name="e_0_energy">   -304.46960841 </i>
   </energy>
  </scstep>
  <scstep>
   <time name="dav">   49.46   49.52</time>
   <time name="total">   50.12   50.19</time>
   <energy>
    <i name="e_fr_energy">   -304.45191397 </i>
    <i name="e_wo_entrp">   -304.43657672 </i>
    <i name="e_0_energy">   -304.44680155 </i>
   </energy>
  </scstep>
  <scstep>
   <time name="dav">   47.55   47.62</time>
   <time name="total">   48.31   48.38</time>
   <energy>
    <i name="e_fr_energy">   -304.42293603 </i>
    <i name="e_wo_entrp">   -304.40851821 </i>
    <i name="e_0_energy">   -304.41813009 </i>
   </energy>
  </scstep>
  <scstep>
   <time name="dav">   50.56   50.62</time>
   <time name="total">   51.22   51.29</time>
   <energy>
    <i name="e_fr_energy">   -304.40977051 </i>
    <i name="e_wo_entrp">   -304.39419180 </i>
    <i name="e_0_energy">   -304.40457761 </i>
   </energy>
  </scstep>
  <scstep>
   <time name="dav">   52.39   52.46</time>
   <time name="total">   53.05   53.12</time>
   <energy>
    <i name="e_fr_energy">   -304.40950442 </i>
    <i name="e_wo_entrp">   -304.39383276 </i>
    <i name="e_0_energy">   -304.40428053 </i>
   </energy>
  </scstep>
  <scstep>
   <time name="dav">   51.09   51.16</time>
   <time name="total">   51.75   51.86</time>
   <energy>
    <i name="e_fr_energy">   -304.40282745 </i>
    <i name="e_wo_entrp">   -304.38708341 </i>
    <i name="e_0_energy">   -304.39757944 </i>
   </energy>
  </scstep>
  <scstep>
   <time name="dav">   50.60   50.68</time>
   <time name="total">   51.26   51.34</time>
   <energy>
    <i name="e_fr_energy">   -304.40051380 </i>
    <i name="e_wo_entrp">   -304.38493809 </i>
[...]
       <r>    4.7772    1.0000 </r>
       <r>    4.8475    1.0000 </r>
       <r>    4.8988    1.0000 </r>
       <r>    4.9622    1.0000 </r>
       <r>    5.0066    1.0000 </r>
       <r>    5.0708    1.0000 </r>
       <r>    5.1347    1.0000 </r>
       <r>    5.1742    1.0000 </r>
       <r>    5.2346    1.0000 </r>
       <r>    5.3243    1.0000 </r>
       <r>    5.3625    1.0000 </r>
       <r>    5.4054    1.0000 </r>
       <r>    5.4541    1.0000 </r>
       <r>    5.4617    1.0000 </r>
       <r>    5.4995    1.0000 </r>
       <r>    5.6094    1.0000 </r>
       <r>    5.6296    1.0000 </r>
       <r>    5.7166    1.0000 </r>
       <r>    5.7580    1.0000 </r>
       <r>    5.7933    1.0000 </r>
       <r>    5.8633    1.0000 </r>
       <r>    5.9095    1.0000 </r>
       <r>    5.9546    1.0000 </r>
       <r>    6.0414    1.0001 </r>
       <r>    6.0671    1.0002 </r>
       <r>    6.1547    1.0016 </r>
       <r>    6.1866    1.0031 </r>
       <r>    6.2241    1.0063 </r>
       <r>    6.2739    1.0135 </r>
       <r>    6.3216    1.0237 </r>
       <r>    6.3773    1.0345 </r>
       <r>    6.4515    1.0173 </r>
       <r>    6.4981    0.9613 </r>
       <r>    6.5168    0.9246 </r>
       <r>    6.5611    0.8031 </r>
       <r>    6.6483    0.4600 </r>
       <r>    6.6876    0.3004 </r>
       <r>    6.7352    0.1401 </r>
       <r>    6.8176   -0.0102 </r>
       <r>    6.8807   -0.0354 </r>
       <r>    6.9264   -0.0303 </r>
       <r>    6.9742   -0.0196 </r>
       <r>    7.0348   -0.0085 </r>
       <r>    7.1562   -0.0008 </r>
       <r>    7.2081   -0.0002 </r>
       <r>    7.2900   -0.0000 </r>
       <r>    7.4203   -0.0000 </r>
       <r>    7.5476   -0.0000 </r>
       <r>    7.5823   -0.0000 </r>
       <r>    7.7008   -0.0000 </r>
       <r>    7.9413   -0.0000 </r>
       <r>    8.0182   -0.0000 </r>
       <r>    8.1102   -0.0000 </r>
       <r>    8.2257   -0.0000 </r>
       <r>    8.3065   -0.0000 </r>
       <r>    8.4679   -0.0000 </r>
       <r>    8.5451   -0.0000 </r>
       <r>    8.5944   -0.0000 </r>
       <r>    8.6302   -0.0000 </r>
       <r>    8.6789   -0.0000 </r>
       <r>    8.7322   -0.0000 </r>
      </set>
     </set>
    </set>
   </array>
  </eigenvalues>
  <separator name="orbital magnetization" >
   <v name="MAGDIPOLOUT">      0.00000000      0.00000000      0.00000000</v>
  </separator>
  <dos>
   <i name="efermi">      6.63889295 </i>
   <total>
    <array>
     <dimension dim="1">gridpoints</dimension>
     <dimension dim="2">spin</dimension>
     <field>energy</field>
     <field>total</field>
     <field>integrated</field>
     <set>
      <set comment="spin 1">
       <r>   -50.5369     0.0000     0.0000 </r>
       <r>   -50.3296     0.0000     0.0000 </r>
       <r>   -50.1223     0.0000     0.0000 </r>
       <r>   -49.9150     0.0000     0.0000 </r>
       <r>   -49.7077     0.0000     0.0000 </r>
       <r>   -49.5004    -0.0000    -0.0000 </r>
       <r>   -49.2931    -0.0000    -0.0000 </r>
       <r>   -49.0858    -0.0000    -0.0000 </r>
       <r>   -48.8785    -0.0000    -0.0000 </r>
       <r>   -48.6712    -0.0000    -0.0000 </r>
       <r>   -48.4639    -0.0000    -0.0000 </r>
       <r>   -48.2566    -0.0038    -0.0008 </r>
       <r>   -48.0493    -0.2073    -0.0438 </r>
       <r>   -47.8420     0.2019    -0.0019 </r>
       <r>   -47.6347    10.3467     2.1430 </r>
       <r>   -47.4274    22.1850     6.7420 </r>
       <r>   -47.2201    18.8115    10.6417 </r>
       <r>   -47.0128     6.7593    12.0429 </r>
       <r>   -46.8055    -0.0791    12.0265 </r>
       <r>   -46.5982    -0.1263    12.0004 </r>
       <r>   -46.3909    -0.0017    12.0000 </r>
       <r>   -46.1835    -0.0000    12.0000 </r>
       <r>   -45.9762    -0.0000    12.0000 </r>
       <r>   -45.7689    -0.0000    12.0000 </r>
       <r>   -45.5616     0.0000    12.0000 </r>
       <r>   -45.3543     0.0000    12.0000 </r>
       <r>   -45.1470     0.0000    12.0000 </r>
       <r>   -44.9397     0.0000    12.0000 </r>
       <r>   -44.7324     0.0000    12.0000 </r>
       <r>   -44.5251     0.0000    12.0000 </r>
       <r>   -44.3178     0.0000    12.0000 </r>
       <r>   -44.1105     0.0000    12.0000 </r>
       <r>   -43.9032     0.0000    12.0000 </r>
       <r>   -43.6959     0.0000    12.0000 </r>
       <r>   -43.4886     0.0000    12.0000 </r>
       <r>   -43.2813     0.0000    12.0000 </r>
       <r>   -43.0740     0.0000    12.0000 </r>
       <r>   -42.8667     0.0000    12.0000 </r>
       <r>   -42.6594     0.0000    12.0000 </r>
       <r>   -42.4521     0.0000    12.0000 </r>
       <r>   -42.2448     0.0000    12.0000 </r>
       <r>   -42.0375     0.0000    12.0000 </r>
       <r>   -41.8302     0.0000    12.0000 </r>
       <r>   -41.6229     0.0000    12.0000 </r>
       <r>   -41.4156     0.0000    12.0000 </r>
       <r>   -41.2083     0.0000    12.0000 </r>
       <r>   -41.0010     0.0000    12.0000 </r>
       <r>   -40.7937     0.0000    12.0000 </r>
       <r>   -40.5864     0.0000    12.0000 </r>
       <r>   -40.3791     0.0000    12.0000 </r>
       <r>   -40.1718     0.0000    12.0000 </r>
       <r>   -39.9645     0.0000    12.0000 </r>
       <r>   -39.7571     0.0000    12.0000 </r>
       <r>   -39.5498     0.0000    12.0000 </r>
       <r>   -39.3425     0.0000    12.0000 </r>
       <r>   -39.1352     0.0000    12.0000 </r>
       <r>   -38.9279     0.0000    12.0000 </r>
       <r>   -38.7206     0.0000    12.0000 </r>
       <r>   -38.5133     0.0000    12.0000 </r>
       <r>   -38.3060     0.0000    12.0000 </r>
       <r>   -38.0987     0.0000    12.0000 </r>
       <r>   -37.8914     0.0000    12.0000 </r>
       <r>   -37.6841     0.0000    12.0000 </r>
       <r>   -37.4768     0.0000    12.0000 </r>
       <r>   -37.2695     0.0000    12.0000 </r>
       <r>   -37.0622     0.0000    12.0000 </r>
       <r>   -36.8549     0.0000    12.0000 </r>
       <r>   -36.6476     0.0000    12.0000 </r>
       <r>   -36.4403     0.0000    12.0000 </r>
       <r>   -36.2330     0.0000    12.0000 </r>
       <r>   -36.0257     0.0000    12.0000 </r>
       <r>   -35.8184     0.0000    12.0000 </r>
       <r>   -35.6111     0.0000    12.0000 </r>
       <r>   -35.4038     0.0000    12.0000 </r>
       <r>   -35.1965     0.0000    12.0000 </r>
       <r>   -34.9892     0.0000    12.0000 </r>
       <r>   -34.7819     0.0000    12.0000 </r>
       <r>   -34.5746     0.0000    12.0000 </r>
       <r>   -34.3673     0.0000    12.0000 </r>
       <r>   -34.1600     0.0000    12.0000 </r>
       <r>   -33.9527     0.0000    12.0000 </r>
       <r>   -33.7454     0.0000    12.0000 </r>
       <r>   -33.5381     0.0000    12.0000 </r>
       <r>   -33.3307     0.0000    12.0000 </r>
       <r>   -33.1234     0.0000    12.0000 </r>
       <r>   -32.9161     0.0000    12.0000 </r>
       <r>   -32.7088     0.0000    12.0000 </r>
       <r>   -32.5015     0.0000    12.0000 </r>
       <r>   -32.2942     0.0000    12.0000 </r>
       <r>   -32.0869     0.0000    12.0000 </r>
       <r>   -31.8796     0.0000    12.0000 </r>
       <r>   -31.6723     0.0000    12.0000 </r>
       <r>   -31.4650     0.0000    12.0000 </r>
       <r>   -31.2577     0.0000    12.0000 </r>
       <r>   -31.0504     0.0000    12.0000 </r>
       <r>   -30.8431     0.0000    12.0000 </r>
       <r>   -30.6358     0.0000    12.0000 </r>
       <r>   -30.4285     0.0000    12.0000 </r>
       <r>   -30.2212     0.0000    12.0000 </r>
       <r>   -30.0139     0.0000    12.0000 </r>
       <r>   -29.8066     0.0000    12.0000 </r>
       <r>   -29.5993     0.0000    12.0000 </r>
       <r>   -29.3920     0.0000    12.0000 </r>
       <r>   -29.1847     0.0000    12.0000 </r>
       <r>   -28.9774     0.0000    12.0000 </r>
       <r>   -28.7701     0.0000    12.0000 </r>
       <r>   -28.5628     0.0000    12.0000 </r>
       <r>   -28.3555     0.0000    12.0000 </r>
       <r>   -28.1482     0.0000    12.0000 </r>
       <r>   -27.9409     0.0000    12.0000 </r>
       <r>   -27.7336     0.0000    12.0000 </r>
       <r>   -27.5263     0.0000    12.0000 </r>
       <r>   -27.3190     0.0000    12.0000 </r>
       <r>   -27.1117     0.0000    12.0000 </r>
       <r>   -26.9043     0.0000    12.0000 </r>
       <r>   -26.6970     0.0000    12.0000 </r>
       <r>   -26.4897     0.0000    12.0000 </r>
       <r>   -26.2824     0.0000    12.0000 </r>
       <r>   -26.0751     0.0000    12.0000 </r>
       <r>   -25.8678    -0.0000    12.0000 </r>
       <r>   -25.6605    -0.0000    12.0000 </r>
       <r>   -25.4532    -0.0000    12.0000 </r>
       <r>   -25.2459    -0.0000    12.0000 </r>
       <r>   -25.0386    -0.0000    12.0000 </r>
       <r>   -24.8313    -0.0004    11.9999 </r>
       <r>   -24.6240    -0.0357    11.9925 </r>
       <r>   -24.4167    -0.1313    11.9653 </r>
       <r>   -24.2094     1.5861    12.2941 </r>
       <r>   -24.0021     9.9558    14.3580 </r>
       <r>   -23.7948    35.3393    21.6839 </r>
       <r>   -23.5875    47.7552    31.5837 </r>
       <r>   -23.3802    46.0344    41.1268 </r>
       <r>   -23.1729    25.2596    46.3632 </r>
       <r>   -22.9656     5.8495    47.5758 </r>
       <r>   -22.7583     2.0928    48.0097 </r>
       <r>   -22.5510     0.0010    48.0099 </r>
       <r>   -22.3437    -0.0469    48.0002 </r>
       <r>   -22.1364    -0.0007    48.0000 </r>
       <r>   -21.9291    -0.0000    48.0000 </r>
       <r>   -21.7218    -0.0000    48.0000 </r>
       <r>   -21.5145    -0.0000    48.0000 </r>
       <r>   -21.3072     0.0000    48.0000 </r>
       <r>   -21.0999     0.0000    48.0000 </r>
       <r>   -20.8926     0.0000    48.0000 </r>
       <r>   -20.6853     0.0000    48.0000 </r>
       <r>   -20.4779     0.0000    48.0000 </r>
       <r>   -20.2706     0.0000    48.0000 </r>
       <r>   -20.0633     0.0000    48.0000 </r>
       <r>   -19.8560     0.0000    48.0000 </r>
       <r>   -19.6487     0.0000    48.0000 </r>
       <r>   -19.4414     0.0000    48.0000 </r>
       <r>   -19.2341     0.0000    48.0000 </r>
       <r>   -19.0268     0.0000    48.0000 </r>
       <r>   -18.8195     0.0000    48.0000 </r>
       <r>   -18.6122     0.0000    48.0000 </r>
       <r>   -18.4049     0.0000    48.0000 </r>
       <r>   -18.1976     0.0000    48.0000 </r>
       <r>   -17.9903     0.0000    48.0000 </r>
       <r>   -17.7830     0.0000    48.0000 </r>
       <r>   -17.5757     0.0000    48.0000 </r>
       <r>   -17.3684     0.0000    48.0000 </r>
       <r>   -17.1611     0.0000    48.0000 </r>
       <r>   -16.9538     0.0000    48.0000 </r>
       <r>   -16.7465     0.0000    48.0000 </r>
       <r>   -16.5392     0.0000    48.0000 </r>
       <r>   -16.3319     0.0000    48.0000 </r>
       <r>   -16.1246     0.0000    48.0000 </r>
       <r>   -15.9173     0.0000    48.0000 </r>
       <r>   -15.7100     0.0000    48.0000 </r>
       <r>   -15.5027     0.0000    48.0000 </r>
       <r>   -15.2954     0.0000    48.0000 </r>
       <r>   -15.0881     0.0000    48.0000 </r>
       <r>   -14.8808     0.0000    48.0000 </r>
       <r>   -14.6735     0.0000    48.0000 </r>
       <r>   -14.4662     0.0000    48.0000 </r>
       <r>   -14.2588     0.0000    48.0000 </r>
       <r>   -14.0515     0.0000    48.0000 </r>
       <r>   -13.8442     0.0000    48.0000 </r>
       <r>   -13.6369     0.0000    48.0000 </r>
       <r>   -13.4296     0.0000    48.0000 </r>
       <r>   -13.2223     0.0000    48.0000 </r>
       <r>   -13.0150     0.0000    48.0000 </r>
       <r>   -12.8077     0.0000    48.0000 </r>
       <r>   -12.6004     0.0000    48.0000 </r>
       <r>   -12.3931     0.0000    48.0000 </r>
       <r>   -12.1858     0.0000    48.0000 </r>
       <r>   -11.9785     0.0000    48.0000 </r>
       <r>   -11.7712     0.0000    48.0000 </r>
       <r>   -11.5639     0.0000    48.0000 </r>
       <r>   -11.3566     0.0000    48.0000 </r>
       <r>   -11.1493     0.0000    48.0000 </r>
       <r>   -10.9420     0.0000    48.0000 </r>
       <r>   -10.7347     0.0000    48.0000 </r>
       <r>   -10.5274     0.0000    48.0000 </r>
       <r>   -10.3201     0.0000    48.0000 </r>
       <r>   -10.1128     0.0000    48.0000 </r>
       <r>    -9.9055     0.0000    48.0000 </r>
       <r>    -9.6982     0.0000    48.0000 </r>
       <r>    -9.4909     0.0000    48.0000 </r>
       <r>    -9.2836     0.0000    48.0000 </r>
       <r>    -9.0763     0.0000    48.0000 </r>
       <r>    -8.8690     0.0000    48.0000 </r>
       <r>    -8.6617     0.0000    48.0000 </r>
       <r>    -8.4544     0.0000    48.0000 </r>
       <r>    -8.2471     0.0000    48.0000 </r>
       <r>    -8.0398     0.0000    48.0000 </r>
       <r>    -7.8324     0.0000    48.0000 </r>
       <r>    -7.6251     0.0000    48.0000 </r>
       <r>    -7.4178     0.0000    48.0000 </r>
       <r>    -7.2105     0.0000    48.0000 </r>
       <r>    -7.0032     0.0000    48.0000 </r>
       <r>    -6.7959     0.0000    48.0000 </r>
       <r>    -6.5886     0.0000    48.0000 </r>
       <r>    -6.3813     0.0000    48.0000 </r>
       <r>    -6.1740     0.0000    48.0000 </r>
       <r>    -5.9667     0.0000    48.0000 </r>
       <r>    -5.7594     0.0000    48.0000 </r>
       <r>    -5.5521     0.0000    48.0000 </r>
       <r>    -5.3448     0.0000    48.0000 </r>
       <r>    -5.1375     0.0000    48.0000 </r>
       <r>    -4.9302     0.0000    48.0000 </r>
       <r>    -4.7229     0.0000    48.0000 </r>
       <r>    -4.5156     0.0000    48.0000 </r>
       <r>    -4.3083     0.0000    48.0000 </r>
       <r>    -4.1010     0.0000    48.0000 </r>
       <r>    -3.8937     0.0000    48.0000 </r>
       <r>    -3.6864     0.0000    48.0000 </r>
       <r>    -3.4791     0.0000    48.0000 </r>
       <r>    -3.2718     0.0000    48.0000 </r>
       <r>    -3.0645     0.0000    48.0000 </r>
       <r>    -2.8572     0.0000    48.0000 </r>
       <r>    -2.6499     0.0000    48.0000 </r>
       <r>    -2.4426     0.0000    48.0000 </r>
       <r>    -2.2353     0.0000    48.0000 </r>
       <r>    -2.0280     0.0000    48.0000 </r>
       <r>    -1.8207    -0.0000    48.0000 </r>
       <r>    -1.6134    -0.0000    48.0000 </r>
       <r>    -1.4060    -0.0000    48.0000 </r>
       <r>    -1.1987    -0.0000    48.0000 </r>
       <r>    -0.9914    -0.0000    48.0000 </r>
       <r>    -0.7841    -0.0000    48.0000 </r>
       <r>    -0.5768    -0.0008    47.9998 </r>
       <r>    -0.3695    -0.0138    47.9970 </r>
       <r>    -0.1622     0.0570    48.0088 </r>
       <r>     0.0451     0.6391    48.1413 </r>
       <r>     0.2524     1.1907    48.3881 </r>
       <r>     0.4597     1.5818    48.7161 </r>
       <r>     0.6670     2.1362    49.1589 </r>
       <r>     0.8743     1.9304    49.5591 </r>
       <r>     1.0816     2.6265    50.1036 </r>
       <r>     1.2889     3.1301    50.7524 </r>
       <r>     1.4962     3.2518    51.4265 </r>
       <r>     1.7035     3.5544    52.1634 </r>
       <r>     1.9108     4.2137    53.0369 </r>
       <r>     2.1181     5.0154    54.0766 </r>
       <r>     2.3254     5.9471    55.3095 </r>
       <r>     2.5327     8.0817    56.9848 </r>
       <r>     2.7400    13.7689    59.8392 </r>
       <r>     2.9473    19.8308    63.9502 </r>
       <r>     3.1546    25.1668    69.1673 </r>
       <r>     3.3619    28.6098    75.0982 </r>
       <r>     3.5692    29.7406    81.2636 </r>
       <r>     3.7765    31.8207    87.8601 </r>
       <r>     3.9838    30.5673    94.1968 </r>
       <r>     4.1911    30.0251   100.4211 </r>
       <r>     4.3984    29.7291   106.5840 </r>
       <r>     4.6057    25.7751   111.9273 </r>
       <r>     4.8130    27.9629   117.7241 </r>
       <r>     5.0204    36.0096   125.1890 </r>
       <r>     5.2277    40.4329   133.5709 </r>
       <r>     5.4350    42.8527   142.4544 </r>
       <r>     5.6423    41.6591   151.0904 </r>
       <r>     5.8496    40.8108   159.5506 </r>
       <r>     6.0569    42.8362   168.4307 </r>
       <r>     6.2642    42.1608   177.1708 </r>
       <r>     6.4715    40.5213   185.5710 </r>
       <r>     6.6788    38.1446   193.4785 </r>
       <r>     6.8861    34.2383   200.5762 </r>
       <r>     7.0934    29.6405   206.7208 </r>
       <r>     7.3007    23.6152   211.6163 </r>
       <r>     7.5080    19.1112   215.5781 </r>
       <r>     7.7153    19.3698   219.5935 </r>
       <r>     7.9226    20.9353   223.9335 </r>
       <r>     8.1299    24.8824   229.0917 </r>
       <r>     8.3372    26.1571   234.5141 </r>
       <r>     8.5445    17.9778   238.2410 </r>
       <r>     8.7518     7.9969   239.8987 </r>
       <r>     8.9591     0.6676   240.0371 </r>
       <r>     9.1664    -0.1690   240.0021 </r>
       <r>     9.3737    -0.0101   240.0000 </r>
       <r>     9.5810    -0.0001   240.0000 </r>
       <r>     9.7883    -0.0000   240.0000 </r>
       <r>     9.9956    -0.0000   240.0000 </r>
       <r>    10.2029    -0.0000   240.0000 </r>
       <r>    10.4102     0.0000   240.0000 </r>
       <r>    10.6175     0.0000   240.0000 </r>
       <r>    10.8248     0.0000   240.0000 </r>
       <r>    11.0321     0.0000   240.0000 </r>
       <r>    11.2394     0.0000   240.0000 </r>
       <r>    11.4468     0.0000   240.0000 </r>
       <r>    11.6541     0.0000   240.0000 </r>
      </set>
     </set>
    </array>
   </total>
  </dos>
 </calculation>
 <structure name="finalpos" >
  <crystal>
   <varray name="basis" >
    <v>      -3.19570159      -3.11477511      -3.12066284 </v>
    <v>       1.58277657       1.65245198      -7.88092408 </v>
    <v>       7.86568996      -7.73999691      -1.48167071 </v>
   </varray>
   <i name="volume">    467.32527104 </i>
   <varray name="rec_basis" >
    <v>      -0.13576565      -0.12762792      -0.05402738 </v>
    <v>       0.04180996       0.06265688      -0.10535398 </v>
    <v>       0.06356183      -0.06446130      -0.00075055 </v>
   </varray>
  </crystal>
  <varray name="positions" >
   <v>       0.94440199       0.91484548       0.35996231 </v>
   <v>       0.62911255       0.26494919       0.40391575 </v>
   <v>       0.49475736       0.00975450      -0.00642978 </v>
   <v>       0.00156137      -0.00763170       0.01794136 </v>
   <v>       0.09780894       0.20456626       0.79795313 </v>
   <v>       0.03030295       0.06079909       0.59403466 </v>
   <v>       0.80330087       0.59340916       0.40020285 </v>
   <v>       0.73049194       0.47364643       0.20265925 </v>
   <v>       0.66777446       0.34986242      -0.00539997 </v>
   <v>       0.36390674       0.72130895       0.60095211 </v>
   <v>       0.13070597       0.27022943       0.40242777 </v>
   <v>       0.84956500       0.67131552       0.01164848 </v>
   <v>       0.92877514       0.86976314       0.80030225 </v>
   <v>       0.56957146       0.14157736       0.19496521 </v>
   <v>       0.42273388       0.79848034       0.19747185 </v>
   <v>       0.43978223       0.85488050       0.79763967 </v>
   <v>       0.30075155       0.59887390       0.40211521 </v>
   <v>       0.85454016       0.72326431       0.59713187 </v>
   <v>       0.44838250       0.93122448       0.41195636 </v>
   <v>       0.17467519       0.34804962       0.00207592 </v>
   <v>       0.27196690       0.53128005       0.79482720 </v>
   <v>       0.19200824       0.38576831       0.59580388 </v>
   <v>       0.07201896       0.15992170       0.20840018 </v>
   <v>       0.76967610       0.51854034       0.80678340 </v>
   <v>       0.68519279       0.40296558       0.60887188 </v>
   <v>       0.60161510       0.20598603       0.79270933 </v>
   <v>       0.53889826       0.06468298       0.61027082 </v>
   <v>       0.35979041       0.65299313      -0.00250998 </v>
   <v>       0.22593100       0.48469349       0.20131702 </v>
  </varray>
 </structure>
</modeling>
