Nb - Mo - Ta - Ti - V SQS               
           1
    -3.160000   -3.160000   -3.160000
     1.580000    1.580000   -7.900000
     7.900000   -7.900000   -1.580000
   Nb   Mo   Ta   Ti   V 
   6   5   6   6   6
Direct configuration=     1
   0.96666667  0.93333333  0.40000000
   0.63333333  0.26666667  0.40000000
   0.50000000  0.00000000  0.00000000
   0.00000000  0.00000000  0.00000000
   0.10000000  0.20000000  0.80000000
   0.03333333  0.06666667  0.60000000
   0.80000000  0.60000000  0.40000000
   0.73333333  0.46666667  0.20000000
   0.66666667  0.33333333  0.00000000
   0.36666667  0.73333333  0.60000000
   0.13333333  0.26666667  0.40000000
   0.83333333  0.66666667  0.00000000
   0.93333333  0.86666667  0.80000000
   0.56666667  0.13333333  0.20000000
   0.40000000  0.80000000  0.20000000
   0.43333333  0.86666667  0.80000000
   0.30000000  0.60000000  0.40000000
   0.86666667  0.73333333  0.60000000
   0.46666667  0.93333333  0.40000000
   0.16666667  0.33333333  0.00000000
   0.26666667  0.53333333  0.80000000
   0.20000000  0.40000000  0.60000000
   0.06666667  0.13333333  0.20000000
   0.76666667  0.53333333  0.80000000
   0.70000000  0.40000000  0.60000000
   0.60000000  0.20000000  0.80000000
   0.53333333  0.06666667  0.60000000
   0.33333333  0.66666667  0.00000000
   0.23333333  0.46666667  0.20000000
Nb - Mo - Ta - Ti - V SQS               
           1
    -3.135463   -3.109879   -3.122917
     1.563372    1.568582   -7.816577
     7.842656   -7.792151   -1.548004
   Nb   Mo   Ta   Ti   V 
   6   5   6   6   6
Direct configuration=     2
   0.96348094  0.93155336  0.39646451
   0.63169060  0.26708666  0.40077078
   0.49737301  0.00190036 -0.00131523
  -0.00050365 -0.00211961  0.00266596
   0.09718485  0.20579617  0.79677402
   0.03422735  0.06866407  0.59892526
   0.80381330  0.59643197  0.39843118
   0.73102870  0.46734148  0.19900504
   0.66385548  0.33814529 -0.00082278
   0.36915498  0.73105385  0.60008371
   0.13288455  0.27061139  0.39935131
   0.83478557  0.66404435  0.00331646
   0.92946107  0.86806985  0.80013501
   0.56661586  0.13267138  0.19757615
   0.40385134  0.79370731  0.19817993
   0.43904960  0.86102367  0.79877987
   0.30045055  0.60060956  0.40174195
   0.86354907  0.73141213  0.59957516
   0.46320244  0.93249146  0.40427800
   0.16895260  0.33461417  0.00088072
   0.26862369  0.53407550  0.79946873
   0.19966970  0.39737392  0.59949482
   0.06762555  0.14056539  0.20250704
   0.76798864  0.52921175  0.80099173
   0.69689442  0.40350487  0.60184186
   0.59946171  0.20164553  0.79949067
   0.53712197  0.06749414  0.60173884
   0.33744014  0.66195792 -0.00032146
   0.23106600  0.46906212  0.19999077
Nb - Mo - Ta - Ti - V SQS               
           1
    -3.132196   -3.103205   -3.117979
     1.561158    1.567062   -7.805468
     7.835020   -7.777790   -1.543744
   Nb   Mo   Ta   Ti   V 
   6   5   6   6   6
Direct configuration=     3
   0.96304794  0.93131451  0.39598795
   0.63147009  0.26714312  0.40087416
   0.49701790  0.00215633 -0.00149272
  -0.00056899 -0.00240513  0.00302452
   0.09680279  0.20657655  0.79633953
   0.03434690  0.06893291  0.59878091
   0.80432516  0.59595199  0.39822074
   0.73071723  0.46743250  0.19887066
   0.66347632  0.33879291 -0.00093391
   0.36949012  0.73074706  0.60009542
   0.13282379  0.27114222  0.39926410
   0.83498437  0.66369103  0.00376297
   0.92893960  0.86825877  0.80015239
   0.56660649  0.13258266  0.19724992
   0.40436783  0.79286079  0.19793556
   0.43981803  0.86026440  0.79861668
   0.30051308  0.60069131  0.40197650
   0.86312840  0.73115384  0.59951721
   0.46273996  0.93237773  0.40485290
   0.16926162  0.33478628  0.00099980
   0.26888690  0.53417535  0.79939771
   0.19962444  0.39702069  0.59942664
   0.06775796  0.14153800  0.20284496
   0.76816738  0.52865704  0.80112529
   0.69647818  0.40397628  0.60208919
   0.59938882  0.20186701  0.79942208
   0.53763428  0.06760507  0.60197372
   0.33799272  0.66132428 -0.00036403
   0.23076071  0.46938450  0.19998914
Nb - Mo - Ta - Ti - V SQS               
           1
    -3.146500   -3.102073   -3.125391
     1.565651    1.575038   -7.829880
     7.874649   -7.787193   -1.539096
   Nb   Mo   Ta   Ti   V 
   6   5   6   6   6
Direct configuration=     4
   0.96033102  0.93014647  0.39314944
   0.63062936  0.26722428  0.40135959
   0.49542650  0.00319670 -0.00253885
  -0.00106249 -0.00389058  0.00510449
   0.09525717  0.20995295  0.79447415
   0.03476651  0.07020361  0.59803125
   0.80672857  0.59414788  0.39712512
   0.72945209  0.46757546  0.19842922
   0.66168658  0.34183151 -0.00178103
   0.37108923  0.72904197  0.60024339
   0.13237464  0.27340748  0.39901778
   0.83639584  0.66259659  0.00615787
   0.92700990  0.86924646  0.80015809
   0.56732136  0.13162922  0.19596716
   0.40632029  0.78943415  0.19685790
   0.44228906  0.85712491  0.79784939
   0.30093620  0.60091800  0.40308798
   0.86105858  0.72995218  0.59921459
   0.46048524  0.93185285  0.40753321
   0.17091376  0.33577872  0.00143085
   0.27034813  0.53445203  0.79898619
   0.19938637  0.39535120  0.59897749
   0.06841229  0.14623306  0.20444834
   0.76901198  0.52575419  0.80171418
   0.69423028  0.40624106  0.60358498
   0.59902988  0.20325838  0.79882552
   0.54042451  0.06815852  0.60337988
   0.34082766  0.65774950 -0.00065274
   0.22891949  0.47143125  0.19986458
Nb - Mo - Ta - Ti - V SQS               
           1
    -3.165694   -3.100554   -3.135336
     1.571680    1.585741   -7.862637
     7.927825   -7.799811   -1.532859
   Nb   Mo   Ta   Ti   V 
   6   5   6   6   6
Direct configuration=     5
   0.95667574  0.92858746  0.38934854
   0.62950669  0.26733272  0.40200785
   0.49328999  0.00458950 -0.00394002
  -0.00171134 -0.00587875  0.00788571
   0.09317807  0.21447065  0.79197785
   0.03532437  0.07190353  0.59702939
   0.80993898  0.59173505  0.39566215
   0.72775564  0.46776744  0.19783710
   0.65928662  0.34589670 -0.00291565
   0.37323036  0.72676089  0.60044293
   0.13177284  0.27643745  0.39868838
   0.83829957  0.66113050  0.00936298
   0.92442678  0.87056808  0.80016347
   0.56827030  0.13035483  0.19425190
   0.40892633  0.78485145  0.19541789
   0.44559139  0.85292584  0.79682533
   0.30150951  0.60122016  0.40457540
   0.85828497  0.72834600  0.59880670
   0.45748239  0.93114950  0.41111545
   0.17312883  0.33710514  0.00200993
   0.27230218  0.53482190  0.79843772
   0.19906414  0.39311881  0.59837586
   0.06930019  0.15251088  0.20659540
   0.77014501  0.52187107  0.80250216
   0.69123069  0.40926963  0.60558356
   0.59854634  0.20511982  0.79802747
   0.54416901  0.06889667  0.60526469
   0.34461990  0.65296775 -0.00103628
   0.22645452  0.47416936  0.19969615
Nb - Mo - Ta - Ti - V SQS               
           1
    -3.167697   -3.100396   -3.136373
     1.572309    1.586857   -7.866055
     7.933373   -7.801128   -1.532208
   Nb   Mo   Ta   Ti   V 
   6   5   6   6   6
Direct configuration=     6
   0.95629305  0.92842596  0.38895308
   0.62939032  0.26734397  0.40207506
   0.49306693  0.00473436 -0.00408585
  -0.00177719 -0.00608547  0.00817453
   0.09296045  0.21494020  0.79171834
   0.03538186  0.07208017  0.59692542
   0.81027191  0.59148443  0.39551051
   0.72757881  0.46778749  0.19777536
   0.65903645  0.34631914 -0.00303374
   0.37345311  0.72652385  0.60046388
   0.13171017  0.27675223  0.39865416
   0.83849954  0.66097788  0.00969621
   0.92415813  0.87070545  0.80016372
   0.56836788  0.13022256  0.19407377
   0.40919630  0.78437545  0.19526849
   0.44593408  0.85248963  0.79671925
   0.30157009  0.60125140  0.40473003
   0.85799611  0.72817929  0.59876389
   0.45717223  0.93107625  0.41148722
   0.17335967  0.33724280  0.00207043
   0.27250513  0.53486030  0.79838101
   0.19903014  0.39288698  0.59831324
   0.06939419  0.15316278  0.20681879
   0.77026319  0.52146761  0.80258406
   0.69092005  0.40958416  0.60579090
   0.59849562  0.20531326  0.79794454
   0.54455974  0.06897305  0.60546105
   0.34501392  0.65247094 -0.00107576
   0.22619812  0.47445388  0.19967840
Nb - Mo - Ta - Ti - V SQS               
           1
    -3.172141   -3.108069   -3.143313
     1.573214    1.589806   -7.881179
     7.941351   -7.817890   -1.534930
   Nb   Mo   Ta   Ti   V 
   6   5   6   6   6
Direct configuration=     7
   0.95508655  0.92858135  0.38791065
   0.63011397  0.26710026  0.40175893
   0.49325676  0.00399368 -0.00450643
  -0.00218564 -0.00605119  0.00866737
   0.09370961  0.21352308  0.79262001
   0.03539052  0.07156310  0.59682399
   0.80958483  0.59241948  0.39555240
   0.72781713  0.46717194  0.19853306
   0.65979352  0.34552966 -0.00335782
   0.37265025  0.72631141  0.60070298
   0.13145359  0.27606832  0.39913730
   0.83897440  0.66255211  0.00965429
   0.92545037  0.87097174  0.80029109
   0.56961360  0.12992457  0.19456765
   0.40827489  0.78571152  0.19546453
   0.44382033  0.85344421  0.79683358
   0.30211069  0.60084550  0.40451806
   0.85825227  0.72828020  0.59866209
   0.45677956  0.93110512  0.41124796
   0.17342822  0.33764918  0.00178870
   0.27260143  0.53462080  0.79813028
   0.19899770  0.39311949  0.59775586
   0.06920571  0.15313039  0.20669852
   0.76999869  0.52160130  0.80268961
   0.69044952  0.40964154  0.60608931
   0.59870741  0.20570685  0.79745750
   0.54516120  0.06883338  0.60602651
   0.34536551  0.65178928 -0.00135561
   0.22613743  0.47486174  0.19963760
Nb - Mo - Ta - Ti - V SQS               
           1
    -3.180805   -3.123026   -3.156841
     1.574979    1.595553   -7.910658
     7.956902   -7.850562   -1.540235
   Nb   Mo   Ta   Ti   V 
   6   5   6   6   6
Direct configuration=     8
   0.95274177  0.92888294  0.38588245
   0.63152264  0.26662572  0.40114335
   0.49362748  0.00255217 -0.00532520
  -0.00298142 -0.00598402  0.00962670
   0.09516573  0.21076653  0.79437413
   0.03540791  0.07055697  0.59662646
   0.80824753  0.59423889  0.39563444
   0.72827933  0.46597493  0.20000743
   0.66126753  0.34399323 -0.00398903
   0.37108793  0.72589838  0.60116860
   0.13095370  0.27473809  0.40007749
   0.83989736  0.66561496  0.00957290
   0.92796382  0.87148982  0.80053852
   0.57203603  0.12934506  0.19552822
   0.40648114  0.78831134  0.19584675
   0.43970743  0.85530183  0.79705721
   0.30316311  0.60005550  0.40410522
   0.85875079  0.72847644  0.59846390
   0.45601622  0.93116112  0.41078250
   0.17356198  0.33843961  0.00124047
   0.27278951  0.53415458  0.79764220
   0.19893576  0.39357142  0.59667118
   0.06883936  0.15306727  0.20646453
   0.76948382  0.52186153  0.80289517
   0.68953341  0.40975348  0.60667028
   0.59912032  0.20647221  0.79650967
   0.54633003  0.06856204  0.60712669
   0.34605055  0.65046271 -0.00190055
   0.22601921  0.47565527  0.19955833
Nb - Mo - Ta - Ti - V SQS               
           1
    -3.178699   -3.119390   -3.153552
     1.574550    1.594156   -7.903490
     7.953121   -7.842618   -1.538945
   Nb   Mo   Ta   Ti   V 
   6   5   6   6   6
Direct configuration=     9
   0.95330861  0.92881023  0.38637383
   0.63118102  0.26674086  0.40129274
   0.49353702  0.00290160 -0.00512660
  -0.00278812 -0.00600051  0.00939407
   0.09481364  0.21143406  0.79394924
   0.03540344  0.07080078  0.59667440
   0.80857175  0.59379803  0.39561431
   0.72816805  0.46626465  0.19965016
   0.66090993  0.34436565 -0.00383579
   0.37146656  0.72599831  0.60105560
   0.13107513  0.27506017  0.39984962
   0.83967420  0.66487293  0.00959254
   0.92735524  0.87136431  0.80047877
   0.57144974  0.12948533  0.19529566
   0.40691620  0.78768132  0.19575377
   0.44070404  0.85485161  0.79700248
   0.30290785  0.60024701  0.40420544
   0.85862996  0.72842895  0.59851198
   0.45620086  0.93114763  0.41089525
   0.17352938  0.33824822  0.00137333
   0.27274361  0.53426764  0.79776056
   0.19895021  0.39346215  0.59693407
   0.06892795  0.15308260  0.20652121
   0.76960869  0.52179843  0.80284528
   0.68975565  0.40972622  0.60652936
   0.59901987  0.20628698  0.79673942
   0.54604750  0.06862758  0.60686014
   0.34588412  0.65078425 -0.00176831
   0.22604791  0.47546303  0.19957748
Nb - Mo - Ta - Ti - V SQS               
           1
    -3.172748   -3.115334   -3.148777
     1.569914    1.592402   -7.890139
     7.933895   -7.829945   -1.534693
   Nb   Mo   Ta   Ti   V 
   6   5   6   6   6
Direct configuration=    10
   0.95200227  0.92878238  0.38497560
   0.63174852  0.26652108  0.40109455
   0.49353402  0.00231767 -0.00547365
  -0.00317712 -0.00607844  0.01002396
   0.09560830  0.21003799  0.79483028
   0.03547846  0.07024169  0.59656152
   0.80795256  0.59462236  0.39566267
   0.72819901  0.46612576  0.20021211
   0.66177556  0.34377388 -0.00415427
   0.37065852  0.72570378  0.60128774
   0.13083928  0.27445313  0.40032316
   0.84015924  0.66624979  0.00974574
   0.92798625  0.87178806  0.80057191
   0.57274148  0.12907132  0.19567422
   0.40615876  0.78881688  0.19597700
   0.43916819  0.85566761  0.79711856
   0.30347716  0.59996926  0.40389697
   0.85866308  0.72854989  0.59835619
   0.45544060  0.93119081  0.41075810
   0.17364221  0.33885907  0.00109034
   0.27289628  0.53394790  0.79736711
   0.19876435  0.39345098  0.59635984
   0.06895371  0.15329513  0.20649382
   0.76935705  0.52174151  0.80310731
   0.68924346  0.40983747  0.60690339
   0.59934811  0.20670178  0.79615673
   0.54669557  0.06855533  0.60755053
   0.34668967  0.64992271 -0.00205587
   0.22599544  0.47588322  0.19958447
Nb - Mo - Ta - Ti - V SQS               
           1
    -3.162181   -3.108133   -3.140299
     1.561681    1.589289   -7.866429
     7.899755   -7.807440   -1.527144
   Nb   Mo   Ta   Ti   V 
   6   5   6   6   6
Direct configuration=    11
   0.94968075  0.92873173  0.38248786
   0.63275821  0.26612996  0.40074170
   0.49352931  0.00127866 -0.00609136
  -0.00386985 -0.00621653  0.01114482
   0.09702086  0.20755531  0.79639736
   0.03561221  0.06924708  0.59636046
   0.80685097  0.59608876  0.39574911
   0.72825333  0.46587915  0.20121197
   0.66331577  0.34272094 -0.00472135
   0.36922110  0.72518005  0.60170088
   0.13041931  0.27337370  0.40116561
   0.84102138  0.66869914  0.01001870
   0.92910835  0.87254191  0.80073765
   0.57503856  0.12833516  0.19634743
   0.40481096  0.79083704  0.19637474
   0.43643615  0.85711926  0.79732569
   0.30449023  0.59947491  0.40334788
   0.85872218  0.72876490  0.59807900
   0.45408858  0.93126753  0.41051423
   0.17384311  0.33994543  0.00058697
   0.27316846  0.53337882  0.79666689
   0.19843456  0.39343064  0.59533809
   0.06899951  0.15367317  0.20644515
   0.76890913  0.52164048  0.80357360
   0.68833192  0.41003568  0.60756906
   0.59993261  0.20743915  0.79511998
   0.54784729  0.06842737  0.60877884
   0.34812305  0.64838992 -0.00256800
   0.22590200  0.47663068  0.19959705
Nb - Mo - Ta - Ti - V SQS               
           1
    -3.165567   -3.110440   -3.143015
     1.564318    1.590287   -7.874024
     7.910692   -7.814649   -1.529562
   Nb   Mo   Ta   Ti   V 
   6   5   6   6   6
Direct configuration=    12
   0.95042546  0.92874865  0.38328755
   0.63243364  0.26625574  0.40085525
   0.49353046  0.00161269 -0.00589265
  -0.00364682 -0.00617245  0.01078441
   0.09656754  0.20835268  0.79589388
   0.03556907  0.06956674  0.59642522
   0.80720504  0.59561753  0.39572109
   0.72823630  0.46595813  0.20089053
   0.66282061  0.34305944 -0.00453881
   0.36968304  0.72534823  0.60156801
   0.13055452  0.27372034  0.40089484
   0.84074474  0.66791200  0.00993074
   0.92874800  0.87229963  0.80068435
   0.57430083  0.12857155  0.19613121
   0.40524431  0.79018778  0.19624656
   0.43731407  0.85665272  0.79725876
   0.30416448  0.59963391  0.40352454
   0.85870309  0.72869588  0.59816810
   0.45452283  0.93124294  0.41059254
   0.17377843  0.33959647  0.00074870
   0.27308065  0.53356187  0.79689210
   0.19854005  0.39343744  0.59566657
   0.06898481  0.15355170  0.20646076
   0.76905323  0.52167282  0.80342366
   0.68862508  0.40997181  0.60735496
   0.59974443  0.20720248  0.79545327
   0.54747782  0.06846817  0.60838401
   0.34766220  0.64888261 -0.00240309
   0.22593209  0.47639049  0.19959292
Nb - Mo - Ta - Ti - V SQS               
           1
    -3.167526   -3.110112   -3.142219
     1.564159    1.592904   -7.873652
     7.910773   -7.811961   -1.526173
   Nb   Mo   Ta   Ti   V 
   6   5   6   6   6
Direct configuration=    13
   0.94980863  0.92830208  0.38211096
   0.63227612  0.26623365  0.40109972
   0.49310102  0.00186020 -0.00581756
  -0.00367855 -0.00646445  0.01134405
   0.09695034  0.20804213  0.79613723
   0.03563330  0.06927323  0.59637185
   0.80704335  0.59591479  0.39574895
   0.72810500  0.46662991  0.20075693
   0.66332232  0.34316412 -0.00465224
   0.36935539  0.72515437  0.60159800
   0.13068246  0.27348853  0.40100236
   0.84128981  0.66792542  0.01034980
   0.92794766  0.87249727  0.80061624
   0.57473257  0.12813239  0.19607073
   0.40498854  0.79058154  0.19639925
   0.43795441  0.85663655  0.79734123
   0.30420472  0.59967166  0.40322042
   0.85839575  0.72874287  0.59805323
   0.45369085  0.93130789  0.41067243
   0.17383833  0.34014777  0.00067495
   0.27306078  0.53329646  0.79647345
   0.19815540  0.39306421  0.59555093
   0.06948882  0.15398380  0.20656100
   0.76906468  0.52140224  0.80373164
   0.68840586  0.40998361  0.60760086
   0.60004045  0.20737333  0.79508897
   0.54763237  0.06858112  0.60876105
   0.34862614  0.64842485 -0.00252764
   0.22588350  0.47664845  0.19966120
Nb - Mo - Ta - Ti - V SQS               
           1
    -3.173403   -3.109130   -3.139832
     1.563683    1.600757   -7.872534
     7.911018   -7.803894   -1.516006
   Nb   Mo   Ta   Ti   V 
   6   5   6   6   6
Direct configuration=    14
   0.94795617  0.92696160  0.37858010
   0.63180401  0.26616747  0.40183317
   0.49181330  0.00260249 -0.00559230
  -0.00377313 -0.00734004  0.01302308
   0.09809860  0.20711088  0.79686742
   0.03582559  0.06839282  0.59621158
   0.80655870  0.59680640  0.39583263
   0.72771163  0.46864488  0.20035637
   0.66482710  0.34347829 -0.00499232
   0.36837247  0.72457273  0.60168776
   0.13106617  0.27279330  0.40132489
   0.84292540  0.66796613  0.01160747
   0.92554717  0.87308972  0.80041161
   0.57602701  0.12681521  0.19588919
   0.40422198  0.79176266  0.19685748
   0.43987519  0.85658838  0.79758895
   0.30432497  0.59978474  0.40230794
   0.85747375  0.72888363  0.59770845
   0.45119554  0.93150240  0.41091179
   0.17401842  0.34180147  0.00045397
   0.27300021  0.53250008  0.79521715
   0.19700110  0.39194442  0.59520358
   0.07100119  0.15528022  0.20686223
   0.76909927  0.52059078  0.80465561
   0.68774871  0.41001906  0.60833858
   0.60092794  0.20788575  0.79399612
   0.54809666  0.06892020  0.60989249
   0.35151677  0.64705210 -0.00290118
   0.22573812  0.47742225  0.19986621
Nb - Mo - Ta - Ti - V SQS               
           1
    -3.185157   -3.107165   -3.135058
     1.562729    1.616462   -7.870299
     7.911508   -7.787760   -1.495672
   Nb   Mo   Ta   Ti   V 
   6   5   6   6   6
Direct configuration=    15
   0.94423923  0.92427608  0.37151175
   0.63086253  0.26603555  0.40330031
   0.48924150  0.00408565 -0.00514189
  -0.00395854 -0.00908882  0.01638181
   0.10039433  0.20525086  0.79832853
   0.03620767  0.06663262  0.59589010
   0.80559199  0.59858866  0.39600060
   0.72692807  0.47267256  0.19955665
   0.66783454  0.34410734 -0.00567117
   0.36640685  0.72340911  0.60186588
   0.13183280  0.27140404  0.40196988
   0.84619891  0.66805034  0.01412553
   0.92074936  0.87427185  0.80000069
   0.57861125  0.12418275  0.19552566
   0.40269357  0.79412389  0.19777499
   0.44371533  0.85649403  0.79808625
   0.30456262  0.60000991  0.40048229
   0.85562995  0.72916385  0.59701788
   0.44620884  0.93188936  0.41138879
   0.17438100  0.34510758  0.00001372
   0.27287351  0.53090644  0.79270238
   0.19469041  0.38970424  0.59450633
   0.07402781  0.15787378  0.20746769
   0.76916974  0.51896949  0.80650365
   0.68643760  0.41009016  0.60981424
   0.60269943  0.20890978  0.79181061
   0.54902904  0.06959978  0.61215728
   0.35729090  0.64430970 -0.00364758
   0.22544974  0.47896940  0.20027712
Nb - Mo - Ta - Ti - V SQS               
           1
    -3.176995   -3.108529   -3.138373
     1.563391    1.605556   -7.871851
     7.911168   -7.798963   -1.509791
   Nb   Mo   Ta   Ti   V 
   6   5   6   6   6
Direct configuration=    16
   0.94683689  0.92614719  0.37642904
   0.63151245  0.26612653  0.40228120
   0.49102226  0.00305774 -0.00545451
  -0.00383502 -0.00787786  0.01404864
   0.09880130  0.20653896  0.79731293
   0.03594582  0.06785399  0.59611463
   0.80625965  0.59735246  0.39588311
   0.72746775  0.46987895  0.20011000
   0.66574919  0.34366955 -0.00520160
   0.36777145  0.72421758  0.60174412
   0.13130154  0.27236705  0.40152213
   0.84392262  0.66798798  0.01237324
   0.92407645  0.87345484  0.80028834
   0.57682326  0.12600805  0.19577873
   0.40374836  0.79248572  0.19713642
   0.44105078  0.85655678  0.79773833
   0.30440155  0.59985493  0.40175095
   0.85690999  0.72897107  0.59749879
   0.44966607  0.93162353  0.41105997
   0.17412589  0.34281367  0.00031706
   0.27296924  0.53201424  0.79445160
   0.19629781  0.39126058  0.59499404
   0.07192355  0.15607187  0.20704309
   0.76911898  0.52009300  0.80522028
   0.68734360  0.41004049  0.60878928
   0.60147417  0.20819983  0.79332788
   0.54837632  0.06912593  0.61058201
   0.35329138  0.64620963 -0.00313023
   0.22564669  0.47789573  0.19999053
Nb - Mo - Ta - Ti - V SQS               
           1
    -3.182613   -3.109010   -3.138588
     1.564746    1.610073   -7.875191
     7.916168   -7.795332   -1.505585
   Nb   Mo   Ta   Ti   V 
   6   5   6   6   6
Direct configuration=    17
   0.94639553  0.92532217  0.37510155
   0.63137372  0.26648617  0.40224851
   0.49094382  0.00353234 -0.00525878
  -0.00357224 -0.00820441  0.01450183
   0.09895944  0.20686982  0.79723172
   0.03578034  0.06755474  0.59600638
   0.80624930  0.59693127  0.39592528
   0.72786563  0.46995743  0.20041054
   0.66590587  0.34438558 -0.00509486
   0.36775349  0.72404699  0.60146615
   0.13116771  0.27261656  0.40136720
   0.84425760  0.66798297  0.01255895
   0.92527958  0.87297740  0.80033113
   0.57666168  0.12669186  0.19571851
   0.40422381  0.79279798  0.19700197
   0.44014631  0.85580394  0.79781850
   0.30368143  0.59967068  0.40190452
   0.85628366  0.72873739  0.59742968
   0.44902718  0.93178896  0.41140323
   0.17422361  0.34334731  0.00055624
   0.27264446  0.53210402  0.79402599
   0.19578023  0.39079698  0.59498584
   0.07220663  0.15676447  0.20726480
   0.76941123  0.51994655  0.80546414
   0.68723839  0.40974347  0.60879759
   0.60166654  0.20811250  0.79322159
   0.54784353  0.06910565  0.61069232
   0.35454225  0.64620582 -0.00318313
   0.22605927  0.47792339  0.20010261
Nb - Mo - Ta - Ti - V SQS               
           1
    -3.190892   -3.109718   -3.138905
     1.566743    1.616729   -7.880113
     7.923536   -7.789982   -1.499387
   Nb   Mo   Ta   Ti   V 
   6   5   6   6   6
Direct configuration=    18
   0.94574229  0.92410710  0.37314504
   0.63116971  0.26701571  0.40220038
   0.49082912  0.00423120 -0.00497027
  -0.00318470 -0.00868519  0.01516962
   0.09919239  0.20735710  0.79711222
   0.03553622  0.06711401  0.59584670
   0.80623379  0.59631104  0.39598729
   0.72845213  0.47007315  0.20085358
   0.66613741  0.34544004 -0.00493730
   0.36772634  0.72379577  0.60105650
   0.13097055  0.27298393  0.40113893
   0.84475120  0.66797573  0.01283274
   0.92705070  0.87227478  0.80039463
   0.57642423  0.12769876  0.19562991
   0.40492386  0.79325797  0.19680419
   0.43881411  0.85469499  0.79793598
   0.30262129  0.59939909  0.40213041
   0.85536112  0.72839307  0.59732747
   0.44808733  0.93203233  0.41190878
   0.17436843  0.34413317  0.00090889
   0.27216549  0.53223611  0.79339873
   0.19501775  0.39011411  0.59497337
   0.07262448  0.15778450  0.20759182
   0.76984190  0.51973101  0.80582356
   0.68708323  0.40930605  0.60880968
   0.60194949  0.20798397  0.79306504
   0.54705928  0.06907558  0.61085462
   0.35638388  0.64620065 -0.00326047
   0.22666699  0.47796427  0.20026795
Nb - Mo - Ta - Ti - V SQS               
           1
    -3.189768   -3.106300   -3.134729
     1.566195    1.618654   -7.873301
     7.912208   -7.775218   -1.494859
   Nb   Mo   Ta   Ti   V 
   6   5   6   6   6
Direct configuration=    19
   0.94547042  0.92342437  0.37209971
   0.63109861  0.26717396  0.40212354
   0.49100891  0.00448674 -0.00497758
  -0.00281975 -0.00880790  0.01541305
   0.09921435  0.20751147  0.79709153
   0.03520388  0.06682671  0.59571518
   0.80599865  0.59589842  0.39613557
   0.72873509  0.47014735  0.20113085
   0.66630423  0.34598111 -0.00484216
   0.36753639  0.72366715  0.60083975
   0.13091742  0.27309561  0.40110923
   0.84494901  0.66821073  0.01286841
   0.92750003  0.87179487  0.80053136
   0.57602766  0.12872551  0.19562159
   0.40561325  0.79349713  0.19672021
   0.43870251  0.85420636  0.79800830
   0.30208180  0.59937844  0.40219716
   0.85491680  0.72807203  0.59727576
   0.44774854  0.93215507  0.41214118
   0.17454158  0.34452115  0.00113336
   0.27199733  0.53232547  0.79318700
   0.19459077  0.38976605  0.59491404
   0.07274002  0.15823925  0.20776662
   0.76999695  0.51969678  0.80595630
   0.68702349  0.40888853  0.60874703
   0.60214011  0.20779582  0.79305028
   0.54642390  0.06895028  0.61091735
   0.35722339  0.64639066 -0.00327774
   0.22711463  0.47798090  0.20040312
Nb - Mo - Ta - Ti - V SQS               
           1
    -3.188830   -3.103449   -3.131244
     1.565737    1.620261   -7.867618
     7.902758   -7.762900   -1.491082
   Nb   Mo   Ta   Ti   V 
   6   5   6   6   6
Direct configuration=    20
   0.94524259  0.92285435  0.37122601
   0.63103928  0.26730605  0.40205934
   0.49115914  0.00470009 -0.00498364
  -0.00251496 -0.00891028  0.01561651
   0.09923275  0.20764034  0.79707426
   0.03492618  0.06658681  0.59560519
   0.80580221  0.59555391  0.39625940
   0.72897153  0.47020933  0.20136261
   0.66644382  0.34643283 -0.00476256
   0.36737763  0.72355975  0.60065857
   0.13087309  0.27318883  0.40108442
   0.84511431  0.66840694  0.01289827
   0.92787506  0.87139430  0.80064562
   0.57569700  0.12958261  0.19561473
   0.40618894  0.79369689  0.19665015
   0.43860915  0.85379843  0.79806866
   0.30163136  0.59936112  0.40225287
   0.85454563  0.72780395  0.59723244
   0.44746583  0.93225748  0.41233536
   0.17468644  0.34484507  0.00132103
   0.27185685  0.53240005  0.79301006
   0.19423407  0.38947541  0.59486436
   0.07283678  0.15861890  0.20791277
   0.77012647  0.51966824  0.80606725
   0.68697340  0.40853996  0.60869461
   0.60229919  0.20763878  0.79303794
   0.54589335  0.06884557  0.61096969
   0.35792445  0.64654941 -0.00329204
   0.22748848  0.47799485  0.20051613
Nb - Mo - Ta - Ti - V SQS               
           1
    -3.189940   -3.104409   -3.130505
     1.568206    1.625024   -7.871943
     7.895928   -7.756477   -1.489718
   Nb   Mo   Ta   Ti   V 
   6   5   6   6   6
Direct configuration=    21
   0.94497902  0.92213519  0.37011435
   0.63094181  0.26721673  0.40206032
   0.49156329  0.00493139 -0.00516660
  -0.00197639 -0.00885193  0.01580833
   0.09918023  0.20756340  0.79715789
   0.03432057  0.06615245  0.59544887
   0.80521690  0.59527295  0.39657272
   0.72918000  0.47041616  0.20158196
   0.66673349  0.34677947 -0.00470664
   0.36684984  0.72345950  0.60051192
   0.13099772  0.27302216  0.40121730
   0.84555932  0.66884898  0.01286783
   0.92764886  0.87091803  0.80081618
   0.57505061  0.13103823  0.19561609
   0.40717421  0.79405782  0.19668324
   0.43925218  0.85356497  0.79814287
   0.30124532  0.59944833  0.40218356
   0.85427374  0.72733621  0.59717195
   0.44737940  0.93234519  0.41245546
   0.17496951  0.34518159  0.00152262
   0.27180479  0.53240649  0.79299187
   0.19380219  0.38918351  0.59478815
   0.07285925  0.15886938  0.20801553
   0.77015047  0.51974621  0.80609863
   0.68693115  0.40788058  0.60856334
   0.60252738  0.20732711  0.79307573
   0.54504277  0.06858965  0.61097966
   0.35841229  0.64700782 -0.00327502
   0.22793006  0.47815243  0.20070189
Nb - Mo - Ta - Ti - V SQS               
           1
    -3.193272   -3.107288   -3.128287
     1.575611    1.639313   -7.884917
     7.875437   -7.737205   -1.485625
   Nb   Mo   Ta   Ti   V 
   6   5   6   6   6
Direct configuration=    22
   0.94418707  0.91997932  0.36677621
   0.63064928  0.26694894  0.40206321
   0.49277598  0.00562491 -0.00571583
  -0.00036095 -0.00867672  0.01638433
   0.09902256  0.20733275  0.79740897
   0.03250324  0.06485011  0.59497929
   0.80346075  0.59443050  0.39751333
   0.72980570  0.47103622  0.20224066
   0.66760304  0.34781867 -0.00453860
   0.36526666  0.72315871  0.60007156
   0.13137114  0.27252268  0.40161620
   0.84689501  0.67017421  0.01277663
   0.92696938  0.86949034  0.80132808
   0.57311502  0.13540100  0.19562080
   0.41013009  0.79514021  0.19678276
   0.44118033  0.85286557  0.79836561
   0.30008768  0.59970952  0.40197549
   0.85345726  0.72593406  0.59699013
   0.44712032  0.93260806  0.41281611
   0.17581921  0.34619045  0.00212808
   0.27164868  0.53242574  0.79293726
   0.19250627  0.38830828  0.59455919
   0.07292716  0.15962018  0.20832416
   0.77022263  0.51997993  0.80619290
   0.68680306  0.40590412  0.60816888
   0.60321114  0.20639302  0.79318909
   0.54249106  0.06782206  0.61100945
   0.35987644  0.64838216 -0.00322368
   0.22925480  0.47862502  0.20125971
Nb - Mo - Ta - Ti - V SQS               
           1
    -3.197143   -3.111906   -3.129713
     1.579047    1.643857   -7.892162
     7.880019   -7.743538   -1.486364
   Nb   Mo   Ta   Ti   V 
   6   5   6   6   6
Direct configuration=    23
   0.94412394  0.91949706  0.36601672
   0.63035944  0.26662335  0.40253735
   0.49320101  0.00621333 -0.00573203
  -0.00013273 -0.00828363  0.01656385