  30  30   0   0
  0.1700611E+02  0.5611845E-09  0.8417767E-09  0.1156911E-08  0.5000000E-15
  1.000000000000000E-004
  CAR 
 Nb - Mo - Ta - Ti - V SQS               
     10.79297700    -50.89608358  301      6.01240070      1.00000000
    -50.896  0.0000E+00  0.0000E+00
    -50.690  0.0000E+00  0.0000E+00
    -50.485  0.0000E+00  0.0000E+00
    -50.279  0.0000E+00  0.0000E+00
    -50.074  0.0000E+00  0.0000E+00
    -49.868 -0.1330E-32 -0.2734E-33
    -49.662 -0.3778E-25 -0.7768E-26
    -49.457 -0.1244E-18 -0.2559E-19
    -49.251 -0.4771E-13 -0.9810E-14
    -49.045 -0.2220E-08 -0.4565E-09
    -48.840 -0.1217E-04 -0.2502E-05
    -48.634 -0.7622E-02 -0.1570E-02
    -48.429 -0.4813E+00 -0.1005E+00
    -48.223  0.1212E+00 -0.7562E-01
    -48.017  0.2836E+02  0.5756E+01
    -47.812  0.2958E+02  0.1184E+02
    -47.606  0.1390E+01  0.1212E+02
    -47.400 -0.5827E+00  0.1200E+02
    -47.195 -0.1732E-01  0.1200E+02
    -46.989 -0.5379E-04  0.1200E+02
    -46.783 -0.1929E-07  0.1200E+02
    -46.578 -0.8107E-12  0.1200E+02
    -46.372  0.0000E+00  0.1200E+02
    -46.167  0.0000E+00  0.1200E+02
    -45.961  0.0000E+00  0.1200E+02
    -45.755  0.0000E+00  0.1200E+02
    -45.550  0.0000E+00  0.1200E+02
    -45.344  0.0000E+00  0.1200E+02
    -45.138  0.0000E+00  0.1200E+02
    -44.933  0.0000E+00  0.1200E+02
    -44.727  0.0000E+00  0.1200E+02
    -44.522  0.0000E+00  0.1200E+02
    -44.316  0.0000E+00  0.1200E+02
    -44.110  0.0000E+00  0.1200E+02
    -43.905  0.0000E+00  0.1200E+02
    -43.699  0.0000E+00  0.1200E+02
    -43.493  0.0000E+00  0.1200E+02
    -43.288  0.0000E+00  0.1200E+02
    -43.082  0.0000E+00  0.1200E+02
    -42.877  0.0000E+00  0.1200E+02
    -42.671  0.0000E+00  0.1200E+02
    -42.465  0.0000E+00  0.1200E+02
    -42.260  0.0000E+00  0.1200E+02
    -42.054  0.0000E+00  0.1200E+02
    -41.848  0.0000E+00  0.1200E+02
    -41.643  0.0000E+00  0.1200E+02
    -41.437  0.0000E+00  0.1200E+02
    -41.231  0.0000E+00  0.1200E+02
    -41.026  0.0000E+00  0.1200E+02
    -40.820  0.0000E+00  0.1200E+02
    -40.615  0.0000E+00  0.1200E+02
    -40.409  0.0000E+00  0.1200E+02
    -40.203  0.0000E+00  0.1200E+02
    -39.998  0.0000E+00  0.1200E+02
    -39.792  0.0000E+00  0.1200E+02
    -39.586  0.0000E+00  0.1200E+02
    -39.381  0.0000E+00  0.1200E+02
    -39.175  0.0000E+00  0.1200E+02
    -38.970  0.0000E+00  0.1200E+02
    -38.764  0.0000E+00  0.1200E+02
    -38.558  0.0000E+00  0.1200E+02
    -38.353  0.0000E+00  0.1200E+02
    -38.147  0.0000E+00  0.1200E+02
    -37.941  0.0000E+00  0.1200E+02
    -37.736  0.0000E+00  0.1200E+02
    -37.530  0.0000E+00  0.1200E+02
    -37.324  0.0000E+00  0.1200E+02
    -37.119  0.0000E+00  0.1200E+02
    -36.913  0.0000E+00  0.1200E+02
    -36.708  0.0000E+00  0.1200E+02
    -36.502  0.0000E+00  0.1200E+02
    -36.296  0.0000E+00  0.1200E+02
    -36.091  0.0000E+00  0.1200E+02
    -35.885  0.0000E+00  0.1200E+02
    -35.679  0.0000E+00  0.1200E+02
    -35.474  0.0000E+00  0.1200E+02
    -35.268  0.0000E+00  0.1200E+02
    -35.063  0.0000E+00  0.1200E+02
    -34.857  0.0000E+00  0.1200E+02
    -34.651  0.0000E+00  0.1200E+02
    -34.446  0.0000E+00  0.1200E+02
    -34.240  0.0000E+00  0.1200E+02
    -34.034  0.0000E+00  0.1200E+02
    -33.829  0.0000E+00  0.1200E+02
    -33.623  0.0000E+00  0.1200E+02
    -33.418  0.0000E+00  0.1200E+02
    -33.212  0.0000E+00  0.1200E+02
    -33.006  0.0000E+00  0.1200E+02
    -32.801  0.0000E+00  0.1200E+02
    -32.595  0.0000E+00  0.1200E+02
    -32.389  0.0000E+00  0.1200E+02
    -32.184  0.0000E+00  0.1200E+02
    -31.978  0.0000E+00  0.1200E+02
    -31.772  0.0000E+00  0.1200E+02
    -31.567  0.0000E+00  0.1200E+02
    -31.361  0.0000E+00  0.1200E+02
    -31.156  0.0000E+00  0.1200E+02
    -30.950  0.0000E+00  0.1200E+02
    -30.744  0.0000E+00  0.1200E+02
    -30.539  0.0000E+00  0.1200E+02
    -30.333  0.0000E+00  0.1200E+02
    -30.127  0.0000E+00  0.1200E+02
    -29.922  0.0000E+00  0.1200E+02
    -29.716  0.0000E+00  0.1200E+02
    -29.511  0.0000E+00  0.1200E+02
    -29.305  0.0000E+00  0.1200E+02
    -29.099  0.0000E+00  0.1200E+02
    -28.894  0.0000E+00  0.1200E+02
    -28.688  0.0000E+00  0.1200E+02
    -28.482  0.0000E+00  0.1200E+02
    -28.277  0.0000E+00  0.1200E+02
    -28.071  0.0000E+00  0.1200E+02
    -27.866  0.0000E+00  0.1200E+02
    -27.660  0.0000E+00  0.1200E+02
    -27.454  0.0000E+00  0.1200E+02
    -27.249  0.0000E+00  0.1200E+02
    -27.043  0.0000E+00  0.1200E+02
    -26.837  0.0000E+00  0.1200E+02
    -26.632  0.0000E+00  0.1200E+02
    -26.426 -0.1036E-31  0.1200E+02
    -26.220 -0.1771E-24  0.1200E+02
    -26.015 -0.3597E-18  0.1200E+02
    -25.809 -0.8418E-13  0.1200E+02
    -25.604 -0.2390E-08  0.1200E+02
    -25.398 -0.8131E-05  0.1200E+02
    -25.192 -0.3382E-02  0.1200E+02
    -24.987 -0.1653E+00  0.1197E+02
    -24.781 -0.1140E+00  0.1194E+02
    -24.575  0.9030E+01  0.1380E+02
    -24.370  0.2072E+02  0.1806E+02
    -24.164  0.5031E+02  0.2840E+02
    -23.959  0.6142E+02  0.4103E+02
    -23.753  0.2584E+02  0.4635E+02
    -23.547  0.7735E+01  0.4794E+02
    -23.342  0.4905E+00  0.4804E+02
    -23.136 -0.1808E+00  0.4800E+02
    -22.930 -0.9937E-02  0.4800E+02
    -22.725 -0.5460E-04  0.4800E+02
    -22.519 -0.3353E-07  0.4800E+02
    -22.313 -0.2356E-11  0.4800E+02
    -22.108  0.0000E+00  0.4800E+02
    -21.902  0.0000E+00  0.4800E+02
    -21.697  0.0000E+00  0.4800E+02
    -21.491  0.0000E+00  0.4800E+02
    -21.285  0.0000E+00  0.4800E+02
    -21.080  0.0000E+00  0.4800E+02
    -20.874  0.0000E+00  0.4800E+02
    -20.668  0.0000E+00  0.4800E+02
    -20.463  0.0000E+00  0.4800E+02
    -20.257  0.0000E+00  0.4800E+02
    -20.052  0.0000E+00  0.4800E+02
    -19.846  0.0000E+00  0.4800E+02
    -19.640  0.0000E+00  0.4800E+02
    -19.435  0.0000E+00  0.4800E+02
    -19.229  0.0000E+00  0.4800E+02
    -19.023  0.0000E+00  0.4800E+02
    -18.818  0.0000E+00  0.4800E+02
    -18.612  0.0000E+00  0.4800E+02
    -18.407  0.0000E+00  0.4800E+02
    -18.201  0.0000E+00  0.4800E+02
    -17.995  0.0000E+00  0.4800E+02
    -17.790  0.0000E+00  0.4800E+02
    -17.584  0.0000E+00  0.4800E+02
    -17.378  0.0000E+00  0.4800E+02
    -17.173  0.0000E+00  0.4800E+02
    -16.967  0.0000E+00  0.4800E+02
    -16.761  0.0000E+00  0.4800E+02
    -16.556  0.0000E+00  0.4800E+02
    -16.350  0.0000E+00  0.4800E+02
    -16.145  0.0000E+00  0.4800E+02
    -15.939  0.0000E+00  0.4800E+02
    -15.733  0.0000E+00  0.4800E+02
    -15.528  0.0000E+00  0.4800E+02
    -15.322  0.0000E+00  0.4800E+02
    -15.116  0.0000E+00  0.4800E+02
    -14.911  0.0000E+00  0.4800E+02
    -14.705  0.0000E+00  0.4800E+02
    -14.500  0.0000E+00  0.4800E+02
    -14.294  0.0000E+00  0.4800E+02
    -14.088  0.0000E+00  0.4800E+02
    -13.883  0.0000E+00  0.4800E+02
    -13.677  0.0000E+00  0.4800E+02
    -13.471  0.0000E+00  0.4800E+02
    -13.266  0.0000E+00  0.4800E+02
    -13.060  0.0000E+00  0.4800E+02
    -12.854  0.0000E+00  0.4800E+02
    -12.649  0.0000E+00  0.4800E+02
    -12.443  0.0000E+00  0.4800E+02
    -12.238  0.0000E+00  0.4800E+02
    -12.032  0.0000E+00  0.4800E+02
    -11.826  0.0000E+00  0.4800E+02
    -11.621  0.0000E+00  0.4800E+02
    -11.415  0.0000E+00  0.4800E+02
    -11.209  0.0000E+00  0.4800E+02
    -11.004  0.0000E+00  0.4800E+02
    -10.798  0.0000E+00  0.4800E+02
    -10.593  0.0000E+00  0.4800E+02
    -10.387  0.0000E+00  0.4800E+02
    -10.181  0.0000E+00  0.4800E+02
     -9.976  0.0000E+00  0.4800E+02
     -9.770  0.0000E+00  0.4800E+02
     -9.564  0.0000E+00  0.4800E+02
     -9.359  0.0000E+00  0.4800E+02
     -9.153  0.0000E+00  0.4800E+02
     -8.948  0.0000E+00  0.4800E+02
     -8.742  0.0000E+00  0.4800E+02
     -8.536  0.0000E+00  0.4800E+02
     -8.331  0.0000E+00  0.4800E+02
     -8.125  0.0000E+00  0.4800E+02
     -7.919  0.0000E+00  0.4800E+02
     -7.714  0.0000E+00  0.4800E+02
     -7.508  0.0000E+00  0.4800E+02
     -7.302  0.0000E+00  0.4800E+02
     -7.097  0.0000E+00  0.4800E+02
     -6.891  0.0000E+00  0.4800E+02
     -6.686  0.0000E+00  0.4800E+02
     -6.480  0.0000E+00  0.4800E+02
     -6.274  0.0000E+00  0.4800E+02
     -6.069  0.0000E+00  0.4800E+02
     -5.863  0.0000E+00  0.4800E+02
     -5.657  0.0000E+00  0.4800E+02
     -5.452  0.0000E+00  0.4800E+02
     -5.246  0.0000E+00  0.4800E+02
     -5.041  0.0000E+00  0.4800E+02
     -4.835  0.0000E+00  0.4800E+02
     -4.629  0.0000E+00  0.4800E+02
     -4.424  0.0000E+00  0.4800E+02
     -4.218  0.0000E+00  0.4800E+02
     -4.012  0.0000E+00  0.4800E+02
     -3.807  0.0000E+00  0.4800E+02
     -3.601  0.0000E+00  0.4800E+02
     -3.396  0.0000E+00  0.4800E+02
     -3.190  0.0000E+00  0.4800E+02
     -2.984  0.0000E+00  0.4800E+02
     -2.779  0.0000E+00  0.4800E+02
     -2.573  0.0000E+00  0.4800E+02
     -2.367 -0.2085E-34  0.4800E+02
     -2.162 -0.5162E-27  0.4800E+02
     -1.956 -0.1511E-20  0.4800E+02
     -1.750 -0.5159E-15  0.4800E+02
     -1.545 -0.2122E-10  0.4800E+02
     -1.339 -0.1044E-06  0.4800E+02
     -1.134 -0.6065E-04  0.4800E+02
     -0.928 -0.3950E-02  0.4800E+02
     -0.722 -0.1339E-01  0.4800E+02
     -0.517  0.2248E+00  0.4804E+02
     -0.311  0.9165E+00  0.4823E+02
     -0.105  0.1748E+01  0.4859E+02
      0.100  0.2014E+01  0.4900E+02
      0.306  0.1633E+01  0.4934E+02
      0.511  0.2518E+01  0.4986E+02
      0.717  0.3473E+01  0.5057E+02
      0.923  0.3596E+01  0.5131E+02
      1.128  0.2682E+01  0.5186E+02
      1.334  0.4393E+01  0.5277E+02
      1.540  0.4859E+01  0.5377E+02
      1.745  0.5502E+01  0.5490E+02
      1.951  0.7221E+01  0.5638E+02
      2.157  0.8398E+01  0.5811E+02
      2.362  0.1249E+02  0.6068E+02
      2.568  0.2045E+02  0.6488E+02
      2.773  0.2487E+02  0.7000E+02
      2.979  0.2890E+02  0.7594E+02
      3.185  0.3133E+02  0.8238E+02
      3.390  0.3214E+02  0.8899E+02
      3.596  0.3376E+02  0.9593E+02
      3.802  0.3299E+02  0.1027E+03
      4.007  0.2855E+02  0.1086E+03
      4.213  0.2299E+02  0.1133E+03
      4.418  0.3183E+02  0.1199E+03
      4.624  0.4243E+02  0.1286E+03
      4.830  0.4897E+02  0.1387E+03
      5.035  0.4931E+02  0.1488E+03
      5.241  0.4643E+02  0.1583E+03
      5.447  0.4627E+02  0.1679E+03
      5.652  0.5153E+02  0.1785E+03
      5.858  0.5588E+02  0.1899E+03
      6.063  0.5114E+02  0.2005E+03
      6.269  0.4314E+02  0.2093E+03
      6.475  0.3066E+02  0.2156E+03
      6.680  0.1788E+02  0.2193E+03
      6.886  0.1348E+02  0.2221E+03
      7.092  0.1556E+02  0.2253E+03
      7.297  0.1884E+02  0.2292E+03
      7.503  0.2185E+02  0.2336E+03
      7.709  0.1960E+02  0.2377E+03
      7.914  0.9887E+01  0.2397E+03
      8.120  0.1663E+01  0.2401E+03
      8.325 -0.2223E+00  0.2400E+03
      8.531 -0.2370E-01  0.2400E+03
      8.737 -0.2371E-03  0.2400E+03
      8.942 -0.3006E-06  0.2400E+03
      9.148 -0.4827E-10  0.2400E+03
      9.354 -0.9502E-15  0.2400E+03
      9.559  0.0000E+00  0.2400E+03
      9.765  0.0000E+00  0.2400E+03
      9.970  0.0000E+00  0.2400E+03
     10.176  0.0000E+00  0.2400E+03
     10.382  0.0000E+00  0.2400E+03
     10.587  0.0000E+00  0.2400E+03
     10.793  0.0000E+00  0.2400E+03
