   30   30    1    1
  0.1700611E+02  0.5611845E-09  0.8417767E-09  0.1156911E-08  0.5000000E-15
  1.000000000000000E-004
  CAR 
 Nb - Mo - Ta - Ti - V SQS               
    198     63    120
 
  0.0000000E+00  0.0000000E+00  0.0000000E+00  0.8000000E-02
    1      -48.092035   1.000000
    2      -48.071620   1.000000
    3      -48.040789   1.000000
    4      -47.999966   1.000000
    5      -47.975171   1.000000
    6      -47.877433   1.000000
    7      -24.691742   1.000000
    8      -24.571979   1.000000
    9      -24.440684   1.000000
   10      -24.404934   1.000000
   11      -24.222745   1.000000
   12      -24.215771   1.000000
   13      -24.210830   1.000000
   14      -24.171301   1.000000
   15      -24.157133   1.000000
   16      -24.140532   1.000000
   17      -24.126608   1.000000
   18      -24.085785   1.000000
   19      -24.034478   1.000000
   20      -24.022122   1.000000
   21      -23.914360   1.000000
   22      -23.898061   1.000000
   23      -23.775081   1.000000
   24      -23.573752   1.000000
   25       -0.598556   1.000000
   26        0.637142   1.000000
   27        0.987396   1.000000
   28        1.814986   1.000000
   29        1.995884   1.000000
   30        2.065649   1.000000
   31        2.203054   1.000000
   32        2.339420   1.000000
   33        2.368545   1.000000
   34        2.441439   1.000000
   35        2.502441   1.000000
   36        2.584871   1.000000
   37        2.649463   1.000000
   38        2.674082   1.000000
   39        2.813696   1.000000
   40        2.894335   1.000000
   41        2.943741   1.000000
   42        3.075569   1.000000
   43        3.170465   1.000000
   44        3.196397   1.000000
   45        3.234831   1.000000
   46        3.302645   1.000000
   47        3.375950   1.000000
   48        3.400247   1.000000
   49        3.488886   1.000000
   50        3.553261   1.000000
   51        3.626848   1.000000
   52        3.702886   1.000000
   53        3.760809   1.000000
   54        3.796057   1.000000
   55        3.934742   1.000000
   56        3.986466   1.000000
   57        4.062227   1.000000
   58        4.097004   1.000000
   59        4.268749   1.000000
   60        4.302784   1.000000
   61        4.376060   1.000000
   62        4.420345   1.000000
   63        4.428231   1.000000
   64        4.505938   1.000000
   65        4.511515   1.000000
   66        4.598399   1.000000
   67        4.616638   1.000000
   68        4.693047   1.000000
   69        4.716944   1.000000
   70        4.759564   1.000000
   71        4.808455   1.000000
   72        4.833832   1.000000
   73        4.896614   1.000000
   74        4.939518   1.000000
   75        4.953988   1.000000
   76        4.962761   1.000000
   77        4.991555   1.000000
   78        5.093814   1.000000
   79        5.155503   1.000000
   80        5.237795   1.000000
   81        5.366693   1.000025
   82        5.434161   1.000169
   83        5.482652   1.000581
   84        5.512555   1.001162
   85        5.543317   1.002246
   86        5.604455   1.007017
   87        5.661457   1.016231
   88        5.682178   1.020722
   89        5.698486   1.024474
   90        5.716280   1.028507
   91        5.721233   1.029568
   92        5.775323   1.035206
   93        5.802246   1.029625
   94        5.845286   0.998597
   95        5.990279   0.592975
   96        6.029112   0.429560
   97        6.089013   0.200690
   98        6.123662   0.100556
   99        6.141028   0.061567
  100        6.213760  -0.025818
  101        6.262569  -0.035357
  102        6.298264  -0.030652
  103        6.402967  -0.009283
  104        6.421461  -0.006887
  105        6.436980  -0.005268
  106        6.494531  -0.001710
  107        6.702613  -0.000006
  108        6.843154  -0.000000
  109        6.860027  -0.000000
  110        6.942054  -0.000000
  111        7.375801  -0.000000
  112        7.526322  -0.000000
  113        7.649411  -0.000000
  114        7.715026  -0.000000
  115        7.762120  -0.000000
  116        7.802431  -0.000000
  117        7.819254  -0.000000
  118        7.848332  -0.000000
  119        7.918296  -0.000000
  120        7.936905  -0.000000
 
  0.2000000E+00  0.0000000E+00 -0.2081668E-16  0.1600000E-01
    1      -48.090885   1.000000
    2      -48.067321   1.000000
    3      -48.038508   1.000000
    4      -47.999064   1.000000
    5      -47.974497   1.000000
    6      -47.886362   1.000000
    7      -24.614043   1.000000
    8      -24.558909   1.000000
    9      -24.435245   1.000000
   10      -24.399579   1.000000
   11      -24.225143   1.000000
   12      -24.217509   1.000000
   13      -24.205259   1.000000
   14      -24.172808   1.000000
   15      -24.155933   1.000000
   16      -24.143378   1.000000
   17      -24.128368   1.000000
   18      -24.087582   1.000000
   19      -24.042836   1.000000
   20      -24.024035   1.000000
   21      -23.918969   1.000000
   22      -23.902106   1.000000
   23      -23.776526   1.000000
   24      -23.679312   1.000000
   25       -0.304804   1.000000
   26        0.896665   1.000000
   27        1.237084   1.000000
   28        1.824036   1.000000
   29        2.194868   1.000000
   30        2.294552   1.000000
   31        2.357433   1.000000
   32        2.494697   1.000000
   33        2.524726   1.000000
   34        2.560597   1.000000
   35        2.678521   1.000000
   36        2.747245   1.000000
   37        2.806826   1.000000
   38        2.885854   1.000000
   39        2.964897   1.000000
   40        3.013647   1.000000
   41        3.056199   1.000000
   42        3.069245   1.000000
   43        3.171128   1.000000
   44        3.224613   1.000000
   45        3.333640   1.000000
   46        3.373222   1.000000
   47        3.447304   1.000000
   48        3.531974   1.000000
   49        3.567374   1.000000
   50        3.599445   1.000000
   51        3.696089   1.000000
   52        3.769225   1.000000
   53        3.814038   1.000000
   54        3.887514   1.000000
   55        3.949530   1.000000
   56        4.026175   1.000000
   57        4.093117   1.000000
   58        4.176297   1.000000
   59        4.295445   1.000000
   60        4.345831   1.000000
   61        4.403669   1.000000
   62        4.530838   1.000000
   63        4.540569   1.000000
   64        4.616053   1.000000
   65        4.649618   1.000000
   66        4.674579   1.000000
   67        4.717774   1.000000
   68        4.784703   1.000000
   69        4.795220   1.000000
   70        4.804936   1.000000
   71        4.878054   1.000000
   72        4.904234   1.000000
   73        4.959751   1.000000
   74        4.970208   1.000000
   75        5.054484   1.000000
   76        5.080043   1.000000
   77        5.096857   1.000000
   78        5.122904   1.000000
   79        5.161071   1.000000
   80        5.210337   1.000000
   81        5.212376   1.000000
   82        5.308659   1.000004
   83        5.352427   1.000016
   84        5.412371   1.000093
   85        5.437580   1.000186
   86        5.482593   1.000580
   87        5.508753   1.001067
   88        5.598445   1.006340
   89        5.681379   1.020542
   90        5.711580   1.027468
   91        5.740292   1.033112
   92        5.775644   1.035185
   93        5.816438   1.022904
   94        5.848521   0.994845
   95        5.942255   0.777541
   96        5.958725   0.718307
   97        5.987473   0.604575
   98        6.031943   0.417747
   99        6.088190   0.203411
  100        6.120490   0.108502
  101        6.150698   0.043134
  102        6.203633  -0.019959
  103        6.253813  -0.035409
  104        6.290577  -0.032100
  105        6.316624  -0.026701
  106        6.364248  -0.016046
  107        6.402067  -0.009413
  108        6.579975  -0.000225
  109        6.641605  -0.000040
  110        6.745915  -0.000001
  111        7.023957  -0.000000
  112        7.102625  -0.000000
  113        7.151248  -0.000000
  114        7.206103  -0.000000
  115        7.301685  -0.000000
  116        7.447940  -0.000000
  117        7.500618  -0.000000
  118        7.553897  -0.000000
  119        7.571048  -0.000000
  120        7.613106  -0.000000
 
  0.4000000E+00  0.0000000E+00 -0.4163336E-16  0.1600000E-01
    1      -48.089457   1.000000
    2      -48.061008   1.000000
    3      -48.032939   1.000000
    4      -47.996638   1.000000
    5      -47.972455   1.000000
    6      -47.903531   1.000000
    7      -24.581472   1.000000
    8      -24.452235   1.000000
    9      -24.413660   1.000000
   10      -24.301986   1.000000
   11      -24.230077   1.000000
   12      -24.220109   1.000000
   13      -24.195688   1.000000
   14      -24.174200   1.000000
   15      -24.154341   1.000000
   16      -24.143149   1.000000
   17      -24.131484   1.000000
   18      -24.090138   1.000000
   19      -24.061524   1.000000
   20      -24.027571   1.000000
   21      -23.973163   1.000000
   22      -23.920912   1.000000
   23      -23.891613   1.000000
   24      -23.771950   1.000000
   25        0.489996   1.000000
   26        1.402475   1.000000
   27        1.726294   1.000000
   28        1.941115   1.000000
   29        2.021435   1.000000
   30        2.406482   1.000000
   31        2.458150   1.000000
   32        2.632238   1.000000
   33        2.742462   1.000000
   34        2.848094   1.000000
   35        2.948626   1.000000
   36        2.968844   1.000000
   37        3.074439   1.000000
   38        3.109253   1.000000
   39        3.208408   1.000000
   40        3.257837   1.000000
   41        3.302684   1.000000
   42        3.337737   1.000000
   43        3.376413   1.000000
   44        3.448776   1.000000
   45        3.539329   1.000000
   46        3.568491   1.000000
   47        3.619647   1.000000
   48        3.644019   1.000000
   49        3.753917   1.000000
   50        3.783268   1.000000
   51        3.909685   1.000000
   52        3.960039   1.000000
   53        4.017246   1.000000
   54        4.098437   1.000000
   55        4.175547   1.000000
   56        4.224760   1.000000
   57        4.294529   1.000000
   58        4.332937   1.000000
   59        4.360185   1.000000
   60        4.412138   1.000000
   61        4.449719   1.000000
   62        4.489795   1.000000
   63        4.537389   1.000000
   64        4.571112   1.000000
   65        4.594002   1.000000
   66        4.682845   1.000000
   67        4.701570   1.000000
   68        4.729763   1.000000
   69        4.770886   1.000000
   70        4.817860   1.000000
   71        4.874716   1.000000
   72        4.916501   1.000000
   73        4.949596   1.000000
   74        4.994943   1.000000
   75        5.052369   1.000000
   76        5.098008   1.000000
   77        5.153500   1.000000
   78        5.178074   1.000000
   79        5.197873   1.000000
   80        5.230538   1.000000
   81        5.312369   1.000004
   82        5.366874   1.000025
   83        5.397413   1.000061
   84        5.437787   1.000187
   85        5.480395   1.000550
   86        5.526847   1.001589
   87        5.569129   1.003738
   88        5.603418   1.006896
   89        5.650233   1.014018
   90        5.668849   1.017780
   91        5.698036   1.024370
   92        5.723037   1.029943
   93        5.762377   1.035362
   94        5.784893   1.034142
   95        5.794767   1.032023
   96        5.867080   0.968818
   97        5.906863   0.884924
   98        5.949933   0.750570
   99        5.992219   0.584918
  100        6.007505   0.520707
  101        6.049081   0.347650
  102        6.091544   0.192419
  103        6.105715   0.148811
  104        6.180983  -0.000226
  105        6.189264  -0.008586
  106        6.253370  -0.035395
  107        6.307740  -0.028677
  108        6.330013  -0.023618
  109        6.360021  -0.016919
  110        6.422973  -0.006714
  111        6.457394  -0.003618
  112        6.501814  -0.001462
  113        6.771827  -0.000001
  114        6.888259  -0.000000
  115        6.909655  -0.000000
  116        7.020870  -0.000000
  117        7.102890  -0.000000
  118        7.123901  -0.000000
  119        7.230832  -0.000000
  120        7.321411  -0.000000
 
 -0.1387779E-16  0.2000000E+00  0.0000000E+00  0.1600000E-01
    1      -48.091928   1.000000
    2      -48.071529   1.000000
    3      -48.040779   1.000000
    4      -48.000129   1.000000
    5      -47.975216   1.000000
    6      -47.877432   1.000000
    7      -24.691746   1.000000
    8      -24.571219   1.000000
    9      -24.437946   1.000000
   10      -24.404278   1.000000
   11      -24.222867   1.000000
   12      -24.215813   1.000000
   13      -24.210882   1.000000
   14      -24.171347   1.000000
   15      -24.157124   1.000000
   16      -24.140447   1.000000
   17      -24.126555   1.000000
   18      -24.085735   1.000000
   19      -24.034497   1.000000
   20      -24.022172   1.000000
   21      -23.916054   1.000000
   22      -23.900827   1.000000
   23      -23.775372   1.000000
   24      -23.573757   1.000000
   25       -0.475173   1.000000
   26        0.698682   1.000000
   27        1.102476   1.000000
   28        1.317548   1.000000
   29        1.922694   1.000000
   30        2.148675   1.000000
   31        2.226386   1.000000
   32        2.374382   1.000000
   33        2.398079   1.000000
   34        2.475885   1.000000
   35        2.540414   1.000000
   36        2.616510   1.000000
   37        2.661190   1.000000
   38        2.733291   1.000000
   39        2.820872   1.000000
   40        2.852157   1.000000
   41        2.907955   1.000000
   42        2.999463   1.000000
   43        3.119106   1.000000
   44        3.198874   1.000000
   45        3.273015   1.000000
   46        3.326136   1.000000
   47        3.371028   1.000000
   48        3.475336   1.000000
   49        3.492351   1.000000
   50        3.565960   1.000000
   51        3.631990   1.000000
   52        3.707420   1.000000
   53        3.737523   1.000000
   54        3.778450   1.000000
   55        3.852465   1.000000
   56        3.930286   1.000000
   57        4.038643   1.000000
   58        4.199827   1.000000
   59        4.285694   1.000000
   60        4.343397   1.000000
   61        4.386232   1.000000
   62        4.479248   1.000000
   63        4.511969   1.000000
   64        4.560643   1.000000
   65        4.599551   1.000000
   66        4.634437   1.000000
   67        4.681065   1.000000
   68        4.738546   1.000000
   69        4.750017   1.000000
   70        4.783039   1.000000
   71        4.831194   1.000000
   72        4.863492   1.000000
   73        4.896967   1.000000
   74        4.951964   1.000000
   75        4.996674   1.000000
   76        5.016545   1.000000
   77        5.064082   1.000000
   78        5.077994   1.000000
   79        5.188122   1.000000
   80        5.211996   1.000000
   81        5.377857   1.000034
   82        5.399534   1.000065
   83        5.456996   1.000308
   84        5.490175   1.000695
   85        5.521350   1.001411
   86        5.552656   1.002713
   87        5.583327   1.004861
   88        5.633463   1.011066
   89        5.661617   1.016264
   90        5.689470   1.022389
   91        5.718729   1.029037
   92        5.766846   1.035456
   93        5.802348   1.029588
   94        5.832852   1.011004
   95        5.884356   0.937248
   96        5.897616   0.907969
   97        5.955920   0.728752
   98        6.024235   0.450022
   99        6.075123   0.248516
  100        6.262395  -0.035363
  101        6.354277  -0.018140
  102        6.374522  -0.014027
  103        6.409467  -0.008380
  104        6.514110  -0.001114
  105        6.530889  -0.000759
  106        6.554118  -0.000434
  107        6.676352  -0.000014
  108        6.850055  -0.000000
  109        6.925628  -0.000000
  110        6.966857  -0.000000
  111        7.097461  -0.000000
  112        7.156520  -0.000000
  113        7.248148  -0.000000
  114        7.519914  -0.000000
  115        7.590413  -0.000000
  116        7.711425  -0.000000
  117        7.735341  -0.000000
  118        7.786328  -0.000000
  119        7.831899  -0.000000
  120        7.862914  -0.000000
 
  0.2000000E+00  0.2000000E+00 -0.4163336E-16  0.1600000E-01
    1      -48.090999   1.000000
    2      -48.067405   1.000000
    3      -48.038505   1.000000
    4      -47.998908   1.000000
    5      -47.974457   1.000000
    6      -47.886363   1.000000
    7      -24.614167   1.000000
    8      -24.559575   1.000000
    9      -24.438140   1.000000
   10      -24.399955   1.000000
   11      -24.225144   1.000000
   12      -24.217527   1.000000
   13      -24.205224   1.000000
   14      -24.172835   1.000000
   15      -24.155895   1.000000
   16      -24.143336   1.000000
   17      -24.128380   1.000000
   18      -24.087603   1.000000
   19      -24.042802   1.000000
   20      -24.024002   1.000000
   21      -23.917660   1.000000
   22      -23.899090   1.000000
   23      -23.776260   1.000000
   24      -23.679304   1.000000
   25       -0.300331   1.000000
   26        0.859187   1.000000
   27        1.265633   1.000000
   28        1.804273   1.000000
   29        2.167531   1.000000
   30        2.265661   1.000000
   31        2.321620   1.000000
   32        2.424990   1.000000
   33        2.466816   1.000000
   34        2.543504   1.000000
   35        2.604540   1.000000
   36        2.689632   1.000000
   37        2.792575   1.000000
   38        2.839568   1.000000
   39        2.911779   1.000000
   40        2.960955   1.000000
   41        3.053988   1.000000
   42        3.074445   1.000000
   43        3.247936   1.000000
   44        3.292433   1.000000
   45        3.335642   1.000000
   46        3.402932   1.000000
   47        3.480331   1.000000
   48        3.530050   1.000000
   49        3.617350   1.000000
   50        3.671015   1.000000
   51        3.693547   1.000000
   52        3.780882   1.000000
   53        3.875101   1.000000
   54        3.931096   1.000000
   55        3.984085   1.000000
   56        4.046405   1.000000
   57        4.134988   1.000000
   58        4.223968   1.000000
   59        4.304918   1.000000
   60        4.377167   1.000000
   61        4.430017   1.000000
   62        4.445879   1.000000
   63        4.530280   1.000000
   64        4.546995   1.000000
   65        4.581644   1.000000
   66        4.667421   1.000000
   67        4.694540   1.000000
   68        4.727493   1.000000
   69        4.772437   1.000000
   70        4.789390   1.000000
   71        4.823774   1.000000
   72        4.846241   1.000000
   73        4.867629   1.000000
   74        4.919800   1.000000
   75        4.953598   1.000000
   76        5.019700   1.000000
   77        5.083385   1.000000
   78        5.111028   1.000000
   79        5.172673   1.000000
   80        5.251658   1.000001
   81        5.298697   1.000003
   82        5.350569   1.000015
   83        5.416081   1.000103
   84        5.435790   1.000177
   85        5.468780   1.000414
   86        5.541992   1.002186
   87        5.586140   1.005113
   88        5.628909   1.010342
   89        5.656972   1.015325
   90        5.701187   1.025099
   91        5.731105   1.031533
   92        5.762137   1.035353
   93        5.793440   1.032375
   94        5.814360   1.024081
   95        5.906532   0.885787
   96        5.927869   0.824715
   97        6.004247   0.534468
   98        6.035581   0.402641
   99        6.115513   0.121475
  100        6.151658   0.041430
  101        6.200099  -0.017510
  102        6.234603  -0.033143
  103        6.283487  -0.033269
  104        6.333413  -0.022832
  105        6.375078  -0.013922
  106        6.383952  -0.012312
  107        6.444382  -0.004611
  108        6.493544  -0.001746
  109        6.569834  -0.000292
  110        6.658800  -0.000024
  111        6.738589  -0.000002
  112        7.002267  -0.000000
  113        7.387752  -0.000000
  114        7.487125  -0.000000
  115        7.554034  -0.000000
  116        7.585055  -0.000000
  117        7.721909  -0.000000
  118        7.782912  -0.000000
  119        7.819094  -0.000000
  120        7.917134  -0.000000
 
  0.4000000E+00  0.2000000E+00 -0.2775558E-16  0.1600000E-01
    1      -48.089663   1.000000
    2      -48.061150   1.000000
    3      -48.032896   1.000000
    4      -47.996382   1.000000
    5      -47.972405   1.000000
    6      -47.903533   1.000000
    7      -24.582464   1.000000
    8      -24.454904   1.000000
    9      -24.416736   1.000000
   10      -24.301969   1.000000
   11      -24.230061   1.000000
   12      -24.220120   1.000000
   13      -24.195636   1.000000
   14      -24.174207   1.000000
   15      -24.154321   1.000000
   16      -24.143101   1.000000
   17      -24.131516   1.000000
   18      -24.090192   1.000000
   19      -24.061448   1.000000
   20      -24.027536   1.000000
   21      -23.973142   1.000000
   22      -23.915389   1.000000
   23      -23.889894   1.000000
   24      -23.771589   1.000000
   25        0.398264   1.000000
   26        1.348075   1.000000
   27        1.699040   1.000000
   28        1.905294   1.000000
   29        2.050058   1.000000
   30        2.183820   1.000000
   31        2.519753   1.000000
   32        2.708298   1.000000
   33        2.761343   1.000000
   34        2.866912   1.000000
   35        2.934403   1.000000
   36        2.994917   1.000000
   37        3.068959   1.000000
   38        3.104165   1.000000
   39        3.132814   1.000000
   40        3.261227   1.000000
   41        3.335800   1.000000
   42        3.371202   1.000000
   43        3.438005   1.000000
   44        3.467397   1.000000
   45        3.521613   1.000000
   46        3.564412   1.000000
   47        3.631395   1.000000
   48        3.707077   1.000000
   49        3.752532   1.000000
   50        3.821906   1.000000
   51        3.869060   1.000000
   52        3.942223   1.000000
   53        4.003518   1.000000
   54        4.031340   1.000000
   55        4.088908   1.000000
   56        4.145683   1.000000
   57        4.194190   1.000000
   58        4.272814   1.000000
   59        4.333199   1.000000
   60        4.450949   1.000000
   61        4.473599   1.000000
   62        4.493361   1.000000
   63        4.553189   1.000000
   64        4.599918   1.000000
   65        4.638365   1.000000
   66        4.687658   1.000000
   67        4.723861   1.000000
   68        4.763499   1.000000
   69        4.802459   1.000000
   70        4.844434   1.000000
   71        4.889837   1.000000
   72        4.908043   1.000000
   73        4.942205   1.000000
   74        5.008554   1.000000
   75        5.035735   1.000000
   76        5.078144   1.000000
   77        5.096460   1.000000
   78        5.193995   1.000000
   79        5.235959   1.000000
   80        5.286749   1.000002
   81        5.310792   1.000004
   82        5.354591   1.000017
   83        5.406541   1.000079
   84        5.420710   1.000118
   85        5.444895   1.000225
   86        5.468636   1.000412
   87        5.534778   1.001881
   88        5.549756   1.002560
   89        5.599069   1.006407
   90        5.640124   1.012186
   91        5.663691   1.016692
   92        5.687507   1.021938
   93        5.716200   1.028490
   94        5.762904   1.035381
   95        5.779865   1.034813
   96        5.813497   1.024549
   97        5.846261   0.997489
   98        5.877185   0.951244
   99        5.891076   0.922965
  100        5.932864   0.808855
  101        5.977100   0.646819
  102        6.024964   0.446957
  103        6.063546   0.291232
  104        6.106461   0.146646
  105        6.148158   0.047752
  106        6.175285   0.006354
  107        6.294758  -0.031333
  108        6.395011  -0.010480
  109        6.441202  -0.004885
  110        6.519595  -0.000985
  111        6.588220  -0.000181
  112        6.908735  -0.000000
  113        7.022225  -0.000000
  114        7.080319  -0.000000
  115        7.152139  -0.000000
  116        7.260319  -0.000000
  117        7.320923  -0.000000
  118        7.378618  -0.000000
  119        7.445596  -0.000000
  120        7.481706  -0.000000
 
 -0.4000000E+00  0.2000000E+00 -0.1110223E-15  0.1600000E-01
    1      -48.089454   1.000000
    2      -48.061008   1.000000
    3      -48.032938   1.000000
    4      -47.996642   1.000000
    5      -47.972455   1.000000
    6      -47.903531   1.000000
    7      -24.581456   1.000000
    8      -24.452226   1.000000
    9      -24.413640   1.000000
   10      -24.301990   1.000000
   11      -24.230169   1.000000
   12      -24.220103   1.000000
   13      -24.195708   1.000000
   14      -24.174212   1.000000
   15      -24.154267   1.000000
   16      -24.143133   1.000000
   17      -24.131465   1.000000
   18      -24.090129   1.000000
   19      -24.061517   1.000000
   20      -24.027574   1.000000
   21      -23.973161   1.000000
   22      -23.920946   1.000000
   23      -23.891643   1.000000
   24      -23.771960   1.000000
   25        0.744918   1.000000
   26        1.380472   1.000000
   27        1.504562   1.000000
   28        1.789118   1.000000
   29        2.075637   1.000000
   30        2.299121   1.000000
   31        2.383169   1.000000
   32        2.527099   1.000000
   33        2.749195   1.000000
   34        2.875514   1.000000
   35        2.964603   1.000000
   36        3.044085   1.000000
   37        3.078581   1.000000
   38        3.139408   1.000000
   39        3.181733   1.000000
   40        3.231909   1.000000
   41        3.294089   1.000000
   42        3.331901   1.000000
   43        3.409238   1.000000
   44        3.473331   1.000000
   45        3.530199   1.000000
   46        3.612786   1.000000
   47        3.656914   1.000000
   48        3.725502   1.000000
   49        3.806961   1.000000
   50        3.856535   1.000000
   51        3.883679   1.000000
   52        3.946634   1.000000
   53        3.988665   1.000000
   54        4.086984   1.000000
   55        4.167531   1.000000
   56        4.280462   1.000000
   57        4.334061   1.000000
   58        4.367776   1.000000
   59        4.380130   1.000000
   60        4.406387   1.000000
   61        4.429182   1.000000
   62        4.487149   1.000000
   63        4.502606   1.000000
   64        4.578394   1.000000
   65        4.598458   1.000000
   66        4.655283   1.000000
   67        4.714589   1.000000
   68        4.759825   1.000000
   69        4.768206   1.000000
   70        4.798390   1.000000
   71        4.814718   1.000000
   72        4.911962   1.000000
   73        4.945229   1.000000
   74        4.970919   1.000000
   75        5.037385   1.000000
   76        5.061792   1.000000
   77        5.098824   1.000000
   78        5.125100   1.000000
   79        5.224756   1.000000
   80        5.272157   1.000001
   81        5.285097   1.000002
   82        5.345022   1.000013
   83        5.353259   1.000016
   84        5.399704   1.000065
   85        5.509030   1.001074
   86        5.536383   1.001946
   87        5.575949   1.004247
   88        5.598929   1.006392
   89        5.645028   1.013055
   90        5.661351   1.016209
   91        5.715914   1.028427
   92        5.731982   1.031695
   93        5.768961   1.035449
   94        5.806247   1.028033
   95        5.834375   1.009651
   96        5.880945   0.944065
   97        5.913762   0.866335
   98        5.932966   0.808526
   99        5.975622   0.652743
  100        6.020839   0.464330
  101        6.057987   0.312553
  102        6.092634   0.188900
  103        6.143431   0.056770
  104        6.178457   0.002606
  105        6.190525  -0.009739
  106        6.220150  -0.028695
  107        6.261341  -0.035398
  108        6.282397  -0.033432
  109        6.367423  -0.015406
  110        6.423780  -0.006623
  111        6.550750  -0.000471
  112        6.574195  -0.000261
  113        6.606262  -0.000111
  114        6.715069  -0.000004
  115        6.984311  -0.000000
  116        7.135905  -0.000000
  117        7.326633  -0.000000
  118        7.338601  -0.000000
  119        7.397721  -0.000000
  120        7.464028  -0.000000
 
 -0.2000000E+00  0.2000000E+00  0.6938894E-17  0.1600000E-01
    1      -48.090693   1.000000
    2      -48.067180   1.000000
    3      -48.038512   1.000000
    4      -47.999328   1.000000
    5      -47.974563   1.000000
    6      -47.886360   1.000000
    7      -24.613850   1.000000
    8      -24.557845   1.000000
    9      -24.430484   1.000000
   10      -24.398758   1.000000
   11      -24.225317   1.000000
   12      -24.217510   1.000000
   13      -24.205348   1.000000
   14      -24.172836   1.000000
   15      -24.155896   1.000000
   16      -24.143301   1.000000
   17      -24.128289   1.000000
   18      -24.087506   1.000000
   19      -24.042885   1.000000
   20      -24.024089   1.000000
   21      -23.922344   1.000000
   22      -23.906069   1.000000
   23      -23.776953   1.000000
   24      -23.679318   1.000000
   25       -0.078790   1.000000
   26        0.998044   1.000000
   27        1.240924   1.000000
   28        1.436121   1.000000
   29        1.987219   1.000000
   30        2.350963   1.000000
   31        2.454581   1.000000
   32        2.545458   1.000000
   33        2.596955   1.000000
   34        2.643120   1.000000
   35        2.765567   1.000000
   36        2.785230   1.000000
   37        2.801810   1.000000
   38        2.888901   1.000000
   39        2.906141   1.000000
   40        2.971826   1.000000
   41        3.010241   1.000000
   42        3.072409   1.000000
   43        3.141963   1.000000
   44        3.207731   1.000000
   45        3.286994   1.000000
   46        3.341706   1.000000
   47        3.427600   1.000000