 vasp.5.4.4.18Apr17-6-g9f103f2a35 (build Aug 09 2018 16:20:53) complex          
  
 executed on             LinuxIFC date 2020.04.28  21:34:45
 running on   32 total cores
 distrk:  each k-point on   32 cores,    1 groups
 distr:  one band on NCORES_PER_BAND=   4 cores,    8 groups


--------------------------------------------------------------------------------------------------------


 INCAR:
 POTCAR:    PAW_PBE Nb_sv 25May2007               
 POTCAR:    PAW_PBE Mo 08Apr2002                  
 POTCAR:    PAW_PBE Ta 17Jan2003                  
 POTCAR:    PAW_PBE Ti 08Apr2002                  
 POTCAR:    PAW_PBE V 08Apr2002                   
 POTCAR:    PAW_PBE Nb_sv 25May2007               
   VRHFIN =Nb: 4p5s4d                                                           
   LEXCH  = PE                                                                  
   EATOM  =  1555.1913 eV,  114.3033 Ry                                         
                                                                                
   TITEL  = PAW_PBE Nb_sv 25May2007                                             
   LULTRA =        F    use ultrasoft PP ?                                      
   IUNSCR =        1    unscreen: 0-lin 1-nonlin 2-no                           
   RPACOR =    1.800    partial core radius                                     
   POMASS =   92.910; ZVAL   =   13.000    mass and valenz                      
   RCORE  =    2.400    outmost cutoff radius                                   
   RWIGS  =    2.400; RWIGS  =    1.270    wigner-seitz radius (au A)           
   ENMAX  =  293.235; ENMIN  =  219.927 eV                                      
   ICORE  =        3    local potential                                         
   LCOR   =        T    correct aug charges                                     
   LPAW   =        T    paw PP                                                  
   EAUG   =  455.659                                                            
   DEXC   =    0.000                                                            
   RMAX   =    2.456    core radius for proj-oper                               
   RAUG   =    1.300    factor for augmentation sphere                          
   RDEP   =    2.451    radius for radial grids                                 
   RDEPT  =    1.956    core radius for aug-charge                              
                                                                                
   Atomic configuration                                                         
   11 entries                                                                   
     n  l   j            E        occ.                                          
     1  0  0.50    -18805.2457   2.0000                                         
     2  0  0.50     -2630.2869   2.0000                                         
     2  1  1.50     -2348.4046   6.0000                                         
     3  0  0.50      -438.8757   2.0000                                         
     3  1  1.50      -346.7588   6.0000                                         
     3  2  2.50      -196.2560  10.0000                                         
     4  0  0.50       -58.3859   2.0000                                         
     5  0  0.50        -3.9816   1.0000                                         
     4  1  1.50       -34.5141   6.0000                                         
     4  2  2.50        -3.0408   4.0000                                         
     4  3  2.50        -1.3606   0.0000                                         
   Description                                                                  
     l       E           TYP  RCUT    TYP  RCUT                                 
     0    -58.3859094     23  2.200                                             
     0     -3.9816262     23  2.200                                             
     1    -34.5140738     23  2.200                                             
     1     13.6058260     23  2.200                                             
     2     -3.0408010     23  2.200                                             
     2     -0.1283038     23  2.200                                             
     3     -1.3605826     23  2.400                                             
  local pseudopotential read in
  partial core-charges read in
  partial kinetic energy density read in
  atomic valenz-charges read in
  non local Contribution for L=           0  read in
    real space projection operators read in
  non local Contribution for L=           0  read in
    real space projection operators read in
  non local Contribution for L=           1  read in
    real space projection operators read in
  non local Contribution for L=           1  read in
    real space projection operators read in
  non local Contribution for L=           2  read in
    real space projection operators read in
  non local Contribution for L=           2  read in
    real space projection operators read in
    PAW grid and wavefunctions read in
 
   number of l-projection  operators is LMAX  =           6
   number of lm-projection operators is LMMAX =          18
 
 POTCAR:    PAW_PBE Mo 08Apr2002                  
   VRHFIN =Mo: 4p5s4d                                                           
   LEXCH  = PE                                                                  
   EATOM  =   217.5176 eV,   15.9871 Ry                                         
                                                                                
   TITEL  = PAW_PBE Mo 08Apr2002                                                
   LULTRA =        F    use ultrasoft PP ?                                      
   IUNSCR =        1    unscreen: 0-lin 1-nonlin 2-no                           
   RPACOR =    2.200    partial core radius                                     
   POMASS =   95.940; ZVAL   =    6.000    mass and valenz                      
   RCORE  =    2.750    outmost cutoff radius                                   
   RWIGS  =    2.750; RWIGS  =    1.455    wigner-seitz radius (au A)           
   ENMAX  =  224.584; ENMIN  =  168.438 eV                                      
   RCLOC  =    2.111    cutoff for local pot                                    
   LCOR   =        T    correct aug charges                                     
   LPAW   =        T    paw PP                                                  
   EAUG   =  345.278                                                            
   DEXC   =    0.000                                                            
   RMAX   =    2.821    core radius for proj-oper                               
   RAUG   =    1.300    factor for augmentation sphere                          
   RDEP   =    2.815    radius for radial grids                                 
   RDEPT  =    2.211    core radius for aug-charge                              
                                                                                
   Atomic configuration                                                         
   12 entries                                                                   
     n  l   j            E        occ.                                          
     1  0  0.50    -19819.0341   2.0000                                         
     2  0  0.50     -2799.0127   2.0000                                         
     2  1  1.50     -2502.0276   6.0000                                         
     3  0  0.50      -476.4448   2.0000                                         
     3  1  1.50      -379.1496   6.0000                                         
     3  2  2.50      -220.9367  10.0000                                         
     4  0  0.50       -64.3378   2.0000                                         
     4  1  1.50       -38.4773   6.0000                                         
     4  2  2.50        -3.7535   5.0000                                         
     5  0  0.50        -4.0862   1.0000                                         
     5  1  0.50        -2.7701   0.0000                                         
     4  3  2.50        -1.3606   0.0000                                         
   Description                                                                  
     l       E           TYP  RCUT    TYP  RCUT                                 
     2     -3.7534765     23  2.500                                             
     2     -5.1140591     23  2.500                                             
     0     -4.0861560     23  2.600                                             
     0     13.6058260     23  2.600                                             
     1      5.4423304     23  2.750                                             
     1     27.2116520     23  2.750                                             
  local pseudopotential read in
  partial core-charges read in
  partial kinetic energy density read in
  atomic valenz-charges read in
  non local Contribution for L=           2  read in
    real space projection operators read in
  non local Contribution for L=           2  read in
    real space projection operators read in
  non local Contribution for L=           0  read in
    real space projection operators read in
  non local Contribution for L=           0  read in
    real space projection operators read in
  non local Contribution for L=           1  read in
    real space projection operators read in
  non local Contribution for L=           1  read in
    real space projection operators read in
    PAW grid and wavefunctions read in
 
   number of l-projection  operators is LMAX  =           6
   number of lm-projection operators is LMMAX =          18
 
 POTCAR:    PAW_PBE Ta 17Jan2003                  
   VRHFIN =Ta:  6s5d                                                            
   LEXCH  = PE                                                                  
   EATOM  =   130.6506 eV,    9.6025 Ry                                         
                                                                                
   TITEL  = PAW_PBE Ta 17Jan2003                                                
   LULTRA =        F    use ultrasoft PP ?                                      
   IUNSCR =        1    unscreen: 0-lin 1-nonlin 2-no                           
   RPACOR =    2.330    partial core radius                                     
   POMASS =  180.948; ZVAL   =    5.000    mass and valenz                      
   RCORE  =    2.900    outmost cutoff radius                                   
   RWIGS  =    2.840; RWIGS  =    1.503    wigner-seitz radius (au A)           
   ENMAX  =  223.667; ENMIN  =  167.750 eV                                      
   RCLOC  =    2.205    cutoff for local pot                                    
   LCOR   =        T    correct aug charges                                     
   LPAW   =        T    paw PP                                                  
   EAUG   =  332.075                                                            
   DEXC   =    0.000                                                            
   RMAX   =    2.970    core radius for proj-oper                               
   RAUG   =    1.300    factor for augmentation sphere                          
   RDEP   =    3.060    radius for radial grids                                 
   RDEPT  =    2.354    core radius for aug-charge                              
                                                                                
   Atomic configuration                                                         
   16 entries                                                                   
     n  l   j            E        occ.                                          
     1  0  0.50    -67341.2807   2.0000                                         
     2  0  0.50    -11566.9376   2.0000                                         
     2  1  1.50    -10134.1182   6.0000                                         
     3  0  0.50     -2648.5620   2.0000                                         
     3  1  1.50     -2222.6012   6.0000                                         
     3  2  2.50     -1726.3120  10.0000                                         
     4  0  0.50      -538.6961   2.0000                                         
     4  1  1.50      -399.0129   6.0000                                         
     4  2  2.50      -220.3959  10.0000                                         
     4  3  3.50       -23.0374  14.0000                                         
     5  0  0.50       -71.2901   2.0000                                         
     5  1  1.50       -37.8225   6.0000                                         
     5  2  2.50        -2.6455   4.0000                                         
     6  0  0.50        -4.9623   1.0000                                         
     6  1  1.50        -1.3606   0.0000                                         
     5  3  2.50        -1.3606   0.0000                                         
   Description                                                                  
     l       E           TYP  RCUT    TYP  RCUT                                 
     2     -2.6455043     23  2.500                                             
     2     -0.6258895     23  2.500                                             
     0     -4.9622780     23  2.500                                             
     0      4.7531321     23  2.500                                             
     1     -1.3605826     23  2.900                                             
     1     27.2116520     23  2.900                                             
  local pseudopotential read in
  partial core-charges read in
  partial kinetic energy density read in
  atomic valenz-charges read in
  non local Contribution for L=           2  read in
    real space projection operators read in
  non local Contribution for L=           2  read in
    real space projection operators read in
  non local Contribution for L=           0  read in
    real space projection operators read in
  non local Contribution for L=           0  read in
    real space projection operators read in
  non local Contribution for L=           1  read in
    real space projection operators read in
  non local Contribution for L=           1  read in
    real space projection operators read in
    PAW grid and wavefunctions read in
 
   number of l-projection  operators is LMAX  =           6
   number of lm-projection operators is LMMAX =          18
 
 POTCAR:    PAW_PBE Ti 08Apr2002                  
   VRHFIN =Ti: d3 s1                                                            
   LEXCH  = PE                                                                  
   EATOM  =    94.7928 eV,    6.9671 Ry                                         
                                                                                
   TITEL  = PAW_PBE Ti 08Apr2002                                                
   LULTRA =        F    use ultrasoft PP ?                                      
   IUNSCR =        1    unscreen: 0-lin 1-nonlin 2-no                           
   RPACOR =    2.200    partial core radius                                     
   POMASS =   47.880; ZVAL   =    4.000    mass and valenz                      
   RCORE  =    2.800    outmost cutoff radius                                   
   RWIGS  =    2.500; RWIGS  =    1.323    wigner-seitz radius (au A)           
   ENMAX  =  178.330; ENMIN  =  133.747 eV                                      
   RCLOC  =    2.215    cutoff for local pot                                    
   LCOR   =        T    correct aug charges                                     
   LPAW   =        T    paw PP                                                  
   EAUG   =  328.883                                                            
   DEXC   =    0.000                                                            
   RMAX   =    2.868    core radius for proj-oper                               
   RAUG   =    1.300    factor for augmentation sphere                          
   RDEP   =    2.885    radius for radial grids                                 
   RDEPT  =    2.320    core radius for aug-charge                              
                                                                                
   Atomic configuration                                                         
    9 entries                                                                   
     n  l   j            E        occ.                                          
     1  0  0.50     -4865.3608   2.0000                                         
     2  0  0.50      -533.1367   2.0000                                         
     2  1  1.50      -440.5031   6.0000                                         
     3  0  0.50       -59.3186   2.0000                                         
     3  1  1.50       -35.7012   6.0000                                         
     3  2  2.50        -1.9157   3.0000                                         
     4  0  0.50        -3.7291   1.0000                                         
     4  1  1.50        -4.0817   0.0000                                         
     4  3  2.50        -1.3606   0.0000                                         
   Description                                                                  
     l       E           TYP  RCUT    TYP  RCUT                                 
     2     -1.9156924     23  2.800                                             
     2     -0.4062961     23  2.800                                             
     0     -3.7290832     23  2.800                                             
     0     20.4087390     23  2.800                                             
     1     -5.4423304     23  2.800                                             
  local pseudopotential read in
  partial core-charges read in
  partial kinetic energy density read in
  atomic valenz-charges read in
  non local Contribution for L=           2  read in
    real space projection operators read in
  non local Contribution for L=           2  read in
    real space projection operators read in
  non local Contribution for L=           0  read in
    real space projection operators read in
  non local Contribution for L=           0  read in
    real space projection operators read in
  non local Contribution for L=           1  read in
    real space projection operators read in
    PAW grid and wavefunctions read in
 
   number of l-projection  operators is LMAX  =           5
   number of lm-projection operators is LMMAX =          15
 
 POTCAR:    PAW_PBE V 08Apr2002                   
   VRHFIN =V: p6 d4 s1                                                          
   LEXCH  = PE                                                                  
   EATOM  =   170.8679 eV,   12.5584 Ry                                         
                                                                                
   TITEL  = PAW_PBE V 08Apr2002                                                 
   LULTRA =        F    use ultrasoft PP ?                                      
   IUNSCR =        1    unscreen: 0-lin 1-nonlin 2-no                           
   RPACOR =    2.000    partial core radius                                     
   POMASS =   50.941; ZVAL   =    5.000    mass and valenz                      
   RCORE  =    2.700    outmost cutoff radius                                   
   RWIGS  =    2.500; RWIGS  =    1.323    wigner-seitz radius (au A)           
   ENMAX  =  192.543; ENMIN  =  144.408 eV                                      
   RCLOC  =    1.779    cutoff for local pot                                    
   LCOR   =        T    correct aug charges                                     
   LPAW   =        T    paw PP                                                  
   EAUG   =  358.662                                                            
   DEXC   =    0.000                                                            
   RMAX   =    2.768    core radius for proj-oper                               
   RAUG   =    1.300    factor for augmentation sphere                          
   RDEP   =    2.762    radius for radial grids                                 
   RDEPT  =    2.240    core radius for aug-charge                              
                                                                                
   Atomic configuration                                                         
    9 entries                                                                   
     n  l   j            E        occ.                                          
     1  0  0.50     -5360.7193   2.0000                                         
     2  0  0.50      -598.4546   2.0000                                         
     2  1  1.50      -499.0155   6.0000                                         
     3  0  0.50       -66.5711   2.0000                                         
     3  1  1.50       -40.5282   6.0000                                         
     3  2  2.50        -2.4291   4.0000                                         
     4  0  0.50        -3.8743   1.0000                                         
     4  1  0.50        -2.7212   0.0000                                         
     4  3  2.50        -1.3606   0.0000                                         
   Description                                                                  
     l       E           TYP  RCUT    TYP  RCUT                                 
     2     -2.4290901     23  2.700                                             
     2     -3.7896727     23  2.700                                             
     0     -3.8742752     23  2.700                                             
     0     27.2116520     23  2.700                                             
     1     -2.7211652     23  2.700                                             
     1     27.2116520     23  2.700                                             
  local pseudopotential read in
  partial core-charges read in
  partial kinetic energy density read in
  atomic valenz-charges read in
  non local Contribution for L=           2  read in
    real space projection operators read in
  non local Contribution for L=           2  read in
    real space projection operators read in
  non local Contribution for L=           0  read in
    real space projection operators read in
  non local Contribution for L=           0  read in
    real space projection operators read in
  non local Contribution for L=           1  read in
    real space projection operators read in
  non local Contribution for L=           1  read in
    real space projection operators read in
    PAW grid and wavefunctions read in
 
   number of l-projection  operators is LMAX  =           6
   number of lm-projection operators is LMMAX =          18
 
 Optimization of the real space projectors (new method)

 maximal supplied QI-value         = 15.68
 optimisation between [QCUT,QGAM] = [ 12.55, 25.10] = [ 44.09,176.36] Ry 
 Optimized for a Real-space Cutoff    1.56 Angstroem

   l    n(q)    QCUT    max X(q) W(low)/X(q) W(high)/X(q)  e(spline) 
   0     12    12.548    10.201    0.21E-04    0.36E-05    0.83E-07
   0     12    12.548     8.174    0.31E-04    0.62E-05    0.15E-06
   1     11    12.548     3.488    0.79E-05    0.23E-04    0.21E-06
   1     11    12.548     4.917    0.56E-04    0.13E-03    0.11E-05
   2     11    12.548   153.744    0.25E-03    0.10E-03    0.15E-05
   2     11    12.548   126.342    0.25E-03    0.10E-03    0.15E-05
 Optimization of the real space projectors (new method)

 maximal supplied QI-value         = 13.61
 optimisation between [QCUT,QGAM] = [ 12.52, 25.04] = [ 43.88,175.51] Ry 
 Optimized for a Real-space Cutoff    1.56 Angstroem

   l    n(q)    QCUT    max X(q) W(low)/X(q) W(high)/X(q)  e(spline) 
   2     11    12.518    80.908    0.42E-03    0.30E-03    0.14E-05
   2     11    12.518    79.000    0.42E-03    0.30E-03    0.14E-05
   0     12    12.518    52.066    0.58E-04    0.50E-04    0.55E-06
   0     12    12.518    24.514    0.48E-04    0.41E-04    0.46E-06
   1     11    12.518    16.033    0.62E-04    0.13E-03    0.37E-06
   1     11    12.518    11.179    0.47E-04    0.10E-03    0.31E-06
 Optimization of the real space projectors (new method)

 maximal supplied QI-value         = 12.85
 optimisation between [QCUT,QGAM] = [ 12.46, 25.06] = [ 43.51,175.83] Ry 
 Optimized for a Real-space Cutoff    1.56 Angstroem

   l    n(q)    QCUT    max X(q) W(low)/X(q) W(high)/X(q)  e(spline) 
   2     11    12.465    62.315    0.36E-03    0.20E-03    0.15E-05
   2     11    12.465    52.185    0.36E-03    0.20E-03    0.15E-05
   0     12    12.465   103.837    0.22E-04    0.37E-05    0.56E-06
   0     12    12.465    59.728    0.20E-04    0.34E-05    0.51E-06
   1     11    12.465    13.958    0.44E-03    0.81E-03    0.81E-05
   1     11    12.465     8.441    0.31E-03    0.56E-03    0.56E-05
 Optimization of the real space projectors (new method)

 maximal supplied QI-value         = 13.42
 optimisation between [QCUT,QGAM] = [ 12.48, 25.09] = [ 43.60,176.28] Ry 
 Optimized for a Real-space Cutoff    1.56 Angstroem

   l    n(q)    QCUT    max X(q) W(low)/X(q) W(high)/X(q)  e(spline) 
   2     11    12.478    49.363    0.45E-03    0.34E-03    0.89E-06
   2     11    12.478    47.669    0.44E-03    0.33E-03    0.87E-06
   0     12    12.478    26.374    0.17E-03    0.37E-04    0.21E-05
   0     12    12.478    11.549    0.13E-03    0.31E-04    0.17E-05
   1     11    12.478     9.492    0.91E-05    0.64E-04    0.34E-06
 Optimization of the real space projectors (new method)

 maximal supplied QI-value         = 13.98
 optimisation between [QCUT,QGAM] = [ 12.45, 25.03] = [ 43.38,175.46] Ry 
 Optimized for a Real-space Cutoff    1.56 Angstroem

   l    n(q)    QCUT    max X(q) W(low)/X(q) W(high)/X(q)  e(spline) 
   2     11    12.446    96.114    0.19E-03    0.47E-04    0.85E-06
   2     11    12.446    88.986    0.19E-03    0.46E-04    0.86E-06
   0     12    12.446    20.919    0.37E-04    0.64E-04    0.43E-06
   0     12    12.446     9.593    0.25E-04    0.48E-04    0.33E-06
   1     11    12.446    11.615    0.75E-04    0.30E-04    0.59E-06
   1     11    12.446     7.031    0.53E-04    0.23E-04    0.40E-06

 ----------------------------------------------------------------------------- 
|                                                                             |
|  ADVICE TO THIS USER RUNNING 'VASP/VAMP'   (HEAR YOUR MASTER'S VOICE ...):  |
|                                                                             |
|      You enforced a specific xc-type in the INCAR file,                     |
|      a different type was found on the POTCAR file                          |
|          I HOPE YOU KNOW, WHAT YOU ARE  DOING                               |
|                                                                             |
 ----------------------------------------------------------------------------- 

  PAW_PBE Nb_sv 25May2007               :
 energy of atom  1       EATOM=-1555.1913
 kinetic energy error for atom=    0.0037 (will be added to EATOM!!)
  PAW_PBE Mo 08Apr2002                  :
 energy of atom  2       EATOM= -217.5176
 kinetic energy error for atom=    0.0005 (will be added to EATOM!!)
  PAW_PBE Ta 17Jan2003                  :
 energy of atom  3       EATOM= -130.6506
 kinetic energy error for atom=    0.0004 (will be added to EATOM!!)
  PAW_PBE Ti 08Apr2002                  :
 energy of atom  4       EATOM=  -94.7928
 kinetic energy error for atom=    0.0001 (will be added to EATOM!!)
  PAW_PBE V 08Apr2002                   :
 energy of atom  5       EATOM= -170.8679
 kinetic energy error for atom=    0.0002 (will be added to EATOM!!)
 
 
 POSCAR: Nb - Mo - Ta - Ti - V SQS-30 BCC        
  positions in direct lattice
  No initial velocities read in
 exchange correlation table for  LEXCH =       14
   RHO(1)=    0.500       N(1)  =     2000
   RHO(2)=  100.500       N(2)  =     4000

 VTST: version 3.2, (02/03/18)

 CHAIN: initializing optimizer
 
 OPT: Using VASP Conjugate-Gradient optimizer
 CHAIN: Read ICHAIN            0
 
 POSCAR: Nb - Mo - Ta - Ti - V SQS-30 BCC        
  positions in direct lattice
  No initial velocities read in
 


--------------------------------------------------------------------------------------------------------


 ion  position               nearest neighbor table
   1  0.967  0.933  0.400-  18 2.81   7 2.81  24 2.81  20 2.81  20 2.81  19 2.81   6 2.81   2 2.81
                            16 3.24   8 3.24  15 3.24  11 3.24  12 3.24
   2  0.633  0.267  0.400-  18 2.81  26 2.81   9 2.81  12 2.81  12 2.81  28 2.81  15 2.81   1 2.81
                             8 3.24
   3  0.500  0.000  0.000-  13 2.81  21 2.81  17 2.81  15 2.81   4 2.81   4 2.81  27 2.81  16 2.81
                            14 3.24  10 3.24   7 3.24
   4  0.000  0.000  0.000-  10 2.81  29 2.81  24 2.81  14 2.81   3 2.81   3 2.81   7 2.81   5 2.81
                            15 3.24  13 3.24  17 3.24  16 3.24
   5  0.100  0.200  0.800-  25 2.81  17 2.81   6 2.81  21 2.81  23 2.81  27 2.81  27 2.81   4 2.81
                            10 3.24  14 3.24
   6  0.033  0.067  0.600-  26 2.81   5 2.81  14 2.81  28 2.81  28 2.81  12 2.81   1 2.81  11 2.81
                            17 3.24
   7  0.900  0.800  0.200-  30 2.81  15 2.81   1 2.81  13 2.81   8 2.81  16 2.81  16 2.81   4 2.81
                            20 3.24   9 3.24  24 3.24  29 3.24  18 3.24   3 3.24
   8  0.800  0.600  0.400-  20 2.81  12 2.81   9 2.81  19 2.81   7 2.81  18 2.81  18 2.81  26 2.81
                            30 3.24   1 3.24  11 3.24   2 3.24  16 3.24  23 3.24
   9  0.733  0.467  0.200-  16 2.81   8 2.81   2 2.81  30 2.81  30 2.81  13 2.81  10 2.81  24 2.81
                             7 3.24  18 3.24  12 3.24  29 3.24  15 3.24  21 3.24
  10  0.667  0.333  0.000-   4 2.81  27 2.81  21 2.81  21 2.81  25 2.81  15 2.81   9 2.81  29 2.81
                             3 3.24   5 3.24  22 3.24  24 3.24  13 3.24  30 3.24
  11  0.367  0.733  0.600-  26 2.81  18 2.81  22 2.81  19 2.81  19 2.81  20 2.81  17 2.81   6 2.81
                             8 3.24  23 3.24  25 3.24   1 3.24  28 3.24  14 3.24
  12  0.133  0.267  0.400-   8 2.81  23 2.81  30 2.81   2 2.81   2 2.81   6 2.81  24 2.81  20 2.81
                            26 3.24  18 3.24   9 3.24  28 3.24  15 3.24   1 3.24
  13  0.833  0.667  0.000-   3 2.81   7 2.81  29 2.81  29 2.81   9 2.81  14 2.81  25 2.81  21 2.81
                             4 3.24  16 3.24  30 3.24  17 3.24  10 3.24  22 3.24
  14  0.933  0.867  0.800-  27 2.81   4 2.81   6 2.81  17 2.81  13 2.81  17 2.81  19 2.81  22 2.81
                             3 3.24   5 3.24  28 3.24  29 3.24  11 3.24  25 3.24
  15  0.567  0.133  0.200-   7 2.81   3 2.81  24 2.81  20 2.81  10 2.81  24 2.81   2 2.81  30 2.81
                             4 3.24  16 3.24   1 3.24  21 3.24  12 3.24   9 3.24
  16  0.400  0.800  0.200-   9 2.81  24 2.81  20 2.81  29 2.81  18 2.81   7 2.81   7 2.81   3 2.81
                             1 3.24  30 3.24  13 3.24  15 3.24   8 3.24   4 3.24
  17  0.433  0.867  0.800-   5 2.81   3 2.81  28 2.81  14 2.81  29 2.81  14 2.81  11 2.81  25 2.81
                            27 3.24   4 3.24   6 3.24  13 3.24  19 3.24  22 3.24
  18  0.300  0.600  0.400-   1 2.81   2 2.81  30 2.81  11 2.81  16 2.81   8 2.81   8 2.81  23 2.81
                            20 3.24   9 3.24  19 3.24  12 3.24   7 3.24  26 3.24
  19  0.867  0.733  0.600-  23 2.81   8 2.81  25 2.81  11 2.81  11 2.81   1 2.81  14 2.81  28 2.81
                            18 3.24  17 3.24
  20  0.467  0.933  0.400-   8 2.81  16 2.81  15 2.81   1 2.81   1 2.81  11 2.81  28 2.81  12 2.81
                             7 3.24  18 3.24
  21  0.167  0.333  0.000-   3 2.81   5 2.81  10 2.81  10 2.81  22 2.81  24 2.81  30 2.81  13 2.81
                            15 3.24   9 3.24
  22  0.267  0.533  0.800-  27 2.81  23 2.81  11 2.81  25 2.81  25 2.81  21 2.81  29 2.81  14 2.81
                            10 3.24  13 3.24  17 3.24
  23  0.200  0.400  0.600-  28 2.81  19 2.81  22 2.81  12 2.81   5 2.81  26 2.81  26 2.81  18 2.81
                            11 3.24   8 3.24
  24  0.067  0.133  0.200-  16 2.81   4 2.81  15 2.81   1 2.81  15 2.81  21 2.81  12 2.81   9 2.81
                             7 3.24  10 3.24
  25  0.767  0.533  0.800-   5 2.81  26 2.81  19 2.81  22 2.81  22 2.81  10 2.81  13 2.81  17 2.81
                            11 3.24  14 3.24
  26  0.700  0.400  0.600-   6 2.81  11 2.81  25 2.81   2 2.81  27 2.81  23 2.81  23 2.81   8 2.81
                            12 3.24  18 3.24
  27  0.600  0.200  0.800-  22 2.81  14 2.81  28 2.81  10 2.81  26 2.81   5 2.81   5 2.81   3 2.81
                            17 3.24
  28  0.533  0.067  0.600-  23 2.81  27 2.81  17 2.81   6 2.81   6 2.81   2 2.81  20 2.81  19 2.81
                            14 3.24  12 3.24  11 3.24
  29  0.333  0.667  0.000-   4 2.81  16 2.81  13 2.81  13 2.81  30 2.81  17 2.81  22 2.81  10 2.81
                             7 3.24   9 3.24  14 3.24
  30  0.233  0.467  0.200-   7 2.81  18 2.81  12 2.81   9 2.81   9 2.81  29 2.81  21 2.81  15 2.81
                            16 3.24   8 3.24  13 3.24  10 3.24
 
  LATTYP: Found a triclinic cell.
 ALAT       =     5.6118446165
 B/A-ratio  =     2.8722813233
 C/A-ratio  =     2.0615528128
 COS(alpha) =     0.0140733444
 COS(beta)  =     0.0808452083
 COS(gamma) =     0.8703882798
  
  Lattice vectors:
  
 A1 = (   3.2400000000,   3.2400000000,   3.2400000000)
 A2 = (  11.3400000000,  11.3400000000,   1.6200000000)
 A3 = (  -8.1000000000,   8.1000000000,   1.6200000000)


Analysis of symmetry for initial positions (statically):
=====================================================================
 Subroutine PRICEL returns:
 Original cell was already a primitive cell.
 

 Routine SETGRP: Setting up the symmetry group for a 
 triclinic supercell.


 Subroutine GETGRP returns: Found  1 space group operations
 (whereof  1 operations were pure point group operations)
 out of a pool of  2 trial point group operations.


The static configuration has the point symmetry C_1 .


Analysis of symmetry for dynamics (positions and initial velocities):
=====================================================================
 Subroutine PRICEL returns:
 Original cell was already a primitive cell.
 

 Routine SETGRP: Setting up the symmetry group for a 
 triclinic supercell.


 Subroutine GETGRP returns: Found  1 space group operations
 (whereof  1 operations were pure point group operations)
 out of a pool of  2 trial point group operations.


The dynamic configuration has the point symmetry C_1 .


 Subroutine INISYM returns: Found  1 space group operations
 (whereof  1 operations are pure point group operations),
 and found     1 'primitive' translations

 
 
 KPOINTS: k-points                                

Automatic generation of k-mesh.
Space group operators:
 irot       det(A)        alpha          n_x          n_y          n_z        tau_x        tau_y        tau_z
    1     1.000000     0.000001     1.000000     0.000000     0.000000     0.000000     0.000000     0.000000
 
 Subroutine IBZKPT returns following result:
 ===========================================
 
 Found     63 irreducible k-points:
 
 Following reciprocal coordinates:
            Coordinates               Weight
  0.000000  0.000000  0.000000      1.000000
  0.200000  0.000000 -0.000000      2.000000
  0.400000  0.000000 -0.000000      2.000000
 -0.000000  0.200000  0.000000      2.000000
  0.200000  0.200000 -0.000000      2.000000
  0.400000  0.200000 -0.000000      2.000000
 -0.400000  0.200000 -0.000000      2.000000
 -0.200000  0.200000  0.000000      2.000000
 -0.000000  0.400000  0.000000      2.000000
  0.200000  0.400000 -0.000000      2.000000
  0.400000  0.400000 -0.000000      2.000000
 -0.400000  0.400000  0.000000      2.000000
 -0.200000  0.400000 -0.000000      2.000000
  0.000000  0.000000  0.200000      2.000000
  0.200000 -0.000000  0.200000      2.000000
  0.400000  0.000000  0.200000      2.000000
 -0.400000  0.000000  0.200000      2.000000
 -0.200000  0.000000  0.200000      2.000000
 -0.000000  0.200000  0.200000      2.000000
  0.200000  0.200000  0.200000      2.000000
  0.400000  0.200000  0.200000      2.000000
 -0.400000  0.200000  0.200000      2.000000
 -0.200000  0.200000  0.200000      2.000000
 -0.000000  0.400000  0.200000      2.000000
  0.200000  0.400000  0.200000      2.000000
  0.400000  0.400000  0.200000      2.000000
 -0.400000  0.400000  0.200000      2.000000
 -0.200000  0.400000  0.200000      2.000000
  0.000000 -0.400000  0.200000      2.000000
  0.200000 -0.400000  0.200000      2.000000
  0.400000 -0.400000  0.200000      2.000000
 -0.400000 -0.400000  0.200000      2.000000
 -0.200000 -0.400000  0.200000      2.000000
  0.000000 -0.200000  0.200000      2.000000
  0.200000 -0.200000  0.200000      2.000000
  0.400000 -0.200000  0.200000      2.000000
 -0.400000 -0.200000  0.200000      2.000000
 -0.200000 -0.200000  0.200000      2.000000
  0.000000  0.000000  0.400000      2.000000
  0.200000  0.000000  0.400000      2.000000
  0.400000 -0.000000  0.400000      2.000000
 -0.400000  0.000000  0.400000      2.000000
 -0.200000  0.000000  0.400000      2.000000
  0.000000  0.200000  0.400000      2.000000
  0.200000  0.200000  0.400000      2.000000
  0.400000  0.200000  0.400000      2.000000
 -0.400000  0.200000  0.400000      2.000000
 -0.200000  0.200000  0.400000      2.000000
 -0.000000  0.400000  0.400000      2.000000
  0.200000  0.400000  0.400000      2.000000
  0.400000  0.400000  0.400000      2.000000
 -0.400000  0.400000  0.400000      2.000000
 -0.200000  0.400000  0.400000      2.000000
  0.000000 -0.400000  0.400000      2.000000
  0.200000 -0.400000  0.400000      2.000000
  0.400000 -0.400000  0.400000      2.000000
 -0.400000 -0.400000  0.400000      2.000000
 -0.200000 -0.400000  0.400000      2.000000
  0.000000 -0.200000  0.400000      2.000000
  0.200000 -0.200000  0.400000      2.000000
  0.400000 -0.200000  0.400000      2.000000
 -0.400000 -0.200000  0.400000      2.000000
 -0.200000 -0.200000  0.400000      2.000000
 
 Following cartesian coordinates:
            Coordinates               Weight
  0.000000  0.000000  0.000000      1.000000
 -0.086667 -0.080000 -0.033333      2.000000
 -0.173333 -0.160000 -0.066667      2.000000
  0.026667  0.040000 -0.066667      2.000000
 -0.060000 -0.040000 -0.100000      2.000000
 -0.146667 -0.120000 -0.133333      2.000000
  0.200000  0.200000  0.000000      2.000000
  0.113333  0.120000 -0.033333      2.000000
  0.053333  0.080000 -0.133333      2.000000
 -0.033333 -0.000000 -0.166667      2.000000
 -0.120000 -0.080000 -0.200000      2.000000
  0.226667  0.240000 -0.066667      2.000000
  0.140000  0.160000 -0.100000      2.000000
  0.040000 -0.040000  0.000000      2.000000
 -0.046667 -0.120000 -0.033333      2.000000
 -0.133333 -0.200000 -0.066667      2.000000
  0.213333  0.120000  0.066667      2.000000
  0.126667  0.040000  0.033333      2.000000
  0.066667  0.000000 -0.066667      2.000000
 -0.020000 -0.080000 -0.100000      2.000000
 -0.106667 -0.160000 -0.133333      2.000000
  0.240000  0.160000  0.000000      2.000000
  0.153333  0.080000 -0.033333      2.000000
  0.093333  0.040000 -0.133333      2.000000
  0.006667 -0.040000 -0.166667      2.000000
 -0.080000 -0.120000 -0.200000      2.000000
  0.266667  0.200000 -0.066667      2.000000
  0.180000  0.120000 -0.100000      2.000000
 -0.013333 -0.120000  0.133333      2.000000
 -0.100000 -0.200000  0.100000      2.000000
 -0.186667 -0.280000  0.066667      2.000000
  0.160000  0.040000  0.200000      2.000000
  0.073333 -0.040000  0.166667      2.000000
  0.013333 -0.080000  0.066667      2.000000
 -0.073333 -0.160000  0.033333      2.000000
 -0.160000 -0.240000  0.000000      2.000000
  0.186667  0.080000  0.133333      2.000000
  0.100000  0.000000  0.100000      2.000000
  0.080000 -0.080000  0.000000      2.000000
 -0.006667 -0.160000 -0.033333      2.000000
 -0.093333 -0.240000 -0.066667      2.000000
  0.253333  0.080000  0.066667      2.000000
  0.166667 -0.000000  0.033333      2.000000
  0.106667 -0.040000 -0.066667      2.000000
  0.020000 -0.120000 -0.100000      2.000000
 -0.066667 -0.200000 -0.133333      2.000000
  0.280000  0.120000  0.000000      2.000000
  0.193333  0.040000 -0.033333      2.000000
  0.133333  0.000000 -0.133333      2.000000
  0.046667 -0.080000 -0.166667      2.000000
 -0.040000 -0.160000 -0.200000      2.000000
  0.306667  0.160000 -0.066667      2.000000
  0.220000  0.080000 -0.100000      2.000000
  0.026667 -0.160000  0.133333      2.000000
 -0.060000 -0.240000  0.100000      2.000000
 -0.146667 -0.320000  0.066667      2.000000
  0.200000  0.000000  0.200000      2.000000
  0.113333 -0.080000  0.166667      2.000000
  0.053333 -0.120000  0.066667      2.000000
 -0.033333 -0.200000  0.033333      2.000000
 -0.120000 -0.280000  0.000000      2.000000
  0.226667  0.040000  0.133333      2.000000
  0.140000 -0.040000  0.100000      2.000000
 


--------------------------------------------------------------------------------------------------------




 Dimension of arrays:
   k-points           NKPTS =     63   k-points in BZ     NKDIM =     63   number of bands    NBANDS=    120
   number of dos      NEDOS =    301   number of ions     NIONS =     30
   non local maximal  LDIM  =      6   non local SUM 2l+1 LMDIM =     18
   total plane-waves  NPLWV = 126000
   max r-space proj   IRMAX =   3979   max aug-charges    IRDMAX=  17254
   dimension x,y,z NGX =    36 NGY =   50 NGZ =   70
   dimension x,y,z NGXF=    72 NGYF=  100 NGZF=  140
   support grid    NGXF=    72 NGYF=  100 NGZF=  140
   ions per type =               6   6   6   6   6
   NGX,Y,Z   is equivalent  to a cutoff of  10.66,  9.87, 10.06 a.u.
   NGXF,Y,Z  is equivalent  to a cutoff of  21.33, 19.75, 20.12 a.u.

 SYSTEM =  Nb - Mo - Ta - Ti - V SQS               
 POSCAR =  Nb - Mo - Ta - Ti - V SQS-30 BCC        

 Startparameter for this run:
   NWRITE =      2    write-flag & timer
   PREC   = normal    normal or accurate (medium, high low for compatibility)
   ISTART =      1    job   : 0-new  1-cont  2-samecut
   ICHARG =      1    charge: 1-file 2-atom 10-const
   ISPIN  =      1    spin polarized calculation?
   LNONCOLLINEAR =      F non collinear calculations
   LSORBIT =      F    spin-orbit coupling
   INIWAV =      1    electr: 0-lowe 1-rand  2-diag
   LASPH  =      F    aspherical Exc in radial PAW
   METAGGA=      F    non-selfconsistent MetaGGA calc.

 Electronic Relaxation 1
   ENCUT  =  600.0 eV  44.10 Ry    6.64 a.u.  11.21 16.81 23.11*2*pi/ulx,y,z
   ENINI  =  600.0     initial cutoff
   ENAUG  =  455.7 eV  augmentation charge cutoff
   NELM   =    100;   NELMIN=  2; NELMDL=  0     # of ELM steps 
   EDIFF  = 0.1E-03   stopping-criterion for ELM
   LREAL  =      T    real-space projection
   NLSPLINE    = F    spline interpolate recip. space projectors
   LCOMPAT=      F    compatible to vasp.4.4
   GGA_COMPAT  = T    GGA compatible to vasp.4.4-vasp.4.6
   LMAXPAW     = -100 max onsite density
   LMAXMIX     =    2 max onsite mixed and CHGCAR
   VOSKOWN=      0    Vosko Wilk Nusair interpolation
   ROPT   =   -0.00050  -0.00050  -0.00050  -0.00050
   ROPT   =   -0.00050
 Ionic relaxation
   EDIFFG = 0.1E-02   stopping-criterion for IOM
   NSW    =      0    number of steps for IOM
   NBLOCK =      1;   KBLOCK =      1    inner block; outer block 
   IBRION =     -1    ionic relax: 0-MD 1-quasi-New 2-CG
   NFREE  =      1    steps in history (QN), initial steepest desc. (CG)
   ISIF   =      2    stress and relaxation
   IWAVPR =     10    prediction:  0-non 1-charg 2-wave 3-comb
   ISYM   =      2    0-nonsym 1-usesym 2-fastsym
   LCORR  =      T    Harris-Foulkes like correction to forces

   POTIM  = 0.5000    time-step for ionic-motion
   TEIN   =    0.0    initial temperature
   TEBEG  =    0.0;   TEEND  =   0.0 temperature during run
   SMASS  =  -3.00    Nose mass-parameter (am)
   estimated Nose-frequenzy (Omega)   =  0.10E-29 period in steps =****** mass=  -0.720E-27a.u.
   SCALEE = 1.0000    scale energy and forces
   NPACO  =    256;   APACO  = 16.0  distance and # of slots for P.C.
   PSTRESS=    0.0 pullay stress

  Mass of Ions in am
   POMASS =  92.91 95.94180.95 47.88 50.94
  Ionic Valenz
   ZVAL   =  13.00  6.00  5.00  4.00  5.00
  Atomic Wigner-Seitz radii
   RWIGS  =  -1.00 -1.00 -1.00 -1.00 -1.00
  virtual crystal weights 
   VCA    =   1.00  1.00  1.00  1.00  1.00
   NELECT =     198.0000    total number of electrons
   NUPDOWN=      -1.0000    fix difference up-down

 DOS related values:
   EMIN   =  10.00;   EMAX   =-10.00  energy-range for DOS
   EFERMI =   0.00
   ISMEAR =     1;   SIGMA  =   0.20  broadening in eV -4-tet -1-fermi 0-gaus

 Electronic relaxation 2 (details)
   IALGO  =     38    algorithm
   LDIAG  =      T    sub-space diagonalisation (order eigenvalues)
   LSUBROT=      F    optimize rotation matrix (better conditioning)
   TURBO    =      0    0=normal 1=particle mesh
   IRESTART =      0    0=no restart 2=restart with 2 vectors
   NREBOOT  =      0    no. of reboots
   NMIN     =      0    reboot dimension
   EREF     =   0.00    reference energy to select bands
   IMIX   =      4    mixing-type and parameters
     AMIX     =   0.40;   BMIX     =  1.00
     AMIX_MAG =   1.60;   BMIX_MAG =  1.00
     AMIN     =   0.10
     WC   =   100.;   INIMIX=   1;  MIXPRE=   1;  MAXMIX= -45

 Intra band minimization:
   WEIMIN = 0.0000     energy-eigenvalue tresh-hold
   EBREAK =  0.21E-06  absolut break condition
   DEPER  =   0.30     relativ break condition  

   TIME   =   0.40     timestep for ELM

  volume/ion in A,a.u.               =      17.01       114.76
  Fermi-wavevector in a.u.,A,eV,Ry     =   1.194138  2.256593 19.401434  1.425965
  Thomas-Fermi vector in A             =   2.330135
 
 Write flags
   LWAVE        =      T    write WAVECAR
   LDOWNSAMPLE  =      F    k-point downsampling of WAVECAR
   LCHARG       =      T    write CHGCAR
   LVTOT        =      F    write LOCPOT, total local potential
   LVHAR        =      F    write LOCPOT, Hartree potential only
   LELF         =      F    write electronic localiz. function (ELF)
   LORBIT       =      0    0 simple, 1 ext, 2 COOP (PROOUT), +10 PAW based schemes


 Dipole corrections
   LMONO  =      F    monopole corrections only (constant potential shift)
   LDIPOL =      F    correct potential (dipole corrections)
   IDIPOL =      0    1-x, 2-y, 3-z, 4-all directions 
   EPSILON=  1.0000000 bulk dielectric constant

 Exchange correlation treatment:
   GGA     =    PS    GGA type
   LEXCH   =    14    internal setting for exchange type
   VOSKOWN=      0    Vosko Wilk Nusair interpolation
   LHFCALC =     F    Hartree Fock is set to
   LHFONE  =     F    Hartree Fock one center treatment
   AEXX    =    0.0000 exact exchange contribution

 Linear response parameters
   LEPSILON=     F    determine dielectric tensor
   LRPA    =     F    only Hartree local field effects (RPA)
   LNABLA  =     F    use nabla operator in PAW spheres
   LVEL    =     F    velocity operator in full k-point grid
   LINTERFAST=   F  fast interpolation
   KINTER  =     0    interpolate to denser k-point grid
   CSHIFT  =0.1000    complex shift for real part using Kramers Kronig
   OMEGAMAX=  -1.0    maximum frequency
   DEG_THRESHOLD= 0.2000000E-02 threshold for treating states as degnerate
   RTIME   =   -0.100 relaxation time in fs
  (WPLASMAI=    0.000 imaginary part of plasma frequency in eV, 0.658/RTIME)
   DFIELD  = 0.0000000 0.0000000 0.0000000 field for delta impulse in time
 
 Orbital magnetization related:
   ORBITALMAG=     F  switch on orbital magnetization
   LCHIMAG   =     F  perturbation theory with respect to B field
   DQ        =  0.001000  dq finite difference perturbation B field
   LLRAUG    =     F  two centre corrections for induced B field



--------------------------------------------------------------------------------------------------------


 Static calculation
 charge density and potential will be updated during run
 non-spin polarized calculation
 Variant of blocked Davidson
 Davidson routine will perform the subspace rotation
 perform sub-space diagonalisation
    after iterative eigenvector-optimisation
 modified Broyden-mixing scheme, WC =      100.0
 initial mixing is a Kerker type mixing with AMIX =  0.4000 and BMIX =      1.0000
 Hartree-type preconditioning will be used
 using additional bands           21
 real space projection scheme for non local part
 use partial core corrections
 calculate Harris-corrections to forces 
   (improved forces if not selfconsistent)
 use gradient corrections 
 use of overlap-Matrix (Vanderbilt PP)
 Methfessel and Paxton  Order N= 1 SIGMA  =   0.20


--------------------------------------------------------------------------------------------------------


  energy-cutoff  :      600.00
  volume of cell :      510.18
      direct lattice vectors                 reciprocal lattice vectors
    -3.240000000 -3.240000000 -3.240000000    -0.133744856 -0.123456790 -0.051440329
     1.620000000  1.620000000 -8.100000000     0.041152263  0.061728395 -0.102880658
     8.100000000 -8.100000000 -1.620000000     0.061728395 -0.061728395  0.000000000

  length of vectors
     5.611844617  8.417766925 11.569114054     0.189143789  0.126839794  0.087297133


 
 old parameters found on file WAVECAR:
  energy-cutoff  :      600.00
  volume of cell :      510.18
      direct lattice vectors                 reciprocal lattice vectors
    -3.240000000 -3.240000000 -3.240000000    -0.133744856 -0.123456790 -0.051440329
     1.620000000  1.620000000 -8.100000000     0.041152263  0.061728395 -0.102880658
     8.100000000 -8.100000000 -1.620000000     0.061728395 -0.061728395  0.000000000

  length of vectors

 
 k-points in units of 2pi/SCALE and weight: k-points                                
   0.00000000  0.00000000  0.00000000       0.008
  -0.08666667 -0.08000000 -0.03333333       0.016
  -0.17333333 -0.16000000 -0.06666667       0.016
   0.02666667  0.04000000 -0.06666667       0.016
  -0.06000000 -0.04000000 -0.10000000       0.016
  -0.14666667 -0.12000000 -0.13333333       0.016
   0.20000000  0.20000000  0.00000000       0.016
   0.11333333  0.12000000 -0.03333333       0.016
   0.05333333  0.08000000 -0.13333333       0.016
  -0.03333333 -0.00000000 -0.16666667       0.016
  -0.12000000 -0.08000000 -0.20000000       0.016
   0.22666667  0.24000000 -0.06666667       0.016
   0.14000000  0.16000000 -0.10000000       0.016
   0.04000000 -0.04000000  0.00000000       0.016
  -0.04666667 -0.12000000 -0.03333333       0.016
  -0.13333333 -0.20000000 -0.06666667       0.016
   0.21333333  0.12000000  0.06666667       0.016
   0.12666667  0.04000000  0.03333333       0.016
   0.06666667  0.00000000 -0.06666667       0.016
  -0.02000000 -0.08000000 -0.10000000       0.016
  -0.10666667 -0.16000000 -0.13333333       0.016
   0.24000000  0.16000000  0.00000000       0.016
   0.15333333  0.08000000 -0.03333333       0.016
   0.09333333  0.04000000 -0.13333333       0.016
   0.00666667 -0.04000000 -0.16666667       0.016
  -0.08000000 -0.12000000 -0.20000000       0.016
   0.26666667  0.20000000 -0.06666667       0.016
   0.18000000  0.12000000 -0.10000000       0.016
  -0.01333333 -0.12000000  0.13333333       0.016
  -0.10000000 -0.20000000  0.10000000       0.016
  -0.18666667 -0.28000000  0.06666667       0.016
   0.16000000  0.04000000  0.20000000       0.016
   0.07333333 -0.04000000  0.16666667       0.016
   0.01333333 -0.08000000  0.06666667       0.016
  -0.07333333 -0.16000000  0.03333333       0.016
  -0.16000000 -0.24000000  0.00000000       0.016
   0.18666667  0.08000000  0.13333333       0.016
   0.10000000  0.00000000  0.10000000       0.016
   0.08000000 -0.08000000  0.00000000       0.016
  -0.00666667 -0.16000000 -0.03333333       0.016
  -0.09333333 -0.24000000 -0.06666667       0.016
   0.25333333  0.08000000  0.06666667       0.016
   0.16666667 -0.00000000  0.03333333       0.016
   0.10666667 -0.04000000 -0.06666667       0.016
   0.02000000 -0.12000000 -0.10000000       0.016
  -0.06666667 -0.20000000 -0.13333333       0.016
   0.28000000  0.12000000  0.00000000       0.016
   0.19333333  0.04000000 -0.03333333       0.016
   0.13333333  0.00000000 -0.13333333       0.016
   0.04666667 -0.08000000 -0.16666667       0.016
  -0.04000000 -0.16000000 -0.20000000       0.016
   0.30666667  0.16000000 -0.06666667       0.016
   0.22000000  0.08000000 -0.10000000       0.016
   0.02666667 -0.16000000  0.13333333       0.016
  -0.06000000 -0.24000000  0.10000000       0.016
  -0.14666667 -0.32000000  0.06666667       0.016
   0.20000000  0.00000000  0.20000000       0.016
   0.11333333 -0.08000000  0.16666667       0.016
   0.05333333 -0.12000000  0.06666667       0.016
  -0.03333333 -0.20000000  0.03333333       0.016
  -0.12000000 -0.28000000  0.00000000       0.016
   0.22666667  0.04000000  0.13333333       0.016
   0.14000000 -0.04000000  0.10000000       0.016
 
 k-points in reciprocal lattice and weights: k-points                                
   0.00000000  0.00000000  0.00000000       0.008
   0.20000000  0.00000000 -0.00000000       0.016
   0.40000000  0.00000000 -0.00000000       0.016
  -0.00000000  0.20000000  0.00000000       0.016
   0.20000000  0.20000000 -0.00000000       0.016
   0.40000000  0.20000000 -0.00000000       0.016
  -0.40000000  0.20000000 -0.00000000       0.016
  -0.20000000  0.20000000  0.00000000       0.016
  -0.00000000  0.40000000  0.00000000       0.016
   0.20000000  0.40000000 -0.00000000       0.016
   0.40000000  0.40000000 -0.00000000       0.016
  -0.40000000  0.40000000  0.00000000       0.016
  -0.20000000  0.40000000 -0.00000000       0.016
   0.00000000  0.00000000  0.20000000       0.016
   0.20000000 -0.00000000  0.20000000       0.016
   0.40000000  0.00000000  0.20000000       0.016
  -0.40000000  0.00000000  0.20000000       0.016
  -0.20000000  0.00000000  0.20000000       0.016
  -0.00000000  0.20000000  0.20000000       0.016
   0.20000000  0.20000000  0.20000000       0.016
   0.40000000  0.20000000  0.20000000       0.016
  -0.40000000  0.20000000  0.20000000       0.016
  -0.20000000  0.20000000  0.20000000       0.016
  -0.00000000  0.40000000  0.20000000       0.016
   0.20000000  0.40000000  0.20000000       0.016
   0.40000000  0.40000000  0.20000000       0.016
  -0.40000000  0.40000000  0.20000000       0.016
  -0.20000000  0.40000000  0.20000000       0.016
   0.00000000 -0.40000000  0.20000000       0.016
   0.20000000 -0.40000000  0.20000000       0.016
   0.40000000 -0.40000000  0.20000000       0.016
  -0.40000000 -0.40000000  0.20000000       0.016
  -0.20000000 -0.40000000  0.20000000       0.016
   0.00000000 -0.20000000  0.20000000       0.016
   0.20000000 -0.20000000  0.20000000       0.016
   0.40000000 -0.20000000  0.20000000       0.016
  -0.40000000 -0.20000000  0.20000000       0.016
  -0.20000000 -0.20000000  0.20000000       0.016
   0.00000000  0.00000000  0.40000000       0.016
   0.20000000  0.00000000  0.40000000       0.016
   0.40000000 -0.00000000  0.40000000       0.016
  -0.40000000  0.00000000  0.40000000       0.016
  -0.20000000  0.00000000  0.40000000       0.016
   0.00000000  0.20000000  0.40000000       0.016
   0.20000000  0.20000000  0.40000000       0.016
   0.40000000  0.20000000  0.40000000       0.016
  -0.40000000  0.20000000  0.40000000       0.016
  -0.20000000  0.20000000  0.40000000       0.016
  -0.00000000  0.40000000  0.40000000       0.016
   0.20000000  0.40000000  0.40000000       0.016
   0.40000000  0.40000000  0.40000000       0.016
  -0.40000000  0.40000000  0.40000000       0.016
  -0.20000000  0.40000000  0.40000000       0.016
   0.00000000 -0.40000000  0.40000000       0.016
   0.20000000 -0.40000000  0.40000000       0.016
   0.40000000 -0.40000000  0.40000000       0.016
  -0.40000000 -0.40000000  0.40000000       0.016
  -0.20000000 -0.40000000  0.40000000       0.016
   0.00000000 -0.20000000  0.40000000       0.016
   0.20000000 -0.20000000  0.40000000       0.016
   0.40000000 -0.20000000  0.40000000       0.016
  -0.40000000 -0.20000000  0.40000000       0.016
  -0.20000000 -0.20000000  0.40000000       0.016
 
 position of ions in fractional coordinates (direct lattice) 
   0.96666667  0.93333333  0.40000000
   0.63333333  0.26666667  0.40000000
   0.50000000  0.00000000  0.00000000
   0.00000000  0.00000000  0.00000000
   0.10000000  0.20000000  0.80000000
   0.03333333  0.06666667  0.60000000
   0.90000000  0.80000000  0.20000000
   0.80000000  0.60000000  0.40000000
   0.73333333  0.46666667  0.20000000
   0.66666667  0.33333333  0.00000000
   0.36666667  0.73333333  0.60000000
   0.13333333  0.26666667  0.40000000
   0.83333333  0.66666667  0.00000000
   0.93333333  0.86666667  0.80000000
   0.56666667  0.13333333  0.20000000
   0.40000000  0.80000000  0.20000000
   0.43333333  0.86666667  0.80000000
   0.30000000  0.60000000  0.40000000
   0.86666667  0.73333333  0.60000000
   0.46666667  0.93333333  0.40000000
   0.16666667  0.33333333  0.00000000
   0.26666667  0.53333333  0.80000000
   0.20000000  0.40000000  0.60000000
   0.06666667  0.13333333  0.20000000
   0.76666667  0.53333333  0.80000000
   0.70000000  0.40000000  0.60000000
   0.60000000  0.20000000  0.80000000
   0.53333333  0.06666667  0.60000000
   0.33333333  0.66666667  0.00000000
   0.23333333  0.46666667  0.20000000
 
 position of ions in cartesian coordinates  (Angst):
   1.61999998 -4.86000002-11.33999998
   1.62000002 -4.85999998 -4.86000002
  -1.62000000 -1.62000000 -1.62000000
   0.00000000  0.00000000  0.00000000
   6.48000000 -6.48000000 -3.24000000
   4.86000002 -4.85999998 -1.62000002
   0.00000000 -3.24000000 -9.72000000
   1.62000000 -4.86000000 -8.10000000
   0.00000002 -3.23999998 -6.48000002
  -1.62000002 -1.62000002 -4.85999998
   4.85999998 -4.86000002 -8.09999998
   3.24000002 -3.23999998 -3.24000002
  -1.61999998 -1.61999998 -8.10000002
   4.86000002 -8.09999998-11.34000002
  -0.00000002 -3.24000002 -3.23999998
   1.62000000 -1.62000000 -8.10000000
   6.48000002 -6.47999998 -9.72000002
   3.24000000 -3.24000000 -6.48000000
   3.23999998 -6.48000002 -9.71999998
   3.23999998 -3.24000002 -9.71999998
  -0.00000002 -0.00000002 -3.23999998
   6.47999998 -6.48000002 -6.47999998
   4.86000000 -4.86000000 -4.86000000
   1.61999998 -1.62000002 -1.61999998
   4.85999998 -8.10000002 -8.09999998
   3.24000000 -6.48000000 -6.48000000
   4.86000000 -8.10000000 -4.86000000
   3.24000002 -6.47999998 -3.24000002
   0.00000002  0.00000002 -6.48000002
   1.62000002 -1.61999998 -4.86000002
 


--------------------------------------------------------------------------------------------------------


 k-point  1 :   0.0000 0.0000 0.0000  plane waves:   16995
 k-point  2 :   0.2000 0.0000-0.0000  plane waves:   17030
 k-point  3 :   0.4000 0.0000-0.0000  plane waves:   17021
 k-point  4 :  -0.0000 0.2000 0.0000  plane waves:   17035
 k-point  5 :   0.2000 0.2000-0.0000  plane waves:   17027
 k-point  6 :   0.4000 0.2000-0.0000  plane waves:   17015
 k-point  7 :  -0.4000 0.2000-0.0000  plane waves:   17025
 k-point  8 :  -0.2000 0.2000 0.0000  plane waves:   17016
 k-point  9 :  -0.0000 0.4000 0.0000  plane waves:   17020
 k-point 10 :   0.2000 0.4000-0.0000  plane waves:   17001
 k-point 11 :   0.4000 0.4000-0.0000  plane waves:   17056
 k-point 12 :  -0.4000 0.4000 0.0000  plane waves:   17027
 k-point 13 :  -0.2000 0.4000-0.0000  plane waves:   17015
 k-point 14 :   0.0000 0.0000 0.2000  plane waves:   17024
 k-point 15 :   0.2000-0.0000 0.2000  plane waves:   17007
 k-point 16 :   0.4000 0.0000 0.2000  plane waves:   17044
 k-point 17 :  -0.4000 0.0000 0.2000  plane waves:   17041
 k-point 18 :  -0.2000 0.0000 0.2000  plane waves:   17020
 k-point 19 :  -0.0000 0.2000 0.2000  plane waves:   17012
 k-point 20 :   0.2000 0.2000 0.2000  plane waves:   16998
 k-point 21 :   0.4000 0.2000 0.2000  plane waves:   17038
 k-point 22 :  -0.4000 0.2000 0.2000  plane waves:   17033
 k-point 23 :  -0.2000 0.2000 0.2000  plane waves:   17016
 k-point 24 :  -0.0000 0.4000 0.2000  plane waves:   17033
 k-point 25 :   0.2000 0.4000 0.2000  plane waves:   17015
 k-point 26 :   0.4000 0.4000 0.2000  plane waves:   17028
 k-point 27 :  -0.4000 0.4000 0.2000  plane waves:   17032
 k-point 28 :  -0.2000 0.4000 0.2000  plane waves:   17031
 k-point 29 :   0.0000-0.4000 0.2000  plane waves:   17028
 k-point 30 :   0.2000-0.4000 0.2000  plane waves:   17019
 k-point 31 :   0.4000-0.4000 0.2000  plane waves:   17025
 k-point 32 :  -0.4000-0.4000 0.2000  plane waves:   17036
 k-point 33 :  -0.2000-0.4000 0.2000  plane waves:   17016
 k-point 34 :   0.0000-0.2000 0.2000  plane waves:   17004
 k-point 35 :   0.2000-0.2000 0.2000  plane waves:   17011
 k-point 36 :   0.4000-0.2000 0.2000  plane waves:   17028
 k-point 37 :  -0.4000-0.2000 0.2000  plane waves:   17023
 k-point 38 :  -0.2000-0.2000 0.2000  plane waves:   17018
 k-point 39 :   0.0000 0.0000 0.4000  plane waves:   17017
 k-point 40 :   0.2000 0.0000 0.4000  plane waves:   17013
 k-point 41 :   0.4000-0.0000 0.4000  plane waves:   17048
 k-point 42 :  -0.4000 0.0000 0.4000  plane waves:   17029
 k-point 43 :  -0.2000 0.0000 0.4000  plane waves:   17008
 k-point 44 :   0.0000 0.2000 0.4000  plane waves:   17035
 k-point 45 :   0.2000 0.2000 0.4000  plane waves:   17001
 k-point 46 :   0.4000 0.2000 0.4000  plane waves:   17028
 k-point 47 :  -0.4000 0.2000 0.4000  plane waves:   17033
 k-point 48 :  -0.2000 0.2000 0.4000  plane waves:   17030
 k-point 49 :  -0.0000 0.4000 0.4000  plane waves:   17057
 k-point 50 :   0.2000 0.4000 0.4000  plane waves:   17020
 k-point 51 :   0.4000 0.4000 0.4000  plane waves:   17037
 k-point 52 :  -0.4000 0.4000 0.4000  plane waves:   17029
 k-point 53 :  -0.2000 0.4000 0.4000  plane waves:   17054
 k-point 54 :   0.0000-0.4000 0.4000  plane waves:   17036
 k-point 55 :   0.2000-0.4000 0.4000  plane waves:   17045
 k-point 56 :   0.4000-0.4000 0.4000  plane waves:   17038
 k-point 57 :  -0.4000-0.4000 0.4000  plane waves:   17046
 k-point 58 :  -0.2000-0.4000 0.4000  plane waves:   17020
 k-point 59 :   0.0000-0.2000 0.4000  plane waves:   17014
 k-point 60 :   0.2000-0.2000 0.4000  plane waves:   17010
 k-point 61 :   0.4000-0.2000 0.4000  plane waves:   17030
 k-point 62 :  -0.4000-0.2000 0.4000  plane waves:   17039
 k-point 63 :  -0.2000-0.2000 0.4000  plane waves:   17027

 maximum and minimum number of plane-waves per node :      4293     4202

 maximum number of plane-waves:     17057
 maximum index in each direction: 
   IXMAX=   11   IYMAX=   17   IZMAX=   23
   IXMIN=  -11   IYMIN=  -17   IZMIN=  -23


 real space projection operators:
  total allocation   :      15565.55 KBytes
  max/ min on nodes  :       3891.80       3891.23


 parallel 3D FFT for wavefunctions:
    minimum data exchange during FFTs selected (reduces bandwidth)
 parallel 3D FFT for charge:
    minimum data exchange during FFTs selected (reduces bandwidth)


 total amount of memory used by VASP MPI-rank0   111058. kBytes
=======================================================================

   base      :      30000. kBytes
   nonlr-proj:       6804. kBytes
   fftplans  :       2333. kBytes
   grid      :       4665. kBytes
   one-center:        124. kBytes
   wavefun   :      67132. kBytes
 
     INWAV:  cpu time    5.8977: real time    9.7685
 Broyden mixing: mesh for mixing (old mesh)
   NGX = 23   NGY = 33   NGZ = 47
  (NGX  = 72   NGY  =100   NGZ  =140)
  gives a total of  35673 points

 initial charge density was supplied:
 number of electron     198.0000008 magnetization 
 keeping initial charge density in first step


--------------------------------------------------------------------------------------------------------


 Maximum index for non-local projection operator          967
 Maximum index for augmentation-charges         1352 (set IRDMAX)


--------------------------------------------------------------------------------------------------------


 First call to EWALD:  gamma=   0.222
 Maximum number of real-space cells 4x 3x 2
 Maximum number of reciprocal cells 2x 3x 4

    FEWALD:  cpu time    0.0021: real time    0.0030


--------------------------------------- Iteration      1(   1)  ---------------------------------------


    POTLOK:  cpu time    0.0343: real time    0.1059
    SETDIJ:  cpu time    0.0094: real time    0.0096
     EDDAV:  cpu time   29.7657: real time   29.8072
       DOS:  cpu time    0.0037: real time    0.0037
    CHARGE:  cpu time    0.5815: real time    0.5820
    MIXING:  cpu time    0.0014: real time    0.0015
    --------------------------------------------
      LOOP:  cpu time   30.3959: real time   30.5099

 eigenvalue-minimisations  : 26696
 total energy-change (2. order) :-0.3663990E+03  (-0.3092335E+02)
 number of electron     198.0000007 magnetization 
 augmentation part       36.8099629 magnetization 

 Broyden mixing:
  rms(total) = 0.96752E+01    rms(broyden)= 0.96752E+01
  rms(prec ) = 0.11393E+02
  weight for this iteration     100.00

 Free energy of the ion-electron system (eV)
  ---------------------------------------------------
  alpha Z        PSCENC =      1141.17167839
  Ewald energy   TEWEN  =    -11249.65257471
  -Hartree energ DENC   =     -3044.73965606
  -exchange      EXHF   =         0.00000000
  -V(xc)+E(xc)   XCENC  =      -890.86402895
  PAW double counting   =     17934.52079072   -16425.73343312
  entropy T*S    EENTRO =        -0.00032785
  eigenvalues    EBANDS =      -837.00935864
  atomic energy  EATOM  =     13005.90793652
  Solvation  Ediel_sol  =         0.00000000
  ---------------------------------------------------
  free energy    TOTEN  =      -366.39897370 eV

  energy without entropy =     -366.39864585  energy(sigma->0) =     -366.39886442


--------------------------------------------------------------------------------------------------------




--------------------------------------- Iteration      1(   2)  ---------------------------------------


    POTLOK:  cpu time    0.0247: real time    0.0313
    SETDIJ:  cpu time    0.0051: real time    0.0051
     EDDAV:  cpu time   29.5133: real time   29.5657
       DOS:  cpu time    0.0039: real time    0.0039
    CHARGE:  cpu time    0.5775: real time    0.5780
    MIXING:  cpu time    0.0011: real time    0.0012
    --------------------------------------------
      LOOP:  cpu time   30.1257: real time   30.1853

 eigenvalue-minimisations  : 26800
 total energy-change (2. order) :-0.9732534E+02  (-0.2474155E+03)
 number of electron     197.9999997 magnetization 
 augmentation part       46.4105493 magnetization 

 Broyden mixing:
  rms(total) = 0.16222E+02    rms(broyden)= 0.16222E+02
  rms(prec ) = 0.20909E+02
  weight for this iteration     100.00

 eigenvalues of (default mixing * dielectric matrix)
  average eigenvalue GAMMA=   0.1141
  0.1141

 Free energy of the ion-electron system (eV)
  ---------------------------------------------------
  alpha Z        PSCENC =      1141.17167839
  Ewald energy   TEWEN  =    -11249.65257471
  -Hartree energ DENC   =     -3050.07202023
  -exchange      EXHF   =         0.00000000
  -V(xc)+E(xc)   XCENC  =      -892.90149424
  PAW double counting   =     17714.86137331   -16219.65275412
  entropy T*S    EENTRO =        -0.00546152
  eigenvalues    EBANDS =      -913.38099728
  atomic energy  EATOM  =     13005.90793652
  Solvation  Ediel_sol  =         0.00000000
  ---------------------------------------------------
  free energy    TOTEN  =      -463.72431388 eV

  energy without entropy =     -463.71885237  energy(sigma->0) =     -463.72249338


--------------------------------------------------------------------------------------------------------




--------------------------------------- Iteration      1(   3)  ---------------------------------------


    POTLOK:  cpu time    0.0262: real time    0.0268
    SETDIJ:  cpu time    0.0051: real time    0.0051
     EDDAV:  cpu time   30.6015: real time   30.6535
       DOS:  cpu time    0.0038: real time    0.0038
    CHARGE:  cpu time    0.5765: real time    0.5770
    MIXING:  cpu time    0.0010: real time    0.0010
    --------------------------------------------
      LOOP:  cpu time   31.2141: real time   31.2671

 eigenvalue-minimisations  : 27928
 total energy-change (2. order) : 0.1084948E+03  (-0.9476785E+02)
 number of electron     198.0000008 magnetization 
 augmentation part       33.3305110 magnetization 

 Broyden mixing:
  rms(total) = 0.53394E+01    rms(broyden)= 0.53394E+01
  rms(prec ) = 0.74361E+01
  weight for this iteration     100.00

 eigenvalues of (default mixing * dielectric matrix)
  average eigenvalue GAMMA=   0.6042
  0.9589  0.2495

 Free energy of the ion-electron system (eV)
  ---------------------------------------------------
  alpha Z        PSCENC =      1141.17167839
  Ewald energy   TEWEN  =    -11249.65257471
  -Hartree energ DENC   =     -3016.96518491
  -exchange      EXHF   =         0.00000000
  -V(xc)+E(xc)   XCENC  =      -894.26492227
  PAW double counting   =     17661.34413992   -16170.67897387
  entropy T*S    EENTRO =        -0.00447762
  eigenvalues    EBANDS =      -832.08714596
  atomic energy  EATOM  =     13005.90793652
  Solvation  Ediel_sol  =         0.00000000
  ---------------------------------------------------
  free energy    TOTEN  =      -355.22952452 eV

  energy without entropy =     -355.22504689  energy(sigma->0) =     -355.22803198


--------------------------------------------------------------------------------------------------------




--------------------------------------- Iteration      1(   4)  ---------------------------------------


    POTLOK:  cpu time    0.0279: real time    0.0358
    SETDIJ:  cpu time    0.0051: real time    0.0051
     EDDAV:  cpu time   29.8106: real time   29.8616
       DOS:  cpu time    0.0039: real time    0.0040
    CHARGE:  cpu time    0.5758: real time    0.5764
    MIXING:  cpu time    0.0009: real time    0.0009
    --------------------------------------------
      LOOP:  cpu time   30.4243: real time   30.4837

 eigenvalue-minimisations  : 27104
 total energy-change (2. order) : 0.1119219E+02  (-0.7141063E+02)
 number of electron     197.9999996 magnetization 
 augmentation part       41.2578013 magnetization 

 Broyden mixing:
  rms(total) = 0.53777E+01    rms(broyden)= 0.53777E+01
  rms(prec ) = 0.84617E+01
  weight for this iteration     100.00

 eigenvalues of (default mixing * dielectric matrix)
  average eigenvalue GAMMA=   0.6534
  1.3869  0.2866  0.2866

 Free energy of the ion-electron system (eV)
  ---------------------------------------------------
  alpha Z        PSCENC =      1141.17167839
  Ewald energy   TEWEN  =    -11249.65257471
  -Hartree energ DENC   =     -3032.19397395
  -exchange      EXHF   =         0.00000000
  -V(xc)+E(xc)   XCENC  =      -893.06913489
  PAW double counting   =     17591.60301185   -16096.66999425
  entropy T*S    EENTRO =        -0.00101214
  eigenvalues    EBANDS =      -811.13327179
  atomic energy  EATOM  =     13005.90793652
  Solvation  Ediel_sol  =         0.00000000
  ---------------------------------------------------
  free energy    TOTEN  =      -344.03733497 eV

  energy without entropy =     -344.03632283  energy(sigma->0) =     -344.03699759


--------------------------------------------------------------------------------------------------------




--------------------------------------- Iteration      1(   5)  ---------------------------------------


    POTLOK:  cpu time    0.0226: real time    0.0237
    SETDIJ:  cpu time    0.0050: real time    0.0050
     EDDAV:  cpu time   30.7486: real time   30.8015
       DOS:  cpu time    0.0037: real time    0.0037
    CHARGE:  cpu time    0.5770: real time    0.5775
    MIXING:  cpu time    0.0010: real time    0.0010
    --------------------------------------------
      LOOP:  cpu time   31.3580: real time   31.4124

 eigenvalue-minimisations  : 28136
 total energy-change (2. order) : 0.2561829E+01  (-0.6611360E+02)
 number of electron     198.0000011 magnetization 
 augmentation part       34.7759391 magnetization 

 Broyden mixing:
  rms(total) = 0.43601E+01    rms(broyden)= 0.43601E+01
  rms(prec ) = 0.64716E+01
  weight for this iteration     100.00

 eigenvalues of (default mixing * dielectric matrix)
  average eigenvalue GAMMA=   0.6755
  1.7972  0.3468  0.3468  0.2113

 Free energy of the ion-electron system (eV)
  ---------------------------------------------------
  alpha Z        PSCENC =      1141.17167839
  Ewald energy   TEWEN  =    -11249.65257471
  -Hartree energ DENC   =     -3014.53838522
  -exchange      EXHF   =         0.00000000
  -V(xc)+E(xc)   XCENC  =      -893.53979126
  PAW double counting   =     17467.87895878   -15978.65788051
  entropy T*S    EENTRO =         0.00404578
  eigenvalues    EBANDS =      -820.04949330
  atomic energy  EATOM  =     13005.90793652
  Solvation  Ediel_sol  =         0.00000000
  ---------------------------------------------------
  free energy    TOTEN  =      -341.47550554 eV

  energy without entropy =     -341.47955131  energy(sigma->0) =     -341.47685413


--------------------------------------------------------------------------------------------------------




--------------------------------------- Iteration      1(   6)  ---------------------------------------


    POTLOK:  cpu time    0.0302: real time    0.0400
    SETDIJ:  cpu time    0.0051: real time    0.0051
     EDDAV:  cpu time   27.5942: real time   27.6541
       DOS:  cpu time    0.0037: real time    0.0037
    CHARGE:  cpu time    0.5771: real time    0.5776
    MIXING:  cpu time    0.0009: real time    0.0009
    --------------------------------------------
      LOOP:  cpu time   28.2111: real time   28.2815

 eigenvalue-minimisations  : 24832
 total energy-change (2. order) : 0.1066012E+02  (-0.3180191E+02)
 number of electron     198.0000005 magnetization 
 augmentation part       33.5697141 magnetization 

 Broyden mixing:
  rms(total) = 0.30604E+01    rms(broyden)= 0.30604E+01
  rms(prec ) = 0.50018E+01
  weight for this iteration     100.00

 eigenvalues of (default mixing * dielectric matrix)
  average eigenvalue GAMMA=   0.6998
  2.2234  0.4037  0.4037  0.2341  0.2341

 Free energy of the ion-electron system (eV)
  ---------------------------------------------------
  alpha Z        PSCENC =      1141.17167839
  Ewald energy   TEWEN  =    -11249.65257471
  -Hartree energ DENC   =     -3010.88090258
  -exchange      EXHF   =         0.00000000
  -V(xc)+E(xc)   XCENC  =      -893.77577035
  PAW double counting   =     17446.45682274   -15959.07313339
  entropy T*S    EENTRO =        -0.00162583
  eigenvalues    EBANDS =      -810.96781162
  atomic energy  EATOM  =     13005.90793652
  Solvation  Ediel_sol  =         0.00000000
  ---------------------------------------------------
  free energy    TOTEN  =      -330.81538083 eV

  energy without entropy =     -330.81375499  energy(sigma->0) =     -330.81483888


--------------------------------------------------------------------------------------------------------




--------------------------------------- Iteration      1(   7)  ---------------------------------------


    POTLOK:  cpu time    0.0224: real time    0.0227
    SETDIJ:  cpu time    0.0051: real time    0.0051
     EDDAV:  cpu time   27.0036: real time   27.0519
       DOS:  cpu time    0.0039: real time    0.0039
    CHARGE:  cpu time    0.5779: real time    0.5784
    MIXING:  cpu time    0.0011: real time    0.0011
    --------------------------------------------
      LOOP:  cpu time   27.6140: real time   27.6631

 eigenvalue-minimisations  : 24232
 total energy-change (2. order) : 0.7499159E+01  (-0.1114294E+02)
 number of electron     198.0000007 magnetization 
 augmentation part       31.5672371 magnetization 

 Broyden mixing:
  rms(total) = 0.16975E+01    rms(broyden)= 0.16975E+01
  rms(prec ) = 0.28163E+01
  weight for this iteration     100.00

 eigenvalues of (default mixing * dielectric matrix)
  average eigenvalue GAMMA=   0.6156
  2.2287  0.3839  0.3839  0.2645  0.2645  0.1681

 Free energy of the ion-electron system (eV)
  ---------------------------------------------------
  alpha Z        PSCENC =      1141.17167839
  Ewald energy   TEWEN  =    -11249.65257471
  -Hartree energ DENC   =     -3012.36194820
  -exchange      EXHF   =         0.00000000
  -V(xc)+E(xc)   XCENC  =      -893.61706376
  PAW double counting   =     17465.98065191   -15978.93151536
  entropy T*S    EENTRO =        -0.01556836
  eigenvalues    EBANDS =      -801.79781866
  atomic energy  EATOM  =     13005.90793652
  Solvation  Ediel_sol  =         0.00000000
  ---------------------------------------------------
  free energy    TOTEN  =      -323.31622223 eV

  energy without entropy =     -323.30065387  energy(sigma->0) =     -323.31103278


--------------------------------------------------------------------------------------------------------




--------------------------------------- Iteration      1(   8)  ---------------------------------------


    POTLOK:  cpu time    0.0224: real time    0.0230
    SETDIJ:  cpu time    0.0051: real time    0.0051
     EDDAV:  cpu time   29.3511: real time   29.4031
       DOS:  cpu time    0.0041: real time    0.0041
    CHARGE:  cpu time    0.5772: real time    0.5778
    MIXING:  cpu time    0.0011: real time    0.0011
    --------------------------------------------
      LOOP:  cpu time   29.9609: real time   30.0141

 eigenvalue-minimisations  : 26720
 total energy-change (2. order) : 0.4053588E+01  (-0.1460105E+01)
 number of electron     198.0000006 magnetization 
 augmentation part       32.3269647 magnetization 

 Broyden mixing:
  rms(total) = 0.11771E+01    rms(broyden)= 0.11771E+01
  rms(prec ) = 0.15556E+01
  weight for this iteration     100.00

 eigenvalues of (default mixing * dielectric matrix)
  average eigenvalue GAMMA=   0.5871
  2.2226  0.3971  0.3971  0.3279  0.3279  0.2186  0.2186

 Free energy of the ion-electron system (eV)
  ---------------------------------------------------
  alpha Z        PSCENC =      1141.17167839
  Ewald energy   TEWEN  =    -11249.65257471
  -Hartree energ DENC   =     -3015.60495562
  -exchange      EXHF   =         0.00000000
  -V(xc)+E(xc)   XCENC  =      -893.28758275
  PAW double counting   =     17488.88776307   -15998.85118903
  entropy T*S    EENTRO =         0.00371513
  eigenvalues    EBANDS =      -797.83742498
  atomic energy  EATOM  =     13005.90793652
  Solvation  Ediel_sol  =         0.00000000
  ---------------------------------------------------
  free energy    TOTEN  =      -319.26263398 eV

  energy without entropy =     -319.26634911  energy(sigma->0) =     -319.26387236


--------------------------------------------------------------------------------------------------------




--------------------------------------- Iteration      1(   9)  ---------------------------------------


    POTLOK:  cpu time    0.0348: real time    0.0443
    SETDIJ:  cpu time    0.0085: real time    0.0085
     EDDAV:  cpu time   30.0845: real time   30.1382
       DOS:  cpu time    0.0040: real time    0.0040
    CHARGE:  cpu time    0.5765: real time    0.5770
[...]
    114       7.1946     -0.00000
    115       7.2511     -0.00000
    116       7.3033     -0.00000
    117       7.3680     -0.00000
    118       7.4340     -0.00000
    119       7.4684     -0.00000
    120       7.5059     -0.00000

 k-point    63 :      -0.2000   -0.2000    0.4000
  band No.  band energies     occupation 
      1     -48.0909      2.00000
      2     -48.0676      2.00000
      3     -48.0384      2.00000
      4     -47.9989      2.00000
      5     -47.9745      2.00000
      6     -47.8864      2.00000
      7     -24.6137      2.00000
      8     -24.5599      2.00000
      9     -24.4381      2.00000
     10     -24.4005      2.00000
     11     -24.2251      2.00000
     12     -24.2171      2.00000
     13     -24.2049      2.00000
     14     -24.1729      2.00000
     15     -24.1562      2.00000
     16     -24.1439      2.00000
     17     -24.1287      2.00000
     18     -24.0868      2.00000
     19     -24.0429      2.00000
     20     -24.0239      2.00000
     21     -23.9173      2.00000
     22     -23.8989      2.00000
     23     -23.7767      2.00000
     24     -23.6793      2.00000
     25      -0.0590      2.00000
     26       0.2117      2.00000
     27       1.7622      2.00000
     28       1.9755      2.00000
     29       2.0725      2.00000
     30       2.2472      2.00000
     31       2.3668      2.00000
     32       2.3996      2.00000
     33       2.5111      2.00000
     34       2.5890      2.00000
     35       2.6133      2.00000
     36       2.7190      2.00000
     37       2.7537      2.00000
     38       2.7936      2.00000
     39       2.9024      2.00000
     40       2.9823      2.00000
     41       3.0012      2.00000
     42       3.0459      2.00000
     43       3.1372      2.00000
     44       3.1894      2.00000
     45       3.3261      2.00000
     46       3.3478      2.00000
     47       3.5185      2.00000
     48       3.5623      2.00000
     49       3.6403      2.00000
     50       3.6758      2.00000
     51       3.7263      2.00000
     52       3.7761      2.00000
     53       3.8159      2.00000
     54       3.9069      2.00000
     55       3.9627      2.00000
     56       4.0397      2.00000
     57       4.1748      2.00000
     58       4.2526      2.00000
     59       4.3286      2.00000
     60       4.4085      2.00000
     61       4.4308      2.00000
     62       4.4816      2.00000
     63       4.4970      2.00000
     64       4.5372      2.00000
     65       4.5960      2.00000
     66       4.6258      2.00000
     67       4.6742      2.00000
     68       4.7299      2.00000
     69       4.7717      2.00000
     70       4.7843      2.00000
     71       4.8822      2.00000
     72       4.9305      2.00000
     73       4.9679      2.00000
     74       4.9896      2.00000
     75       5.0750      2.00000
     76       5.1149      2.00000
     77       5.1494      2.00000
     78       5.1737      2.00000
     79       5.2247      2.00000
     80       5.2575      2.00000
     81       5.3230      2.00001
     82       5.3504      2.00003
     83       5.4093      2.00017
     84       5.4482      2.00049
     85       5.4860      2.00126
     86       5.5093      2.00216
     87       5.5700      2.00760
     88       5.5835      2.00975
     89       5.6181      2.01752
     90       5.6495      2.02775
     91       5.6655      2.03413
     92       5.6948      2.04725
     93       5.7524      2.06934
     94       5.7753      2.07041
     95       5.7946      2.06413
     96       5.8259      2.03320
     97       5.8453      1.99723
     98       5.8901      1.85017
     99       5.9073      1.76783
    100       6.0317      0.83735
    101       6.0710      0.52705
    102       6.1896     -0.01772
    103       6.2169     -0.05463
    104       6.2649     -0.07050
    105       6.3030     -0.05935
    106       6.3612     -0.03336
    107       6.4422     -0.00959
    108       6.5122     -0.00233
    109       6.8530     -0.00000
    110       6.9359     -0.00000
    111       6.9854     -0.00000
    112       7.0354     -0.00000
    113       7.0679     -0.00000
    114       7.5510     -0.00000
    115       7.6065     -0.00000
    116       7.6609     -0.00000
    117       7.7485     -0.00000
    118       7.7733     -0.00000
    119       7.8240     -0.00000
    120       7.8876     -0.00000


--------------------------------------------------------------------------------------------------------


 soft charge-density along one line, spin component           1
         0         1         2         3         4         5         6         7         8         9
 total charge-density along one line
 
 pseudopotential strength for first ion, spin component:           1
  5.592 -21.261   0.002   0.001  -0.000  -0.005  -0.003   0.002
-21.261  10.113   0.003   0.002  -0.001  -0.000  -0.000   0.000
  0.002   0.003 -10.708  -0.001   0.004   7.018   0.001  -0.004
  0.001   0.002  -0.001 -10.707  -0.007   0.001   7.016   0.007
 -0.000  -0.001   0.004  -0.007 -10.709  -0.004   0.007   7.019
 -0.005  -0.000   7.018   0.001  -0.004   7.292  -0.001   0.003
 -0.003  -0.000   0.001   7.016   0.007  -0.001   7.293  -0.004
  0.002   0.000  -0.004   0.007   7.019   0.003  -0.004   7.291
  0.003   0.001  -0.001  -0.000   0.002   0.001   0.000  -0.003
 -0.001  -0.000   0.001   0.002  -0.000  -0.001  -0.003   0.000
  0.001   0.000  -0.001   0.001   0.000   0.001  -0.002  -0.000
 -0.005  -0.002  -0.000  -0.001   0.001   0.000   0.001  -0.001
 -0.000  -0.000  -0.002   0.000  -0.000   0.002  -0.000   0.001
  0.003   0.001  -0.001  -0.000   0.002   0.001   0.001  -0.003
 -0.001  -0.000   0.001   0.003  -0.000  -0.002  -0.004   0.001
  0.001   0.001  -0.001   0.002   0.000   0.002  -0.002  -0.000
 -0.006  -0.003  -0.000  -0.001   0.001   0.001   0.001  -0.002
 -0.000  -0.000  -0.002   0.000  -0.001   0.003  -0.000   0.001
 total augmentation occupancy for first ion, spin component:           1
  1.996  -0.038  -0.000  -0.000   0.000  -0.000  -0.000   0.000   0.006  -0.004   0.001  -0.008  -0.001  -0.005   0.003  -0.001
 -0.038   1.487  -0.002  -0.001   0.003   0.002  -0.000  -0.003   0.015  -0.022  -0.016  -0.034  -0.003  -0.005   0.008   0.006
 -0.000  -0.002   1.998   0.000  -0.000  -0.027  -0.001   0.000   0.007  -0.004  -0.000   0.005  -0.003  -0.004   0.002   0.001
 -0.000  -0.001   0.000   1.998  -0.000  -0.001  -0.027   0.001   0.004  -0.001   0.001   0.006   0.001  -0.003   0.000  -0.001
  0.000   0.003  -0.000  -0.000   1.998   0.000   0.001  -0.027  -0.005   0.005  -0.001  -0.001   0.001   0.002  -0.003   0.000
 -0.000   0.002  -0.027  -0.001   0.000   0.063   0.001  -0.000  -0.005   0.005  -0.000  -0.004   0.002   0.003  -0.002   0.000
 -0.000  -0.000  -0.001  -0.027   0.001   0.001   0.063  -0.004   0.000  -0.006  -0.003  -0.005   0.000   0.000   0.001   0.001
  0.000  -0.003   0.000   0.001  -0.027  -0.000  -0.004   0.063   0.003  -0.004   0.004  -0.001  -0.003  -0.000   0.001  -0.002
  0.006   0.015   0.007   0.004  -0.005  -0.005   0.000   0.003   2.407  -0.236  -0.043  -0.017  -0.008  -0.872   0.100   0.016
 -0.004  -0.022  -0.004  -0.001   0.005   0.005  -0.006  -0.004  -0.236   2.428  -0.016   0.031   0.024   0.100  -0.875   0.006
  0.001  -0.016  -0.000   0.001  -0.001  -0.000  -0.003   0.004  -0.043  -0.016   2.199  -0.012   0.014   0.016   0.006  -0.872
 -0.008  -0.034   0.005   0.006  -0.001  -0.004  -0.005  -0.001  -0.017   0.031  -0.012   2.415  -0.025   0.005  -0.009   0.015
 -0.001  -0.003  -0.003   0.001   0.001   0.002   0.000  -0.003  -0.008   0.024   0.014  -0.025   2.209   0.002  -0.010  -0.007
 -0.005  -0.005  -0.004  -0.003   0.002   0.003   0.000  -0.000  -0.872   0.100   0.016   0.005   0.002   0.330  -0.042  -0.006
  0.003   0.008   0.002   0.000  -0.003  -0.002   0.001   0.001   0.100  -0.875   0.006  -0.009  -0.010  -0.042   0.330  -0.002
 -0.001   0.006   0.001  -0.001   0.000   0.000   0.001  -0.002   0.016   0.006  -0.872   0.015  -0.007  -0.006  -0.002   0.356
  0.008   0.035  -0.003  -0.004   0.001   0.001   0.003  -0.001   0.005  -0.009   0.015  -0.868   0.029  -0.002   0.003  -0.011
  0.001   0.004   0.003  -0.000  -0.000  -0.000  -0.000   0.003   0.001  -0.010  -0.007   0.029  -0.877  -0.000   0.004   0.004


------------------------ aborting loop because EDIFF is reached ----------------------------------------


    CHARGE:  cpu time    0.5930: real time    0.5935
    FORLOC:  cpu time    0.0064: real time    0.0064
    FORNL :  cpu time    3.7920: real time    3.7956
    STRESS:  cpu time   11.4231: real time   11.4341
    FORCOR:  cpu time    0.0290: real time    0.0302
    FORHAR:  cpu time    0.0111: real time    0.0112
    MIXING:  cpu time    0.0016: real time    0.0025
    OFIELD:  cpu time    0.0001: real time    0.0001

  FORCE on cell =-STRESS in cart. coord.  units (eV):
  Direction    XX          YY          ZZ          XY          YZ          ZX
  --------------------------------------------------------------------------------------
  Alpha Z  1141.17168  1141.17168  1141.17168
  Ewald   -3710.48812 -3400.66954 -4138.52381  -125.93666   435.32211   301.17225
  Hartree  1059.92078  1303.58678   654.44961  -107.11113   394.44653   296.31254
  E(xc)    -877.67530  -877.43811  -877.57408    -0.07647    -0.05300    -0.38210
  Local    -396.82888  -950.94375   436.84997   232.97833  -829.96329  -595.80692
  n-local  -281.86424  -281.97453  -281.69377     0.54489     0.05785     1.26451
  augment   333.59876   333.56256   333.37803     0.00564     0.01454    -0.29485
  Kinetic  2692.63427  2692.39878  2692.02205    -1.27343     0.08148    -1.85128
  Fock        0.00000     0.00000     0.00000     0.00000     0.00000     0.00000
  -------------------------------------------------------------------------------------
  Total     -39.53104   -40.30612   -39.92034    -0.86883    -0.09378     0.41415
  in kB    -124.14309  -126.57715  -125.36563    -2.72848    -0.29450     1.30061
  external pressure =     -125.36 kB  Pullay stress =        0.00 kB


 VOLUME and BASIS-vectors are now :
 -----------------------------------------------------------------------------
  energy-cutoff  :      600.00
  volume of cell :      510.18
      direct lattice vectors                 reciprocal lattice vectors
    -3.240000000 -3.240000000 -3.240000000    -0.133744856 -0.123456790 -0.051440329
     1.620000000  1.620000000 -8.100000000     0.041152263  0.061728395 -0.102880658
     8.100000000 -8.100000000 -1.620000000     0.061728395 -0.061728395  0.000000000

  length of vectors
     5.611844617  8.417766925 11.569114054     0.189143789  0.126839794  0.087297133


 FORCES acting on ions
    electron-ion (+dipol)            ewald-force                    non-local-force                 convergence-correction
 -----------------------------------------------------------------------------------------------
   0.144E+03 0.394E+02 -.186E+03   -.145E+03 -.387E+02 0.186E+03   0.319E+00 -.216E+00 -.900E-01   0.728E-01 -.500E-01 0.140E+00
   -.774E+02 -.180E+03 0.107E+03   0.776E+02 0.180E+03 -.107E+03   0.977E-01 -.655E-01 -.217E+00   -.458E-02 0.137E-01 -.158E-01
   -.240E+02 0.777E+02 -.263E+02   0.238E+02 -.775E+02 0.265E+02   0.922E-01 0.941E-02 -.296E+00   0.480E-01 0.792E-01 -.300E-01
   -.585E+02 0.101E+03 -.764E+02   0.588E+02 -.101E+03 0.767E+02   -.394E-01 -.151E-01 -.143E+00   -.102E-01 0.412E-02 -.804E-01
   -.225E+02 -.105E+03 0.243E+03   0.223E+02 0.105E+03 -.243E+03   0.965E-01 0.327E+00 -.296E+00   0.504E-01 -.286E-01 -.213E+00
   0.350E+01 0.738E+02 -.266E+02   -.410E+01 -.737E+02 0.263E+02   0.323E+00 0.808E-01 -.317E-01   -.136E-01 -.487E-01 0.102E+00
   0.113E+02 0.460E+02 -.886E+02   -.112E+02 -.463E+02 0.886E+02   -.101E+00 -.216E+00 0.168E+00   0.288E-01 -.166E-01 -.202E-01
   -.157E+02 0.577E+01 0.123E+02   0.153E+02 -.586E+01 -.119E+02   -.253E+00 -.571E-01 0.242E+00   0.328E-01 -.682E-01 -.267E-01
   0.385E+02 -.480E+02 0.409E+02   -.385E+02 0.484E+02 -.408E+02   -.509E-01 0.644E-03 -.925E-01   -.105E-01 -.576E-01 0.488E-02
   -.802E+02 -.611E+02 0.103E+03   0.801E+02 0.614E+02 -.103E+03   0.236E+00 0.890E-01 -.213E+00   -.428E-01 -.121E-02 -.187E-01
   0.306E+02 0.894E+02 -.681E+02   -.306E+02 -.894E+02 0.684E+02   -.130E+00 -.192E+00 -.148E+00   0.295E-01 -.771E-01 0.495E-01
   0.365E+02 -.491E+02 0.827E+02   -.366E+02 0.493E+02 -.830E+02   0.258E+00 0.265E-01 -.277E+00   0.138E-01 0.298E-01 -.376E-01
   0.529E+02 0.357E+02 -.767E+02   -.526E+02 -.357E+02 0.766E+02   0.437E-01 -.439E+00 0.411E+00   -.665E-01 0.230E-01 0.244E-01
   0.505E+02 0.217E+02 -.127E+03   -.501E+02 -.217E+02 0.127E+03   -.973E-01 0.215E+00 0.632E-01   -.631E-01 0.850E-02 0.911E-01
   -.364E+02 -.348E+02 0.122E+02   0.360E+02 0.350E+02 -.122E+02   0.306E-01 0.193E+00 -.672E-01   -.442E-02 -.787E-03 -.818E-02
   0.273E+00 0.580E+02 -.434E+02   -.667E+00 -.580E+02 0.438E+02   -.330E+00 -.144E+00 0.351E+00   0.207E-01 -.446E-02 -.106E-01
   0.963E+02 0.457E+02 -.940E+02   -.966E+02 -.457E+02 0.945E+02   -.388E+00 -.818E-01 0.936E-01   -.788E-01 0.540E-02 0.310E-01
   -.520E+01 0.506E+01 -.362E+01   0.533E+01 -.506E+01 0.317E+01   0.967E-01 -.249E+00 0.152E+00   0.632E-01 -.251E-01 0.903E-02
   -.160E+02 0.449E+02 -.620E+02   0.161E+02 -.447E+02 0.621E+02   -.132E+00 0.703E-01 0.197E+00   0.148E-01 -.358E-01 0.238E-01
   0.292E+02 0.901E+01 -.363E+02   -.287E+02 -.922E+01 0.364E+02   0.475E-01 -.178E+00 0.738E-01   0.301E-02 -.445E-01 0.105E-02
   -.522E+02 -.167E+02 0.906E+02   0.524E+02 0.164E+02 -.908E+02   -.155E+00 0.561E-01 -.117E+00   -.164E-01 0.365E-01 0.137E-01
   -.660E+01 -.813E+01 0.195E+02   0.653E+01 0.806E+01 -.198E+02   -.225E+00 0.235E-01 -.526E-01   -.672E-02 0.616E-01 0.135E-01
   -.265E+02 -.233E+02 0.735E+02   0.261E+02 0.233E+02 -.729E+02   0.742E-01 -.412E-01 0.255E-01   0.568E-01 0.881E-02 -.515E-01
   0.424E+01 -.523E+01 0.529E+02   -.384E+01 0.494E+01 -.534E+02   0.214E+00 0.120E+00 -.244E+00   0.157E-02 0.174E-01 -.906E-02
   -.217E+02 -.343E+02 0.450E+02   0.217E+02 0.338E+02 -.448E+02   0.174E+00 0.134E-02 0.381E+00   -.678E-01 0.412E-01 -.596E-01
   -.791E+02 -.329E+02 0.868E+02   0.796E+02 0.330E+02 -.872E+02   -.482E-01 0.828E-01 0.125E+00   0.488E-01 0.146E-01 -.824E-01
   -.187E+02 -.726E+02 0.580E+02   0.186E+02 0.726E+02 -.580E+02   0.767E-01 0.553E-01 -.342E-01   0.278E-01 0.499E-01 -.583E-02
   -.180E+02 0.264E+02 -.339E+02   0.182E+02 -.269E+02 0.336E+02   0.242E-01 0.906E-01 -.143E+00   -.156E-01 -.413E-01 0.405E-01
   0.458E+02 0.327E+02 -.831E+02   -.459E+02 -.328E+02 0.834E+02   -.646E-01 -.157E+00 0.205E+00   -.444E-01 0.560E-01 0.120E-01
   0.146E+02 -.402E+02 0.466E+01   -.144E+02 0.403E+02 -.477E+01   0.110E+00 0.726E-01 -.100E+00   0.241E-01 -.117E-01 0.439E-01
 -----------------------------------------------------------------------------------------------
   -.377E+00 0.594E+00 0.117E+00   0.533E-13 -.355E-13 -.277E-12   0.299E+00 -.540E+00 -.763E-01   0.913E-01 -.620E-01 -.692E-01
 
 
 POSITION                                       TOTAL-FORCE (eV/Angst)
 -----------------------------------------------------------------------------------
      1.62000     -4.86000    -11.34000        -0.038390      0.439443      0.246256
      1.62000     -4.86000     -4.86000         0.232062     -0.067797     -0.004191
     -1.62000     -1.62000     -1.62000        -0.144494      0.277105     -0.115487
      0.00000      0.00000      0.00000         0.242764     -0.006399      0.017983
      6.48000     -6.48000     -3.24000        -0.065584      0.548342     -0.331546
      4.86000     -4.86000     -1.62000        -0.288829      0.205081     -0.283609
      0.00000     -3.24000     -9.72000         0.055966     -0.466939      0.121174
      1.62000     -4.86000     -8.10000        -0.622622     -0.210711      0.585714
      0.00000     -3.24000     -6.48000        -0.086679      0.321324      0.017203
     -1.62000     -1.62000     -4.86000         0.173611      0.327389     -0.500462
      4.86000     -4.86000     -8.10000        -0.062244     -0.258041      0.236240
      3.24000     -3.24000     -3.24000         0.157036      0.178065     -0.591960
     -1.62000     -1.62000     -8.10000         0.214412     -0.391192      0.325320
      4.86000     -8.10000    -11.34000         0.316110      0.255426     -0.160778
     -0.00000     -3.24000     -3.24000        -0.358076      0.447687     -0.098726
      1.62000     -1.62000     -8.10000        -0.704316     -0.145395      0.708715
      6.48000     -6.48000     -9.72000        -0.726230     -0.087111      0.575091
      3.24000     -3.24000     -6.48000         0.295880     -0.276863     -0.288803
      3.24000     -6.48000     -9.72000         0.044409      0.248887      0.391368
      3.24000     -3.24000     -9.72000         0.506188     -0.436363      0.155804
     -0.00000     -0.00000     -3.24000        -0.010839     -0.173615     -0.343723
      6.48000     -6.48000     -6.48000        -0.299330      0.011337     -0.328072
      4.86000     -4.86000     -4.86000        -0.302016     -0.009921      0.526501
      1.62000     -1.62000     -1.62000         0.607139     -0.152350     -0.749176
      4.86000     -8.10000     -8.10000         0.130050     -0.412301      0.487217
      3.24000     -6.48000     -6.48000         0.461791      0.196578     -0.387366
      4.86000     -8.10000     -4.86000         0.016510      0.137763     -0.107769
      3.24000     -6.48000     -3.24000         0.187202     -0.455539     -0.415738
      0.00000      0.00000     -6.48000        -0.217133     -0.206503      0.476041
      1.62000     -1.62000     -4.86000         0.285650      0.162612     -0.163224
 -----------------------------------------------------------------------------------
    total drift:                                0.013855     -0.007679     -0.028994


--------------------------------------------------------------------------------------------------------



  FREE ENERGIE OF THE ION-ELECTRON SYSTEM (eV)
  ---------------------------------------------------
  free  energy   TOTEN  =      -317.33196235 eV

  energy  without entropy=     -317.32316496  energy(sigma->0) =     -317.32902989
 


--------------------------------------------------------------------------------------------------------


    POTLOK:  cpu time    0.0276: real time    0.0276


--------------------------------------------------------------------------------------------------------


 stress matrix after NEB project (eV)
    -39.53104     -0.86883      0.41415
     -0.86883    -40.30612     -0.09378
      0.41415     -0.09378    -39.92034
  FORCES: max atom, RMS     1.009692    0.582915
  FORCE total and by dimension    3.192755    0.749176
  Stress total and by dimension   69.157722   40.306123
 writing wavefunctions
     LOOP+:  cpu time  729.4145: real time  739.3215
    4ORBIT:  cpu time    0.0000: real time    0.0000

 total amount of memory used by VASP MPI-rank0   111058. kBytes
=======================================================================

   base      :      30000. kBytes
   nonlr-proj:       6804. kBytes
   fftplans  :       2333. kBytes
   grid      :       4665. kBytes
   one-center:        124. kBytes
   wavefun   :      67132. kBytes
 
  
  
 General timing and accounting informations for this job:
 ========================================================
  
                  Total CPU time used (sec):      739.325
                            User time (sec):      733.129
                          System time (sec):        6.196
                         Elapsed time (sec):      753.845
  
                   Maximum memory used (kb):      162324.
                   Average memory used (kb):           0.
  
                          Minor page faults:        74496
                          Major page faults:            0
                 Voluntary context switches:         1991
