 running on   32 total cores
 distrk:  each k-point on   32 cores,    1 groups
 distr:  one band on    4 cores,    8 groups
 using from now: INCAR     
 vasp.5.4.4.18Apr17-6-g9f103f2a35 (build Aug 09 2018 16:20:53) complex          
  
 POSCAR found type information on POSCAR  Nb Mo Ta Ti V 
 POSCAR found :  5 types and      30 ions
 scaLAPACK will be used

 ----------------------------------------------------------------------------- 
|                                                                             |
|  ADVICE TO THIS USER RUNNING 'VASP/VAMP'   (HEAR YOUR MASTER'S VOICE ...):  |
|                                                                             |
|      You enforced a specific xc-type in the INCAR file,                     |
|      a different type was found on the POTCAR file                          |
|          I HOPE YOU KNOW, WHAT YOU ARE  DOING                               |
|                                                                             |
 ----------------------------------------------------------------------------- 

 LDA part: xc-table for Pade appr. of Perdew
 POSCAR found type information on POSCAR  Nb Mo Ta Ti V 
 POSCAR found :  5 types and      30 ions
 found WAVECAR, reading the header
 POSCAR, INCAR and KPOINTS ok, starting setup
 FFT: planning ...
 reading WAVECAR
 the WAVECAR file was read successfully
 charge-density read from file: Nb                                      
 entering main loop
       N       E                     dE             d eps       ncg     rms          rms(c)
DAV:   1    -0.366398973702E+03   -0.36640E+03   -0.30923E+02 26696   0.436E+01    0.968E+01
DAV:   2    -0.463724313885E+03   -0.97325E+02   -0.24742E+03 26800   0.253E+02    0.162E+02
DAV:   3    -0.355229524517E+03    0.10849E+03   -0.94768E+02 27928   0.140E+02    0.534E+01
DAV:   4    -0.344037334970E+03    0.11192E+02   -0.71411E+02 27104   0.101E+02    0.538E+01
DAV:   5    -0.341475505536E+03    0.25618E+01   -0.66114E+02 28136   0.124E+02    0.436E+01
DAV:   6    -0.330815380826E+03    0.10660E+02   -0.31802E+02 24832   0.828E+01    0.306E+01
DAV:   7    -0.323316222232E+03    0.74992E+01   -0.11143E+02 24232   0.533E+01    0.170E+01
DAV:   8    -0.319262633981E+03    0.40536E+01   -0.14601E+01 26720   0.146E+01    0.118E+01
DAV:   9    -0.318663368623E+03    0.59927E+00   -0.61208E+00 27392   0.877E+00    0.103E+01
DAV:  10    -0.318294660438E+03    0.36871E+00   -0.65447E+00 23448   0.101E+01    0.975E+00
DAV:  11    -0.318043117626E+03    0.25154E+00   -0.59521E+00 26144   0.105E+01    0.762E+00
DAV:  12    -0.317844729117E+03    0.19839E+00   -0.45494E+00 25904   0.874E+00    0.655E+00
DAV:  13    -0.317467060846E+03    0.37767E+00   -0.42476E+00 26624   0.822E+00    0.434E+00
DAV:  14    -0.317524989736E+03   -0.57929E-01   -0.24066E+00 24936   0.670E+00    0.429E+00
DAV:  15    -0.317407988452E+03    0.11700E+00   -0.13256E+00 25176   0.474E+00    0.298E+00
DAV:  16    -0.317365784064E+03    0.42204E-01   -0.76077E-01 26112   0.354E+00    0.210E+00
DAV:  17    -0.317349619718E+03    0.16164E-01   -0.34175E-01 25912   0.221E+00    0.136E+00
DAV:  18    -0.317340846691E+03    0.87730E-02   -0.19740E-01 26032   0.156E+00    0.106E+00
DAV:  19    -0.317336723448E+03    0.41232E-02   -0.64341E-02 25336   0.965E-01    0.758E-01
DAV:  20    -0.317334412613E+03    0.23108E-02   -0.25581E-02 23616   0.636E-01    0.672E-01
DAV:  21    -0.317332938314E+03    0.14743E-02   -0.10626E-02 24936   0.341E-01    0.519E-01
DAV:  22    -0.317332460597E+03    0.47772E-03   -0.36112E-03 23480   0.193E-01    0.444E-01
DAV:  23    -0.317332167257E+03    0.29334E-03   -0.23303E-03 23088   0.158E-01    0.359E-01
DAV:  24    -0.317332012477E+03    0.15478E-03   -0.80372E-04 18328   0.940E-02    0.280E-01
DAV:  25    -0.317331962351E+03    0.50126E-04   -0.25867E-04 11864   0.686E-02
   1 F= -.31733196E+03 E0= -.31732903E+03  d E =-.879739E-02
 writing wavefunctions
VASP is done!
