<?xml version="1.0" encoding="ISO-8859-1"?>
<modeling>
 <generator>
  <i name="program" type="string">vasp </i>
  <i name="version" type="string">5.4.4.18Apr17-6-g9f103f2a35  </i>
  <i name="subversion" type="string">(build Aug 09 2018 16:20:53) complex            parallel </i>
  <i name="platform" type="string">LinuxIFC </i>
  <i name="date" type="string">2020 04 28 </i>
  <i name="time" type="string">21:34:45 </i>
 </generator>
 <incar>
  <i type="string" name="SYSTEM"> Nb - Mo - Ta - Ti - V SQS</i>
  <i type="string" name="PREC">normal</i>
  <i type="int" name="ICHARG">     1</i>
  <i type="int" name="NELM">   100</i>
  <i type="int" name="IBRION">     2</i>
  <i name="ENCUT">    600.00000000</i>
  <i type="string" name="LREAL"> Auto</i>
  <i type="int" name="ISMEAR">     1</i>
  <i name="SIGMA">      0.20000000</i>
  <v type="int" name="KPOINT_BSE">    -1     0     0     0</v>
  <i type="int" name="NELM">   100</i>
  <i type="string" name="GGA"> PS</i>
 </incar>
 <structure name="primitive_cell" >
  <crystal>
   <varray name="basis" >
    <v>      -3.24000000      -3.24000000      -3.24000000 </v>
    <v>       1.62000000       1.62000000      -8.10000000 </v>
    <v>       8.10000000      -8.10000000      -1.62000000 </v>
   </varray>
   <i name="volume">    510.18336000 </i>
   <varray name="rec_basis" >
    <v>      -0.13374486      -0.12345679      -0.05144033 </v>
    <v>       0.04115226       0.06172840      -0.10288066 </v>
    <v>       0.06172840      -0.06172840       0.00000000 </v>
   </varray>
  </crystal>
  <varray name="positions" >
   <v>      -0.03333333      -0.06666667       0.40000000 </v>
   <v>       0.30000000      -0.40000000       0.40000000 </v>
   <v>      -0.10000000      -0.20000000       0.20000000 </v>
   <v>       0.06666667       0.13333333       0.20000000 </v>
   <v>       0.46666667      -0.06666667       0.40000000 </v>
   <v>      -0.13333333      -0.26666667      -0.40000000 </v>
   <v>       0.03333333       0.06666667      -0.40000000 </v>
   <v>      -0.36666667       0.26666667       0.40000000 </v>
   <v>       0.40000000      -0.20000000       0.20000000 </v>
   <v>      -0.20000000      -0.40000000       0.40000000 </v>
   <v>      -0.43333333       0.13333333       0.20000000 </v>
   <v>       0.36666667      -0.26666667      -0.40000000 </v>
   <v>       0.13333333       0.26666667       0.40000000 </v>
   <v>      -0.46666667       0.06666667      -0.40000000 </v>
   <v>       0.23333333       0.46666667       0.20000000 </v>
   <v>       0.20000000       0.40000000      -0.40000000 </v>
   <v>       0.00000000       0.00000000       0.00000000 </v>
   <v>      -0.06666667      -0.13333333      -0.20000000 </v>
   <v>      -0.30000000       0.40000000      -0.40000000 </v>
   <v>      -0.26666667       0.46666667       0.20000000 </v>
   <v>       0.33333333      -0.33333333       0.00000000 </v>
   <v>       0.43333333      -0.13333333      -0.20000000 </v>
   <v>      -0.50000000       0.00000000       0.00000000 </v>
   <v>       0.26666667      -0.46666667      -0.20000000 </v>
   <v>      -0.33333333       0.33333333       0.00000000 </v>
   <v>      -0.40000000       0.20000000      -0.20000000 </v>
   <v>      -0.16666667      -0.33333333       0.00000000 </v>
   <v>      -0.23333333      -0.46666667      -0.20000000 </v>
   <v>       0.16666667       0.33333333       0.00000000 </v>
   <v>       0.10000000       0.20000000      -0.20000000 </v>
  </varray>
 </structure>
 <varray name="primitive_index" >
  <v type="int" >        1 </v>
  <v type="int" >       18 </v>
  <v type="int" >        7 </v>
  <v type="int" >       24 </v>
  <v type="int" >       20 </v>
  <v type="int" >       19 </v>
  <v type="int" >        6 </v>
  <v type="int" >        2 </v>
  <v type="int" >       16 </v>
  <v type="int" >        8 </v>
  <v type="int" >       15 </v>
  <v type="int" >       11 </v>
  <v type="int" >       12 </v>
  <v type="int" >       28 </v>
  <v type="int" >       30 </v>
  <v type="int" >       23 </v>
  <v type="int" >        4 </v>
  <v type="int" >       14 </v>
  <v type="int" >       26 </v>
  <v type="int" >        9 </v>
  <v type="int" >       29 </v>
  <v type="int" >       17 </v>
  <v type="int" >        3 </v>
  <v type="int" >       22 </v>
  <v type="int" >       10 </v>
  <v type="int" >       27 </v>
  <v type="int" >       13 </v>
  <v type="int" >       25 </v>
  <v type="int" >       21 </v>
  <v type="int" >        5 </v>
 </varray>
 <kpoints>
  <generation param="Gamma">
   <v type="int" name="divisions">       5        5        5 </v>
   <v name="usershift">      0.00000000       0.00000000       0.00000000 </v>
   <v name="genvec1">      0.20000000       0.00000000       0.00000000 </v>
   <v name="genvec2">      0.00000000       0.20000000       0.00000000 </v>
   <v name="genvec3">      0.00000000       0.00000000       0.20000000 </v>
   <v name="shift">      0.00000000       0.00000000       0.00000000 </v>
  </generation>
  <varray name="kpointlist" >
   <v>       0.00000000       0.00000000       0.00000000 </v>
   <v>       0.20000000       0.00000000      -0.00000000 </v>
   <v>       0.40000000       0.00000000      -0.00000000 </v>
   <v>      -0.00000000       0.20000000       0.00000000 </v>
   <v>       0.20000000       0.20000000      -0.00000000 </v>
   <v>       0.40000000       0.20000000      -0.00000000 </v>
   <v>      -0.40000000       0.20000000      -0.00000000 </v>
   <v>      -0.20000000       0.20000000       0.00000000 </v>
   <v>      -0.00000000       0.40000000       0.00000000 </v>
   <v>       0.20000000       0.40000000      -0.00000000 </v>
   <v>       0.40000000       0.40000000      -0.00000000 </v>
   <v>      -0.40000000       0.40000000       0.00000000 </v>
   <v>      -0.20000000       0.40000000      -0.00000000 </v>
   <v>       0.00000000       0.00000000       0.20000000 </v>
   <v>       0.20000000      -0.00000000       0.20000000 </v>
   <v>       0.40000000       0.00000000       0.20000000 </v>
   <v>      -0.40000000       0.00000000       0.20000000 </v>
   <v>      -0.20000000       0.00000000       0.20000000 </v>
   <v>      -0.00000000       0.20000000       0.20000000 </v>
   <v>       0.20000000       0.20000000       0.20000000 </v>
   <v>       0.40000000       0.20000000       0.20000000 </v>
   <v>      -0.40000000       0.20000000       0.20000000 </v>
   <v>      -0.20000000       0.20000000       0.20000000 </v>
   <v>      -0.00000000       0.40000000       0.20000000 </v>
   <v>       0.20000000       0.40000000       0.20000000 </v>
   <v>       0.40000000       0.40000000       0.20000000 </v>
   <v>      -0.40000000       0.40000000       0.20000000 </v>
   <v>      -0.20000000       0.40000000       0.20000000 </v>
   <v>       0.00000000      -0.40000000       0.20000000 </v>
   <v>       0.20000000      -0.40000000       0.20000000 </v>
   <v>       0.40000000      -0.40000000       0.20000000 </v>
   <v>      -0.40000000      -0.40000000       0.20000000 </v>
   <v>      -0.20000000      -0.40000000       0.20000000 </v>
   <v>       0.00000000      -0.20000000       0.20000000 </v>
   <v>       0.20000000      -0.20000000       0.20000000 </v>
   <v>       0.40000000      -0.20000000       0.20000000 </v>
   <v>      -0.40000000      -0.20000000       0.20000000 </v>
   <v>      -0.20000000      -0.20000000       0.20000000 </v>
   <v>       0.00000000       0.00000000       0.40000000 </v>
   <v>       0.20000000       0.00000000       0.40000000 </v>
   <v>       0.40000000      -0.00000000       0.40000000 </v>
   <v>      -0.40000000       0.00000000       0.40000000 </v>
   <v>      -0.20000000       0.00000000       0.40000000 </v>
   <v>       0.00000000       0.20000000       0.40000000 </v>
   <v>       0.20000000       0.20000000       0.40000000 </v>
   <v>       0.40000000       0.20000000       0.40000000 </v>
   <v>      -0.40000000       0.20000000       0.40000000 </v>
   <v>      -0.20000000       0.20000000       0.40000000 </v>
   <v>      -0.00000000       0.40000000       0.40000000 </v>
   <v>       0.20000000       0.40000000       0.40000000 </v>
   <v>       0.40000000       0.40000000       0.40000000 </v>
   <v>      -0.40000000       0.40000000       0.40000000 </v>
   <v>      -0.20000000       0.40000000       0.40000000 </v>
   <v>       0.00000000      -0.40000000       0.40000000 </v>
   <v>       0.20000000      -0.40000000       0.40000000 </v>
   <v>       0.40000000      -0.40000000       0.40000000 </v>
   <v>      -0.40000000      -0.40000000       0.40000000 </v>
   <v>      -0.20000000      -0.40000000       0.40000000 </v>
   <v>       0.00000000      -0.20000000       0.40000000 </v>
   <v>       0.20000000      -0.20000000       0.40000000 </v>
   <v>       0.40000000      -0.20000000       0.40000000 </v>
   <v>      -0.40000000      -0.20000000       0.40000000 </v>
   <v>      -0.20000000      -0.20000000       0.40000000 </v>
  </varray>
  <varray name="weights" >
   <v>       0.00800000 </v>
   <v>       0.01600000 </v>
   <v>       0.01600000 </v>
   <v>       0.01600000 </v>
   <v>       0.01600000 </v>
   <v>       0.01600000 </v>
   <v>       0.01600000 </v>
   <v>       0.01600000 </v>
   <v>       0.01600000 </v>
   <v>       0.01600000 </v>
   <v>       0.01600000 </v>
   <v>       0.01600000 </v>
   <v>       0.01600000 </v>
   <v>       0.01600000 </v>
   <v>       0.01600000 </v>
   <v>       0.01600000 </v>
   <v>       0.01600000 </v>
   <v>       0.01600000 </v>
   <v>       0.01600000 </v>
   <v>       0.01600000 </v>
   <v>       0.01600000 </v>
   <v>       0.01600000 </v>
   <v>       0.01600000 </v>
   <v>       0.01600000 </v>
   <v>       0.01600000 </v>
   <v>       0.01600000 </v>
   <v>       0.01600000 </v>
   <v>       0.01600000 </v>
   <v>       0.01600000 </v>
   <v>       0.01600000 </v>
   <v>       0.01600000 </v>
   <v>       0.01600000 </v>
   <v>       0.01600000 </v>
   <v>       0.01600000 </v>
   <v>       0.01600000 </v>
   <v>       0.01600000 </v>
   <v>       0.01600000 </v>
   <v>       0.01600000 </v>
   <v>       0.01600000 </v>
   <v>       0.01600000 </v>
   <v>       0.01600000 </v>
   <v>       0.01600000 </v>
   <v>       0.01600000 </v>
   <v>       0.01600000 </v>
   <v>       0.01600000 </v>
   <v>       0.01600000 </v>
   <v>       0.01600000 </v>
   <v>       0.01600000 </v>
   <v>       0.01600000 </v>
   <v>       0.01600000 </v>
   <v>       0.01600000 </v>
   <v>       0.01600000 </v>
   <v>       0.01600000 </v>
   <v>       0.01600000 </v>
   <v>       0.01600000 </v>
   <v>       0.01600000 </v>
   <v>       0.01600000 </v>
   <v>       0.01600000 </v>
   <v>       0.01600000 </v>
   <v>       0.01600000 </v>
   <v>       0.01600000 </v>
   <v>       0.01600000 </v>
   <v>       0.01600000 </v>
  </varray>
 </kpoints>
 <parameters>
  <separator name="general" >
   <i type="string" name="SYSTEM">Nb - Mo - Ta - Ti - V SQS</i>
   <i type="logical" name="LCOMPAT"> F  </i>
  </separator>
  <separator name="electronic" >
   <i type="string" name="PREC">normal</i>
   <i name="ENMAX">    600.00000000</i>
   <i name="ENAUG">    455.65900000</i>
   <i name="EDIFF">      0.00010000</i>
   <i type="int" name="IALGO">    38</i>
   <i type="int" name="IWAVPR">    10</i>
   <i type="int" name="NBANDS">   120</i>
   <i name="NELECT">    198.00000000</i>
   <i type="int" name="TURBO">     0</i>
   <i type="int" name="IRESTART">     0</i>
   <i type="int" name="NREBOOT">     0</i>
   <i type="int" name="NMIN">     0</i>
   <i name="EREF">      0.00000000</i>
   <separator name="electronic smearing" >
    <i type="int" name="ISMEAR">     1</i>
    <i name="SIGMA">      0.20000000</i>
    <i name="KSPACING">      0.50000000</i>
    <i type="logical" name="KGAMMA"> T  </i>
   </separator>
   <separator name="electronic projectors" >
    <i type="logical" name="LREAL"> T  </i>
    <v name="ROPT">     -0.00050000     -0.00050000     -0.00050000     -0.00050000     -0.00050000</v>
    <i type="int" name="LMAXPAW">  -100</i>
    <i type="int" name="LMAXMIX">     2</i>
    <i type="logical" name="NLSPLINE"> F  </i>
   </separator>
   <separator name="electronic startup" >
    <i type="int" name="ISTART">     1</i>
    <i type="int" name="ICHARG">     1</i>
    <i type="int" name="INIWAV">     1</i>
   </separator>
   <separator name="electronic spin" >
    <i type="int" name="ISPIN">     1</i>
    <i type="logical" name="LNONCOLLINEAR"> F  </i>
    <v name="MAGMOM">      1.00000000      1.00000000      1.00000000      1.00000000      1.00000000      1.00000000      1.00000000      1.00000000      1.00000000      1.00000000      1.00000000      1.00000000      1.00000000      1.00000000      1.00000000      1.00000000      1.00000000      1.00000000      1.00000000      1.00000000
      1.00000000      1.00000000      1.00000000      1.00000000      1.00000000      1.00000000      1.00000000      1.00000000      1.00000000      1.00000000</v>
    <i name="NUPDOWN">     -1.00000000</i>
    <i type="logical" name="LSORBIT"> F  </i>
    <v name="SAXIS">      0.00000000      0.00000000      1.00000000</v>
    <i type="logical" name="LSPIRAL"> F  </i>
    <v name="QSPIRAL">      0.00000000      0.00000000      0.00000000</v>
    <i type="logical" name="LZEROZ"> F  </i>
   </separator>
   <separator name="electronic exchange-correlation" >
    <i type="logical" name="LASPH"> F  </i>
    <i type="logical" name="LMETAGGA"> F  </i>
   </separator>
   <separator name="electronic convergence" >
    <i type="int" name="NELM">   100</i>
    <i type="int" name="NELMDL">     0</i>
    <i type="int" name="NELMIN">     2</i>
    <i name="ENINI">    600.00000000</i>
    <separator name="electronic convergence detail" >
     <i type="logical" name="LDIAG"> T  </i>
     <i type="logical" name="LSUBROT"> F  </i>
     <i name="WEIMIN">      0.00000000</i>
     <i name="EBREAK">      0.00000021</i>
     <i name="DEPER">      0.30000000</i>
     <i type="int" name="NRMM">     4</i>
     <i name="TIME">      0.40000000</i>
    </separator>
   </separator>
   <separator name="electronic mixer" >
    <i name="AMIX">      0.40000000</i>
    <i name="BMIX">      1.00000000</i>
    <i name="AMIN">      0.10000000</i>
    <i name="AMIX_MAG">      1.60000000</i>
    <i name="BMIX_MAG">      1.00000000</i>
    <separator name="electronic mixer details" >
     <i type="int" name="IMIX">     4</i>
     <i type="logical" name="MIXFIRST"> F  </i>
     <i type="int" name="MAXMIX">   -45</i>
     <i name="WC">    100.00000000</i>
     <i type="int" name="INIMIX">     1</i>
     <i type="int" name="MIXPRE">     1</i>
     <i type="int" name="MREMOVE">     5</i>
    </separator>
   </separator>
   <separator name="electronic dipolcorrection" >
    <i type="logical" name="LDIPOL"> F  </i>
    <i type="logical" name="LMONO"> F  </i>
    <i type="int" name="IDIPOL">     0</i>
    <i name="EPSILON">      1.00000000</i>
    <v name="DIPOL">   -100.00000000   -100.00000000   -100.00000000</v>
    <i name="EFIELD">      0.00000000</i>
   </separator>
  </separator>
  <separator name="grids" >
   <i type="int" name="NGX">    36</i>
   <i type="int" name="NGY">    50</i>
   <i type="int" name="NGZ">    70</i>
   <i type="int" name="NGXF">    72</i>
   <i type="int" name="NGYF">   100</i>
   <i type="int" name="NGZF">   140</i>
   <i type="logical" name="ADDGRID"> F  </i>
  </separator>
  <separator name="ionic" >
   <i type="int" name="NSW">     0</i>
   <i type="int" name="IBRION">    -1</i>
   <i type="int" name="MDALGO">     0</i>
   <i type="int" name="ISIF">     2</i>
   <i name="PSTRESS">      0.00000000</i>
   <i name="EDIFFG">      0.00100000</i>
   <i type="int" name="NFREE">     1</i>
   <i name="POTIM">      0.50000000</i>
   <i name="SMASS">     -3.00000000</i>
   <i name="SCALEE">      1.00000000</i>
  </separator>
  <separator name="ionic md" >
   <i name="TEBEG">      0.00010000</i>
   <i name="TEEND">      0.00010000</i>
   <i type="int" name="NBLOCK">     1</i>
   <i type="int" name="KBLOCK">     1</i>
   <i type="int" name="NPACO">   256</i>
   <i name="APACO">     16.00000000</i>
  </separator>
  <separator name="symmetry" >
   <i type="int" name="ISYM">     2</i>
   <i name="SYMPREC">      0.00001000</i>
  </separator>
  <separator name="dos" >
   <i type="int" name="LORBIT">     0</i>
   <v name="RWIGS">     -1.00000000     -1.00000000     -1.00000000     -1.00000000     -1.00000000</v>
   <i type="int" name="NEDOS">   301</i>
   <i name="EMIN">     10.00000000</i>
   <i name="EMAX">    -10.00000000</i>
   <i name="EFERMI">      0.00000000</i>
  </separator>
  <separator name="writing" >
   <i type="int" name="NWRITE">     2</i>
   <i type="logical" name="LWAVE"> T  </i>
   <i type="logical" name="LDOWNSAMPLE"> F  </i>
   <i type="logical" name="LCHARG"> T  </i>
   <i type="logical" name="LPARD"> F  </i>
   <i type="logical" name="LVTOT"> F  </i>
   <i type="logical" name="LVHAR"> F  </i>
   <i type="logical" name="LELF"> F  </i>
   <i type="logical" name="LOPTICS"> F  </i>
   <v name="STM">      0.00000000      0.00000000      0.00000000      0.00000000      0.00000000      0.00000000      0.00000000</v>
  </separator>
  <separator name="performance" >
   <i type="int" name="NPAR">     8</i>
   <i type="int" name="NSIM">     4</i>
   <i type="int" name="NBLK">    -1</i>
   <i type="logical" name="LPLANE"> T  </i>
   <i type="logical" name="LSCALAPACK"> T  </i>
   <i type="logical" name="LSCAAWARE"> F  </i>
   <i type="logical" name="LSCALU"> F  </i>
   <i type="logical" name="LASYNC"> F  </i>
   <i type="logical" name="LORBITALREAL"> F  </i>
  </separator>
  <separator name="miscellaneous" >
   <i type="int" name="IDIOT">     3</i>
   <i type="int" name="ISPECIAL">     0</i>
   <i type="logical" name="LMUSIC"> F  </i>
   <v name="POMASS">     92.91000000     95.94000000    180.94800000     47.88000000     50.94100000</v>
   <v name="DARWINR">      0.00000000      0.00000000      0.00000000      0.00000000      0.00000000</v>
   <v name="DARWINV">      1.00000000      1.00000000      1.00000000      1.00000000      1.00000000</v>
   <i type="logical" name="LCORR"> T  </i>
  </separator>
  <i type="logical" name="GGA_COMPAT"> T  </i>
  <i type="logical" name="LBERRY"> F  </i>
  <i type="int" name="ICORELEVEL">     0</i>
  <i type="logical" name="LDAU"> F  </i>
  <i type="int" name="I_CONSTRAINED_M">     0</i>
  <separator name="electronic exchange-correlation" >
   <i type="string" name="GGA">PS</i>
   <i type="int" name="VOSKOWN">     0</i>
   <i type="logical" name="LHFCALC"> F  </i>
   <i type="string" name="PRECFOCK"></i>
   <i type="logical" name="LSYMGRAD"> F  </i>
   <i type="logical" name="LHFONE"> F  </i>
   <i type="logical" name="LRHFCALC"> F  </i>
   <i type="logical" name="LTHOMAS"> F  </i>
   <i type="logical" name="LMODELHF"> F  </i>
   <i name="ENCUT4O">     -1.00000000</i>
   <i type="int" name="EXXOEP">     0</i>
   <i type="int" name="FOURORBIT">     0</i>
   <i name="AEXX">      0.00000000</i>
   <i name="HFALPHA">      0.00000000</i>
   <i name="MCALPHA">      0.00000000</i>
   <i name="ALDAX">      1.00000000</i>
   <i name="AGGAX">      1.00000000</i>
   <i name="ALDAC">      1.00000000</i>
   <i name="AGGAC">      1.00000000</i>
   <i type="int" name="NKREDX">     1</i>
   <i type="int" name="NKREDY">     1</i>
   <i type="int" name="NKREDZ">     1</i>
   <i type="logical" name="SHIFTRED"> F  </i>
   <i type="logical" name="ODDONLY"> F  </i>
   <i type="logical" name="EVENONLY"> F  </i>
   <i type="int" name="LMAXFOCK">     0</i>
   <i type="int" name="NMAXFOCKAE">     0</i>
   <i type="logical" name="LFOCKAEDFT"> F  </i>
   <i name="HFSCREEN">      0.00000000</i>
   <i name="HFSCREENC">      0.00000000</i>
   <i type="int" name="NBANDSGWLOW">     0</i>
  </separator>
  <separator name="vdW DFT" >
   <i type="logical" name="LUSE_VDW"> F  </i>
   <i name="Zab_VDW">     -0.84910000</i>
   <i name="PARAM1">      0.12340000</i>
   <i name="PARAM2">      1.00000000</i>
   <i name="PARAM3">      0.00000000</i>
  </separator>
  <separator name="model GW" >
   <i type="int" name="MODEL_GW">     0</i>
   <i name="MODEL_EPS0">     10.20366720</i>
   <i name="MODEL_ALPHA">      1.00000000</i>
  </separator>
  <separator name="linear response parameters" >
   <i type="logical" name="LEPSILON"> F  </i>
   <i type="logical" name="LRPA"> F  </i>
   <i type="logical" name="LNABLA"> F  </i>
   <i type="logical" name="LVEL"> F  </i>
   <i type="int" name="KINTER">     0</i>
   <i name="CSHIFT">      0.10000000</i>
   <i name="OMEGAMAX">     -1.00000000</i>
   <i name="DEG_THRESHOLD">      0.00200000</i>
   <i name="RTIME">     -0.10000000</i>
   <i name="WPLASMAI">      0.00000000</i>
   <v name="DFIELD">      0.00000000      0.00000000      0.00000000</v>
   <v name="WPLASMA">      0.00000000      0.00000000      0.00000000      0.00000000      0.00000000      0.00000000      0.00000000      0.00000000      0.00000000</v>
  </separator>
  <separator name="orbital magnetization" >
   <i type="logical" name="NUCIND"> F  </i>
   <v name="MAGPOS">      0.00000000      0.00000000      0.00000000</v>
   <i type="logical" name="LNICSALL"> T  </i>
   <i type="logical" name="ORBITALMAG"> F  </i>
   <i type="logical" name="LMAGBLOCH"> F  </i>
   <i type="logical" name="LCHIMAG"> F  </i>
   <i type="logical" name="LGAUGE"> T  </i>
   <i type="int" name="MAGATOM">     0</i>
   <v name="MAGDIPOL">      0.00000000      0.00000000      0.00000000</v>
   <v name="AVECCONST">      0.00000000      0.00000000      0.00000000</v>
  </separator>
  <separator name="response functions" >
   <i type="logical" name="LADDER"> F  </i>
   <i type="logical" name="LRPAFORCE"> F  </i>
   <i type="logical" name="LFXC"> F  </i>
   <i type="logical" name="LHARTREE"> T  </i>
   <i type="int" name="IBSE">     0</i>
   <v type="int" name="KPOINT">    -1     0     0     0</v>
   <i type="logical" name="LTCTE"> F  </i>
   <i type="logical" name="LTETE"> F  </i>
   <i type="logical" name="LTRIPLET"> F  </i>
   <i type="logical" name="LFXCEPS"> F  </i>
   <i type="logical" name="LFXHEG"> F  </i>
   <i type="int" name="NATURALO">     2</i>
   <i type="logical" name="L2ORDER"> F  </i>
   <i type="logical" name="LMP2LT"> F  </i>
   <i type="logical" name="LUSEW"> F  </i>
   <i name="ENCUTGW">     -2.00000000</i>
   <i name="ENCUTGWSOFT">     -2.00000000</i>
   <i name="ENCUTLF">     -1.00000000</i>
   <i type="int" name="LMAXMP2">    -1</i>
   <i name="SCISSOR">      0.00000000</i>
   <i type="int" name="NOMEGA">     0</i>
   <i type="int" name="NOMEGAR">     0</i>
   <i type="int" name="NBANDSGW">    -1</i>
   <i type="int" name="NBANDSO">    -1</i>
   <i type="int" name="NBANDSV">    -1</i>
   <i type="int" name="NELM">   100</i>
   <i type="int" name="NELMHF">     1</i>
   <i type="int" name="DIM">     3</i>
   <i type="int" name="ANTIRES">     0</i>
   <i name="OMEGAMAX">    -30.00000000</i>
   <i name="OMEGAMIN">    -30.00000000</i>
   <i name="OMEGATL">   -200.00000000</i>
   <i type="int" name="OMEGAGRID">   140</i>
   <i name="CSHIFT">     -0.10000000</i>
   <i type="logical" name="SELFENERGY"> F  </i>
   <i type="logical" name="LSPECTRAL"> F  </i>
   <i type="logical" name="LSPECTRALGW"> F  </i>
   <i type="logical" name="LSINGLES"> F  </i>
   <i type="logical" name="LFERMIGW"> F  </i>
   <i type="logical" name="ODDONLYGW"> F  </i>
   <i type="logical" name="EVENONLYGW"> F  </i>
   <i type="int" name="NKREDLFX">     1</i>
   <i type="int" name="NKREDLFY">     1</i>
   <i type="int" name="NKREDLFZ">     1</i>
   <i type="int" name="MAXMEM">  2800</i>
   <i type="int" name="TELESCOPE">     0</i>
   <i type="int" name="TAUPAR">     1</i>
   <i type="int" name="OMEGAPAR">    -1</i>
   <i name="LAMBDA">      1.00000000</i>
  </separator>
  <separator name="External order field" >
   <i name="OFIELD_KAPPA">      0.00000000</i>
   <v name="OFIELD_K">      0.00000000      0.00000000      0.00000000</v>
   <i name="OFIELD_Q6_NEAR">      0.00000000</i>
   <i name="OFIELD_Q6_FAR">      0.00000000</i>
   <i name="OFIELD_A">      0.00000000</i>
  </separator>
  <separator name="solvation model" >
   <i type="logical" name="LSOL"> F  </i>
  </separator>
 </parameters>
 <atominfo>
  <atoms>      30 </atoms>
  <types>       5 </types>
  <array name="atoms" >
   <dimension dim="1">ion</dimension>
   <field type="string">element</field>
   <field type="int">atomtype</field>
   <set>
    <rc><c>Nb</c><c>   1</c></rc>
    <rc><c>Nb</c><c>   1</c></rc>
    <rc><c>Nb</c><c>   1</c></rc>
    <rc><c>Nb</c><c>   1</c></rc>
    <rc><c>Nb</c><c>   1</c></rc>
    <rc><c>Nb</c><c>   1</c></rc>
    <rc><c>Mo</c><c>   2</c></rc>
    <rc><c>Mo</c><c>   2</c></rc>
    <rc><c>Mo</c><c>   2</c></rc>
    <rc><c>Mo</c><c>   2</c></rc>
    <rc><c>Mo</c><c>   2</c></rc>
    <rc><c>Mo</c><c>   2</c></rc>
    <rc><c>Ta</c><c>   3</c></rc>
    <rc><c>Ta</c><c>   3</c></rc>
    <rc><c>Ta</c><c>   3</c></rc>
    <rc><c>Ta</c><c>   3</c></rc>
    <rc><c>Ta</c><c>   3</c></rc>
    <rc><c>Ta</c><c>   3</c></rc>
    <rc><c>Ti</c><c>   4</c></rc>
    <rc><c>Ti</c><c>   4</c></rc>
    <rc><c>Ti</c><c>   4</c></rc>
    <rc><c>Ti</c><c>   4</c></rc>
    <rc><c>Ti</c><c>   4</c></rc>
    <rc><c>Ti</c><c>   4</c></rc>
    <rc><c>V </c><c>   5</c></rc>
    <rc><c>V </c><c>   5</c></rc>
    <rc><c>V </c><c>   5</c></rc>
    <rc><c>V </c><c>   5</c></rc>
    <rc><c>V </c><c>   5</c></rc>
    <rc><c>V </c><c>   5</c></rc>
   </set>
  </array>
  <array name="atomtypes" >
   <dimension dim="1">type</dimension>
   <field type="int">atomspertype</field>
   <field type="string">element</field>
   <field>mass</field>
   <field>valence</field>
   <field type="string">pseudopotential</field>
   <set>
    <rc><c>   6</c><c>Nb</c><c>     92.91000000</c><c>     13.00000000</c><c>  PAW_PBE Nb_sv 25May2007               </c></rc>
    <rc><c>   6</c><c>Mo</c><c>     95.94000000</c><c>      6.00000000</c><c>  PAW_PBE Mo 08Apr2002                  </c></rc>
    <rc><c>   6</c><c>Ta</c><c>    180.94800000</c><c>      5.00000000</c><c>  PAW_PBE Ta 17Jan2003                  </c></rc>
    <rc><c>   6</c><c>Ti</c><c>     47.88000000</c><c>      4.00000000</c><c>  PAW_PBE Ti 08Apr2002                  </c></rc>
    <rc><c>   6</c><c>V </c><c>     50.94100000</c><c>      5.00000000</c><c>  PAW_PBE V 08Apr2002                   </c></rc>
   </set>
  </array>
 </atominfo>
 <structure name="initialpos" >
  <crystal>
   <varray name="basis" >
    <v>      -3.24000000      -3.24000000      -3.24000000 </v>
    <v>       1.62000000       1.62000000      -8.10000000 </v>
    <v>       8.10000000      -8.10000000      -1.62000000 </v>
   </varray>
   <i name="volume">    510.18336000 </i>
   <varray name="rec_basis" >
    <v>      -0.13374486      -0.12345679      -0.05144033 </v>
    <v>       0.04115226       0.06172840      -0.10288066 </v>
    <v>       0.06172840      -0.06172840       0.00000000 </v>
   </varray>
  </crystal>
  <varray name="positions" >
   <v>       0.96666667       0.93333333       0.40000000 </v>
   <v>       0.63333333       0.26666667       0.40000000 </v>
   <v>       0.50000000       0.00000000       0.00000000 </v>
   <v>       0.00000000       0.00000000       0.00000000 </v>
   <v>       0.10000000       0.20000000       0.80000000 </v>
   <v>       0.03333333       0.06666667       0.60000000 </v>
   <v>       0.90000000       0.80000000       0.20000000 </v>
   <v>       0.80000000       0.60000000       0.40000000 </v>
   <v>       0.73333333       0.46666667       0.20000000 </v>
   <v>       0.66666667       0.33333333       0.00000000 </v>
   <v>       0.36666667       0.73333333       0.60000000 </v>
   <v>       0.13333333       0.26666667       0.40000000 </v>
   <v>       0.83333333       0.66666667       0.00000000 </v>
   <v>       0.93333333       0.86666667       0.80000000 </v>
   <v>       0.56666667       0.13333333       0.20000000 </v>
   <v>       0.40000000       0.80000000       0.20000000 </v>
   <v>       0.43333333       0.86666667       0.80000000 </v>
   <v>       0.30000000       0.60000000       0.40000000 </v>
   <v>       0.86666667       0.73333333       0.60000000 </v>
   <v>       0.46666667       0.93333333       0.40000000 </v>
   <v>       0.16666667       0.33333333       0.00000000 </v>
   <v>       0.26666667       0.53333333       0.80000000 </v>
   <v>       0.20000000       0.40000000       0.60000000 </v>
   <v>       0.06666667       0.13333333       0.20000000 </v>
   <v>       0.76666667       0.53333333       0.80000000 </v>
   <v>       0.70000000       0.40000000       0.60000000 </v>
   <v>       0.60000000       0.20000000       0.80000000 </v>
   <v>       0.53333333       0.06666667       0.60000000 </v>
   <v>       0.33333333       0.66666667       0.00000000 </v>
   <v>       0.23333333       0.46666667       0.20000000 </v>
  </varray>
 </structure>
 <calculation>
  <scstep>
   <time name="dav">   29.77   29.81</time>
   <time name="total">   30.40   30.51</time>
   <energy>
    <i name="alphaZ">   1141.17167839 </i>
    <i name="ewald"> -11249.65257471 </i>
    <i name="hartreedc">  -3044.73965606 </i>
    <i name="XCdc">   -890.86402895 </i>
    <i name="pawpsdc">  17934.52079072 </i>
    <i name="pawaedc"> -16425.73343312 </i>
    <i name="eentropy">     -0.00032785 </i>
    <i name="bandstr">   -837.00935864 </i>
    <i name="atom">  13005.90793652 </i>
    <i name="e_fr_energy">   -366.39897370 </i>
    <i name="e_wo_entrp">   -366.39864585 </i>
    <i name="e_0_energy">   -366.39886442 </i>
   </energy>
  </scstep>
  <scstep>
   <time name="dav">   29.51   29.57</time>
   <time name="total">   30.13   30.19</time>
   <energy>
    <i name="e_fr_energy">   -463.72431388 </i>
    <i name="e_wo_entrp">   -463.71885237 </i>
    <i name="e_0_energy">   -463.72249338 </i>
   </energy>
  </scstep>
  <scstep>
   <time name="dav">   30.60   30.65</time>
   <time name="total">   31.21   31.27</time>
   <energy>
    <i name="e_fr_energy">   -355.22952452 </i>
    <i name="e_wo_entrp">   -355.22504689 </i>
    <i name="e_0_energy">   -355.22803198 </i>
   </energy>
  </scstep>
  <scstep>
   <time name="dav">   29.81   29.86</time>
   <time name="total">   30.42   30.48</time>
   <energy>
    <i name="e_fr_energy">   -344.03733497 </i>
    <i name="e_wo_entrp">   -344.03632283 </i>
    <i name="e_0_energy">   -344.03699759 </i>
   </energy>
  </scstep>
  <scstep>
   <time name="dav">   30.75   30.80</time>
   <time name="total">   31.36   31.41</time>
   <energy>
    <i name="e_fr_energy">   -341.47550554 </i>
    <i name="e_wo_entrp">   -341.47955131 </i>
    <i name="e_0_energy">   -341.47685413 </i>
   </energy>
  </scstep>
  <scstep>
   <time name="dav">   27.59   27.65</time>
   <time name="total">   28.21   28.28</time>
   <energy>
    <i name="e_fr_energy">   -330.81538083 </i>
    <i name="e_wo_entrp">   -330.81375499 </i>
    <i name="e_0_energy">   -330.81483888 </i>
   </energy>
  </scstep>
  <scstep>
   <time name="dav">   27.00   27.05</time>
   <time name="total">   27.61   27.66</time>
   <energy>
    <i name="e_fr_energy">   -323.31622223 </i>
    <i name="e_wo_entrp">   -323.30065387 </i>
    <i name="e_0_energy">   -323.31103278 </i>
   </energy>
  </scstep>
  <scstep>
   <time name="dav">   29.35   29.40</time>
   <time name="total">   29.96   30.01</time>
   <energy>
    <i name="e_fr_energy">   -319.26263398 </i>
    <i name="e_wo_entrp">   -319.26634911 </i>
    <i name="e_0_energy">   -319.26387236 </i>
   </energy>
  </scstep>
  <scstep>
   <time name="dav">   30.08   30.14</time>
   <time name="total">   30.71   30.77</time>
   <energy>
    <i name="e_fr_energy">   -318.66336862 </i>
    <i name="e_wo_entrp">   -318.66760984 </i>
    <i name="e_0_energy">   -318.66478236 </i>
   </energy>
  </scstep>
  <scstep>
   <time name="dav">   26.33   26.37</time>
   <time name="total">   26.94   26.98</time>
   <energy>
    <i name="e_fr_energy">   -318.29466044 </i>
    <i name="e_wo_entrp">   -318.29162211 </i>
    <i name="e_0_energy">   -318.29364766 </i>
   </energy>
  </scstep>
  <scstep>
   <time name="dav">   28.86   28.93</time>
   <time name="total">   29.47   29.54</time>
   <energy>
    <i name="e_fr_energy">   -318.04311763 </i>
    <i name="e_wo_entrp">   -318.04511499 </i>
    <i name="e_0_energy">   -318.04378341 </i>
   </energy>
  </scstep>
  <scstep>
   <time name="dav">   28.53   28.57</time>
   <time name="total">   29.15   29.20</time>
   <energy>
    <i name="e_fr_energy">   -317.84472912 </i>
    <i name="e_wo_entrp">   -317.82922737 </i>
    <i name="e_0_energy">   -317.83956187 </i>
   </energy>
  </scstep>
  <scstep>
   <time name="dav">   29.17   29.21</time>
   <time name="total">   29.78   29.82</time>
   <energy>
    <i name="e_fr_energy">   -317.46706085 </i>
    <i name="e_wo_entrp">   -317.46785946 </i>
    <i name="e_0_energy">   -317.46732705 </i>
   </energy>
  </scstep>
  <scstep>
   <time name="dav">   27.58   27.62</time>
   <time name="total">   28.19   28.23</time>
   <energy>
    <i name="e_fr_energy">   -317.52498974 </i>
    <i name="e_wo_entrp">   -317.51695504 </i>
    <i name="e_0_energy">   -317.52231150 </i>
   </energy>
  </scstep>
  <scstep>
   <time name="dav">   27.82   27.85</time>
   <time name="total">   28.43   28.48</time>
   <energy>
    <i name="e_fr_energy">   -317.40798845 </i>
    <i name="e_wo_entrp">   -317.39999557 </i>
    <i name="e_0_energy">   -317.40532416 </i>
   </energy>
  </scstep>
  <scstep>
   <time name="dav">   28.73   28.77</time>
   <time name="total">   29.34   29.38</time>
   <energy>
    <i name="e_fr_energy">   -317.36578406 </i>
    <i name="e_wo_entrp">   -317.35510709 </i>
    <i name="e_0_energy">   -317.36222507 </i>
   </energy>
  </scstep>
  <scstep>
   <time name="dav">   28.63   28.67</time>
   <time name="total">   29.26   29.30</time>
   <energy>
    <i name="e_fr_energy">   -317.34961972 </i>
    <i name="e_wo_entrp">   -317.33959331 </i>
    <i name="e_0_energy">   -317.34627758 </i>
   </energy>
  </scstep>
  <scstep>
   <time name="dav">   28.70   28.74</time>
   <time name="total">   29.33   29.38</time>
   <energy>
    <i name="e_fr_energy">   -317.34084669 </i>
    <i name="e_wo_entrp">   -317.33375863 </i>
    <i name="e_0_energy">   -317.33848400 </i>
   </energy>
  </scstep>
  <scstep>
   <time name="dav">   28.07   28.11</time>
   <time name="total">   28.69   28.72</time>
   <energy>
    <i name="e_fr_energy">   -317.33672345 </i>
    <i name="e_wo_entrp">   -317.32807784 </i>
    <i name="e_0_energy">   -317.33384158 </i>
   </energy>
  </scstep>
  <scstep>
   <time name="dav">   26.49   26.52</time>
   <time name="total">   27.11   27.14</time>
   <energy>
    <i name="e_fr_energy">   -317.33441261 </i>
    <i name="e_wo_entrp">   -317.32619830 </i>
    <i name="e_0_energy">   -317.33167451 </i>
   </energy>
  </scstep>
  <scstep>
   <time name="dav">   27.70   27.74</time>
   <time name="total">   28.32   28.36</time>
   <energy>
    <i name="e_fr_energy">   -317.33293831 </i>
    <i name="e_wo_entrp">   -317.32423576 </i>
    <i name="e_0_energy">   -317.33003746 </i>
   </energy>
  </scstep>
  <scstep>
   <time name="dav">   26.36   26.40</time>
   <time name="total">   26.98   27.01</time>
   <energy>
    <i name="e_fr_energy">   -317.33246060 </i>
    <i name="e_wo_entrp">   -317.32369415 </i>
    <i name="e_0_energy">   -317.32953845 </i>
   </energy>
  </scstep>
  <scstep>
   <time name="dav">   25.95   25.98</time>
   <time name="total">   26.58   26.61</time>
   <energy>
    <i name="e_fr_energy">   -317.33216726 </i>
    <i name="e_wo_entrp">   -317.32337534 </i>
    <i name="e_0_energy">   -317.32923662 </i>
   </energy>
  </scstep>
  <scstep>
   <time name="dav">   21.51   21.53</time>
   <time name="total">   22.13   22.16</time>
   <energy>
    <i name="e_fr_energy">   -317.33201248 </i>
    <i name="e_wo_entrp">   -317.32322887 </i>
    <i name="e_0_energy">   -317.32908461 </i>
   </energy>
  </scstep>
  <scstep>
   <time name="dav">   15.59   15.61</time>
   <time name="total">   15.63   15.65</time>
   <energy>
    <i name="alphaZ">   1141.17167839 </i>
    <i name="ewald"> -11249.65257471 </i>
    <i name="hartreedc">  -3017.56379182 </i>
    <i name="XCdc">   -892.26184285 </i>
    <i name="pawpsdc">  17567.76258373 </i>
    <i name="pawaedc"> -16057.92052010 </i>
    <i name="eentropy">     -0.00879739 </i>
    <i name="bandstr">   -814.76663412 </i>
    <i name="atom">  13005.90793652 </i>
    <i name="e_fr_energy">   -317.33196235 </i>
    <i name="e_wo_entrp">   -317.32316496 </i>
    <i name="e_0_energy">   -317.32902989 </i>
   </energy>
  </scstep>
  <structure>
   <crystal>
    <varray name="basis" >
     <v>      -3.24000000      -3.24000000      -3.24000000 </v>
     <v>       1.62000000       1.62000000      -8.10000000 </v>
     <v>       8.10000000      -8.10000000      -1.62000000 </v>
    </varray>
    <i name="volume">    510.18336000 </i>
    <varray name="rec_basis" >
     <v>      -0.13374486      -0.12345679      -0.05144033 </v>
     <v>       0.04115226       0.06172840      -0.10288066 </v>
     <v>       0.06172840      -0.06172840       0.00000000 </v>
    </varray>
   </crystal>
   <varray name="positions" >
    <v>       0.96666667       0.93333333       0.40000000 </v>
    <v>       0.63333333       0.26666667       0.40000000 </v>
    <v>       0.50000000       0.00000000       0.00000000 </v>
    <v>       0.00000000       0.00000000       0.00000000 </v>
    <v>       0.10000000       0.20000000       0.80000000 </v>
    <v>       0.03333333       0.06666667       0.60000000 </v>
    <v>       0.90000000       0.80000000       0.20000000 </v>
    <v>       0.80000000       0.60000000       0.40000000 </v>
    <v>       0.73333333       0.46666667       0.20000000 </v>
    <v>       0.66666667       0.33333333       0.00000000 </v>
    <v>       0.36666667       0.73333333       0.60000000 </v>
    <v>       0.13333333       0.26666667       0.40000000 </v>
    <v>       0.83333333       0.66666667       0.00000000 </v>
    <v>       0.93333333       0.86666667       0.80000000 </v>
    <v>       0.56666667       0.13333333       0.20000000 </v>
    <v>       0.40000000       0.80000000       0.20000000 </v>
    <v>       0.43333333       0.86666667       0.80000000 </v>
    <v>       0.30000000       0.60000000       0.40000000 </v>
    <v>       0.86666667       0.73333333       0.60000000 </v>
    <v>       0.46666667       0.93333333       0.40000000 </v>
    <v>       0.16666667       0.33333333       0.00000000 </v>
    <v>       0.26666667       0.53333333       0.80000000 </v>
    <v>       0.20000000       0.40000000       0.60000000 </v>
    <v>       0.06666667       0.13333333       0.20000000 </v>
    <v>       0.76666667       0.53333333       0.80000000 </v>
    <v>       0.70000000       0.40000000       0.60000000 </v>
    <v>       0.60000000       0.20000000       0.80000000 </v>
    <v>       0.53333333       0.06666667       0.60000000 </v>
    <v>       0.33333333       0.66666667       0.00000000 </v>
    <v>       0.23333333       0.46666667       0.20000000 </v>
   </varray>
  </structure>
  <varray name="forces" >
   <v>      -0.03839037       0.43944326       0.24625605 </v>
   <v>       0.23206226      -0.06779708      -0.00419087 </v>
   <v>      -0.14449371       0.27710510      -0.11548704 </v>
   <v>       0.24276352      -0.00639873       0.01798273 </v>
   <v>      -0.06558375       0.54834207      -0.33154584 </v>
   <v>      -0.28882938       0.20508060      -0.28360949 </v>
   <v>       0.05596585      -0.46693865       0.12117436 </v>
   <v>      -0.62262172      -0.21071069       0.58571419 </v>
   <v>      -0.08667938       0.32132373       0.01720276 </v>
   <v>       0.17361106       0.32738896      -0.50046227 </v>
   <v>      -0.06224395      -0.25804103       0.23623990 </v>
   <v>       0.15703645       0.17806473      -0.59195963 </v>
   <v>       0.21441250      -0.39119158       0.32531974 </v>
   <v>       0.31611005       0.25542601      -0.16077839 </v>
   <v>      -0.35807624       0.44768664      -0.09872603 </v>
   <v>      -0.70431633      -0.14539456       0.70871547 </v>
   <v>      -0.72623025      -0.08711145       0.57509135 </v>
   <v>       0.29588038      -0.27686288      -0.28880271 </v>
   <v>       0.04440932       0.24888662       0.39136839 </v>
   <v>       0.50618810      -0.43636341       0.15580423 </v>
   <v>      -0.01083917      -0.17361457      -0.34372279 </v>
   <v>      -0.29932983       0.01133695      -0.32807154 </v>
   <v>      -0.30201587      -0.00992112       0.52650115 </v>
   <v>       0.60713935      -0.15234957      -0.74917631 </v>
   <v>       0.13005000      -0.41230105       0.48721698 </v>
   <v>       0.46179123       0.19657802      -0.38736576 </v>
   <v>       0.01651038       0.13776298      -0.10776875 </v>
   <v>       0.18720213      -0.45553863      -0.41573772 </v>
   <v>      -0.21713287      -0.20650263       0.47604147 </v>
   <v>       0.28565026       0.16261194      -0.16322361 </v>
  </varray>
  <varray name="stress" >
   <v>    -124.14308823      -2.72848378       1.30060548 </v>
   <v>      -2.72848376    -126.57715078      -0.29449570 </v>
   <v>       1.30060538      -0.29449573    -125.36563321 </v>
  </varray>
  <energy>
   <i name="e_fr_energy">   -317.33196235 </i>
   <i name="e_wo_entrp">   -317.32902989 </i>
   <i name="e_0_energy">     -0.00879739 </i>
  </energy>
  <time name="totalsc">  729.41  739.32</time>
  <eigenvalues>
   <array>
    <dimension dim="1">band</dimension>
    <dimension dim="2">kpoint</dimension>
    <dimension dim="3">spin</dimension>
    <field>eigene</field>
    <field>occ</field>
    <set>
     <set comment="spin 1">
      <set comment="kpoint 1">
       <r>  -48.0920    1.0000 </r>
       <r>  -48.0716    1.0000 </r>
       <r>  -48.0408    1.0000 </r>
       <r>  -48.0000    1.0000 </r>
       <r>  -47.9752    1.0000 </r>
       <r>  -47.8774    1.0000 </r>
       <r>  -24.6917    1.0000 </r>
       <r>  -24.5720    1.0000 </r>
       <r>  -24.4407    1.0000 </r>
       <r>  -24.4049    1.0000 </r>
       <r>  -24.2227    1.0000 </r>
       <r>  -24.2158    1.0000 </r>
       <r>  -24.2108    1.0000 </r>
       <r>  -24.1713    1.0000 </r>
       <r>  -24.1571    1.0000 </r>
       <r>  -24.1405    1.0000 </r>
       <r>  -24.1266    1.0000 </r>
       <r>  -24.0858    1.0000 </r>
       <r>  -24.0345    1.0000 </r>
       <r>  -24.0221    1.0000 </r>
       <r>  -23.9144    1.0000 </r>
       <r>  -23.8981    1.0000 </r>
       <r>  -23.7751    1.0000 </r>
       <r>  -23.5738    1.0000 </r>
       <r>   -0.5986    1.0000 </r>
       <r>    0.6371    1.0000 </r>
       <r>    0.9874    1.0000 </r>
       <r>    1.8150    1.0000 </r>
       <r>    1.9959    1.0000 </r>
       <r>    2.0656    1.0000 </r>
       <r>    2.2031    1.0000 </r>
       <r>    2.3394    1.0000 </r>
       <r>    2.3685    1.0000 </r>
       <r>    2.4414    1.0000 </r>
       <r>    2.5024    1.0000 </r>
       <r>    2.5849    1.0000 </r>
       <r>    2.6495    1.0000 </r>
       <r>    2.6741    1.0000 </r>
       <r>    2.8137    1.0000 </r>
       <r>    2.8943    1.0000 </r>
       <r>    2.9437    1.0000 </r>
       <r>    3.0756    1.0000 </r>
       <r>    3.1705    1.0000 </r>
       <r>    3.1964    1.0000 </r>
       <r>    3.2348    1.0000 </r>
       <r>    3.3026    1.0000 </r>
       <r>    3.3760    1.0000 </r>
       <r>    3.4002    1.0000 </r>
       <r>    3.4889    1.0000 </r>
       <r>    3.5533    1.0000 </r>
       <r>    3.6268    1.0000 </r>
       <r>    3.7029    1.0000 </r>
       <r>    3.7608    1.0000 </r>
       <r>    3.7961    1.0000 </r>
       <r>    3.9347    1.0000 </r>
       <r>    3.9865    1.0000 </r>
       <r>    4.0622    1.0000 </r>
       <r>    4.0970    1.0000 </r>
       <r>    4.2687    1.0000 </r>
       <r>    4.3028    1.0000 </r>
       <r>    4.3761    1.0000 </r>
       <r>    4.4203    1.0000 </r>
       <r>    4.4282    1.0000 </r>
       <r>    4.5059    1.0000 </r>
       <r>    4.5115    1.0000 </r>
       <r>    4.5984    1.0000 </r>
       <r>    4.6166    1.0000 </r>
       <r>    4.6930    1.0000 </r>
       <r>    4.7169    1.0000 </r>
       <r>    4.7596    1.0000 </r>
       <r>    4.8085    1.0000 </r>
       <r>    4.8338    1.0000 </r>
       <r>    4.8966    1.0000 </r>
       <r>    4.9395    1.0000 </r>
       <r>    4.9540    1.0000 </r>
       <r>    4.9628    1.0000 </r>
       <r>    4.9916    1.0000 </r>
       <r>    5.0938    1.0000 </r>
       <r>    5.1555    1.0000 </r>
       <r>    5.2378    1.0000 </r>
       <r>    5.3667    1.0000 </r>
       <r>    5.4342    1.0002 </r>
       <r>    5.4827    1.0006 </r>
       <r>    5.5126    1.0012 </r>
       <r>    5.5433    1.0022 </r>
       <r>    5.6045    1.0070 </r>
       <r>    5.6615    1.0162 </r>
       <r>    5.6822    1.0207 </r>
       <r>    5.6985    1.0245 </r>
       <r>    5.7163    1.0285 </r>
       <r>    5.7212    1.0296 </r>
       <r>    5.7753    1.0352 </r>
       <r>    5.8022    1.0296 </r>
       <r>    5.8453    0.9986 </r>
       <r>    5.9903    0.5930 </r>
       <r>    6.0291    0.4296 </r>
       <r>    6.0890    0.2007 </r>
       <r>    6.1237    0.1006 </r>
       <r>    6.1410    0.0616 </r>
       <r>    6.2138   -0.0258 </r>
       <r>    6.2626   -0.0354 </r>
       <r>    6.2983   -0.0307 </r>
       <r>    6.4030   -0.0093 </r>
       <r>    6.4215   -0.0069 </r>
       <r>    6.4370   -0.0053 </r>
       <r>    6.4945   -0.0017 </r>
       <r>    6.7026   -0.0000 </r>
       <r>    6.8432   -0.0000 </r>
       <r>    6.8600   -0.0000 </r>
       <r>    6.9421   -0.0000 </r>
       <r>    7.3758   -0.0000 </r>
       <r>    7.5263   -0.0000 </r>
       <r>    7.6494   -0.0000 </r>
       <r>    7.7150   -0.0000 </r>
       <r>    7.7621   -0.0000 </r>
       <r>    7.8024   -0.0000 </r>
       <r>    7.8193   -0.0000 </r>
       <r>    7.8483   -0.0000 </r>
       <r>    7.9183   -0.0000 </r>
       <r>    7.9369   -0.0000 </r>
      </set>
      <set comment="kpoint 2">
       <r>  -48.0909    1.0000 </r>
       <r>  -48.0673    1.0000 </r>
       <r>  -48.0385    1.0000 </r>
       <r>  -47.9991    1.0000 </r>
       <r>  -47.9745    1.0000 </r>
       <r>  -47.8864    1.0000 </r>
       <r>  -24.6140    1.0000 </r>
       <r>  -24.5589    1.0000 </r>
       <r>  -24.4352    1.0000 </r>
       <r>  -24.3996    1.0000 </r>
       <r>  -24.2251    1.0000 </r>
       <r>  -24.2175    1.0000 </r>
       <r>  -24.2053    1.0000 </r>
       <r>  -24.1728    1.0000 </r>
       <r>  -24.1559    1.0000 </r>
       <r>  -24.1434    1.0000 </r>
       <r>  -24.1284    1.0000 </r>
       <r>  -24.0876    1.0000 </r>
       <r>  -24.0428    1.0000 </r>
       <r>  -24.0240    1.0000 </r>
       <r>  -23.9190    1.0000 </r>
       <r>  -23.9021    1.0000 </r>
       <r>  -23.7765    1.0000 </r>
       <r>  -23.6793    1.0000 </r>
       <r>   -0.3048    1.0000 </r>
       <r>    0.8967    1.0000 </r>
       <r>    1.2371    1.0000 </r>
       <r>    1.8240    1.0000 </r>
       <r>    2.1949    1.0000 </r>
       <r>    2.2946    1.0000 </r>
       <r>    2.3574    1.0000 </r>
       <r>    2.4947    1.0000 </r>
       <r>    2.5247    1.0000 </r>
       <r>    2.5606    1.0000 </r>
       <r>    2.6785    1.0000 </r>
       <r>    2.7472    1.0000 </r>
       <r>    2.8068    1.0000 </r>
       <r>    2.8859    1.0000 </r>
       <r>    2.9649    1.0000 </r>
       <r>    3.0136    1.0000 </r>
       <r>    3.0562    1.0000 </r>
       <r>    3.0692    1.0000 </r>
       <r>    3.1711    1.0000 </r>
       <r>    3.2246    1.0000 </r>
       <r>    3.3336    1.0000 </r>
       <r>    3.3732    1.0000 </r>
       <r>    3.4473    1.0000 </r>
       <r>    3.5320    1.0000 </r>
       <r>    3.5674    1.0000 </r>
       <r>    3.5994    1.0000 </r>
       <r>    3.6961    1.0000 </r>
       <r>    3.7692    1.0000 </r>
       <r>    3.8140    1.0000 </r>
       <r>    3.8875    1.0000 </r>
       <r>    3.9495    1.0000 </r>
       <r>    4.0262    1.0000 </r>
       <r>    4.0931    1.0000 </r>
       <r>    4.1763    1.0000 </r>
       <r>    4.2954    1.0000 </r>
       <r>    4.3458    1.0000 </r>
       <r>    4.4037    1.0000 </r>
       <r>    4.5308    1.0000 </r>
       <r>    4.5406    1.0000 </r>
       <r>    4.6161    1.0000 </r>
       <r>    4.6496    1.0000 </r>
       <r>    4.6746    1.0000 </r>
       <r>    4.7178    1.0000 </r>
       <r>    4.7847    1.0000 </r>
       <r>    4.7952    1.0000 </r>
       <r>    4.8049    1.0000 </r>
       <r>    4.8781    1.0000 </r>
       <r>    4.9042    1.0000 </r>
       <r>    4.9598    1.0000 </r>
       <r>    4.9702    1.0000 </r>
       <r>    5.0545    1.0000 </r>
       <r>    5.0800    1.0000 </r>
       <r>    5.0969    1.0000 </r>
       <r>    5.1229    1.0000 </r>
       <r>    5.1611    1.0000 </r>
       <r>    5.2103    1.0000 </r>
       <r>    5.2124    1.0000 </r>
       <r>    5.3087    1.0000 </r>
       <r>    5.3524    1.0000 </r>
       <r>    5.4124    1.0001 </r>
       <r>    5.4376    1.0002 </r>
       <r>    5.4826    1.0006 </r>
       <r>    5.5088    1.0011 </r>
       <r>    5.5984    1.0063 </r>
       <r>    5.6814    1.0205 </r>
       <r>    5.7116    1.0275 </r>
       <r>    5.7403    1.0331 </r>
       <r>    5.7756    1.0352 </r>
       <r>    5.8164    1.0229 </r>
       <r>    5.8485    0.9948 </r>
       <r>    5.9423    0.7775 </r>
       <r>    5.9587    0.7183 </r>
       <r>    5.9875    0.6046 </r>
       <r>    6.0319    0.4177 </r>
       <r>    6.0882    0.2034 </r>
       <r>    6.1205    0.1085 </r>
       <r>    6.1507    0.0431 </r>
       <r>    6.2036   -0.0200 </r>
       <r>    6.2538   -0.0354 </r>
       <r>    6.2906   -0.0321 </r>
       <r>    6.3166   -0.0267 </r>
       <r>    6.3642   -0.0160 </r>
       <r>    6.4021   -0.0094 </r>
       <r>    6.5800   -0.0002 </r>
       <r>    6.6416   -0.0000 </r>
       <r>    6.7459   -0.0000 </r>
       <r>    7.0240   -0.0000 </r>
       <r>    7.1026   -0.0000 </r>
       <r>    7.1512   -0.0000 </r>
       <r>    7.2061   -0.0000 </r>
       <r>    7.3017   -0.0000 </r>
       <r>    7.4479   -0.0000 </r>
       <r>    7.5006   -0.0000 </r>
       <r>    7.5539   -0.0000 </r>
       <r>    7.5710   -0.0000 </r>
       <r>    7.6131   -0.0000 </r>
      </set>
      <set comment="kpoint 3">
       <r>  -48.0895    1.0000 </r>
       <r>  -48.0610    1.0000 </r>
       <r>  -48.0329    1.0000 </r>
       <r>  -47.9966    1.0000 </r>
       <r>  -47.9725    1.0000 </r>
       <r>  -47.9035    1.0000 </r>
       <r>  -24.5815    1.0000 </r>
       <r>  -24.4522    1.0000 </r>
       <r>  -24.4137    1.0000 </r>
       <r>  -24.3020    1.0000 </r>
       <r>  -24.2301    1.0000 </r>
       <r>  -24.2201    1.0000 </r>
       <r>  -24.1957    1.0000 </r>
       <r>  -24.1742    1.0000 </r>
       <r>  -24.1543    1.0000 </r>
       <r>  -24.1431    1.0000 </r>
       <r>  -24.1315    1.0000 </r>
       <r>  -24.0901    1.0000 </r>
       <r>  -24.0615    1.0000 </r>
       <r>  -24.0276    1.0000 </r>
       <r>  -23.9732    1.0000 </r>
       <r>  -23.9209    1.0000 </r>
       <r>  -23.8916    1.0000 </r>
       <r>  -23.7719    1.0000 </r>
       <r>    0.4900    1.0000 </r>
       <r>    1.4025    1.0000 </r>
       <r>    1.7263    1.0000 </r>
       <r>    1.9411    1.0000 </r>
       <r>    2.0214    1.0000 </r>
       <r>    2.4065    1.0000 </r>
       <r>    2.4581    1.0000 </r>
       <r>    2.6322    1.0000 </r>
       <r>    2.7425    1.0000 </r>
       <r>    2.8481    1.0000 </r>
       <r>    2.9486    1.0000 </r>
       <r>    2.9688    1.0000 </r>
       <r>    3.0744    1.0000 </r>
       <r>    3.1093    1.0000 </r>
       <r>    3.2084    1.0000 </r>
       <r>    3.2578    1.0000 </r>
       <r>    3.3027    1.0000 </r>
       <r>    3.3377    1.0000 </r>
       <r>    3.3764    1.0000 </r>
       <r>    3.4488    1.0000 </r>
       <r>    3.5393    1.0000 </r>
       <r>    3.5685    1.0000 </r>
       <r>    3.6196    1.0000 </r>
       <r>    3.6440    1.0000 </r>
       <r>    3.7539    1.0000 </r>
       <r>    3.7833    1.0000 </r>
       <r>    3.9097    1.0000 </r>
       <r>    3.9600    1.0000 </r>
       <r>    4.0172    1.0000 </r>
       <r>    4.0984    1.0000 </r>
       <r>    4.1755    1.0000 </r>
       <r>    4.2248    1.0000 </r>
       <r>    4.2945    1.0000 </r>
       <r>    4.3329    1.0000 </r>
       <r>    4.3602    1.0000 </r>
       <r>    4.4121    1.0000 </r>
       <r>    4.4497    1.0000 </r>
       <r>    4.4898    1.0000 </r>
       <r>    4.5374    1.0000 </r>
       <r>    4.5711    1.0000 </r>
       <r>    4.5940    1.0000 </r>
       <r>    4.6828    1.0000 </r>
       <r>    4.7016    1.0000 </r>
       <r>    4.7298    1.0000 </r>
       <r>    4.7709    1.0000 </r>
       <r>    4.8179    1.0000 </r>
       <r>    4.8747    1.0000 </r>
       <r>    4.9165    1.0000 </r>
       <r>    4.9496    1.0000 </r>
       <r>    4.9949    1.0000 </r>
       <r>    5.0524    1.0000 </r>
       <r>    5.0980    1.0000 </r>
       <r>    5.1535    1.0000 </r>
       <r>    5.1781    1.0000 </r>
       <r>    5.1979    1.0000 </r>
       <r>    5.2305    1.0000 </r>
       <r>    5.3124    1.0000 </r>
       <r>    5.3669    1.0000 </r>
       <r>    5.3974    1.0001 </r>
       <r>    5.4378    1.0002 </r>
       <r>    5.4804    1.0006 </r>
       <r>    5.5268    1.0016 </r>
       <r>    5.5691    1.0037 </r>
       <r>    5.6034    1.0069 </r>
       <r>    5.6502    1.0140 </r>
       <r>    5.6688    1.0178 </r>
       <r>    5.6980    1.0244 </r>
       <r>    5.7230    1.0299 </r>
       <r>    5.7624    1.0354 </r>
       <r>    5.7849    1.0341 </r>
       <r>    5.7948    1.0320 </r>
       <r>    5.8671    0.9688 </r>
       <r>    5.9069    0.8849 </r>
       <r>    5.9499    0.7506 </r>
       <r>    5.9922    0.5849 </r>
       <r>    6.0075    0.5207 </r>
       <r>    6.0491    0.3476 </r>
       <r>    6.0915    0.1924 </r>
       <r>    6.1057    0.1488 </r>
       <r>    6.1810   -0.0002 </r>
       <r>    6.1893   -0.0086 </r>
       <r>    6.2534   -0.0354 </r>
       <r>    6.3077   -0.0287 </r>
       <r>    6.3300   -0.0236 </r>
       <r>    6.3600   -0.0169 </r>
       <r>    6.4230   -0.0067 </r>
       <r>    6.4574   -0.0036 </r>
       <r>    6.5018   -0.0015 </r>
       <r>    6.7718   -0.0000 </r>
       <r>    6.8883   -0.0000 </r>
       <r>    6.9097   -0.0000 </r>
       <r>    7.0209   -0.0000 </r>
       <r>    7.1029   -0.0000 </r>
       <r>    7.1239   -0.0000 </r>
       <r>    7.2308   -0.0000 </r>
       <r>    7.3214   -0.0000 </r>
      </set>
      <set comment="kpoint 4">
       <r>  -48.0919    1.0000 </r>
       <r>  -48.0715    1.0000 </r>
       <r>  -48.0408    1.0000 </r>
       <r>  -48.0001    1.0000 </r>
       <r>  -47.9752    1.0000 </r>
       <r>  -47.8774    1.0000 </r>
       <r>  -24.6917    1.0000 </r>
       <r>  -24.5712    1.0000 </r>
       <r>  -24.4379    1.0000 </r>
       <r>  -24.4043    1.0000 </r>
       <r>  -24.2229    1.0000 </r>
       <r>  -24.2158    1.0000 </r>
       <r>  -24.2109    1.0000 </r>
       <r>  -24.1713    1.0000 </r>
       <r>  -24.1571    1.0000 </r>
       <r>  -24.1404    1.0000 </r>
       <r>  -24.1266    1.0000 </r>
       <r>  -24.0857    1.0000 </r>
       <r>  -24.0345    1.0000 </r>
       <r>  -24.0222    1.0000 </r>
       <r>  -23.9161    1.0000 </r>
       <r>  -23.9008    1.0000 </r>
       <r>  -23.7754    1.0000 </r>
       <r>  -23.5738    1.0000 </r>
       <r>   -0.4752    1.0000 </r>
       <r>    0.6987    1.0000 </r>
       <r>    1.1025    1.0000 </r>
       <r>    1.3175    1.0000 </r>
       <r>    1.9227    1.0000 </r>
       <r>    2.1487    1.0000 </r>
       <r>    2.2264    1.0000 </r>
       <r>    2.3744    1.0000 </r>
       <r>    2.3981    1.0000 </r>
       <r>    2.4759    1.0000 </r>
       <r>    2.5404    1.0000 </r>
       <r>    2.6165    1.0000 </r>
       <r>    2.6612    1.0000 </r>
       <r>    2.7333    1.0000 </r>
       <r>    2.8209    1.0000 </r>
       <r>    2.8522    1.0000 </r>
       <r>    2.9080    1.0000 </r>
       <r>    2.9995    1.0000 </r>
       <r>    3.1191    1.0000 </r>
       <r>    3.1989    1.0000 </r>
       <r>    3.2730    1.0000 </r>
       <r>    3.3261    1.0000 </r>
       <r>    3.3710    1.0000 </r>
       <r>    3.4753    1.0000 </r>
       <r>    3.4924    1.0000 </r>
       <r>    3.5660    1.0000 </r>
       <r>    3.6320    1.0000 </r>
       <r>    3.7074    1.0000 </r>
       <r>    3.7375    1.0000 </r>
       <r>    3.7785    1.0000 </r>
       <r>    3.8525    1.0000 </r>
       <r>    3.9303    1.0000 </r>
       <r>    4.0386    1.0000 </r>
       <r>    4.1998    1.0000 </r>
       <r>    4.2857    1.0000 </r>
       <r>    4.3434    1.0000 </r>
       <r>    4.3862    1.0000 </r>
       <r>    4.4792    1.0000 </r>
       <r>    4.5120    1.0000 </r>
       <r>    4.5606    1.0000 </r>
       <r>    4.5996    1.0000 </r>
       <r>    4.6344    1.0000 </r>
       <r>    4.6811    1.0000 </r>
       <r>    4.7385    1.0000 </r>
       <r>    4.7500    1.0000 </r>
       <r>    4.7830    1.0000 </r>
       <r>    4.8312    1.0000 </r>
       <r>    4.8635    1.0000 </r>
       <r>    4.8970    1.0000 </r>
       <r>    4.9520    1.0000 </r>
       <r>    4.9967    1.0000 </r>
       <r>    5.0165    1.0000 </r>
       <r>    5.0641    1.0000 </r>
       <r>    5.0780    1.0000 </r>
       <r>    5.1881    1.0000 </r>
       <r>    5.2120    1.0000 </r>
       <r>    5.3779    1.0000 </r>
       <r>    5.3995    1.0001 </r>
       <r>    5.4570    1.0003 </r>
       <r>    5.4902    1.0007 </r>
       <r>    5.5213    1.0014 </r>
       <r>    5.5527    1.0027 </r>
       <r>    5.5833    1.0049 </r>
       <r>    5.6335    1.0111 </r>
       <r>    5.6616    1.0163 </r>
       <r>    5.6895    1.0224 </r>
       <r>    5.7187    1.0290 </r>
       <r>    5.7668    1.0355 </r>
       <r>    5.8023    1.0296 </r>
       <r>    5.8329    1.0110 </r>
       <r>    5.8844    0.9372 </r>
       <r>    5.8976    0.9080 </r>
       <r>    5.9559    0.7288 </r>
       <r>    6.0242    0.4500 </r>
       <r>    6.0751    0.2485 </r>
       <r>    6.2624   -0.0354 </r>
       <r>    6.3543   -0.0181 </r>
       <r>    6.3745   -0.0140 </r>
       <r>    6.4095   -0.0084 </r>
       <r>    6.5141   -0.0011 </r>
       <r>    6.5309   -0.0008 </r>
       <r>    6.5541   -0.0004 </r>
       <r>    6.6764   -0.0000 </r>
       <r>    6.8501   -0.0000 </r>
       <r>    6.9256   -0.0000 </r>
       <r>    6.9669   -0.0000 </r>
       <r>    7.0975   -0.0000 </r>
       <r>    7.1565   -0.0000 </r>
       <r>    7.2481   -0.0000 </r>
       <r>    7.5199   -0.0000 </r>
       <r>    7.5904   -0.0000 </r>
       <r>    7.7114   -0.0000 </r>
       <r>    7.7353   -0.0000 </r>
       <r>    7.7863   -0.0000 </r>
       <r>    7.8319   -0.0000 </r>
       <r>    7.8629   -0.0000 </r>
      </set>
      <set comment="kpoint 5">
       <r>  -48.0910    1.0000 </r>
       <r>  -48.0674    1.0000 </r>
       <r>  -48.0385    1.0000 </r>
       <r>  -47.9989    1.0000 </r>
       <r>  -47.9745    1.0000 </r>
       <r>  -47.8864    1.0000 </r>
       <r>  -24.6142    1.0000 </r>
       <r>  -24.5596    1.0000 </r>
       <r>  -24.4381    1.0000 </r>
       <r>  -24.4000    1.0000 </r>
       <r>  -24.2251    1.0000 </r>
       <r>  -24.2175    1.0000 </r>
       <r>  -24.2052    1.0000 </r>
       <r>  -24.1728    1.0000 </r>
       <r>  -24.1559    1.0000 </r>
       <r>  -24.1433    1.0000 </r>
       <r>  -24.1284    1.0000 </r>
       <r>  -24.0876    1.0000 </r>
       <r>  -24.0428    1.0000 </r>
       <r>  -24.0240    1.0000 </r>
       <r>  -23.9177    1.0000 </r>
       <r>  -23.8991    1.0000 </r>
       <r>  -23.7763    1.0000 </r>
       <r>  -23.6793    1.0000 </r>
       <r>   -0.3003    1.0000 </r>
       <r>    0.8592    1.0000 </r>
       <r>    1.2656    1.0000 </r>
       <r>    1.8043    1.0000 </r>
       <r>    2.1675    1.0000 </r>
       <r>    2.2657    1.0000 </r>
       <r>    2.3216    1.0000 </r>
       <r>    2.4250    1.0000 </r>
       <r>    2.4668    1.0000 </r>
       <r>    2.5435    1.0000 </r>
       <r>    2.6045    1.0000 </r>
       <r>    2.6896    1.0000 </r>
       <r>    2.7926    1.0000 </r>
       <r>    2.8396    1.0000 </r>
       <r>    2.9118    1.0000 </r>
       <r>    2.9610    1.0000 </r>
       <r>    3.0540    1.0000 </r>
       <r>    3.0744    1.0000 </r>
       <r>    3.2479    1.0000 </r>
       <r>    3.2924    1.0000 </r>
       <r>    3.3356    1.0000 </r>
       <r>    3.4029    1.0000 </r>
       <r>    3.4803    1.0000 </r>
       <r>    3.5301    1.0000 </r>
       <r>    3.6173    1.0000 </r>
       <r>    3.6710    1.0000 </r>
       <r>    3.6935    1.0000 </r>
       <r>    3.7809    1.0000 </r>
       <r>    3.8751    1.0000 </r>
       <r>    3.9311    1.0000 </r>
       <r>    3.9841    1.0000 </r>
       <r>    4.0464    1.0000 </r>
       <r>    4.1350    1.0000 </r>
       <r>    4.2240    1.0000 </r>
       <r>    4.3049    1.0000 </r>
       <r>    4.3772    1.0000 </r>
       <r>    4.4300    1.0000 </r>
       <r>    4.4459    1.0000 </r>
       <r>    4.5303    1.0000 </r>
       <r>    4.5470    1.0000 </r>
       <r>    4.5816    1.0000 </r>
       <r>    4.6674    1.0000 </r>
       <r>    4.6945    1.0000 </r>
       <r>    4.7275    1.0000 </r>
       <r>    4.7724    1.0000 </r>
       <r>    4.7894    1.0000 </r>
       <r>    4.8238    1.0000 </r>
       <r>    4.8462    1.0000 </r>
       <r>    4.8676    1.0000 </r>
       <r>    4.9198    1.0000 </r>
       <r>    4.9536    1.0000 </r>
       <r>    5.0197    1.0000 </r>
       <r>    5.0834    1.0000 </r>
       <r>    5.1110    1.0000 </r>
       <r>    5.1727    1.0000 </r>
       <r>    5.2517    1.0000 </r>
       <r>    5.2987    1.0000 </r>
       <r>    5.3506    1.0000 </r>
       <r>    5.4161    1.0001 </r>
       <r>    5.4358    1.0002 </r>
       <r>    5.4688    1.0004 </r>
       <r>    5.5420    1.0022 </r>
       <r>    5.5861    1.0051 </r>
       <r>    5.6289    1.0103 </r>
       <r>    5.6570    1.0153 </r>
       <r>    5.7012    1.0251 </r>
       <r>    5.7311    1.0315 </r>
       <r>    5.7621    1.0354 </r>
       <r>    5.7934    1.0324 </r>
       <r>    5.8144    1.0241 </r>
       <r>    5.9065    0.8858 </r>
       <r>    5.9279    0.8247 </r>
       <r>    6.0042    0.5345 </r>
       <r>    6.0356    0.4026 </r>
       <r>    6.1155    0.1215 </r>
       <r>    6.1517    0.0414 </r>
       <r>    6.2001   -0.0175 </r>
       <r>    6.2346   -0.0331 </r>
       <r>    6.2835   -0.0333 </r>
       <r>    6.3334   -0.0228 </r>
       <r>    6.3751   -0.0139 </r>
       <r>    6.3840   -0.0123 </r>
       <r>    6.4444   -0.0046 </r>
       <r>    6.4935   -0.0017 </r>
       <r>    6.5698   -0.0003 </r>
       <r>    6.6588   -0.0000 </r>
       <r>    6.7386   -0.0000 </r>
       <r>    7.0023   -0.0000 </r>
       <r>    7.3878   -0.0000 </r>
       <r>    7.4871   -0.0000 </r>
       <r>    7.5540   -0.0000 </r>
       <r>    7.5851   -0.0000 </r>
       <r>    7.7219   -0.0000 </r>
       <r>    7.7829   -0.0000 </r>
       <r>    7.8191   -0.0000 </r>
       <r>    7.9171   -0.0000 </r>
      </set>
      <set comment="kpoint 6">
       <r>  -48.0897    1.0000 </r>
       <r>  -48.0611    1.0000 </r>
       <r>  -48.0329    1.0000 </r>
       <r>  -47.9964    1.0000 </r>
       <r>  -47.9724    1.0000 </r>
       <r>  -47.9035    1.0000 </r>
       <r>  -24.5825    1.0000 </r>
       <r>  -24.4549    1.0000 </r>
       <r>  -24.4167    1.0000 </r>
       <r>  -24.3020    1.0000 </r>
       <r>  -24.2301    1.0000 </r>
       <r>  -24.2201    1.0000 </r>
       <r>  -24.1956    1.0000 </r>
       <r>  -24.1742    1.0000 </r>
       <r>  -24.1543    1.0000 </r>
       <r>  -24.1431    1.0000 </r>
       <r>  -24.1315    1.0000 </r>
       <r>  -24.0902    1.0000 </r>
       <r>  -24.0614    1.0000 </r>
       <r>  -24.0275    1.0000 </r>
       <r>  -23.9731    1.0000 </r>
       <r>  -23.9154    1.0000 </r>
       <r>  -23.8899    1.0000 </r>
       <r>  -23.7716    1.0000 </r>
       <r>    0.3983    1.0000 </r>
       <r>    1.3481    1.0000 </r>
       <r>    1.6990    1.0000 </r>
       <r>    1.9053    1.0000 </r>
       <r>    2.0501    1.0000 </r>
       <r>    2.1838    1.0000 </r>
       <r>    2.5198    1.0000 </r>
       <r>    2.7083    1.0000 </r>
       <r>    2.7613    1.0000 </r>
       <r>    2.8669    1.0000 </r>
       <r>    2.9344    1.0000 </r>
       <r>    2.9949    1.0000 </r>
       <r>    3.0690    1.0000 </r>
       <r>    3.1042    1.0000 </r>
       <r>    3.1328    1.0000 </r>
       <r>    3.2612    1.0000 </r>
       <r>    3.3358    1.0000 </r>
       <r>    3.3712    1.0000 </r>
       <r>    3.4380    1.0000 </r>
       <r>    3.4674    1.0000 </r>
       <r>    3.5216    1.0000 </r>
       <r>    3.5644    1.0000 </r>
       <r>    3.6314    1.0000 </r>
       <r>    3.7071    1.0000 </r>
       <r>    3.7525    1.0000 </r>
       <r>    3.8219    1.0000 </r>
       <r>    3.8691    1.0000 </r>
       <r>    3.9422    1.0000 </r>
       <r>    4.0035    1.0000 </r>
       <r>    4.0313    1.0000 </r>
       <r>    4.0889    1.0000 </r>
       <r>    4.1457    1.0000 </r>
       <r>    4.1942    1.0000 </r>
       <r>    4.2728    1.0000 </r>
       <r>    4.3332    1.0000 </r>
       <r>    4.4509    1.0000 </r>
       <r>    4.4736    1.0000 </r>
       <r>    4.4934    1.0000 </r>
       <r>    4.5532    1.0000 </r>
       <r>    4.5999    1.0000 </r>
       <r>    4.6384    1.0000 </r>
       <r>    4.6877    1.0000 </r>
       <r>    4.7239    1.0000 </r>
       <r>    4.7635    1.0000 </r>
       <r>    4.8025    1.0000 </r>
       <r>    4.8444    1.0000 </r>
       <r>    4.8898    1.0000 </r>
       <r>    4.9080    1.0000 </r>
       <r>    4.9422    1.0000 </r>
       <r>    5.0086    1.0000 </r>
       <r>    5.0357    1.0000 </r>
       <r>    5.0781    1.0000 </r>
       <r>    5.0965    1.0000 </r>
       <r>    5.1940    1.0000 </r>
       <r>    5.2360    1.0000 </r>
       <r>    5.2867    1.0000 </r>
       <r>    5.3108    1.0000 </r>
       <r>    5.3546    1.0000 </r>
       <r>    5.4065    1.0001 </r>
       <r>    5.4207    1.0001 </r>
       <r>    5.4449    1.0002 </r>
       <r>    5.4686    1.0004 </r>
       <r>    5.5348    1.0019 </r>
       <r>    5.5498    1.0026 </r>
       <r>    5.5991    1.0064 </r>
       <r>    5.6401    1.0122 </r>
       <r>    5.6637    1.0167 </r>
       <r>    5.6875    1.0219 </r>
       <r>    5.7162    1.0285 </r>
       <r>    5.7629    1.0354 </r>
       <r>    5.7799    1.0348 </r>
       <r>    5.8135    1.0245 </r>
       <r>    5.8463    0.9975 </r>
       <r>    5.8772    0.9512 </r>
       <r>    5.8911    0.9230 </r>
       <r>    5.9329    0.8089 </r>
       <r>    5.9771    0.6468 </r>
       <r>    6.0250    0.4470 </r>
       <r>    6.0635    0.2912 </r>
       <r>    6.1065    0.1466 </r>
       <r>    6.1482    0.0478 </r>
       <r>    6.1753    0.0064 </r>
       <r>    6.2948   -0.0313 </r>
       <r>    6.3950   -0.0105 </r>
       <r>    6.4412   -0.0049 </r>
       <r>    6.5196   -0.0010 </r>
       <r>    6.5882   -0.0002 </r>
       <r>    6.9087   -0.0000 </r>
       <r>    7.0222   -0.0000 </r>
       <r>    7.0803   -0.0000 </r>
       <r>    7.1521   -0.0000 </r>
       <r>    7.2603   -0.0000 </r>
       <r>    7.3209   -0.0000 </r>
       <r>    7.3786   -0.0000 </r>
       <r>    7.4456   -0.0000 </r>
       <r>    7.4817   -0.0000 </r>
      </set>
      <set comment="kpoint 7">
       <r>  -48.0895    1.0000 </r>
       <r>  -48.0610    1.0000 </r>
       <r>  -48.0329    1.0000 </r>
       <r>  -47.9966    1.0000 </r>
       <r>  -47.9725    1.0000 </r>
       <r>  -47.9035    1.0000 </r>
       <r>  -24.5815    1.0000 </r>
       <r>  -24.4522    1.0000 </r>
       <r>  -24.4136    1.0000 </r>
       <r>  -24.3020    1.0000 </r>
       <r>  -24.2302    1.0000 </r>
       <r>  -24.2201    1.0000 </r>
       <r>  -24.1957    1.0000 </r>
       <r>  -24.1742    1.0000 </r>
       <r>  -24.1543    1.0000 </r>
       <r>  -24.1431    1.0000 </r>
       <r>  -24.1315    1.0000 </r>
       <r>  -24.0901    1.0000 </r>
       <r>  -24.0615    1.0000 </r>
       <r>  -24.0276    1.0000 </r>
       <r>  -23.9732    1.0000 </r>
       <r>  -23.9209    1.0000 </r>
       <r>  -23.8916    1.0000 </r>
       <r>  -23.7720    1.0000 </r>
       <r>    0.7449    1.0000 </r>
       <r>    1.3805    1.0000 </r>
       <r>    1.5046    1.0000 </r>
       <r>    1.7891    1.0000 </r>
       <r>    2.0756    1.0000 </r>
       <r>    2.2991    1.0000 </r>
       <r>    2.3832    1.0000 </r>
       <r>    2.5271    1.0000 </r>
       <r>    2.7492    1.0000 </r>
       <r>    2.8755    1.0000 </r>
       <r>    2.9646    1.0000 </r>
       <r>    3.0441    1.0000 </r>
       <r>    3.0786    1.0000 </r>
       <r>    3.1394    1.0000 </r>
       <r>    3.1817    1.0000 </r>
       <r>    3.2319    1.0000 </r>
       <r>    3.2941    1.0000 </r>
       <r>    3.3319    1.0000 </r>
       <r>    3.4092    1.0000 </r>
       <r>    3.4733    1.0000 </r>
       <r>    3.5302    1.0000 </r>
       <r>    3.6128    1.0000 </r>
       <r>    3.6569    1.0000 </r>
       <r>    3.7255    1.0000 </r>
       <r>    3.8070    1.0000 </r>
       <r>    3.8565    1.0000 </r>
       <r>    3.8837    1.0000 </r>
       <r>    3.9466    1.0000 </r>
       <r>    3.9887    1.0000 </r>
       <r>    4.0870    1.0000 </r>
       <r>    4.1675    1.0000 </r>
       <r>    4.2805    1.0000 </r>
       <r>    4.3341    1.0000 </r>
       <r>    4.3678    1.0000 </r>
       <r>    4.3801    1.0000 </r>
       <r>    4.4064    1.0000 </r>
       <r>    4.4292    1.0000 </r>
       <r>    4.4871    1.0000 </r>
       <r>    4.5026    1.0000 </r>
       <r>    4.5784    1.0000 </r>
       <r>    4.5985    1.0000 </r>
       <r>    4.6553    1.0000 </r>
       <r>    4.7146    1.0000 </r>
       <r>    4.7598    1.0000 </r>
       <r>    4.7682    1.0000 </r>
       <r>    4.7984    1.0000 </r>
       <r>    4.8147    1.0000 </r>
       <r>    4.9120    1.0000 </r>
       <r>    4.9452    1.0000 </r>
       <r>    4.9709    1.0000 </r>
       <r>    5.0374    1.0000 </r>
       <r>    5.0618    1.0000 </r>
       <r>    5.0988    1.0000 </r>
       <r>    5.1251    1.0000 </r>
       <r>    5.2248    1.0000 </r>
       <r>    5.2722    1.0000 </r>
       <r>    5.2851    1.0000 </r>
       <r>    5.3450    1.0000 </r>
       <r>    5.3533    1.0000 </r>
       <r>    5.3997    1.0001 </r>
       <r>    5.5090    1.0011 </r>
       <r>    5.5364    1.0019 </r>
       <r>    5.5759    1.0042 </r>
       <r>    5.5989    1.0064 </r>
       <r>    5.6450    1.0131 </r>
       <r>    5.6614    1.0162 </r>
       <r>    5.7159    1.0284 </r>
       <r>    5.7320    1.0317 </r>
       <r>    5.7690    1.0354 </r>
       <r>    5.8062    1.0280 </r>
       <r>    5.8344    1.0097 </r>
       <r>    5.8809    0.9441 </r>
       <r>    5.9138    0.8663 </r>
       <r>    5.9330    0.8085 </r>
       <r>    5.9756    0.6527 </r>
       <r>    6.0208    0.4643 </r>
       <r>    6.0580    0.3126 </r>
       <r>    6.0926    0.1889 </r>
       <r>    6.1434    0.0568 </r>
       <r>    6.1785    0.0026 </r>
       <r>    6.1905   -0.0097 </r>
       <r>    6.2201   -0.0287 </r>
       <r>    6.2613   -0.0354 </r>
       <r>    6.2824   -0.0334 </r>
       <r>    6.3674   -0.0154 </r>
       <r>    6.4238   -0.0066 </r>
       <r>    6.5508   -0.0005 </r>
       <r>    6.5742   -0.0003 </r>
       <r>    6.6063   -0.0001 </r>
       <r>    6.7151   -0.0000 </r>
       <r>    6.9843   -0.0000 </r>
       <r>    7.1359   -0.0000 </r>
       <r>    7.3266   -0.0000 </r>
       <r>    7.3386   -0.0000 </r>
       <r>    7.3977   -0.0000 </r>
       <r>    7.4640   -0.0000 </r>
      </set>
      <set comment="kpoint 8">
       <r>  -48.0907    1.0000 </r>
       <r>  -48.0672    1.0000 </r>
       <r>  -48.0385    1.0000 </r>
       <r>  -47.9993    1.0000 </r>
       <r>  -47.9746    1.0000 </r>
       <r>  -47.8864    1.0000 </r>
       <r>  -24.6139    1.0000 </r>
       <r>  -24.5578    1.0000 </r>
       <r>  -24.4305    1.0000 </r>
       <r>  -24.3988    1.0000 </r>
       <r>  -24.2253    1.0000 </r>
       <r>  -24.2175    1.0000 </r>
       <r>  -24.2053    1.0000 </r>
       <r>  -24.1728    1.0000 </r>
       <r>  -24.1559    1.0000 </r>
       <r>  -24.1433    1.0000 </r>
       <r>  -24.1283    1.0000 </r>
       <r>  -24.0875    1.0000 </r>
       <r>  -24.0429    1.0000 </r>
       <r>  -24.0241    1.0000 </r>
       <r>  -23.9223    1.0000 </r>
       <r>  -23.9061    1.0000 </r>
       <r>  -23.7770    1.0000 </r>
       <r>  -23.6793    1.0000 </r>
       <r>   -0.0788    1.0000 </r>
       <r>    0.9980    1.0000 </r>
       <r>    1.2409    1.0000 </r>
       <r>    1.4361    1.0000 </r>
       <r>    1.9872    1.0000 </r>
       <r>    2.3510    1.0000 </r>
       <r>    2.4546    1.0000 </r>
       <r>    2.5455    1.0000 </r>
       <r>    2.5970    1.0000 </r>
       <r>    2.6431    1.0000 </r>
       <r>    2.7656    1.0000 </r>
       <r>    2.7852    1.0000 </r>
       <r>    2.8018    1.0000 </r>
       <r>    2.8889    1.0000 </r>
       <r>    2.9061    1.0000 </r>
       <r>    2.9718    1.0000 </r>
       <r>    3.0102    1.0000 </r>
       <r>    3.0724    1.0000 </r>
       <r>    3.1420    1.0000 </r>
       <r>    3.2077    1.0000 </r>
       <r>    3.2870    1.0000 </r>
       <r>    3.3417    1.0000 </r>
       <r>    3.4276    1.0000 </r>
       <r>    3.4991    1.0000 </r>
       <r>    3.5661    1.0000 </r>
       <r>    3.6538    1.0000 </r>
       <r>    3.6834    1.0000 </r>
       <r>    3.7423    1.0000 </r>
       <r>    3.8145    1.0000 </r>
       <r>    3.9151    1.0000 </r>
       <r>    3.9544    1.0000 </r>
       <r>    4.0065    1.0000 </r>
       <r>    4.1974    1.0000 </r>
       <r>    4.2501    1.0000 </r>
       <r>    4.3206    1.0000 </r>
       <r>    4.3842    1.0000 </r>
       <r>    4.4644    1.0000 </r>
       <r>    4.5089    1.0000 </r>
       <r>    4.5405    1.0000 </r>
       <r>    4.6145    1.0000 </r>
       <r>    4.6937    1.0000 </r>
       <r>    4.7112    1.0000 </r>
       <r>    4.7681    1.0000 </r>
       <r>    4.8121    1.0000 </r>
       <r>    4.8342    1.0000 </r>
       <r>    4.8544    1.0000 </r>
       <r>    4.9482    1.0000 </r>
       <r>    4.9622    1.0000 </r>
       <r>    4.9821    1.0000 </r>
       <r>    5.0266    1.0000 </r>
       <r>    5.0574    1.0000 </r>
       <r>    5.1201    1.0000 </r>
       <r>    5.1469    1.0000 </r>
       <r>    5.1602    1.0000 </r>
       <r>    5.1927    1.0000 </r>
       <r>    5.2486    1.0000 </r>
       <r>    5.2668    1.0000 </r>
       <r>    5.2961    1.0000 </r>
       <r>    5.3162    1.0000 </r>
       <r>    5.3732    1.0000 </r>
       <r>    5.4572    1.0003 </r>
       <r>    5.5159    1.0013 </r>
       <r>    5.5791    1.0045 </r>
       <r>    5.6019    1.0067 </r>
       <r>    5.6476    1.0135 </r>
       <r>    5.6828    1.0209 </r>
       <r>    5.7421    1.0334 </r>
       <r>    5.7705    1.0354 </r>
       <r>    5.7938    1.0323 </r>
       <r>    5.8544    0.9874 </r>
       <r>    5.9053    0.8890 </r>
       <r>    5.9151    0.8626 </r>
       <r>    5.9704    0.6736 </r>
       <r>    5.9901    0.5936 </r>
       <r>    6.0343    0.4078 </r>
       <r>    6.1187    0.1130 </r>
       <r>    6.1512    0.0422 </r>
       <r>    6.1755    0.0061 </r>
       <r>    6.2032   -0.0197 </r>
       <r>    6.2354   -0.0333 </r>
       <r>    6.2741   -0.0345 </r>
       <r>    6.3265   -0.0244 </r>
       <r>    6.3607   -0.0168 </r>
       <r>    6.4152   -0.0076 </r>
       <r>    6.5312   -0.0008 </r>
       <r>    6.5716   -0.0003 </r>
       <r>    6.6565   -0.0000 </r>
       <r>    6.8689   -0.0000 </r>
       <r>    7.0283   -0.0000 </r>
       <r>    7.1988   -0.0000 </r>
       <r>    7.2315   -0.0000 </r>
       <r>    7.3208   -0.0000 </r>
       <r>    7.3761   -0.0000 </r>
       <r>    7.4445   -0.0000 </r>
       <r>    7.4930   -0.0000 </r>
       <r>    7.6079   -0.0000 </r>
      </set>
      <set comment="kpoint 9">
       <r>  -48.0918    1.0000 </r>
       <r>  -48.0714    1.0000 </r>
       <r>  -48.0408    1.0000 </r>
       <r>  -48.0004    1.0000 </r>
       <r>  -47.9753    1.0000 </r>
       <r>  -47.8774    1.0000 </r>
       <r>  -24.6917    1.0000 </r>
       <r>  -24.5700    1.0000 </r>
       <r>  -24.4336    1.0000 </r>
       <r>  -24.4029    1.0000 </r>
       <r>  -24.2231    1.0000 </r>
       <r>  -24.2159    1.0000 </r>
       <r>  -24.2110    1.0000 </r>
       <r>  -24.1714    1.0000 </r>
       <r>  -24.1571    1.0000 </r>
       <r>  -24.1403    1.0000 </r>
       <r>  -24.1265    1.0000 </r>
       <r>  -24.0856    1.0000 </r>
       <r>  -24.0345    1.0000 </r>
       <r>  -24.0223    1.0000 </r>
       <r>  -23.9202    1.0000 </r>
       <r>  -23.9040    1.0000 </r>
       <r>  -23.7758    1.0000 </r>
       <r>  -23.5738    1.0000 </r>
       <r>   -0.1524    1.0000 </r>
       <r>    0.5881    1.0000 </r>
       <r>    0.9324    1.0000 </r>
       <r>    1.4079    1.0000 </r>
       <r>    1.7091    1.0000 </r>
       <r>    1.9802    1.0000 </r>
       <r>    2.3138    1.0000 </r>
       <r>    2.3397    1.0000 </r>
       <r>    2.4661    1.0000 </r>
       <r>    2.4970    1.0000 </r>
       <r>    2.5889    1.0000 </r>
       <r>    2.7058    1.0000 </r>
       <r>    2.7146    1.0000 </r>
       <r>    2.7772    1.0000 </r>
       <r>    2.8069    1.0000 </r>
       <r>    2.8580    1.0000 </r>
       <r>    2.9298    1.0000 </r>
       <r>    3.0230    1.0000 </r>
       <r>    3.0840    1.0000 </r>
       <r>    3.1820    1.0000 </r>
       <r>    3.2268    1.0000 </r>
       <r>    3.2771    1.0000 </r>
       <r>    3.3241    1.0000 </r>
       <r>    3.3790    1.0000 </r>
       <r>    3.4425    1.0000 </r>
       <r>    3.5480    1.0000 </r>
       <r>    3.6064    1.0000 </r>
       <r>    3.6464    1.0000 </r>
       <r>    3.6964    1.0000 </r>
       <r>    3.7475    1.0000 </r>
       <r>    3.8112    1.0000 </r>
       <r>    3.9271    1.0000 </r>
       <r>    4.2529    1.0000 </r>
       <r>    4.3213    1.0000 </r>
       <r>    4.3732    1.0000 </r>
       <r>    4.4234    1.0000 </r>
       <r>    4.4696    1.0000 </r>
       <r>    4.5282    1.0000 </r>
       <r>    4.6088    1.0000 </r>
       <r>    4.6460    1.0000 </r>
       <r>    4.6622    1.0000 </r>
       <r>    4.6918    1.0000 </r>
       <r>    4.7517    1.0000 </r>
       <r>    4.7780    1.0000 </r>
       <r>    4.8086    1.0000 </r>
       <r>    4.8422    1.0000 </r>
       <r>    4.8623    1.0000 </r>
       <r>    4.8849    1.0000 </r>
       <r>    4.9298    1.0000 </r>
       <r>    4.9920    1.0000 </r>
       <r>    4.9980    1.0000 </r>
       <r>    5.0328    1.0000 </r>
       <r>    5.0720    1.0000 </r>
       <r>    5.1341    1.0000 </r>
       <r>    5.1829    1.0000 </r>
       <r>    5.3046    1.0000 </r>
       <r>    5.3585    1.0000 </r>
       <r>    5.4481    1.0002 </r>
       <r>    5.4654    1.0004 </r>
       <r>    5.5148    1.0012 </r>
       <r>    5.5350    1.0019 </r>
       <r>    5.6027    1.0068 </r>
[...]
       <r>    4.4308    1.0000 </r>
       <r>    4.4816    1.0000 </r>
       <r>    4.4970    1.0000 </r>
       <r>    4.5372    1.0000 </r>
       <r>    4.5960    1.0000 </r>
       <r>    4.6258    1.0000 </r>
       <r>    4.6742    1.0000 </r>
       <r>    4.7299    1.0000 </r>
       <r>    4.7717    1.0000 </r>
       <r>    4.7843    1.0000 </r>
       <r>    4.8822    1.0000 </r>
       <r>    4.9305    1.0000 </r>
       <r>    4.9679    1.0000 </r>
       <r>    4.9896    1.0000 </r>
       <r>    5.0750    1.0000 </r>
       <r>    5.1149    1.0000 </r>
       <r>    5.1494    1.0000 </r>
       <r>    5.1737    1.0000 </r>
       <r>    5.2247    1.0000 </r>
       <r>    5.2575    1.0000 </r>
       <r>    5.3230    1.0000 </r>
       <r>    5.3504    1.0000 </r>
       <r>    5.4093    1.0001 </r>
       <r>    5.4482    1.0002 </r>
       <r>    5.4860    1.0006 </r>
       <r>    5.5093    1.0011 </r>
       <r>    5.5700    1.0038 </r>
       <r>    5.5835    1.0049 </r>
       <r>    5.6181    1.0088 </r>
       <r>    5.6495    1.0139 </r>
       <r>    5.6655    1.0171 </r>
       <r>    5.6948    1.0236 </r>
       <r>    5.7524    1.0347 </r>
       <r>    5.7753    1.0352 </r>
       <r>    5.7946    1.0321 </r>
       <r>    5.8259    1.0166 </r>
       <r>    5.8453    0.9986 </r>
       <r>    5.8901    0.9251 </r>
       <r>    5.9073    0.8839 </r>
       <r>    6.0317    0.4187 </r>
       <r>    6.0710    0.2635 </r>
       <r>    6.1896   -0.0089 </r>
       <r>    6.2169   -0.0273 </r>
       <r>    6.2649   -0.0352 </r>
       <r>    6.3030   -0.0297 </r>
       <r>    6.3612   -0.0167 </r>
       <r>    6.4422   -0.0048 </r>
       <r>    6.5122   -0.0012 </r>
       <r>    6.8530   -0.0000 </r>
       <r>    6.9359   -0.0000 </r>
       <r>    6.9854   -0.0000 </r>
       <r>    7.0354   -0.0000 </r>
       <r>    7.0679   -0.0000 </r>
       <r>    7.5510   -0.0000 </r>
       <r>    7.6065   -0.0000 </r>
       <r>    7.6609   -0.0000 </r>
       <r>    7.7485   -0.0000 </r>
       <r>    7.7733   -0.0000 </r>
       <r>    7.8240   -0.0000 </r>
       <r>    7.8876   -0.0000 </r>
      </set>
     </set>
    </set>
   </array>
  </eigenvalues>
  <separator name="orbital magnetization" >
   <v name="MAGDIPOLOUT">      0.00000000      0.00000000      0.00000000</v>
  </separator>
  <dos>
   <i name="efermi">      6.01240070 </i>
   <total>
    <array>
     <dimension dim="1">gridpoints</dimension>
     <dimension dim="2">spin</dimension>
     <field>energy</field>
     <field>total</field>
     <field>integrated</field>
     <set>
      <set comment="spin 1">
       <r>   -50.8961     0.0000     0.0000 </r>
       <r>   -50.6905     0.0000     0.0000 </r>
       <r>   -50.4848     0.0000     0.0000 </r>
       <r>   -50.2792     0.0000     0.0000 </r>
       <r>   -50.0736     0.0000     0.0000 </r>
       <r>   -49.8679    -0.0000    -0.0000 </r>
       <r>   -49.6623    -0.0000    -0.0000 </r>
       <r>   -49.4567    -0.0000    -0.0000 </r>
       <r>   -49.2510    -0.0000    -0.0000 </r>
       <r>   -49.0454    -0.0000    -0.0000 </r>
       <r>   -48.8398    -0.0000    -0.0000 </r>
       <r>   -48.6342    -0.0076    -0.0016 </r>
       <r>   -48.4285    -0.4813    -0.1005 </r>
       <r>   -48.2229     0.1212    -0.0756 </r>
       <r>   -48.0173    28.3595     5.7559 </r>
       <r>   -47.8116    29.5755    11.8376 </r>
       <r>   -47.6060     1.3900    12.1234 </r>
       <r>   -47.4004    -0.5827    12.0036 </r>
       <r>   -47.1947    -0.0173    12.0000 </r>
       <r>   -46.9891    -0.0001    12.0000 </r>
       <r>   -46.7835    -0.0000    12.0000 </r>
       <r>   -46.5778    -0.0000    12.0000 </r>
       <r>   -46.3722     0.0000    12.0000 </r>
       <r>   -46.1666     0.0000    12.0000 </r>
       <r>   -45.9610     0.0000    12.0000 </r>
       <r>   -45.7553     0.0000    12.0000 </r>
       <r>   -45.5497     0.0000    12.0000 </r>
       <r>   -45.3441     0.0000    12.0000 </r>
       <r>   -45.1384     0.0000    12.0000 </r>
       <r>   -44.9328     0.0000    12.0000 </r>
       <r>   -44.7272     0.0000    12.0000 </r>
       <r>   -44.5215     0.0000    12.0000 </r>
       <r>   -44.3159     0.0000    12.0000 </r>
       <r>   -44.1103     0.0000    12.0000 </r>
       <r>   -43.9047     0.0000    12.0000 </r>
       <r>   -43.6990     0.0000    12.0000 </r>
       <r>   -43.4934     0.0000    12.0000 </r>
       <r>   -43.2878     0.0000    12.0000 </r>
       <r>   -43.0821     0.0000    12.0000 </r>
       <r>   -42.8765     0.0000    12.0000 </r>
       <r>   -42.6709     0.0000    12.0000 </r>
       <r>   -42.4652     0.0000    12.0000 </r>
       <r>   -42.2596     0.0000    12.0000 </r>
       <r>   -42.0540     0.0000    12.0000 </r>
       <r>   -41.8484     0.0000    12.0000 </r>
       <r>   -41.6427     0.0000    12.0000 </r>
       <r>   -41.4371     0.0000    12.0000 </r>
       <r>   -41.2315     0.0000    12.0000 </r>
       <r>   -41.0258     0.0000    12.0000 </r>
       <r>   -40.8202     0.0000    12.0000 </r>
       <r>   -40.6146     0.0000    12.0000 </r>
       <r>   -40.4089     0.0000    12.0000 </r>
       <r>   -40.2033     0.0000    12.0000 </r>
       <r>   -39.9977     0.0000    12.0000 </r>
       <r>   -39.7921     0.0000    12.0000 </r>
       <r>   -39.5864     0.0000    12.0000 </r>
       <r>   -39.3808     0.0000    12.0000 </r>
       <r>   -39.1752     0.0000    12.0000 </r>
       <r>   -38.9695     0.0000    12.0000 </r>
       <r>   -38.7639     0.0000    12.0000 </r>
       <r>   -38.5583     0.0000    12.0000 </r>
       <r>   -38.3526     0.0000    12.0000 </r>
       <r>   -38.1470     0.0000    12.0000 </r>
       <r>   -37.9414     0.0000    12.0000 </r>
       <r>   -37.7358     0.0000    12.0000 </r>
       <r>   -37.5301     0.0000    12.0000 </r>
       <r>   -37.3245     0.0000    12.0000 </r>
       <r>   -37.1189     0.0000    12.0000 </r>
       <r>   -36.9132     0.0000    12.0000 </r>
       <r>   -36.7076     0.0000    12.0000 </r>
       <r>   -36.5020     0.0000    12.0000 </r>
       <r>   -36.2963     0.0000    12.0000 </r>
       <r>   -36.0907     0.0000    12.0000 </r>
       <r>   -35.8851     0.0000    12.0000 </r>
       <r>   -35.6794     0.0000    12.0000 </r>
       <r>   -35.4738     0.0000    12.0000 </r>
       <r>   -35.2682     0.0000    12.0000 </r>
       <r>   -35.0626     0.0000    12.0000 </r>
       <r>   -34.8569     0.0000    12.0000 </r>
       <r>   -34.6513     0.0000    12.0000 </r>
       <r>   -34.4457     0.0000    12.0000 </r>
       <r>   -34.2400     0.0000    12.0000 </r>
       <r>   -34.0344     0.0000    12.0000 </r>
       <r>   -33.8288     0.0000    12.0000 </r>
       <r>   -33.6231     0.0000    12.0000 </r>
       <r>   -33.4175     0.0000    12.0000 </r>
       <r>   -33.2119     0.0000    12.0000 </r>
       <r>   -33.0063     0.0000    12.0000 </r>
       <r>   -32.8006     0.0000    12.0000 </r>
       <r>   -32.5950     0.0000    12.0000 </r>
       <r>   -32.3894     0.0000    12.0000 </r>
       <r>   -32.1837     0.0000    12.0000 </r>
       <r>   -31.9781     0.0000    12.0000 </r>
       <r>   -31.7725     0.0000    12.0000 </r>
       <r>   -31.5668     0.0000    12.0000 </r>
       <r>   -31.3612     0.0000    12.0000 </r>
       <r>   -31.1556     0.0000    12.0000 </r>
       <r>   -30.9500     0.0000    12.0000 </r>
       <r>   -30.7443     0.0000    12.0000 </r>
       <r>   -30.5387     0.0000    12.0000 </r>
       <r>   -30.3331     0.0000    12.0000 </r>
       <r>   -30.1274     0.0000    12.0000 </r>
       <r>   -29.9218     0.0000    12.0000 </r>
       <r>   -29.7162     0.0000    12.0000 </r>
       <r>   -29.5105     0.0000    12.0000 </r>
       <r>   -29.3049     0.0000    12.0000 </r>
       <r>   -29.0993     0.0000    12.0000 </r>
       <r>   -28.8937     0.0000    12.0000 </r>
       <r>   -28.6880     0.0000    12.0000 </r>
       <r>   -28.4824     0.0000    12.0000 </r>
       <r>   -28.2768     0.0000    12.0000 </r>
       <r>   -28.0711     0.0000    12.0000 </r>
       <r>   -27.8655     0.0000    12.0000 </r>
       <r>   -27.6599     0.0000    12.0000 </r>
       <r>   -27.4542     0.0000    12.0000 </r>
       <r>   -27.2486     0.0000    12.0000 </r>
       <r>   -27.0430     0.0000    12.0000 </r>
       <r>   -26.8373     0.0000    12.0000 </r>
       <r>   -26.6317     0.0000    12.0000 </r>
       <r>   -26.4261    -0.0000    12.0000 </r>
       <r>   -26.2205    -0.0000    12.0000 </r>
       <r>   -26.0148    -0.0000    12.0000 </r>
       <r>   -25.8092    -0.0000    12.0000 </r>
       <r>   -25.6036    -0.0000    12.0000 </r>
       <r>   -25.3979    -0.0000    12.0000 </r>
       <r>   -25.1923    -0.0034    11.9993 </r>
       <r>   -24.9867    -0.1653    11.9653 </r>
       <r>   -24.7810    -0.1140    11.9419 </r>
       <r>   -24.5754     9.0296    13.7986 </r>
       <r>   -24.3698    20.7178    18.0588 </r>
       <r>   -24.1642    50.3137    28.4049 </r>
       <r>   -23.9585    61.4150    41.0336 </r>
       <r>   -23.7529    25.8434    46.3478 </r>
       <r>   -23.5473     7.7349    47.9384 </r>
       <r>   -23.3416     0.4905    48.0392 </r>
       <r>   -23.1360    -0.1808    48.0021 </r>
       <r>   -22.9304    -0.0099    48.0000 </r>
       <r>   -22.7247    -0.0001    48.0000 </r>
       <r>   -22.5191    -0.0000    48.0000 </r>
       <r>   -22.3135    -0.0000    48.0000 </r>
       <r>   -22.1079     0.0000    48.0000 </r>
       <r>   -21.9022     0.0000    48.0000 </r>
       <r>   -21.6966     0.0000    48.0000 </r>
       <r>   -21.4910     0.0000    48.0000 </r>
       <r>   -21.2853     0.0000    48.0000 </r>
       <r>   -21.0797     0.0000    48.0000 </r>
       <r>   -20.8741     0.0000    48.0000 </r>
       <r>   -20.6684     0.0000    48.0000 </r>
       <r>   -20.4628     0.0000    48.0000 </r>
       <r>   -20.2572     0.0000    48.0000 </r>
       <r>   -20.0516     0.0000    48.0000 </r>
       <r>   -19.8459     0.0000    48.0000 </r>
       <r>   -19.6403     0.0000    48.0000 </r>
       <r>   -19.4347     0.0000    48.0000 </r>
       <r>   -19.2290     0.0000    48.0000 </r>
       <r>   -19.0234     0.0000    48.0000 </r>
       <r>   -18.8178     0.0000    48.0000 </r>
       <r>   -18.6121     0.0000    48.0000 </r>
       <r>   -18.4065     0.0000    48.0000 </r>
       <r>   -18.2009     0.0000    48.0000 </r>
       <r>   -17.9953     0.0000    48.0000 </r>
       <r>   -17.7896     0.0000    48.0000 </r>
       <r>   -17.5840     0.0000    48.0000 </r>
       <r>   -17.3784     0.0000    48.0000 </r>
       <r>   -17.1727     0.0000    48.0000 </r>
       <r>   -16.9671     0.0000    48.0000 </r>
       <r>   -16.7615     0.0000    48.0000 </r>
       <r>   -16.5558     0.0000    48.0000 </r>
       <r>   -16.3502     0.0000    48.0000 </r>
       <r>   -16.1446     0.0000    48.0000 </r>
       <r>   -15.9389     0.0000    48.0000 </r>
       <r>   -15.7333     0.0000    48.0000 </r>
       <r>   -15.5277     0.0000    48.0000 </r>
       <r>   -15.3221     0.0000    48.0000 </r>
       <r>   -15.1164     0.0000    48.0000 </r>
       <r>   -14.9108     0.0000    48.0000 </r>
       <r>   -14.7052     0.0000    48.0000 </r>
       <r>   -14.4995     0.0000    48.0000 </r>
       <r>   -14.2939     0.0000    48.0000 </r>
       <r>   -14.0883     0.0000    48.0000 </r>
       <r>   -13.8826     0.0000    48.0000 </r>
       <r>   -13.6770     0.0000    48.0000 </r>
       <r>   -13.4714     0.0000    48.0000 </r>
       <r>   -13.2658     0.0000    48.0000 </r>
       <r>   -13.0601     0.0000    48.0000 </r>
       <r>   -12.8545     0.0000    48.0000 </r>
       <r>   -12.6489     0.0000    48.0000 </r>
       <r>   -12.4432     0.0000    48.0000 </r>
       <r>   -12.2376     0.0000    48.0000 </r>
       <r>   -12.0320     0.0000    48.0000 </r>
       <r>   -11.8263     0.0000    48.0000 </r>
       <r>   -11.6207     0.0000    48.0000 </r>
       <r>   -11.4151     0.0000    48.0000 </r>
       <r>   -11.2095     0.0000    48.0000 </r>
       <r>   -11.0038     0.0000    48.0000 </r>
       <r>   -10.7982     0.0000    48.0000 </r>
       <r>   -10.5926     0.0000    48.0000 </r>
       <r>   -10.3869     0.0000    48.0000 </r>
       <r>   -10.1813     0.0000    48.0000 </r>
       <r>    -9.9757     0.0000    48.0000 </r>
       <r>    -9.7700     0.0000    48.0000 </r>
       <r>    -9.5644     0.0000    48.0000 </r>
       <r>    -9.3588     0.0000    48.0000 </r>
       <r>    -9.1532     0.0000    48.0000 </r>
       <r>    -8.9475     0.0000    48.0000 </r>
       <r>    -8.7419     0.0000    48.0000 </r>
       <r>    -8.5363     0.0000    48.0000 </r>
       <r>    -8.3306     0.0000    48.0000 </r>
       <r>    -8.1250     0.0000    48.0000 </r>
       <r>    -7.9194     0.0000    48.0000 </r>
       <r>    -7.7137     0.0000    48.0000 </r>
       <r>    -7.5081     0.0000    48.0000 </r>
       <r>    -7.3025     0.0000    48.0000 </r>
       <r>    -7.0969     0.0000    48.0000 </r>
       <r>    -6.8912     0.0000    48.0000 </r>
       <r>    -6.6856     0.0000    48.0000 </r>
       <r>    -6.4800     0.0000    48.0000 </r>
       <r>    -6.2743     0.0000    48.0000 </r>
       <r>    -6.0687     0.0000    48.0000 </r>
       <r>    -5.8631     0.0000    48.0000 </r>
       <r>    -5.6574     0.0000    48.0000 </r>
       <r>    -5.4518     0.0000    48.0000 </r>
       <r>    -5.2462     0.0000    48.0000 </r>
       <r>    -5.0405     0.0000    48.0000 </r>
       <r>    -4.8349     0.0000    48.0000 </r>
       <r>    -4.6293     0.0000    48.0000 </r>
       <r>    -4.4237     0.0000    48.0000 </r>
       <r>    -4.2180     0.0000    48.0000 </r>
       <r>    -4.0124     0.0000    48.0000 </r>
       <r>    -3.8068     0.0000    48.0000 </r>
       <r>    -3.6011     0.0000    48.0000 </r>
       <r>    -3.3955     0.0000    48.0000 </r>
       <r>    -3.1899     0.0000    48.0000 </r>
       <r>    -2.9842     0.0000    48.0000 </r>
       <r>    -2.7786     0.0000    48.0000 </r>
       <r>    -2.5730     0.0000    48.0000 </r>
       <r>    -2.3674    -0.0000    48.0000 </r>
       <r>    -2.1617    -0.0000    48.0000 </r>
       <r>    -1.9561    -0.0000    48.0000 </r>
       <r>    -1.7505    -0.0000    48.0000 </r>
       <r>    -1.5448    -0.0000    48.0000 </r>
       <r>    -1.3392    -0.0000    48.0000 </r>
       <r>    -1.1336    -0.0001    48.0000 </r>
       <r>    -0.9279    -0.0039    47.9992 </r>
       <r>    -0.7223    -0.0134    47.9964 </r>
       <r>    -0.5167     0.2248    48.0427 </r>
       <r>    -0.3111     0.9165    48.2311 </r>
       <r>    -0.1054     1.7484    48.5906 </r>
       <r>     0.1002     2.0139    49.0047 </r>
       <r>     0.3058     1.6328    49.3405 </r>
       <r>     0.5115     2.5177    49.8582 </r>
       <r>     0.7171     3.4726    50.5723 </r>
       <r>     0.9227     3.5960    51.3117 </r>
       <r>     1.1284     2.6824    51.8633 </r>
       <r>     1.3340     4.3933    52.7667 </r>
       <r>     1.5396     4.8593    53.7659 </r>
       <r>     1.7452     5.5024    54.8974 </r>
       <r>     1.9509     7.2206    56.3822 </r>
       <r>     2.1565     8.3983    58.1091 </r>
       <r>     2.3621    12.4907    60.6776 </r>
       <r>     2.5678    20.4549    64.8837 </r>
       <r>     2.7734    24.8739    69.9986 </r>
       <r>     2.9790    28.8992    75.9411 </r>
       <r>     3.1847    31.3319    82.3839 </r>
       <r>     3.3903    32.1372    88.9923 </r>
       <r>     3.5959    33.7584    95.9340 </r>
       <r>     3.8016    32.9888   102.7175 </r>
       <r>     4.0072    28.5452   108.5873 </r>
       <r>     4.2128    22.9872   113.3142 </r>
       <r>     4.4184    31.8334   119.8601 </r>
       <r>     4.6241    42.4252   128.5840 </r>
       <r>     4.8297    48.9655   138.6527 </r>
       <r>     5.0353    49.3123   148.7928 </r>
       <r>     5.2410    46.4283   158.3399 </r>
       <r>     5.4466    46.2725   167.8549 </r>
       <r>     5.6522    51.5266   178.4503 </r>
       <r>     5.8579    55.8767   189.9403 </r>
       <r>     6.0635    51.1441   200.4570 </r>
       <r>     6.2691    43.1414   209.3282 </r>
       <r>     6.4747    30.6606   215.6330 </r>
       <r>     6.6804    17.8780   219.3092 </r>
       <r>     6.8860    13.4758   222.0803 </r>
       <r>     7.0916    15.5552   225.2789 </r>
       <r>     7.2973    18.8364   229.1522 </r>
       <r>     7.5029    21.8520   233.6457 </r>
       <r>     7.7085    19.5979   237.6756 </r>
       <r>     7.9142     9.8866   239.7086 </r>
       <r>     8.1198     1.6635   240.0506 </r>
       <r>     8.3254    -0.2223   240.0049 </r>
       <r>     8.5310    -0.0237   240.0000 </r>
       <r>     8.7367    -0.0002   240.0000 </r>
       <r>     8.9423    -0.0000   240.0000 </r>
       <r>     9.1479    -0.0000   240.0000 </r>
       <r>     9.3536    -0.0000   240.0000 </r>
       <r>     9.5592     0.0000   240.0000 </r>
       <r>     9.7648     0.0000   240.0000 </r>
       <r>     9.9705     0.0000   240.0000 </r>
       <r>    10.1761     0.0000   240.0000 </r>
       <r>    10.3817     0.0000   240.0000 </r>
       <r>    10.5873     0.0000   240.0000 </r>
       <r>    10.7930     0.0000   240.0000 </r>
      </set>
     </set>
    </array>
   </total>
  </dos>
 </calculation>
 <structure name="finalpos" >
  <crystal>
   <varray name="basis" >
    <v>      -3.24000000      -3.24000000      -3.24000000 </v>
    <v>       1.62000000       1.62000000      -8.10000000 </v>
    <v>       8.10000000      -8.10000000      -1.62000000 </v>
   </varray>
   <i name="volume">    510.18336000 </i>
   <varray name="rec_basis" >
    <v>      -0.13374486      -0.12345679      -0.05144033 </v>
    <v>       0.04115226       0.06172840      -0.10288066 </v>
    <v>       0.06172840      -0.06172840       0.00000000 </v>
   </varray>
  </crystal>
  <varray name="positions" >
   <v>       0.96666667       0.93333333       0.40000000 </v>
   <v>       0.63333333       0.26666667       0.40000000 </v>
   <v>       0.50000000       0.00000000       0.00000000 </v>
   <v>       0.00000000       0.00000000       0.00000000 </v>
   <v>       0.10000000       0.20000000       0.80000000 </v>
   <v>       0.03333333       0.06666667       0.60000000 </v>
   <v>       0.90000000       0.80000000       0.20000000 </v>
   <v>       0.80000000       0.60000000       0.40000000 </v>
   <v>       0.73333333       0.46666667       0.20000000 </v>
   <v>       0.66666667       0.33333333       0.00000000 </v>
   <v>       0.36666667       0.73333333       0.60000000 </v>
   <v>       0.13333333       0.26666667       0.40000000 </v>
   <v>       0.83333333       0.66666667       0.00000000 </v>
   <v>       0.93333333       0.86666667       0.80000000 </v>
   <v>       0.56666667       0.13333333       0.20000000 </v>
   <v>       0.40000000       0.80000000       0.20000000 </v>
   <v>       0.43333333       0.86666667       0.80000000 </v>
   <v>       0.30000000       0.60000000       0.40000000 </v>
   <v>       0.86666667       0.73333333       0.60000000 </v>
   <v>       0.46666667       0.93333333       0.40000000 </v>
   <v>       0.16666667       0.33333333       0.00000000 </v>
   <v>       0.26666667       0.53333333       0.80000000 </v>
   <v>       0.20000000       0.40000000       0.60000000 </v>
   <v>       0.06666667       0.13333333       0.20000000 </v>
   <v>       0.76666667       0.53333333       0.80000000 </v>
   <v>       0.70000000       0.40000000       0.60000000 </v>
   <v>       0.60000000       0.20000000       0.80000000 </v>
   <v>       0.53333333       0.06666667       0.60000000 </v>
   <v>       0.33333333       0.66666667       0.00000000 </v>
   <v>       0.23333333       0.46666667       0.20000000 </v>
  </varray>
 </structure>
</modeling>
