  30  30   0   0
  0.1592751E+02  0.5490601E-09  0.8235902E-09  0.1131916E-08  0.5000000E-15
  1.000000000000000E-004
  CAR 
 Nb - Mo - Ta - Ti - V SQS               
     11.58970996    -50.14648474  301      6.63947883      1.00000000
    -50.146  0.0000E+00  0.0000E+00
    -49.941  0.0000E+00  0.0000E+00
    -49.735  0.0000E+00  0.0000E+00
    -49.529  0.0000E+00  0.0000E+00
    -49.323  0.0000E+00  0.0000E+00
    -49.118 -0.1004E-32 -0.2066E-33
    -48.912 -0.2916E-25 -0.6000E-26
    -48.706 -0.9924E-19 -0.2042E-19
    -48.500 -0.3907E-13 -0.8041E-14
    -48.294 -0.1859E-08 -0.3827E-09
    -48.089 -0.1033E-04 -0.2127E-05
    -47.883 -0.6518E-02 -0.1344E-02
    -47.677 -0.4141E+00 -0.8656E-01
    -47.471 -0.5324E-01 -0.9752E-01
    -47.265  0.2492E+02  0.5031E+01
    -47.060  0.3140E+02  0.1149E+02
    -46.854  0.3220E+01  0.1216E+02
    -46.648 -0.7273E+00  0.1201E+02
    -46.442 -0.3072E-01  0.1200E+02
    -46.237 -0.1265E-03  0.1200E+02
    -46.031 -0.6002E-07  0.1200E+02
    -45.825 -0.3351E-11  0.1200E+02
    -45.619  0.0000E+00  0.1200E+02
    -45.413  0.0000E+00  0.1200E+02
    -45.208  0.0000E+00  0.1200E+02
    -45.002  0.0000E+00  0.1200E+02
    -44.796  0.0000E+00  0.1200E+02
    -44.590  0.0000E+00  0.1200E+02
    -44.384  0.0000E+00  0.1200E+02
    -44.179  0.0000E+00  0.1200E+02
    -43.973  0.0000E+00  0.1200E+02
    -43.767  0.0000E+00  0.1200E+02
    -43.561  0.0000E+00  0.1200E+02
    -43.356  0.0000E+00  0.1200E+02
    -43.150  0.0000E+00  0.1200E+02
    -42.944  0.0000E+00  0.1200E+02
    -42.738  0.0000E+00  0.1200E+02
    -42.532  0.0000E+00  0.1200E+02
    -42.327  0.0000E+00  0.1200E+02
    -42.121  0.0000E+00  0.1200E+02
    -41.915  0.0000E+00  0.1200E+02
    -41.709  0.0000E+00  0.1200E+02
    -41.503  0.0000E+00  0.1200E+02
    -41.298  0.0000E+00  0.1200E+02
    -41.092  0.0000E+00  0.1200E+02
    -40.886  0.0000E+00  0.1200E+02
    -40.680  0.0000E+00  0.1200E+02
    -40.474  0.0000E+00  0.1200E+02
    -40.269  0.0000E+00  0.1200E+02
    -40.063  0.0000E+00  0.1200E+02
    -39.857  0.0000E+00  0.1200E+02
    -39.651  0.0000E+00  0.1200E+02
    -39.446  0.0000E+00  0.1200E+02
    -39.240  0.0000E+00  0.1200E+02
    -39.034  0.0000E+00  0.1200E+02
    -38.828  0.0000E+00  0.1200E+02
    -38.622  0.0000E+00  0.1200E+02
    -38.417  0.0000E+00  0.1200E+02
    -38.211  0.0000E+00  0.1200E+02
    -38.005  0.0000E+00  0.1200E+02
    -37.799  0.0000E+00  0.1200E+02
    -37.593  0.0000E+00  0.1200E+02
    -37.388  0.0000E+00  0.1200E+02
    -37.182  0.0000E+00  0.1200E+02
    -36.976  0.0000E+00  0.1200E+02
    -36.770  0.0000E+00  0.1200E+02
    -36.565  0.0000E+00  0.1200E+02
    -36.359  0.0000E+00  0.1200E+02
    -36.153  0.0000E+00  0.1200E+02
    -35.947  0.0000E+00  0.1200E+02
    -35.741  0.0000E+00  0.1200E+02
    -35.536  0.0000E+00  0.1200E+02
    -35.330  0.0000E+00  0.1200E+02
    -35.124  0.0000E+00  0.1200E+02
    -34.918  0.0000E+00  0.1200E+02
    -34.712  0.0000E+00  0.1200E+02
    -34.507  0.0000E+00  0.1200E+02
    -34.301  0.0000E+00  0.1200E+02
    -34.095  0.0000E+00  0.1200E+02
    -33.889  0.0000E+00  0.1200E+02
    -33.683  0.0000E+00  0.1200E+02
    -33.478  0.0000E+00  0.1200E+02
    -33.272  0.0000E+00  0.1200E+02
    -33.066  0.0000E+00  0.1200E+02
    -32.860  0.0000E+00  0.1200E+02
    -32.655  0.0000E+00  0.1200E+02
    -32.449  0.0000E+00  0.1200E+02
    -32.243  0.0000E+00  0.1200E+02
    -32.037  0.0000E+00  0.1200E+02
    -31.831  0.0000E+00  0.1200E+02
    -31.626  0.0000E+00  0.1200E+02
    -31.420  0.0000E+00  0.1200E+02
    -31.214  0.0000E+00  0.1200E+02
    -31.008  0.0000E+00  0.1200E+02
    -30.802  0.0000E+00  0.1200E+02
    -30.597  0.0000E+00  0.1200E+02
    -30.391  0.0000E+00  0.1200E+02
    -30.185  0.0000E+00  0.1200E+02
    -29.979  0.0000E+00  0.1200E+02
    -29.774  0.0000E+00  0.1200E+02
    -29.568  0.0000E+00  0.1200E+02
    -29.362  0.0000E+00  0.1200E+02
    -29.156  0.0000E+00  0.1200E+02
    -28.950  0.0000E+00  0.1200E+02
    -28.745  0.0000E+00  0.1200E+02
    -28.539  0.0000E+00  0.1200E+02
    -28.333  0.0000E+00  0.1200E+02
    -28.127  0.0000E+00  0.1200E+02
    -27.921  0.0000E+00  0.1200E+02
    -27.716  0.0000E+00  0.1200E+02
    -27.510  0.0000E+00  0.1200E+02
    -27.304  0.0000E+00  0.1200E+02
    -27.098  0.0000E+00  0.1200E+02
    -26.893  0.0000E+00  0.1200E+02
    -26.687  0.0000E+00  0.1200E+02
    -26.481  0.0000E+00  0.1200E+02
    -26.275  0.0000E+00  0.1200E+02
    -26.069  0.0000E+00  0.1200E+02
    -25.864 -0.4089E-33  0.1200E+02
    -25.658 -0.1035E-25  0.1200E+02
    -25.452 -0.3100E-19  0.1200E+02
    -25.246 -0.1062E-13  0.1200E+02
    -25.040 -0.4345E-09  0.1200E+02
    -24.835 -0.2061E-05  0.1200E+02
    -24.629 -0.1136E-02  0.1200E+02
    -24.423 -0.7275E-01  0.1198E+02
    -24.217 -0.2812E+00  0.1193E+02
    -24.011  0.4819E+01  0.1292E+02
    -23.806  0.1522E+02  0.1605E+02
    -23.600  0.1985E+02  0.2014E+02
    -23.394  0.5382E+02  0.3121E+02
    -23.188  0.4966E+02  0.4143E+02
    -22.983  0.2112E+02  0.4578E+02
    -22.777  0.9399E+01  0.4771E+02
    -22.571  0.1592E+01  0.4804E+02
    -22.365 -0.1687E+00  0.4801E+02
    -22.159 -0.2878E-01  0.4800E+02
    -21.954 -0.3480E-03  0.4800E+02
    -21.748 -0.4397E-06  0.4800E+02
    -21.542 -0.6179E-10  0.4800E+02
    -21.336 -0.8632E-15  0.4800E+02
    -21.130  0.0000E+00  0.4800E+02
    -20.925  0.0000E+00  0.4800E+02
    -20.719  0.0000E+00  0.4800E+02
    -20.513  0.0000E+00  0.4800E+02
    -20.307  0.0000E+00  0.4800E+02
    -20.102  0.0000E+00  0.4800E+02
    -19.896  0.0000E+00  0.4800E+02
    -19.690  0.0000E+00  0.4800E+02
    -19.484  0.0000E+00  0.4800E+02
    -19.278  0.0000E+00  0.4800E+02
    -19.073  0.0000E+00  0.4800E+02
    -18.867  0.0000E+00  0.4800E+02
    -18.661  0.0000E+00  0.4800E+02
    -18.455  0.0000E+00  0.4800E+02
    -18.249  0.0000E+00  0.4800E+02
    -18.044  0.0000E+00  0.4800E+02
    -17.838  0.0000E+00  0.4800E+02
    -17.632  0.0000E+00  0.4800E+02
    -17.426  0.0000E+00  0.4800E+02
    -17.221  0.0000E+00  0.4800E+02
    -17.015  0.0000E+00  0.4800E+02
    -16.809  0.0000E+00  0.4800E+02
    -16.603  0.0000E+00  0.4800E+02
    -16.397  0.0000E+00  0.4800E+02
    -16.192  0.0000E+00  0.4800E+02
    -15.986  0.0000E+00  0.4800E+02
    -15.780  0.0000E+00  0.4800E+02
    -15.574  0.0000E+00  0.4800E+02
    -15.368  0.0000E+00  0.4800E+02
    -15.163  0.0000E+00  0.4800E+02
    -14.957  0.0000E+00  0.4800E+02
    -14.751  0.0000E+00  0.4800E+02
    -14.545  0.0000E+00  0.4800E+02
    -14.339  0.0000E+00  0.4800E+02
    -14.134  0.0000E+00  0.4800E+02
    -13.928  0.0000E+00  0.4800E+02
    -13.722  0.0000E+00  0.4800E+02
    -13.516  0.0000E+00  0.4800E+02
    -13.311  0.0000E+00  0.4800E+02
    -13.105  0.0000E+00  0.4800E+02
    -12.899  0.0000E+00  0.4800E+02
    -12.693  0.0000E+00  0.4800E+02
    -12.487  0.0000E+00  0.4800E+02
    -12.282  0.0000E+00  0.4800E+02
    -12.076  0.0000E+00  0.4800E+02
    -11.870  0.0000E+00  0.4800E+02
    -11.664  0.0000E+00  0.4800E+02
    -11.458  0.0000E+00  0.4800E+02
    -11.253  0.0000E+00  0.4800E+02
    -11.047  0.0000E+00  0.4800E+02
    -10.841  0.0000E+00  0.4800E+02
    -10.635  0.0000E+00  0.4800E+02
    -10.430  0.0000E+00  0.4800E+02
    -10.224  0.0000E+00  0.4800E+02
    -10.018  0.0000E+00  0.4800E+02
     -9.812  0.0000E+00  0.4800E+02
     -9.606  0.0000E+00  0.4800E+02
     -9.401  0.0000E+00  0.4800E+02
     -9.195  0.0000E+00  0.4800E+02
     -8.989  0.0000E+00  0.4800E+02
     -8.783  0.0000E+00  0.4800E+02
     -8.577  0.0000E+00  0.4800E+02
     -8.372  0.0000E+00  0.4800E+02
     -8.166  0.0000E+00  0.4800E+02
     -7.960  0.0000E+00  0.4800E+02
     -7.754  0.0000E+00  0.4800E+02
     -7.549  0.0000E+00  0.4800E+02
     -7.343  0.0000E+00  0.4800E+02
     -7.137  0.0000E+00  0.4800E+02
     -6.931  0.0000E+00  0.4800E+02
     -6.725  0.0000E+00  0.4800E+02
     -6.520  0.0000E+00  0.4800E+02
     -6.314  0.0000E+00  0.4800E+02
     -6.108  0.0000E+00  0.4800E+02
     -5.902  0.0000E+00  0.4800E+02
     -5.696  0.0000E+00  0.4800E+02
     -5.491  0.0000E+00  0.4800E+02
     -5.285  0.0000E+00  0.4800E+02
     -5.079  0.0000E+00  0.4800E+02
     -4.873  0.0000E+00  0.4800E+02
     -4.667  0.0000E+00  0.4800E+02
     -4.462  0.0000E+00  0.4800E+02
     -4.256  0.0000E+00  0.4800E+02
     -4.050  0.0000E+00  0.4800E+02
     -3.844  0.0000E+00  0.4800E+02
     -3.639  0.0000E+00  0.4800E+02
     -3.433  0.0000E+00  0.4800E+02
     -3.227  0.0000E+00  0.4800E+02
     -3.021  0.0000E+00  0.4800E+02
     -2.815  0.0000E+00  0.4800E+02
     -2.610  0.0000E+00  0.4800E+02
     -2.404  0.0000E+00  0.4800E+02
     -2.198  0.0000E+00  0.4800E+02
     -1.992  0.0000E+00  0.4800E+02
     -1.786 -0.2607E-29  0.4800E+02
     -1.581 -0.1532E-22  0.4800E+02
     -1.375 -0.1070E-16  0.4800E+02
     -1.169 -0.8562E-12  0.4800E+02
     -0.963 -0.8321E-08  0.4800E+02
     -0.758 -0.9520E-05  0.4800E+02
     -0.552 -0.1244E-02  0.4800E+02
     -0.346 -0.1399E-01  0.4800E+02
     -0.140  0.8971E-01  0.4802E+02
      0.066  0.5865E+00  0.4814E+02
      0.271  0.1300E+01  0.4840E+02
      0.477  0.1948E+01  0.4880E+02
      0.683  0.1644E+01  0.4914E+02
      0.889  0.1752E+01  0.4950E+02
      1.095  0.2805E+01  0.5008E+02
      1.300  0.3478E+01  0.5080E+02
      1.506  0.3218E+01  0.5146E+02
      1.712  0.2751E+01  0.5202E+02
      1.918  0.4705E+01  0.5299E+02
      2.123  0.4779E+01  0.5398E+02
      2.329  0.6205E+01  0.5525E+02
      2.535  0.8567E+01  0.5702E+02
      2.741  0.1364E+02  0.5982E+02
      2.947  0.1977E+02  0.6389E+02
      3.152  0.2326E+02  0.6868E+02
      3.358  0.2813E+02  0.7447E+02
      3.564  0.3125E+02  0.8090E+02
      3.770  0.3089E+02  0.8725E+02
      3.976  0.3164E+02  0.9377E+02
      4.181  0.3198E+02  0.1003E+03
      4.387  0.2998E+02  0.1065E+03
      4.593  0.2391E+02  0.1114E+03
      4.799  0.2575E+02  0.1167E+03
      5.005  0.3565E+02  0.1241E+03
      5.210  0.4264E+02  0.1328E+03
      5.416  0.4584E+02  0.1423E+03
      5.622  0.4477E+02  0.1515E+03
      5.828  0.4094E+02  0.1599E+03
      6.033  0.4130E+02  0.1684E+03
      6.239  0.4645E+02  0.1780E+03
      6.445  0.5116E+02  0.1885E+03
      6.651  0.4868E+02  0.1985E+03
      6.857  0.4259E+02  0.2073E+03
      7.062  0.3121E+02  0.2137E+03
      7.268  0.1953E+02  0.2177E+03
      7.474  0.1301E+02  0.2204E+03
      7.680  0.1339E+02  0.2232E+03
      7.886  0.1693E+02  0.2266E+03
      8.091  0.1942E+02  0.2306E+03
      8.297  0.2050E+02  0.2349E+03
      8.503  0.1592E+02  0.2381E+03
      8.709  0.7950E+01  0.2398E+03
      8.914  0.1304E+01  0.2400E+03
      9.120 -0.1814E+00  0.2400E+03
      9.326 -0.1823E-01  0.2400E+03
      9.532 -0.1853E-03  0.2400E+03
      9.738 -0.2428E-06  0.2400E+03
      9.943 -0.4004E-10  0.2400E+03
     10.149 -0.8287E-15  0.2400E+03
     10.355  0.0000E+00  0.2400E+03
     10.561  0.0000E+00  0.2400E+03
     10.767  0.0000E+00  0.2400E+03
     10.972  0.0000E+00  0.2400E+03
     11.178  0.0000E+00  0.2400E+03
     11.384  0.0000E+00  0.2400E+03
     11.590  0.0000E+00  0.2400E+03
