   30   30    1    1
  0.1592751E+02  0.5490601E-09  0.8235902E-09  0.1131916E-08  0.5000000E-15
  1.000000000000000E-004
  CAR 
 Nb - Mo - Ta - Ti - V SQS               
    198     63    120
 
  0.0000000E+00  0.0000000E+00  0.0000000E+00  0.8000000E-02
    1      -47.340294   1.000000
    2      -47.318290   1.000000
    3      -47.275448   1.000000
    4      -47.221539   1.000000
    5      -47.189192   1.000000
    6      -47.094700   1.000000
    7      -24.092157   1.000000
    8      -23.934484   1.000000
    9      -23.776405   1.000000
   10      -23.731502   1.000000
   11      -23.505756   1.000000
   12      -23.500124   1.000000
   13      -23.494751   1.000000
   14      -23.445087   1.000000
   15      -23.427852   1.000000
   16      -23.408975   1.000000
   17      -23.380614   1.000000
   18      -23.338114   1.000000
   19      -23.300023   1.000000
   20      -23.278306   1.000000
   21      -23.134716   1.000000
   22      -23.115854   1.000000
   23      -22.965443   1.000000
   24      -22.737100   1.000000
   25       -0.156639   1.000000
   26        1.148649   1.000000
   27        1.507522   1.000000
   28        2.299639   1.000000
   29        2.426393   1.000000
   30        2.507714   1.000000
   31        2.610311   1.000000
   32        2.735409   1.000000
   33        2.787202   1.000000
   34        2.862551   1.000000
   35        2.929100   1.000000
   36        2.977774   1.000000
   37        3.038406   1.000000
   38        3.097790   1.000000
   39        3.206477   1.000000
   40        3.241789   1.000000
   41        3.332157   1.000000
   42        3.422421   1.000000
   43        3.528607   1.000000
   44        3.580334   1.000000
   45        3.661292   1.000000
   46        3.703203   1.000000
   47        3.754589   1.000000
   48        3.771557   1.000000
   49        3.945713   1.000000
   50        3.974012   1.000000
   51        4.071580   1.000000
   52        4.117642   1.000000
   53        4.203325   1.000000
   54        4.244054   1.000000
   55        4.375760   1.000000
   56        4.451102   1.000000
   57        4.536381   1.000000
   58        4.586033   1.000000
   59        4.712353   1.000000
   60        4.749279   1.000000
   61        4.832538   1.000000
   62        4.878132   1.000000
   63        4.885564   1.000000
   64        4.981457   1.000000
   65        4.986845   1.000000
   66        5.081023   1.000000
   67        5.094204   1.000000
   68        5.181851   1.000000
   69        5.196313   1.000000
   70        5.251855   1.000000
   71        5.310780   1.000000
   72        5.339480   1.000000
   73        5.399322   1.000000
   74        5.444653   1.000000
   75        5.456265   1.000000
   76        5.475077   1.000000
   77        5.492345   1.000000
   78        5.616365   1.000000
   79        5.680794   1.000000
   80        5.770835   1.000000
   81        5.951195   1.000006
   82        6.000749   1.000030
   83        6.042597   1.000102
   84        6.081495   1.000288
   85        6.137333   1.001104
   86        6.200129   1.004024
   87        6.251388   1.009644
   88        6.290491   1.016634
   89        6.294956   1.017573
   90        6.326453   1.024680
   91        6.354382   1.030804
   92        6.376325   1.034333
   93        6.406121   1.034898
   94        6.474810   0.995781
   95        6.632713   0.528609
   96        6.661691   0.406650
   97        6.745477   0.113877
   98        6.774319   0.049457
   99        6.819657  -0.011551
  100        6.912183  -0.033019
  101        6.975863  -0.019342
  102        7.012085  -0.012129
  103        7.064060  -0.005268
  104        7.077416  -0.004132
  105        7.103827  -0.002474
  106        7.229812  -0.000122
  107        7.472367  -0.000000
  108        7.624995  -0.000000
  109        7.664405  -0.000000
  110        7.750260  -0.000000
  111        8.106383  -0.000000
  112        8.268465  -0.000000
  113        8.414396  -0.000000
  114        8.509837  -0.000000
  115        8.569196  -0.000000
  116        8.573551  -0.000000
  117        8.599682  -0.000000
  118        8.624898  -0.000000
  119        8.701158  -0.000000
  120        8.717514  -0.000000
 
  0.2000000E+00  0.0000000E+00 -0.1387779E-16  0.1600000E-01
    1      -47.337610   1.000000
    2      -47.312189   1.000000
    3      -47.272715   1.000000
    4      -47.220365   1.000000
    5      -47.188590   1.000000
    6      -47.107359   1.000000
    7      -23.994735   1.000000
    8      -23.922041   1.000000
    9      -23.769264   1.000000
   10      -23.725191   1.000000
   11      -23.504631   1.000000
   12      -23.502769   1.000000
   13      -23.491470   1.000000
   14      -23.447457   1.000000
   15      -23.426725   1.000000
   16      -23.413723   1.000000
   17      -23.382929   1.000000
   18      -23.341681   1.000000
   19      -23.310373   1.000000
   20      -23.281154   1.000000
   21      -23.140714   1.000000
   22      -23.121718   1.000000
   23      -22.967692   1.000000
   24      -22.866133   1.000000
   25        0.158600   1.000000
   26        1.426848   1.000000
   27        1.773542   1.000000
   28        2.351531   1.000000
   29        2.644157   1.000000
   30        2.747801   1.000000
   31        2.788553   1.000000
   32        2.907294   1.000000
   33        2.935846   1.000000
   34        2.983205   1.000000
   35        3.118302   1.000000
   36        3.180953   1.000000
   37        3.231520   1.000000
   38        3.328129   1.000000
   39        3.350999   1.000000
   40        3.416980   1.000000
   41        3.466382   1.000000
   42        3.539657   1.000000
   43        3.586698   1.000000
   44        3.625127   1.000000
   45        3.747262   1.000000
   46        3.795137   1.000000
   47        3.859946   1.000000
   48        3.952420   1.000000
   49        4.012849   1.000000
   50        4.035084   1.000000
   51        4.151990   1.000000
   52        4.228360   1.000000
   53        4.253797   1.000000
   54        4.347081   1.000000
   55        4.402063   1.000000
   56        4.476845   1.000000
   57        4.554990   1.000000
   58        4.635446   1.000000
   59        4.752551   1.000000
   60        4.809972   1.000000
   61        4.870667   1.000000
   62        5.001430   1.000000
   63        5.025864   1.000000
   64        5.092701   1.000000
   65        5.123616   1.000000
   66        5.161928   1.000000
   67        5.213695   1.000000
   68        5.271983   1.000000
   69        5.292183   1.000000
   70        5.305346   1.000000
   71        5.373955   1.000000
   72        5.404091   1.000000
   73        5.469254   1.000000
   74        5.490072   1.000000
   75        5.569169   1.000000
   76        5.602443   1.000000
   77        5.623375   1.000000
   78        5.659100   1.000000
   79        5.704807   1.000000
   80        5.743624   1.000000
   81        5.762015   1.000000
   82        5.858335   1.000000
   83        5.912834   1.000002
   84        5.974616   1.000014
   85        6.041091   1.000098
   86        6.091657   1.000373
   87        6.119893   1.000739
   88        6.208931   1.004733
   89        6.302443   1.019198
   90        6.313744   1.021745
   91        6.355221   1.030968
   92        6.382608   1.034954
   93        6.422096   1.031955
   94        6.456838   1.013618
   95        6.541594   0.864235
   96        6.559308   0.810901
   97        6.623537   0.567220
   98        6.655877   0.430871
   99        6.720239   0.187209
  100        6.769537   0.058693
  101        6.794360   0.016793
  102        6.841566  -0.026177
  103        6.936379  -0.028337
  104        6.959321  -0.023102
  105        7.004092  -0.013561
  106        7.033834  -0.008749
  107        7.070117  -0.004725
  108        7.268357  -0.000041
  109        7.394360  -0.000001
  110        7.494619  -0.000000
  111        7.795951  -0.000000
  112        7.823167  -0.000000
  113        7.873176  -0.000000
  114        7.911583  -0.000000
  115        8.011226  -0.000000
  116        8.173388  -0.000000
  117        8.225488  -0.000000
  118        8.283415  -0.000000
  119        8.301504  -0.000000
  120        8.334966  -0.000000
 
  0.4000000E+00  0.0000000E+00 -0.2775558E-16  0.1600000E-01
    1      -47.334663   1.000000
    2      -47.301888   1.000000
    3      -47.265133   1.000000
    4      -47.216621   1.000000
    5      -47.186380   1.000000
    6      -47.133117   1.000000
    7      -23.945637   1.000000
    8      -23.791689   1.000000
    9      -23.741564   1.000000
   10      -23.617304   1.000000
   11      -23.512505   1.000000
   12      -23.506170   1.000000
   13      -23.477504   1.000000
   14      -23.449540   1.000000
   15      -23.426246   1.000000
   16      -23.413767   1.000000
   17      -23.387344   1.000000
   18      -23.349271   1.000000
   19      -23.333284   1.000000
   20      -23.286854   1.000000
   21      -23.221674   1.000000
   22      -23.145941   1.000000
   23      -23.111801   1.000000
   24      -22.961989   1.000000
   25        1.002317   1.000000
   26        1.951497   1.000000
   27        2.284835   1.000000
   28        2.500761   1.000000
   29        2.579514   1.000000
   30        2.938660   1.000000
   31        2.995326   1.000000
   32        3.173300   1.000000
   33        3.274778   1.000000
   34        3.341803   1.000000
   35        3.387304   1.000000
   36        3.430018   1.000000
   37        3.490371   1.000000
   38        3.525956   1.000000
   39        3.617486   1.000000
   40        3.677596   1.000000
   41        3.752016   1.000000
   42        3.786327   1.000000
   43        3.808939   1.000000
   44        3.891187   1.000000
   45        3.995405   1.000000
   46        4.000190   1.000000
   47        4.076588   1.000000
   48        4.110459   1.000000
   49        4.208772   1.000000
   50        4.233226   1.000000
   51        4.368393   1.000000
   52        4.422394   1.000000
   53        4.481813   1.000000
   54        4.564238   1.000000
   55        4.622156   1.000000
   56        4.693024   1.000000
   57        4.765723   1.000000
   58        4.815113   1.000000
   59        4.845509   1.000000
   60        4.907782   1.000000
   61        4.937635   1.000000
   62        4.983738   1.000000
   63        5.043601   1.000000
   64        5.074468   1.000000
   65        5.109601   1.000000
   66        5.190934   1.000000
   67        5.216237   1.000000
   68        5.246584   1.000000
   69        5.285497   1.000000
   70        5.350806   1.000000
   71        5.398909   1.000000
   72        5.455530   1.000000
   73        5.493158   1.000000
   74        5.538535   1.000000
   75        5.578369   1.000000
   76        5.641300   1.000000
   77        5.694672   1.000000
   78        5.720108   1.000000
   79        5.731075   1.000000
   80        5.780896   1.000000
   81        5.875153   1.000000
   82        5.918702   1.000002
   83        5.953689   1.000007
   84        5.996738   1.000027
   85        6.052193   1.000133
   86        6.095563   1.000411
   87        6.161519   1.001868
   88        6.197161   1.003806
   89        6.233960   1.007305
   90        6.262461   1.011382
   91        6.294832   1.017547
   92        6.333588   1.026321
   93        6.362837   1.032368
   94        6.398937   1.035381
   95        6.403341   1.035140
   96        6.485486   0.981959
   97        6.530827   0.892925
   98        6.566166   0.788314
   99        6.602885   0.652003
  100        6.613244   0.609958
  101        6.655836   0.431043
  102        6.704939   0.238777
  103        6.711424   0.216312
  104        6.794457   0.016658
  105        6.802017   0.006776
  106        6.876846  -0.035225
  107        6.928864  -0.029939
  108        6.957455  -0.023534
  109        6.982243  -0.017949
  110        7.053091  -0.006377
  111        7.092123  -0.003122
  112        7.138245  -0.001190
  113        7.423804  -0.000000
  114        7.546113  -0.000000
  115        7.568648  -0.000000
  116        7.702913  -0.000000
  117        7.788275  -0.000000
  118        7.807804  -0.000000
  119        7.928784  -0.000000
  120        8.041428  -0.000000
 
  0.1387779E-16  0.2000000E+00  0.0000000E+00  0.1600000E-01
    1      -47.340163   1.000000
    2      -47.318105   1.000000
    3      -47.275424   1.000000
    4      -47.221781   1.000000
    5      -47.189291   1.000000
    6      -47.094697   1.000000
    7      -24.092158   1.000000
    8      -23.933286   1.000000
    9      -23.772555   1.000000
   10      -23.730484   1.000000
   11      -23.505878   1.000000
   12      -23.500187   1.000000
   13      -23.494884   1.000000
   14      -23.445164   1.000000
   15      -23.427848   1.000000
   16      -23.408871   1.000000
   17      -23.380485   1.000000
   18      -23.338036   1.000000
   19      -23.300051   1.000000
   20      -23.278389   1.000000
   21      -23.137273   1.000000
   22      -23.119911   1.000000
   23      -22.965824   1.000000
   24      -22.737105   1.000000
   25       -0.023940   1.000000
   26        1.214104   1.000000
   27        1.629176   1.000000
   28        1.848425   1.000000
   29        2.408566   1.000000
   30        2.560166   1.000000
   31        2.635120   1.000000
   32        2.744106   1.000000
   33        2.765488   1.000000
   34        2.851231   1.000000
   35        2.949692   1.000000
   36        3.005047   1.000000
   37        3.047177   1.000000
   38        3.090461   1.000000
   39        3.150160   1.000000
   40        3.191552   1.000000
   41        3.359172   1.000000
   42        3.402727   1.000000
   43        3.503887   1.000000
   44        3.574721   1.000000
   45        3.670172   1.000000
   46        3.759477   1.000000
   47        3.781309   1.000000
   48        3.884599   1.000000
   49        3.923264   1.000000
   50        4.012331   1.000000
   51        4.084074   1.000000
   52        4.152413   1.000000
   53        4.179225   1.000000
   54        4.239128   1.000000
   55        4.313380   1.000000
   56        4.395013   1.000000
   57        4.490069   1.000000
   58        4.653941   1.000000
   59        4.734659   1.000000
   60        4.799921   1.000000
   61        4.839572   1.000000
   62        4.950566   1.000000
   63        4.985198   1.000000
   64        5.034684   1.000000
   65        5.082978   1.000000
   66        5.115498   1.000000
   67        5.174941   1.000000
   68        5.226454   1.000000
   69        5.251066   1.000000
   70        5.280781   1.000000
   71        5.335478   1.000000
   72        5.364513   1.000000
   73        5.403576   1.000000
   74        5.465760   1.000000
   75        5.506514   1.000000
   76        5.537499   1.000000
   77        5.585562   1.000000
   78        5.610123   1.000000
   79        5.721182   1.000000
   80        5.756860   1.000000
   81        5.962505   1.000009
   82        5.984618   1.000019
   83        6.061270   1.000170
   84        6.089962   1.000357
   85        6.129313   1.000920
   86        6.140830   1.001193
   87        6.174731   1.002454
   88        6.225072   1.006291
   89        6.267521   1.012241
   90        6.285033   1.015522
   91        6.325148   1.024378
   92        6.359028   1.031689
   93        6.397585   1.035421
   94        6.436169   1.026760
   95        6.489761   0.975701
   96        6.501086   0.957038
   97        6.570168   0.774668
   98        6.630448   0.538171
   99        6.683076   0.320298
  100        6.957723  -0.023472
  101        6.995988  -0.015111
  102        7.019489  -0.010893
  103        7.105172  -0.002407
  104        7.165900  -0.000629
  105        7.280200  -0.000029
  106        7.314409  -0.000010
  107        7.448453  -0.000000
  108        7.620751  -0.000000
  109        7.661164  -0.000000
  110        7.744437  -0.000000
  111        7.852629  -0.000000
  112        7.935649  -0.000000
  113        8.066407  -0.000000
  114        8.263751  -0.000000
  115        8.339384  -0.000000
  116        8.469617  -0.000000
  117        8.495892  -0.000000
  118        8.555432  -0.000000
  119        8.591124  -0.000000
  120        8.643731  -0.000000
 
  0.2000000E+00  0.2000000E+00 -0.4857226E-16  0.1600000E-01
    1      -47.337768   1.000000
    2      -47.312345   1.000000
    3      -47.272721   1.000000
    4      -47.220137   1.000000
    5      -47.188498   1.000000
    6      -47.107362   1.000000
    7      -23.994860   1.000000
    8      -23.923134   1.000000
    9      -23.773345   1.000000
   10      -23.725792   1.000000
   11      -23.504682   1.000000
   12      -23.502742   1.000000
   13      -23.491406   1.000000
   14      -23.447502   1.000000
   15      -23.426649   1.000000
   16      -23.413665   1.000000
   17      -23.382942   1.000000
   18      -23.341715   1.000000
   19      -23.310314   1.000000
   20      -23.281097   1.000000
   21      -23.138764   1.000000
   22      -23.117250   1.000000
   23      -22.967340   1.000000
   24      -22.866123   1.000000
   25        0.163373   1.000000
   26        1.386887   1.000000
   27        1.801951   1.000000
   28        2.327337   1.000000
   29        2.590804   1.000000
   30        2.738120   1.000000
   31        2.744344   1.000000
   32        2.832561   1.000000
   33        2.890866   1.000000
   34        2.979786   1.000000
   35        3.038127   1.000000
   36        3.137634   1.000000
   37        3.228461   1.000000
   38        3.291013   1.000000
   39        3.331933   1.000000
   40        3.392414   1.000000
   41        3.434405   1.000000
   42        3.439355   1.000000
   43        3.647138   1.000000
   44        3.685659   1.000000
   45        3.745172   1.000000
   46        3.822529   1.000000
   47        3.873227   1.000000
   48        3.956235   1.000000
   49        4.069007   1.000000
   50        4.118235   1.000000
   51        4.148375   1.000000
   52        4.240569   1.000000
   53        4.312099   1.000000
   54        4.379890   1.000000
   55        4.443948   1.000000
   56        4.496694   1.000000
   57        4.610591   1.000000
   58        4.689847   1.000000
   59        4.759976   1.000000
   60        4.842104   1.000000
   61        4.894083   1.000000
   62        4.917247   1.000000
   63        5.008497   1.000000
   64        5.027418   1.000000
   65        5.063994   1.000000
   66        5.151273   1.000000
   67        5.184856   1.000000
   68        5.225388   1.000000
   69        5.265381   1.000000
   70        5.291442   1.000000
   71        5.326624   1.000000
   72        5.345074   1.000000
   73        5.374663   1.000000
   74        5.432570   1.000000
   75        5.461793   1.000000
   76        5.527695   1.000000
   77        5.613367   1.000000
   78        5.635562   1.000000
   79        5.718606   1.000000
   80        5.782877   1.000000
   81        5.838261   1.000000
   82        5.902226   1.000001
   83        5.972233   1.000013
   84        5.987477   1.000020
   85        6.043208   1.000104
   86        6.104097   1.000507
   87        6.150359   1.001471
   88        6.233186   1.007212
   89        6.258780   1.010782
   90        6.298235   1.018277
   91        6.330958   1.025719
   92        6.360576   1.031971
   93        6.398433   1.035398
   94        6.424624   1.031217
   95        6.518029   0.923241
   96        6.576748   0.751516
   97        6.618164   0.589625
   98        6.709433   0.223118
   99        6.755859   0.088274
  100        6.807728   0.000140
  101        6.856394  -0.031824
  102        6.916834  -0.032245
  103        6.978633  -0.018732
  104        7.007320  -0.012970
  105        7.042288  -0.007638
  106        7.122421  -0.001681
  107        7.178246  -0.000466
  108        7.229326  -0.000124
  109        7.307011  -0.000012
  110        7.347782  -0.000003
  111        7.412754  -0.000000
  112        7.816481  -0.000000
  113        8.110819  -0.000000
  114        8.217118  -0.000000
  115        8.292758  -0.000000
  116        8.326092  -0.000000
  117        8.482940  -0.000000
  118        8.547859  -0.000000
  119        8.589359  -0.000000
  120        8.652410  -0.000000
 
  0.4000000E+00  0.2000000E+00 -0.5551115E-16  0.1600000E-01
    1      -47.334980   1.000000
    2      -47.302128   1.000000
    3      -47.265074   1.000000
    4      -47.216237   1.000000
    5      -47.186264   1.000000
    6      -47.133122   1.000000
    7      -23.947175   1.000000
    8      -23.795358   1.000000
    9      -23.746188   1.000000
   10      -23.617270   1.000000
   11      -23.512559   1.000000
   12      -23.506105   1.000000
   13      -23.477407   1.000000
   14      -23.449545   1.000000
   15      -23.426210   1.000000
   16      -23.413663   1.000000
   17      -23.387391   1.000000
   18      -23.349310   1.000000
   19      -23.333190   1.000000
   20      -23.286789   1.000000
   21      -23.221638   1.000000
   22      -23.137694   1.000000
   23      -23.109256   1.000000
   24      -22.961510   1.000000
   25        0.906232   1.000000
   26        1.889969   1.000000
   27        2.241553   1.000000
   28        2.440397   1.000000
   29        2.569363   1.000000
   30        2.705676   1.000000
   31        3.001241   1.000000
   32        3.200659   1.000000
   33        3.311528   1.000000
   34        3.363303   1.000000
   35        3.437342   1.000000
   36        3.471169   1.000000
   37        3.527278   1.000000
   38        3.595683   1.000000
   39        3.612810   1.000000
   40        3.701240   1.000000
   41        3.765796   1.000000
   42        3.784349   1.000000
   43        3.876056   1.000000
   44        3.918143   1.000000
   45        3.943793   1.000000
   46        3.988339   1.000000
   47        4.061348   1.000000
   48        4.136516   1.000000
   49        4.204522   1.000000
   50        4.275197   1.000000
   51        4.326638   1.000000
   52        4.398281   1.000000
   53        4.450051   1.000000
   54        4.482703   1.000000
   55        4.552202   1.000000
   56        4.604547   1.000000
   57        4.660380   1.000000
   58        4.745083   1.000000
   59        4.817048   1.000000
   60        4.936282   1.000000
   61        4.965248   1.000000
   62        4.984139   1.000000
   63        5.049584   1.000000
   64        5.103645   1.000000
   65        5.139066   1.000000
   66        5.195657   1.000000
   67        5.221337   1.000000
   68        5.277563   1.000000
   69        5.307590   1.000000
   70        5.358536   1.000000
   71        5.412126   1.000000
   72        5.422987   1.000000
   73        5.466611   1.000000
   74        5.520299   1.000000
   75        5.558256   1.000000
   76        5.602398   1.000000
   77        5.629949   1.000000
   78        5.725800   1.000000
   79        5.762679   1.000000
   80        5.831967   1.000000
   81        5.857094   1.000000
   82        5.924650   1.000003
   83        5.973946   1.000013
   84        5.997510   1.000028
   85        6.016960   1.000049
   86        6.051794   1.000131
   87        6.127816   1.000889
   88        6.144807   1.001303
   89        6.191213   1.003398
   90        6.229667   1.006801
   91        6.256525   1.010426
   92        6.300615   1.018796
   93        6.323101   1.023904
   94        6.358843   1.031655
   95        6.390921   1.035409
   96        6.417152   1.033170
   97        6.465798   1.005537
   98        6.496699   0.964632
   99        6.523133   0.911647
  100        6.553563   0.829007
  101        6.591774   0.695628
  102        6.654898   0.434968
  103        6.702777   0.246455
  104        6.734975   0.142521
  105        6.787936   0.026225
  106        6.801030   0.007994
  107        6.923667  -0.030982
  108        7.031146  -0.009125
  109        7.074513  -0.004360
  110        7.163054  -0.000673
  111        7.236546  -0.000101
  112        7.586211  -0.000000
  113        7.707648  -0.000000
  114        7.772407  -0.000000
  115        7.856081  -0.000000
  116        7.973195  -0.000000
  117        8.038502  -0.000000
  118        8.098969  -0.000000
  119        8.159516  -0.000000
  120        8.225598  -0.000000
 
 -0.4000000E+00  0.2000000E+00  0.0000000E+00  0.1600000E-01
    1      -47.334657   1.000000
    2      -47.301887   1.000000
    3      -47.265132   1.000000
    4      -47.216628   1.000000
    5      -47.186381   1.000000
    6      -47.133117   1.000000
    7      -23.945617   1.000000
    8      -23.791672   1.000000
    9      -23.741533   1.000000
   10      -23.617309   1.000000
   11      -23.512650   1.000000
   12      -23.506152   1.000000
   13      -23.477535   1.000000
   14      -23.449563   1.000000
   15      -23.426121   1.000000
   16      -23.413757   1.000000
   17      -23.387289   1.000000
   18      -23.349268   1.000000
   19      -23.333265   1.000000
   20      -23.286855   1.000000
   21      -23.221663   1.000000
   22      -23.145993   1.000000
   23      -23.111848   1.000000
   24      -22.962000   1.000000
   25        1.267818   1.000000
   26        1.935970   1.000000
   27        2.060418   1.000000
   28        2.351285   1.000000
   29        2.623445   1.000000
   30        2.852393   1.000000
   31        2.949205   1.000000
   32        3.052591   1.000000
   33        3.284118   1.000000
   34        3.326844   1.000000
   35        3.396299   1.000000
   36        3.420163   1.000000
   37        3.470483   1.000000
   38        3.555312   1.000000
   39        3.614633   1.000000
   40        3.684943   1.000000
   41        3.722683   1.000000
   42        3.769353   1.000000
   43        3.842626   1.000000
   44        3.888186   1.000000
   45        3.966490   1.000000
   46        4.066020   1.000000
   47        4.104992   1.000000
   48        4.204289   1.000000
   49        4.272572   1.000000
   50        4.329296   1.000000
   51        4.360437   1.000000
   52        4.413276   1.000000
   53        4.477357   1.000000
   54        4.584099   1.000000
   55        4.671145   1.000000
   56        4.756460   1.000000
   57        4.810347   1.000000
   58        4.842330   1.000000
   59        4.855060   1.000000
   60        4.896864   1.000000
   61        4.911703   1.000000
   62        4.992233   1.000000
   63        5.005225   1.000000
   64        5.070972   1.000000
   65        5.115313   1.000000
   66        5.170853   1.000000
   67        5.223455   1.000000
   68        5.267076   1.000000
   69        5.300525   1.000000
   70        5.317976   1.000000
   71        5.327372   1.000000
   72        5.435086   1.000000
   73        5.462232   1.000000
   74        5.511845   1.000000
   75        5.580251   1.000000
   76        5.589393   1.000000
   77        5.645375   1.000000
   78        5.672625   1.000000
   79        5.761294   1.000000
   80        5.814128   1.000000
   81        5.833389   1.000000
   82        5.891121   1.000001
   83        5.916844   1.000002
   84        5.975626   1.000014
   85        6.073877   1.000237
   86        6.109401   1.000576
   87        6.154309   1.001602
   88        6.191792   1.003436
   89        6.236688   1.007640
   90        6.272332   1.013096
   91        6.323694   1.024041
   92        6.341229   1.028040
   93        6.367901   1.033194
   94        6.403124   1.035156
   95        6.443340   1.023006
   96        6.495721   0.966262
   97        6.529569   0.896088
   98        6.579580   0.741290
   99        6.602627   0.653035
  100        6.628478   0.546470
  101        6.658946   0.418058
  102        6.692242   0.285122
  103        6.720905   0.185079
  104        6.770071   0.057634
  105        6.795574   0.015117
  106        6.837103  -0.023850
  107        6.875958  -0.035165
  108        6.897540  -0.034853
  109        7.002100  -0.013933
  110        7.057584  -0.005903
  111        7.194960  -0.000307
  112        7.224136  -0.000142
  113        7.252816  -0.000064
  114        7.369677  -0.000002
  115        7.646826  -0.000000
  116        7.821738  -0.000000
  117        8.040234  -0.000000
  118        8.054187  -0.000000
  119        8.108741  -0.000000
  120        8.147520  -0.000000
 
 -0.2000000E+00  0.2000000E+00  0.1769418E-15  0.1600000E-01
    1      -47.337342   1.000000
    2      -47.311927   1.000000
    3      -47.272704   1.000000
    4      -47.220759   1.000000
    5      -47.188738   1.000000
    6      -47.107355   1.000000
    7      -23.994547   1.000000
    8      -23.920303   1.000000
    9      -23.762564   1.000000
   10      -23.723841   1.000000
   11      -23.504706   1.000000
   12      -23.502989   1.000000
   13      -23.491629   1.000000
   14      -23.447519   1.000000
   15      -23.426704   1.000000
   16      -23.413646   1.000000
   17      -23.382766   1.000000
   18      -23.341572   1.000000
   19      -23.310453   1.000000
   20      -23.281257   1.000000
   21      -23.146349   1.000000
   22      -23.127057   1.000000
   23      -22.968261   1.000000
   24      -22.866152   1.000000
   25        0.400509   1.000000
   26        1.533659   1.000000
   27        1.784816   1.000000
   28        1.978614   1.000000
   29        2.530959   1.000000
   30        2.793071   1.000000
   31        2.882154   1.000000
   32        2.962269   1.000000
   33        2.969041   1.000000
   34        3.014467   1.000000
   35        3.153095   1.000000
   36        3.191271   1.000000
   37        3.231777   1.000000
   38        3.283944   1.000000
   39        3.309103   1.000000
   40        3.356674   1.000000
   41        3.409977   1.000000
   42        3.480778   1.000000
   43        3.579111   1.000000
   44        3.646565   1.000000
   45        3.722086   1.000000
   46        3.795506   1.000000
   47        3.864058   1.000000