 vasp.5.4.4.18Apr17-6-g9f103f2a35 (build Aug 09 2018 16:20:53) complex          
  
 executed on             LinuxIFC date 2020.04.28  21:06:14
 running on   32 total cores
 distrk:  each k-point on   32 cores,    1 groups
 distr:  one band on NCORES_PER_BAND=   4 cores,    8 groups


--------------------------------------------------------------------------------------------------------


 INCAR:
 POTCAR:    PAW_PBE Nb_sv 25May2007               
 POTCAR:    PAW_PBE Mo 08Apr2002                  
 POTCAR:    PAW_PBE Ta 17Jan2003                  
 POTCAR:    PAW_PBE Ti 08Apr2002                  
 POTCAR:    PAW_PBE V 08Apr2002                   
 POTCAR:    PAW_PBE Nb_sv 25May2007               
   VRHFIN =Nb: 4p5s4d                                                           
   LEXCH  = PE                                                                  
   EATOM  =  1555.1913 eV,  114.3033 Ry                                         
                                                                                
   TITEL  = PAW_PBE Nb_sv 25May2007                                             
   LULTRA =        F    use ultrasoft PP ?                                      
   IUNSCR =        1    unscreen: 0-lin 1-nonlin 2-no                           
   RPACOR =    1.800    partial core radius                                     
   POMASS =   92.910; ZVAL   =   13.000    mass and valenz                      
   RCORE  =    2.400    outmost cutoff radius                                   
   RWIGS  =    2.400; RWIGS  =    1.270    wigner-seitz radius (au A)           
   ENMAX  =  293.235; ENMIN  =  219.927 eV                                      
   ICORE  =        3    local potential                                         
   LCOR   =        T    correct aug charges                                     
   LPAW   =        T    paw PP                                                  
   EAUG   =  455.659                                                            
   DEXC   =    0.000                                                            
   RMAX   =    2.456    core radius for proj-oper                               
   RAUG   =    1.300    factor for augmentation sphere                          
   RDEP   =    2.451    radius for radial grids                                 
   RDEPT  =    1.956    core radius for aug-charge                              
                                                                                
   Atomic configuration                                                         
   11 entries                                                                   
     n  l   j            E        occ.                                          
     1  0  0.50    -18805.2457   2.0000                                         
     2  0  0.50     -2630.2869   2.0000                                         
     2  1  1.50     -2348.4046   6.0000                                         
     3  0  0.50      -438.8757   2.0000                                         
     3  1  1.50      -346.7588   6.0000                                         
     3  2  2.50      -196.2560  10.0000                                         
     4  0  0.50       -58.3859   2.0000                                         
     5  0  0.50        -3.9816   1.0000                                         
     4  1  1.50       -34.5141   6.0000                                         
     4  2  2.50        -3.0408   4.0000                                         
     4  3  2.50        -1.3606   0.0000                                         
   Description                                                                  
     l       E           TYP  RCUT    TYP  RCUT                                 
     0    -58.3859094     23  2.200                                             
     0     -3.9816262     23  2.200                                             
     1    -34.5140738     23  2.200                                             
     1     13.6058260     23  2.200                                             
     2     -3.0408010     23  2.200                                             
     2     -0.1283038     23  2.200                                             
     3     -1.3605826     23  2.400                                             
  local pseudopotential read in
  partial core-charges read in
  partial kinetic energy density read in
  atomic valenz-charges read in
  non local Contribution for L=           0  read in
    real space projection operators read in
  non local Contribution for L=           0  read in
    real space projection operators read in
  non local Contribution for L=           1  read in
    real space projection operators read in
  non local Contribution for L=           1  read in
    real space projection operators read in
  non local Contribution for L=           2  read in
    real space projection operators read in
  non local Contribution for L=           2  read in
    real space projection operators read in
    PAW grid and wavefunctions read in
 
   number of l-projection  operators is LMAX  =           6
   number of lm-projection operators is LMMAX =          18
 
 POTCAR:    PAW_PBE Mo 08Apr2002                  
   VRHFIN =Mo: 4p5s4d                                                           
   LEXCH  = PE                                                                  
   EATOM  =   217.5176 eV,   15.9871 Ry                                         
                                                                                
   TITEL  = PAW_PBE Mo 08Apr2002                                                
   LULTRA =        F    use ultrasoft PP ?                                      
   IUNSCR =        1    unscreen: 0-lin 1-nonlin 2-no                           
   RPACOR =    2.200    partial core radius                                     
   POMASS =   95.940; ZVAL   =    6.000    mass and valenz                      
   RCORE  =    2.750    outmost cutoff radius                                   
   RWIGS  =    2.750; RWIGS  =    1.455    wigner-seitz radius (au A)           
   ENMAX  =  224.584; ENMIN  =  168.438 eV                                      
   RCLOC  =    2.111    cutoff for local pot                                    
   LCOR   =        T    correct aug charges                                     
   LPAW   =        T    paw PP                                                  
   EAUG   =  345.278                                                            
   DEXC   =    0.000                                                            
   RMAX   =    2.821    core radius for proj-oper                               
   RAUG   =    1.300    factor for augmentation sphere                          
   RDEP   =    2.815    radius for radial grids                                 
   RDEPT  =    2.211    core radius for aug-charge                              
                                                                                
   Atomic configuration                                                         
   12 entries                                                                   
     n  l   j            E        occ.                                          
     1  0  0.50    -19819.0341   2.0000                                         
     2  0  0.50     -2799.0127   2.0000                                         
     2  1  1.50     -2502.0276   6.0000                                         
     3  0  0.50      -476.4448   2.0000                                         
     3  1  1.50      -379.1496   6.0000                                         
     3  2  2.50      -220.9367  10.0000                                         
     4  0  0.50       -64.3378   2.0000                                         
     4  1  1.50       -38.4773   6.0000                                         
     4  2  2.50        -3.7535   5.0000                                         
     5  0  0.50        -4.0862   1.0000                                         
     5  1  0.50        -2.7701   0.0000                                         
     4  3  2.50        -1.3606   0.0000                                         
   Description                                                                  
     l       E           TYP  RCUT    TYP  RCUT                                 
     2     -3.7534765     23  2.500                                             
     2     -5.1140591     23  2.500                                             
     0     -4.0861560     23  2.600                                             
     0     13.6058260     23  2.600                                             
     1      5.4423304     23  2.750                                             
     1     27.2116520     23  2.750                                             
  local pseudopotential read in
  partial core-charges read in
  partial kinetic energy density read in
  atomic valenz-charges read in
  non local Contribution for L=           2  read in
    real space projection operators read in
  non local Contribution for L=           2  read in
    real space projection operators read in
  non local Contribution for L=           0  read in
    real space projection operators read in
  non local Contribution for L=           0  read in
    real space projection operators read in
  non local Contribution for L=           1  read in
    real space projection operators read in
  non local Contribution for L=           1  read in
    real space projection operators read in
    PAW grid and wavefunctions read in
 
   number of l-projection  operators is LMAX  =           6
   number of lm-projection operators is LMMAX =          18
 
 POTCAR:    PAW_PBE Ta 17Jan2003                  
   VRHFIN =Ta:  6s5d                                                            
   LEXCH  = PE                                                                  
   EATOM  =   130.6506 eV,    9.6025 Ry                                         
                                                                                
   TITEL  = PAW_PBE Ta 17Jan2003                                                
   LULTRA =        F    use ultrasoft PP ?                                      
   IUNSCR =        1    unscreen: 0-lin 1-nonlin 2-no                           
   RPACOR =    2.330    partial core radius                                     
   POMASS =  180.948; ZVAL   =    5.000    mass and valenz                      
   RCORE  =    2.900    outmost cutoff radius                                   
   RWIGS  =    2.840; RWIGS  =    1.503    wigner-seitz radius (au A)           
   ENMAX  =  223.667; ENMIN  =  167.750 eV                                      
   RCLOC  =    2.205    cutoff for local pot                                    
   LCOR   =        T    correct aug charges                                     
   LPAW   =        T    paw PP                                                  
   EAUG   =  332.075                                                            
   DEXC   =    0.000                                                            
   RMAX   =    2.970    core radius for proj-oper                               
   RAUG   =    1.300    factor for augmentation sphere                          
   RDEP   =    3.060    radius for radial grids                                 
   RDEPT  =    2.354    core radius for aug-charge                              
                                                                                
   Atomic configuration                                                         
   16 entries                                                                   
     n  l   j            E        occ.                                          
     1  0  0.50    -67341.2807   2.0000                                         
     2  0  0.50    -11566.9376   2.0000                                         
     2  1  1.50    -10134.1182   6.0000                                         
     3  0  0.50     -2648.5620   2.0000                                         
     3  1  1.50     -2222.6012   6.0000                                         
     3  2  2.50     -1726.3120  10.0000                                         
     4  0  0.50      -538.6961   2.0000                                         
     4  1  1.50      -399.0129   6.0000                                         
     4  2  2.50      -220.3959  10.0000                                         
     4  3  3.50       -23.0374  14.0000                                         
     5  0  0.50       -71.2901   2.0000                                         
     5  1  1.50       -37.8225   6.0000                                         
     5  2  2.50        -2.6455   4.0000                                         
     6  0  0.50        -4.9623   1.0000                                         
     6  1  1.50        -1.3606   0.0000                                         
     5  3  2.50        -1.3606   0.0000                                         
   Description                                                                  
     l       E           TYP  RCUT    TYP  RCUT                                 
     2     -2.6455043     23  2.500                                             
     2     -0.6258895     23  2.500                                             
     0     -4.9622780     23  2.500                                             
     0      4.7531321     23  2.500                                             
     1     -1.3605826     23  2.900                                             
     1     27.2116520     23  2.900                                             
  local pseudopotential read in
  partial core-charges read in
  partial kinetic energy density read in
  atomic valenz-charges read in
  non local Contribution for L=           2  read in
    real space projection operators read in
  non local Contribution for L=           2  read in
    real space projection operators read in
  non local Contribution for L=           0  read in
    real space projection operators read in
  non local Contribution for L=           0  read in
    real space projection operators read in
  non local Contribution for L=           1  read in
    real space projection operators read in
  non local Contribution for L=           1  read in
    real space projection operators read in
    PAW grid and wavefunctions read in
 
   number of l-projection  operators is LMAX  =           6
   number of lm-projection operators is LMMAX =          18
 
 POTCAR:    PAW_PBE Ti 08Apr2002                  
   VRHFIN =Ti: d3 s1                                                            
   LEXCH  = PE                                                                  
   EATOM  =    94.7928 eV,    6.9671 Ry                                         
                                                                                
   TITEL  = PAW_PBE Ti 08Apr2002                                                
   LULTRA =        F    use ultrasoft PP ?                                      
   IUNSCR =        1    unscreen: 0-lin 1-nonlin 2-no                           
   RPACOR =    2.200    partial core radius                                     
   POMASS =   47.880; ZVAL   =    4.000    mass and valenz                      
   RCORE  =    2.800    outmost cutoff radius                                   
   RWIGS  =    2.500; RWIGS  =    1.323    wigner-seitz radius (au A)           
   ENMAX  =  178.330; ENMIN  =  133.747 eV                                      
   RCLOC  =    2.215    cutoff for local pot                                    
   LCOR   =        T    correct aug charges                                     
   LPAW   =        T    paw PP                                                  
   EAUG   =  328.883                                                            
   DEXC   =    0.000                                                            
   RMAX   =    2.868    core radius for proj-oper                               
   RAUG   =    1.300    factor for augmentation sphere                          
   RDEP   =    2.885    radius for radial grids                                 
   RDEPT  =    2.320    core radius for aug-charge                              
                                                                                
   Atomic configuration                                                         
    9 entries                                                                   
     n  l   j            E        occ.                                          
     1  0  0.50     -4865.3608   2.0000                                         
     2  0  0.50      -533.1367   2.0000                                         
     2  1  1.50      -440.5031   6.0000                                         
     3  0  0.50       -59.3186   2.0000                                         
     3  1  1.50       -35.7012   6.0000                                         
     3  2  2.50        -1.9157   3.0000                                         
     4  0  0.50        -3.7291   1.0000                                         
     4  1  1.50        -4.0817   0.0000                                         
     4  3  2.50        -1.3606   0.0000                                         
   Description                                                                  
     l       E           TYP  RCUT    TYP  RCUT                                 
     2     -1.9156924     23  2.800                                             
     2     -0.4062961     23  2.800                                             
     0     -3.7290832     23  2.800                                             
     0     20.4087390     23  2.800                                             
     1     -5.4423304     23  2.800                                             
  local pseudopotential read in
  partial core-charges read in
  partial kinetic energy density read in
  atomic valenz-charges read in
  non local Contribution for L=           2  read in
    real space projection operators read in
  non local Contribution for L=           2  read in
    real space projection operators read in
  non local Contribution for L=           0  read in
    real space projection operators read in
  non local Contribution for L=           0  read in
    real space projection operators read in
  non local Contribution for L=           1  read in
    real space projection operators read in
    PAW grid and wavefunctions read in
 
   number of l-projection  operators is LMAX  =           5
   number of lm-projection operators is LMMAX =          15
 
 POTCAR:    PAW_PBE V 08Apr2002                   
   VRHFIN =V: p6 d4 s1                                                          
   LEXCH  = PE                                                                  
   EATOM  =   170.8679 eV,   12.5584 Ry                                         
                                                                                
   TITEL  = PAW_PBE V 08Apr2002                                                 
   LULTRA =        F    use ultrasoft PP ?                                      
   IUNSCR =        1    unscreen: 0-lin 1-nonlin 2-no                           
   RPACOR =    2.000    partial core radius                                     
   POMASS =   50.941; ZVAL   =    5.000    mass and valenz                      
   RCORE  =    2.700    outmost cutoff radius                                   
   RWIGS  =    2.500; RWIGS  =    1.323    wigner-seitz radius (au A)           
   ENMAX  =  192.543; ENMIN  =  144.408 eV                                      
   RCLOC  =    1.779    cutoff for local pot                                    
   LCOR   =        T    correct aug charges                                     
   LPAW   =        T    paw PP                                                  
   EAUG   =  358.662                                                            
   DEXC   =    0.000                                                            
   RMAX   =    2.768    core radius for proj-oper                               
   RAUG   =    1.300    factor for augmentation sphere                          
   RDEP   =    2.762    radius for radial grids                                 
   RDEPT  =    2.240    core radius for aug-charge                              
                                                                                
   Atomic configuration                                                         
    9 entries                                                                   
     n  l   j            E        occ.                                          
     1  0  0.50     -5360.7193   2.0000                                         
     2  0  0.50      -598.4546   2.0000                                         
     2  1  1.50      -499.0155   6.0000                                         
     3  0  0.50       -66.5711   2.0000                                         
     3  1  1.50       -40.5282   6.0000                                         
     3  2  2.50        -2.4291   4.0000                                         
     4  0  0.50        -3.8743   1.0000                                         
     4  1  0.50        -2.7212   0.0000                                         
     4  3  2.50        -1.3606   0.0000                                         
   Description                                                                  
     l       E           TYP  RCUT    TYP  RCUT                                 
     2     -2.4290901     23  2.700                                             
     2     -3.7896727     23  2.700                                             
     0     -3.8742752     23  2.700                                             
     0     27.2116520     23  2.700                                             
     1     -2.7211652     23  2.700                                             
     1     27.2116520     23  2.700                                             
  local pseudopotential read in
  partial core-charges read in
  partial kinetic energy density read in
  atomic valenz-charges read in
  non local Contribution for L=           2  read in
    real space projection operators read in
  non local Contribution for L=           2  read in
    real space projection operators read in
  non local Contribution for L=           0  read in
    real space projection operators read in
  non local Contribution for L=           0  read in
    real space projection operators read in
  non local Contribution for L=           1  read in
    real space projection operators read in
  non local Contribution for L=           1  read in
    real space projection operators read in
    PAW grid and wavefunctions read in
 
   number of l-projection  operators is LMAX  =           6
   number of lm-projection operators is LMMAX =          18
 
 Optimization of the real space projectors (new method)

 maximal supplied QI-value         = 15.68
 optimisation between [QCUT,QGAM] = [ 12.55, 25.10] = [ 44.09,176.36] Ry 
 Optimized for a Real-space Cutoff    1.56 Angstroem

   l    n(q)    QCUT    max X(q) W(low)/X(q) W(high)/X(q)  e(spline) 
   0     12    12.548    10.201    0.21E-04    0.36E-05    0.83E-07
   0     12    12.548     8.174    0.31E-04    0.62E-05    0.15E-06
   1     11    12.548     3.488    0.79E-05    0.23E-04    0.21E-06
   1     11    12.548     4.917    0.56E-04    0.13E-03    0.11E-05
   2     11    12.548   153.744    0.25E-03    0.10E-03    0.15E-05
   2     11    12.548   126.342    0.25E-03    0.10E-03    0.15E-05
 Optimization of the real space projectors (new method)

 maximal supplied QI-value         = 13.61
 optimisation between [QCUT,QGAM] = [ 12.52, 25.04] = [ 43.88,175.51] Ry 
 Optimized for a Real-space Cutoff    1.56 Angstroem

   l    n(q)    QCUT    max X(q) W(low)/X(q) W(high)/X(q)  e(spline) 
   2     11    12.518    80.908    0.42E-03    0.30E-03    0.14E-05
   2     11    12.518    79.000    0.42E-03    0.30E-03    0.14E-05
   0     12    12.518    52.066    0.58E-04    0.50E-04    0.55E-06
   0     12    12.518    24.514    0.48E-04    0.41E-04    0.46E-06
   1     11    12.518    16.033    0.62E-04    0.13E-03    0.37E-06
   1     11    12.518    11.179    0.47E-04    0.10E-03    0.31E-06
 Optimization of the real space projectors (new method)

 maximal supplied QI-value         = 12.85
 optimisation between [QCUT,QGAM] = [ 12.46, 25.06] = [ 43.51,175.83] Ry 
 Optimized for a Real-space Cutoff    1.56 Angstroem

   l    n(q)    QCUT    max X(q) W(low)/X(q) W(high)/X(q)  e(spline) 
   2     11    12.465    62.315    0.36E-03    0.20E-03    0.15E-05
   2     11    12.465    52.185    0.36E-03    0.20E-03    0.15E-05
   0     12    12.465   103.837    0.22E-04    0.37E-05    0.56E-06
   0     12    12.465    59.728    0.20E-04    0.34E-05    0.51E-06
   1     11    12.465    13.958    0.44E-03    0.81E-03    0.81E-05
   1     11    12.465     8.441    0.31E-03    0.56E-03    0.56E-05
 Optimization of the real space projectors (new method)

 maximal supplied QI-value         = 13.42
 optimisation between [QCUT,QGAM] = [ 12.48, 25.09] = [ 43.60,176.28] Ry 
 Optimized for a Real-space Cutoff    1.56 Angstroem

   l    n(q)    QCUT    max X(q) W(low)/X(q) W(high)/X(q)  e(spline) 
   2     11    12.478    49.363    0.45E-03    0.34E-03    0.89E-06
   2     11    12.478    47.669    0.44E-03    0.33E-03    0.87E-06
   0     12    12.478    26.374    0.17E-03    0.37E-04    0.21E-05
   0     12    12.478    11.549    0.13E-03    0.31E-04    0.17E-05
   1     11    12.478     9.492    0.91E-05    0.64E-04    0.34E-06
 Optimization of the real space projectors (new method)

 maximal supplied QI-value         = 13.98
 optimisation between [QCUT,QGAM] = [ 12.45, 25.03] = [ 43.38,175.46] Ry 
 Optimized for a Real-space Cutoff    1.56 Angstroem

   l    n(q)    QCUT    max X(q) W(low)/X(q) W(high)/X(q)  e(spline) 
   2     11    12.446    96.114    0.19E-03    0.47E-04    0.85E-06
   2     11    12.446    88.986    0.19E-03    0.46E-04    0.86E-06
   0     12    12.446    20.919    0.37E-04    0.64E-04    0.43E-06
   0     12    12.446     9.593    0.25E-04    0.48E-04    0.33E-06
   1     11    12.446    11.615    0.75E-04    0.30E-04    0.59E-06
   1     11    12.446     7.031    0.53E-04    0.23E-04    0.40E-06

 ----------------------------------------------------------------------------- 
|                                                                             |
|  ADVICE TO THIS USER RUNNING 'VASP/VAMP'   (HEAR YOUR MASTER'S VOICE ...):  |
|                                                                             |
|      You enforced a specific xc-type in the INCAR file,                     |
|      a different type was found on the POTCAR file                          |
|          I HOPE YOU KNOW, WHAT YOU ARE  DOING                               |
|                                                                             |
 ----------------------------------------------------------------------------- 

  PAW_PBE Nb_sv 25May2007               :
 energy of atom  1       EATOM=-1555.1913
 kinetic energy error for atom=    0.0037 (will be added to EATOM!!)
  PAW_PBE Mo 08Apr2002                  :
 energy of atom  2       EATOM= -217.5176
 kinetic energy error for atom=    0.0005 (will be added to EATOM!!)
  PAW_PBE Ta 17Jan2003                  :
 energy of atom  3       EATOM= -130.6506
 kinetic energy error for atom=    0.0004 (will be added to EATOM!!)
  PAW_PBE Ti 08Apr2002                  :
 energy of atom  4       EATOM=  -94.7928
 kinetic energy error for atom=    0.0001 (will be added to EATOM!!)
  PAW_PBE V 08Apr2002                   :
 energy of atom  5       EATOM= -170.8679
 kinetic energy error for atom=    0.0002 (will be added to EATOM!!)
 
 
 POSCAR: Nb - Mo - Ta - Ti - V SQS-30 BCC        
  positions in direct lattice
  No initial velocities read in
 exchange correlation table for  LEXCH =       14
   RHO(1)=    0.500       N(1)  =     2000
   RHO(2)=  100.500       N(2)  =     4000

 VTST: version 3.2, (02/03/18)

 CHAIN: initializing optimizer
 
 OPT: Using VASP Conjugate-Gradient optimizer
 CHAIN: Read ICHAIN            0
 
 POSCAR: Nb - Mo - Ta - Ti - V SQS-30 BCC        
  positions in direct lattice
  No initial velocities read in
 


--------------------------------------------------------------------------------------------------------


 ion  position               nearest neighbor table
   1  0.967  0.933  0.400-  18 2.75   7 2.75  24 2.75  20 2.75  20 2.75  19 2.75   6 2.75   2 2.75
                            16 3.17   8 3.17  15 3.17  11 3.17  12 3.17
   2  0.633  0.267  0.400-  18 2.75  26 2.75   9 2.75  12 2.75  12 2.75  28 2.75  15 2.75   1 2.75
                             8 3.17
   3  0.500  0.000  0.000-  13 2.75  21 2.75  17 2.75  15 2.75   4 2.75   4 2.75  27 2.75  16 2.75
                            10 3.17  14 3.17   7 3.17
   4  0.000  0.000  0.000-  10 2.75  29 2.75  24 2.75  14 2.75   3 2.75   3 2.75   7 2.75   5 2.75
                            15 3.17  13 3.17  17 3.17  16 3.17
   5  0.100  0.200  0.800-  25 2.75  17 2.75   6 2.75  21 2.75  23 2.75  27 2.75  27 2.75   4 2.75
                            10 3.17  14 3.17
   6  0.033  0.067  0.600-  26 2.75   5 2.75  14 2.75  28 2.75  28 2.75  12 2.75   1 2.75  11 2.75
                            17 3.17
   7  0.900  0.800  0.200-  30 2.75  15 2.75   1 2.75  13 2.75   8 2.75  16 2.75  16 2.75   4 2.75
                             9 3.17  20 3.17  24 3.17  29 3.17  18 3.17   3 3.17
   8  0.800  0.600  0.400-  20 2.75  12 2.75   9 2.75  19 2.75   7 2.75  18 2.75  18 2.75  26 2.75
                            30 3.17   1 3.17  11 3.17   2 3.17  16 3.17  23 3.17
   9  0.733  0.467  0.200-  16 2.75   8 2.75   2 2.75  30 2.75  30 2.75  13 2.75  10 2.75  24 2.75
                             7 3.17  18 3.17  12 3.17  29 3.17  15 3.17  21 3.17
  10  0.667  0.333  0.000-   4 2.75  27 2.75  21 2.75  21 2.75  25 2.75  15 2.75   9 2.75  29 2.75
                             3 3.17   5 3.17  22 3.17  24 3.17  13 3.17  30 3.17
  11  0.367  0.733  0.600-  26 2.75  18 2.75  22 2.75  19 2.75  19 2.75  20 2.75  17 2.75   6 2.75
                             8 3.17  23 3.17  25 3.17   1 3.17  28 3.17  14 3.17
  12  0.133  0.267  0.400-   8 2.75  23 2.75  30 2.75   2 2.75   2 2.75   6 2.75  24 2.75  20 2.75
                            18 3.17  26 3.17   9 3.17  28 3.17  15 3.17   1 3.17
  13  0.833  0.667  0.000-   3 2.75   7 2.75  29 2.75  29 2.75   9 2.75  14 2.75  25 2.75  21 2.75
                             4 3.17  16 3.17  30 3.17  17 3.17  10 3.17  22 3.17
  14  0.933  0.867  0.800-  27 2.75   4 2.75   6 2.75  17 2.75  13 2.75  17 2.75  19 2.75  22 2.75
                             3 3.17   5 3.17  28 3.17  29 3.17  11 3.17  25 3.17
  15  0.567  0.133  0.200-   7 2.75   3 2.75  24 2.75  20 2.75  10 2.75  24 2.75   2 2.75  30 2.75
                             4 3.17  16 3.17   1 3.17  21 3.17  12 3.17   9 3.17
  16  0.400  0.800  0.200-   9 2.75  24 2.75  20 2.75  29 2.75  18 2.75   7 2.75   7 2.75   3 2.75
                            30 3.17   1 3.17  13 3.17  15 3.17   8 3.17   4 3.17
  17  0.433  0.867  0.800-   5 2.75   3 2.75  28 2.75  14 2.75  29 2.75  14 2.75  11 2.75  25 2.75
                            27 3.17   4 3.17   6 3.17  13 3.17  19 3.17  22 3.17
  18  0.300  0.600  0.400-   1 2.75   2 2.75  30 2.75  11 2.75  16 2.75   8 2.75   8 2.75  23 2.75
                            20 3.17   9 3.17  12 3.17  19 3.17   7 3.17  26 3.17
  19  0.867  0.733  0.600-  23 2.75   8 2.75  25 2.75  11 2.75  11 2.75   1 2.75  14 2.75  28 2.75
                            18 3.17  26 3.17  22 3.17  20 3.17  17 3.17
  20  0.467  0.933  0.400-   8 2.75  16 2.75  15 2.75   1 2.75   1 2.75  11 2.75  28 2.75  12 2.75
                             7 3.17  18 3.17  24 3.17  19 3.17
  21  0.167  0.333  0.000-   3 2.75   5 2.75  10 2.75  10 2.75  22 2.75  24 2.75  30 2.75  13 2.75
                            27 3.17  25 3.17  15 3.17  29 3.17   9 3.17
  22  0.267  0.533  0.800-  27 2.75  23 2.75  11 2.75  25 2.75  25 2.75  21 2.75  29 2.75  14 2.75
                            26 3.17  19 3.17  10 3.17  13 3.17  17 3.17
  23  0.200  0.400  0.600-  28 2.75  19 2.75  22 2.75  12 2.75   5 2.75  26 2.75  26 2.75  18 2.75
                            25 3.17  11 3.17  27 3.17   8 3.17
  24  0.067  0.133  0.200-  16 2.75   4 2.75  15 2.75   1 2.75  21 2.75  15 2.75  12 2.75   9 2.75
                             7 3.17  20 3.17  10 3.17  30 3.17
  25  0.767  0.533  0.800-   5 2.75  26 2.75  19 2.75  22 2.75  22 2.75  10 2.75  13 2.75  17 2.75
                            27 3.17  23 3.17  11 3.17  21 3.17  29 3.17  14 3.17
  26  0.700  0.400  0.600-   6 2.75  11 2.75  25 2.75   2 2.75  27 2.75  23 2.75  23 2.75   8 2.75
                            22 3.17  19 3.17  12 3.17  28 3.17  18 3.17
  27  0.600  0.200  0.800-  22 2.75  14 2.75  28 2.75  10 2.75  26 2.75   5 2.75   5 2.75   3 2.75
                            25 3.17  17 3.17  21 3.17  23 3.17
  28  0.533  0.067  0.600-  23 2.75  27 2.75  17 2.75   6 2.75   6 2.75   2 2.75  20 2.75  19 2.75
                            26 3.17  14 3.17  12 3.17  11 3.17
  29  0.333  0.667  0.000-   4 2.75  16 2.75  13 2.75  13 2.75  30 2.75  17 2.75  22 2.75  10 2.75
                             7 3.17   9 3.17  14 3.17  21 3.17  25 3.17
  30  0.233  0.467  0.200-   7 2.75  18 2.75  12 2.75   9 2.75   9 2.75  29 2.75  21 2.75  15 2.75
                            16 3.17   8 3.17  13 3.17  10 3.17  24 3.17
 
  LATTYP: Found a triclinic cell.
 ALAT       =     5.4906010600
 B/A-ratio  =     2.8722813233
 C/A-ratio  =     2.0615528128
 COS(alpha) =     0.0140733444
 COS(beta)  =     0.0808452083
 COS(gamma) =     0.8703882798
  
  Lattice vectors:
  
 A1 = (   3.1700000000,   3.1700000000,   3.1700000000)
 A2 = (  11.0950000000,  11.0950000000,   1.5850000000)
 A3 = (  -7.9250000000,   7.9250000000,   1.5850000000)


Analysis of symmetry for initial positions (statically):
=====================================================================
 Subroutine PRICEL returns:
 Original cell was already a primitive cell.
 

 Routine SETGRP: Setting up the symmetry group for a 
 triclinic supercell.


 Subroutine GETGRP returns: Found  1 space group operations
 (whereof  1 operations were pure point group operations)
 out of a pool of  2 trial point group operations.


The static configuration has the point symmetry C_1 .


Analysis of symmetry for dynamics (positions and initial velocities):
=====================================================================
 Subroutine PRICEL returns:
 Original cell was already a primitive cell.
 

 Routine SETGRP: Setting up the symmetry group for a 
 triclinic supercell.


 Subroutine GETGRP returns: Found  1 space group operations
 (whereof  1 operations were pure point group operations)
 out of a pool of  2 trial point group operations.


The dynamic configuration has the point symmetry C_1 .


 Subroutine INISYM returns: Found  1 space group operations
 (whereof  1 operations are pure point group operations),
 and found     1 'primitive' translations

 
 
 KPOINTS: k-points                                

Automatic generation of k-mesh.
Space group operators:
 irot       det(A)        alpha          n_x          n_y          n_z        tau_x        tau_y        tau_z
    1     1.000000     0.000000     1.000000     0.000000     0.000000     0.000000     0.000000     0.000000
 
 Subroutine IBZKPT returns following result:
 ===========================================
 
 Found     63 irreducible k-points:
 
 Following reciprocal coordinates:
            Coordinates               Weight
  0.000000  0.000000  0.000000      1.000000
  0.200000  0.000000 -0.000000      2.000000
  0.400000  0.000000 -0.000000      2.000000
  0.000000  0.200000  0.000000      2.000000
  0.200000  0.200000 -0.000000      2.000000
  0.400000  0.200000 -0.000000      2.000000
 -0.400000  0.200000  0.000000      2.000000
 -0.200000  0.200000  0.000000      2.000000
  0.000000  0.400000  0.000000      2.000000
  0.200000  0.400000 -0.000000      2.000000
  0.400000  0.400000 -0.000000      2.000000
 -0.400000  0.400000  0.000000      2.000000
 -0.200000  0.400000 -0.000000      2.000000
  0.000000  0.000000  0.200000      2.000000
  0.200000 -0.000000  0.200000      2.000000
  0.400000  0.000000  0.200000      2.000000
 -0.400000  0.000000  0.200000      2.000000
 -0.200000  0.000000  0.200000      2.000000
  0.000000  0.200000  0.200000      2.000000
  0.200000  0.200000  0.200000      2.000000
  0.400000  0.200000  0.200000      2.000000
 -0.400000  0.200000  0.200000      2.000000
 -0.200000  0.200000  0.200000      2.000000
 -0.000000  0.400000  0.200000      2.000000
  0.200000  0.400000  0.200000      2.000000
  0.400000  0.400000  0.200000      2.000000
 -0.400000  0.400000  0.200000      2.000000
 -0.200000  0.400000  0.200000      2.000000
  0.000000 -0.400000  0.200000      2.000000
  0.200000 -0.400000  0.200000      2.000000
  0.400000 -0.400000  0.200000      2.000000
 -0.400000 -0.400000  0.200000      2.000000
 -0.200000 -0.400000  0.200000      2.000000
  0.000000 -0.200000  0.200000      2.000000
  0.200000 -0.200000  0.200000      2.000000
  0.400000 -0.200000  0.200000      2.000000
 -0.400000 -0.200000  0.200000      2.000000
 -0.200000 -0.200000  0.200000      2.000000
  0.000000  0.000000  0.400000      2.000000
  0.200000 -0.000000  0.400000      2.000000
  0.400000 -0.000000  0.400000      2.000000
 -0.400000  0.000000  0.400000      2.000000
 -0.200000  0.000000  0.400000      2.000000
 -0.000000  0.200000  0.400000      2.000000
  0.200000  0.200000  0.400000      2.000000
  0.400000  0.200000  0.400000      2.000000
 -0.400000  0.200000  0.400000      2.000000
 -0.200000  0.200000  0.400000      2.000000
  0.000000  0.400000  0.400000      2.000000
  0.200000  0.400000  0.400000      2.000000
  0.400000  0.400000  0.400000      2.000000
 -0.400000  0.400000  0.400000      2.000000
 -0.200000  0.400000  0.400000      2.000000
  0.000000 -0.400000  0.400000      2.000000
  0.200000 -0.400000  0.400000      2.000000
  0.400000 -0.400000  0.400000      2.000000
 -0.400000 -0.400000  0.400000      2.000000
 -0.200000 -0.400000  0.400000      2.000000
  0.000000 -0.200000  0.400000      2.000000
  0.200000 -0.200000  0.400000      2.000000
  0.400000 -0.200000  0.400000      2.000000
 -0.400000 -0.200000  0.400000      2.000000
 -0.200000 -0.200000  0.400000      2.000000
 
 Following cartesian coordinates:
            Coordinates               Weight
  0.000000  0.000000  0.000000      1.000000
 -0.086667 -0.080000 -0.033333      2.000000
 -0.173333 -0.160000 -0.066667      2.000000
  0.026667  0.040000 -0.066667      2.000000
 -0.060000 -0.040000 -0.100000      2.000000
 -0.146667 -0.120000 -0.133333      2.000000
  0.200000  0.200000  0.000000      2.000000
  0.113333  0.120000 -0.033333      2.000000
  0.053333  0.080000 -0.133333      2.000000
 -0.033333  0.000000 -0.166667      2.000000
 -0.120000 -0.080000 -0.200000      2.000000
  0.226667  0.240000 -0.066667      2.000000
  0.140000  0.160000 -0.100000      2.000000
  0.040000 -0.040000  0.000000      2.000000
 -0.046667 -0.120000 -0.033333      2.000000
 -0.133333 -0.200000 -0.066667      2.000000
  0.213333  0.120000  0.066667      2.000000
  0.126667  0.040000  0.033333      2.000000
  0.066667  0.000000 -0.066667      2.000000
 -0.020000 -0.080000 -0.100000      2.000000
 -0.106667 -0.160000 -0.133333      2.000000
  0.240000  0.160000  0.000000      2.000000
  0.153333  0.080000 -0.033333      2.000000
  0.093333  0.040000 -0.133333      2.000000
  0.006667 -0.040000 -0.166667      2.000000
 -0.080000 -0.120000 -0.200000      2.000000
  0.266667  0.200000 -0.066667      2.000000
  0.180000  0.120000 -0.100000      2.000000
 -0.013333 -0.120000  0.133333      2.000000
 -0.100000 -0.200000  0.100000      2.000000
 -0.186667 -0.280000  0.066667      2.000000
  0.160000  0.040000  0.200000      2.000000
  0.073333 -0.040000  0.166667      2.000000
  0.013333 -0.080000  0.066667      2.000000
 -0.073333 -0.160000  0.033333      2.000000
 -0.160000 -0.240000  0.000000      2.000000
  0.186667  0.080000  0.133333      2.000000
  0.100000 -0.000000  0.100000      2.000000
  0.080000 -0.080000  0.000000      2.000000
 -0.006667 -0.160000 -0.033333      2.000000
 -0.093333 -0.240000 -0.066667      2.000000
  0.253333  0.080000  0.066667      2.000000
  0.166667  0.000000  0.033333      2.000000
  0.106667 -0.040000 -0.066667      2.000000
  0.020000 -0.120000 -0.100000      2.000000
 -0.066667 -0.200000 -0.133333      2.000000
  0.280000  0.120000  0.000000      2.000000
  0.193333  0.040000 -0.033333      2.000000
  0.133333  0.000000 -0.133333      2.000000
  0.046667 -0.080000 -0.166667      2.000000
 -0.040000 -0.160000 -0.200000      2.000000
  0.306667  0.160000 -0.066667      2.000000
  0.220000  0.080000 -0.100000      2.000000
  0.026667 -0.160000  0.133333      2.000000
 -0.060000 -0.240000  0.100000      2.000000
 -0.146667 -0.320000  0.066667      2.000000
  0.200000 -0.000000  0.200000      2.000000
  0.113333 -0.080000  0.166667      2.000000
  0.053333 -0.120000  0.066667      2.000000
 -0.033333 -0.200000  0.033333      2.000000
 -0.120000 -0.280000  0.000000      2.000000
  0.226667  0.040000  0.133333      2.000000
  0.140000 -0.040000  0.100000      2.000000
 


--------------------------------------------------------------------------------------------------------




 Dimension of arrays:
   k-points           NKPTS =     63   k-points in BZ     NKDIM =     63   number of bands    NBANDS=    120
   number of dos      NEDOS =    301   number of ions     NIONS =     30
   non local maximal  LDIM  =      6   non local SUM 2l+1 LMDIM =     18
   total plane-waves  NPLWV = 126000
   max r-space proj   IRMAX =   4245   max aug-charges    IRDMAX=  18409
   dimension x,y,z NGX =    36 NGY =   50 NGZ =   70
   dimension x,y,z NGXF=    72 NGYF=  100 NGZF=  140
   support grid    NGXF=    72 NGYF=  100 NGZF=  140
   ions per type =               6   6   6   6   6
   NGX,Y,Z   is equivalent  to a cutoff of  10.90, 10.09, 10.28 a.u.
   NGXF,Y,Z  is equivalent  to a cutoff of  21.80, 20.19, 20.56 a.u.

 SYSTEM =  Nb - Mo - Ta - Ti - V SQS               
 POSCAR =  Nb - Mo - Ta - Ti - V SQS-30 BCC        

 Startparameter for this run:
   NWRITE =      2    write-flag & timer
   PREC   = normal    normal or accurate (medium, high low for compatibility)
   ISTART =      1    job   : 0-new  1-cont  2-samecut
   ICHARG =      1    charge: 1-file 2-atom 10-const
   ISPIN  =      1    spin polarized calculation?
   LNONCOLLINEAR =      F non collinear calculations
   LSORBIT =      F    spin-orbit coupling
   INIWAV =      1    electr: 0-lowe 1-rand  2-diag
   LASPH  =      F    aspherical Exc in radial PAW
   METAGGA=      F    non-selfconsistent MetaGGA calc.

 Electronic Relaxation 1
   ENCUT  =  600.0 eV  44.10 Ry    6.64 a.u.  10.97 16.45 22.61*2*pi/ulx,y,z
   ENINI  =  600.0     initial cutoff
   ENAUG  =  455.7 eV  augmentation charge cutoff
   NELM   =    100;   NELMIN=  2; NELMDL=  0     # of ELM steps 
   EDIFF  = 0.1E-03   stopping-criterion for ELM
   LREAL  =      T    real-space projection
   NLSPLINE    = F    spline interpolate recip. space projectors
   LCOMPAT=      F    compatible to vasp.4.4
   GGA_COMPAT  = T    GGA compatible to vasp.4.4-vasp.4.6
   LMAXPAW     = -100 max onsite density
   LMAXMIX     =    2 max onsite mixed and CHGCAR
   VOSKOWN=      0    Vosko Wilk Nusair interpolation
   ROPT   =   -0.00050  -0.00050  -0.00050  -0.00050
   ROPT   =   -0.00050
 Ionic relaxation
   EDIFFG = 0.1E-02   stopping-criterion for IOM
   NSW    =      0    number of steps for IOM
   NBLOCK =      1;   KBLOCK =      1    inner block; outer block 
   IBRION =     -1    ionic relax: 0-MD 1-quasi-New 2-CG
   NFREE  =      1    steps in history (QN), initial steepest desc. (CG)
   ISIF   =      2    stress and relaxation
   IWAVPR =     10    prediction:  0-non 1-charg 2-wave 3-comb
   ISYM   =      2    0-nonsym 1-usesym 2-fastsym
   LCORR  =      T    Harris-Foulkes like correction to forces

   POTIM  = 0.5000    time-step for ionic-motion
   TEIN   =    0.0    initial temperature
   TEBEG  =    0.0;   TEEND  =   0.0 temperature during run
   SMASS  =  -3.00    Nose mass-parameter (am)
   estimated Nose-frequenzy (Omega)   =  0.10E-29 period in steps =****** mass=  -0.689E-27a.u.
   SCALEE = 1.0000    scale energy and forces
   NPACO  =    256;   APACO  = 16.0  distance and # of slots for P.C.
   PSTRESS=    0.0 pullay stress

  Mass of Ions in am
   POMASS =  92.91 95.94180.95 47.88 50.94
  Ionic Valenz
   ZVAL   =  13.00  6.00  5.00  4.00  5.00
  Atomic Wigner-Seitz radii
   RWIGS  =  -1.00 -1.00 -1.00 -1.00 -1.00
  virtual crystal weights 
   VCA    =   1.00  1.00  1.00  1.00  1.00
   NELECT =     198.0000    total number of electrons
   NUPDOWN=      -1.0000    fix difference up-down

 DOS related values:
   EMIN   =  10.00;   EMAX   =-10.00  energy-range for DOS
   EFERMI =   0.00
   ISMEAR =     1;   SIGMA  =   0.20  broadening in eV -4-tet -1-fermi 0-gaus

 Electronic relaxation 2 (details)
   IALGO  =     38    algorithm
   LDIAG  =      T    sub-space diagonalisation (order eigenvalues)
   LSUBROT=      F    optimize rotation matrix (better conditioning)
   TURBO    =      0    0=normal 1=particle mesh
   IRESTART =      0    0=no restart 2=restart with 2 vectors
   NREBOOT  =      0    no. of reboots
   NMIN     =      0    reboot dimension
   EREF     =   0.00    reference energy to select bands
   IMIX   =      4    mixing-type and parameters
     AMIX     =   0.40;   BMIX     =  1.00
     AMIX_MAG =   1.60;   BMIX_MAG =  1.00
     AMIN     =   0.10
     WC   =   100.;   INIMIX=   1;  MIXPRE=   1;  MAXMIX= -45

 Intra band minimization:
   WEIMIN = 0.0000     energy-eigenvalue tresh-hold
   EBREAK =  0.21E-06  absolut break condition
   DEPER  =   0.30     relativ break condition  

   TIME   =   0.40     timestep for ELM

  volume/ion in A,a.u.               =      15.93       107.48
  Fermi-wavevector in a.u.,A,eV,Ry     =   1.220507  2.306423 20.267741  1.489637
  Thomas-Fermi vector in A             =   2.355722
 
 Write flags
   LWAVE        =      T    write WAVECAR
   LDOWNSAMPLE  =      F    k-point downsampling of WAVECAR
   LCHARG       =      T    write CHGCAR
   LVTOT        =      F    write LOCPOT, total local potential
   LVHAR        =      F    write LOCPOT, Hartree potential only
   LELF         =      F    write electronic localiz. function (ELF)
   LORBIT       =      0    0 simple, 1 ext, 2 COOP (PROOUT), +10 PAW based schemes


 Dipole corrections
   LMONO  =      F    monopole corrections only (constant potential shift)
   LDIPOL =      F    correct potential (dipole corrections)
   IDIPOL =      0    1-x, 2-y, 3-z, 4-all directions 
   EPSILON=  1.0000000 bulk dielectric constant

 Exchange correlation treatment:
   GGA     =    PS    GGA type
   LEXCH   =    14    internal setting for exchange type
   VOSKOWN=      0    Vosko Wilk Nusair interpolation
   LHFCALC =     F    Hartree Fock is set to
   LHFONE  =     F    Hartree Fock one center treatment
   AEXX    =    0.0000 exact exchange contribution

 Linear response parameters
   LEPSILON=     F    determine dielectric tensor
   LRPA    =     F    only Hartree local field effects (RPA)
   LNABLA  =     F    use nabla operator in PAW spheres
   LVEL    =     F    velocity operator in full k-point grid
   LINTERFAST=   F  fast interpolation
   KINTER  =     0    interpolate to denser k-point grid
   CSHIFT  =0.1000    complex shift for real part using Kramers Kronig
   OMEGAMAX=  -1.0    maximum frequency
   DEG_THRESHOLD= 0.2000000E-02 threshold for treating states as degnerate
   RTIME   =   -0.100 relaxation time in fs
  (WPLASMAI=    0.000 imaginary part of plasma frequency in eV, 0.658/RTIME)
   DFIELD  = 0.0000000 0.0000000 0.0000000 field for delta impulse in time
 
 Orbital magnetization related:
   ORBITALMAG=     F  switch on orbital magnetization
   LCHIMAG   =     F  perturbation theory with respect to B field
   DQ        =  0.001000  dq finite difference perturbation B field
   LLRAUG    =     F  two centre corrections for induced B field



--------------------------------------------------------------------------------------------------------


 Static calculation
 charge density and potential will be updated during run
 non-spin polarized calculation
 Variant of blocked Davidson
 Davidson routine will perform the subspace rotation
 perform sub-space diagonalisation
    after iterative eigenvector-optimisation
 modified Broyden-mixing scheme, WC =      100.0
 initial mixing is a Kerker type mixing with AMIX =  0.4000 and BMIX =      1.0000
 Hartree-type preconditioning will be used
 using additional bands           21
 real space projection scheme for non local part
 use partial core corrections
 calculate Harris-corrections to forces 
   (improved forces if not selfconsistent)
 use gradient corrections 
 use of overlap-Matrix (Vanderbilt PP)
 Methfessel and Paxton  Order N= 1 SIGMA  =   0.20


--------------------------------------------------------------------------------------------------------


  energy-cutoff  :      600.00
  volume of cell :      477.83
      direct lattice vectors                 reciprocal lattice vectors
    -3.170000000 -3.170000000 -3.170000000    -0.136698212 -0.126182965 -0.052576236
     1.585000000  1.585000000 -7.925000000     0.042060988  0.063091483 -0.105152471
     7.925000000 -7.925000000 -1.585000000     0.063091483 -0.063091483  0.000000000

  length of vectors
     5.490601060  8.235901590 11.319164059     0.193320466  0.129640673  0.089224830


 
 old parameters found on file WAVECAR:
  energy-cutoff  :      600.00
  volume of cell :      477.83
      direct lattice vectors                 reciprocal lattice vectors
    -3.170000000 -3.170000000 -3.170000000    -0.136698212 -0.126182965 -0.052576236
     1.585000000  1.585000000 -7.925000000     0.042060988  0.063091483 -0.105152471
     7.925000000 -7.925000000 -1.585000000     0.063091483 -0.063091483  0.000000000

  length of vectors

 
 k-points in units of 2pi/SCALE and weight: k-points                                
   0.00000000  0.00000000  0.00000000       0.008
  -0.08666667 -0.08000000 -0.03333333       0.016
  -0.17333333 -0.16000000 -0.06666667       0.016
   0.02666667  0.04000000 -0.06666667       0.016
  -0.06000000 -0.04000000 -0.10000000       0.016
  -0.14666667 -0.12000000 -0.13333333       0.016
   0.20000000  0.20000000  0.00000000       0.016
   0.11333333  0.12000000 -0.03333333       0.016
   0.05333333  0.08000000 -0.13333333       0.016
  -0.03333333  0.00000000 -0.16666667       0.016
  -0.12000000 -0.08000000 -0.20000000       0.016
   0.22666667  0.24000000 -0.06666667       0.016
   0.14000000  0.16000000 -0.10000000       0.016
   0.04000000 -0.04000000  0.00000000       0.016
  -0.04666667 -0.12000000 -0.03333333       0.016
  -0.13333333 -0.20000000 -0.06666667       0.016
   0.21333333  0.12000000  0.06666667       0.016
   0.12666667  0.04000000  0.03333333       0.016
   0.06666667  0.00000000 -0.06666667       0.016
  -0.02000000 -0.08000000 -0.10000000       0.016
  -0.10666667 -0.16000000 -0.13333333       0.016
   0.24000000  0.16000000  0.00000000       0.016
   0.15333333  0.08000000 -0.03333333       0.016
   0.09333333  0.04000000 -0.13333333       0.016
   0.00666667 -0.04000000 -0.16666667       0.016
  -0.08000000 -0.12000000 -0.20000000       0.016
   0.26666667  0.20000000 -0.06666667       0.016
   0.18000000  0.12000000 -0.10000000       0.016
  -0.01333333 -0.12000000  0.13333333       0.016
  -0.10000000 -0.20000000  0.10000000       0.016
  -0.18666667 -0.28000000  0.06666667       0.016
   0.16000000  0.04000000  0.20000000       0.016
   0.07333333 -0.04000000  0.16666667       0.016
   0.01333333 -0.08000000  0.06666667       0.016
  -0.07333333 -0.16000000  0.03333333       0.016
  -0.16000000 -0.24000000  0.00000000       0.016
   0.18666667  0.08000000  0.13333333       0.016
   0.10000000 -0.00000000  0.10000000       0.016
   0.08000000 -0.08000000  0.00000000       0.016
  -0.00666667 -0.16000000 -0.03333333       0.016
  -0.09333333 -0.24000000 -0.06666667       0.016
   0.25333333  0.08000000  0.06666667       0.016
   0.16666667  0.00000000  0.03333333       0.016
   0.10666667 -0.04000000 -0.06666667       0.016
   0.02000000 -0.12000000 -0.10000000       0.016
  -0.06666667 -0.20000000 -0.13333333       0.016
   0.28000000  0.12000000  0.00000000       0.016
   0.19333333  0.04000000 -0.03333333       0.016
   0.13333333  0.00000000 -0.13333333       0.016
   0.04666667 -0.08000000 -0.16666667       0.016
  -0.04000000 -0.16000000 -0.20000000       0.016
   0.30666667  0.16000000 -0.06666667       0.016
   0.22000000  0.08000000 -0.10000000       0.016
   0.02666667 -0.16000000  0.13333333       0.016
  -0.06000000 -0.24000000  0.10000000       0.016
  -0.14666667 -0.32000000  0.06666667       0.016
   0.20000000 -0.00000000  0.20000000       0.016
   0.11333333 -0.08000000  0.16666667       0.016
   0.05333333 -0.12000000  0.06666667       0.016
  -0.03333333 -0.20000000  0.03333333       0.016
  -0.12000000 -0.28000000  0.00000000       0.016
   0.22666667  0.04000000  0.13333333       0.016
   0.14000000 -0.04000000  0.10000000       0.016
 
 k-points in reciprocal lattice and weights: k-points                                
   0.00000000  0.00000000  0.00000000       0.008
   0.20000000  0.00000000 -0.00000000       0.016
   0.40000000  0.00000000 -0.00000000       0.016
   0.00000000  0.20000000  0.00000000       0.016
   0.20000000  0.20000000 -0.00000000       0.016
   0.40000000  0.20000000 -0.00000000       0.016
  -0.40000000  0.20000000  0.00000000       0.016
  -0.20000000  0.20000000  0.00000000       0.016
   0.00000000  0.40000000  0.00000000       0.016
   0.20000000  0.40000000 -0.00000000       0.016
   0.40000000  0.40000000 -0.00000000       0.016
  -0.40000000  0.40000000  0.00000000       0.016
  -0.20000000  0.40000000 -0.00000000       0.016
   0.00000000  0.00000000  0.20000000       0.016
   0.20000000 -0.00000000  0.20000000       0.016
   0.40000000  0.00000000  0.20000000       0.016
  -0.40000000  0.00000000  0.20000000       0.016
  -0.20000000  0.00000000  0.20000000       0.016
   0.00000000  0.20000000  0.20000000       0.016
   0.20000000  0.20000000  0.20000000       0.016
   0.40000000  0.20000000  0.20000000       0.016
  -0.40000000  0.20000000  0.20000000       0.016
  -0.20000000  0.20000000  0.20000000       0.016
  -0.00000000  0.40000000  0.20000000       0.016
   0.20000000  0.40000000  0.20000000       0.016
   0.40000000  0.40000000  0.20000000       0.016
  -0.40000000  0.40000000  0.20000000       0.016
  -0.20000000  0.40000000  0.20000000       0.016
   0.00000000 -0.40000000  0.20000000       0.016
   0.20000000 -0.40000000  0.20000000       0.016
   0.40000000 -0.40000000  0.20000000       0.016
  -0.40000000 -0.40000000  0.20000000       0.016
  -0.20000000 -0.40000000  0.20000000       0.016
   0.00000000 -0.20000000  0.20000000       0.016
   0.20000000 -0.20000000  0.20000000       0.016
   0.40000000 -0.20000000  0.20000000       0.016
  -0.40000000 -0.20000000  0.20000000       0.016
  -0.20000000 -0.20000000  0.20000000       0.016
   0.00000000  0.00000000  0.40000000       0.016
   0.20000000 -0.00000000  0.40000000       0.016
   0.40000000 -0.00000000  0.40000000       0.016
  -0.40000000  0.00000000  0.40000000       0.016
  -0.20000000  0.00000000  0.40000000       0.016
  -0.00000000  0.20000000  0.40000000       0.016
   0.20000000  0.20000000  0.40000000       0.016
   0.40000000  0.20000000  0.40000000       0.016
  -0.40000000  0.20000000  0.40000000       0.016
  -0.20000000  0.20000000  0.40000000       0.016
   0.00000000  0.40000000  0.40000000       0.016
   0.20000000  0.40000000  0.40000000       0.016
   0.40000000  0.40000000  0.40000000       0.016
  -0.40000000  0.40000000  0.40000000       0.016
  -0.20000000  0.40000000  0.40000000       0.016
   0.00000000 -0.40000000  0.40000000       0.016
   0.20000000 -0.40000000  0.40000000       0.016
   0.40000000 -0.40000000  0.40000000       0.016
  -0.40000000 -0.40000000  0.40000000       0.016
  -0.20000000 -0.40000000  0.40000000       0.016
   0.00000000 -0.20000000  0.40000000       0.016
   0.20000000 -0.20000000  0.40000000       0.016
   0.40000000 -0.20000000  0.40000000       0.016
  -0.40000000 -0.20000000  0.40000000       0.016
  -0.20000000 -0.20000000  0.40000000       0.016
 
 position of ions in fractional coordinates (direct lattice) 
   0.96666667  0.93333333  0.40000000
   0.63333333  0.26666667  0.40000000
   0.50000000  0.00000000  0.00000000
   0.00000000  0.00000000  0.00000000
   0.10000000  0.20000000  0.80000000
   0.03333333  0.06666667  0.60000000
   0.90000000  0.80000000  0.20000000
   0.80000000  0.60000000  0.40000000
   0.73333333  0.46666667  0.20000000
   0.66666667  0.33333333  0.00000000
   0.36666667  0.73333333  0.60000000
   0.13333333  0.26666667  0.40000000
   0.83333333  0.66666667  0.00000000
   0.93333333  0.86666667  0.80000000
   0.56666667  0.13333333  0.20000000
   0.40000000  0.80000000  0.20000000
   0.43333333  0.86666667  0.80000000
   0.30000000  0.60000000  0.40000000
   0.86666667  0.73333333  0.60000000
   0.46666667  0.93333333  0.40000000
   0.16666667  0.33333333  0.00000000
   0.26666667  0.53333333  0.80000000
   0.20000000  0.40000000  0.60000000
   0.06666667  0.13333333  0.20000000
   0.76666667  0.53333333  0.80000000
   0.70000000  0.40000000  0.60000000
   0.60000000  0.20000000  0.80000000
   0.53333333  0.06666667  0.60000000
   0.33333333  0.66666667  0.00000000
   0.23333333  0.46666667  0.20000000
 
 position of ions in cartesian coordinates  (Angst):
   1.58499998 -4.75500002-11.09499998
   1.58500002 -4.75499998 -4.75500002
  -1.58500000 -1.58500000 -1.58500000
   0.00000000  0.00000000  0.00000000
   6.34000000 -6.34000000 -3.17000000
   4.75500002 -4.75499998 -1.58500002
   0.00000000 -3.17000000 -9.51000000
   1.58500000 -4.75500000 -7.92500000
   0.00000002 -3.16999998 -6.34000002
  -1.58500002 -1.58500002 -4.75499998
   4.75499998 -4.75500002 -7.92499998
   3.17000002 -3.16999998 -3.17000002
  -1.58499998 -1.58499998 -7.92500002
   4.75500002 -7.92499998-11.09500002
  -0.00000002 -3.17000002 -3.16999998
   1.58500000 -1.58500000 -7.92500000
   6.34000002 -6.33999998 -9.51000002
   3.17000000 -3.17000000 -6.34000000
   3.16999998 -6.34000002 -9.50999998
   3.16999998 -3.17000002 -9.50999998
  -0.00000002 -0.00000002 -3.16999998
   6.33999998 -6.34000002 -6.33999998
   4.75500000 -4.75500000 -4.75500000
   1.58499998 -1.58500002 -1.58499998
   4.75499998 -7.92500002 -7.92499998
   3.17000000 -6.34000000 -6.34000000
   4.75500000 -7.92500000 -4.75500000
   3.17000002 -6.33999998 -3.17000002
   0.00000002  0.00000002 -6.34000002
   1.58500002 -1.58499998 -4.75500002
 


--------------------------------------------------------------------------------------------------------


 k-point  1 :   0.0000 0.0000 0.0000  plane waves:   15963
 k-point  2 :   0.2000 0.0000-0.0000  plane waves:   15939
 k-point  3 :   0.4000 0.0000-0.0000  plane waves:   15968
 k-point  4 :   0.0000 0.2000 0.0000  plane waves:   15933
 k-point  5 :   0.2000 0.2000-0.0000  plane waves:   15954
 k-point  6 :   0.4000 0.2000-0.0000  plane waves:   15959
 k-point  7 :  -0.4000 0.2000 0.0000  plane waves:   15949
 k-point  8 :  -0.2000 0.2000 0.0000  plane waves:   15955
 k-point  9 :   0.0000 0.4000 0.0000  plane waves:   15918
 k-point 10 :   0.2000 0.4000-0.0000  plane waves:   15936
 k-point 11 :   0.4000 0.4000-0.0000  plane waves:   15974
 k-point 12 :  -0.4000 0.4000 0.0000  plane waves:   15960
 k-point 13 :  -0.2000 0.4000-0.0000  plane waves:   15950
 k-point 14 :   0.0000 0.0000 0.2000  plane waves:   15923
 k-point 15 :   0.2000-0.0000 0.2000  plane waves:   15966
 k-point 16 :   0.4000 0.0000 0.2000  plane waves:   15974
 k-point 17 :  -0.4000 0.0000 0.2000  plane waves:   15971
 k-point 18 :  -0.2000 0.0000 0.2000  plane waves:   15944
 k-point 19 :   0.0000 0.2000 0.2000  plane waves:   15930
 k-point 20 :   0.2000 0.2000 0.2000  plane waves:   15937
 k-point 21 :   0.4000 0.2000 0.2000  plane waves:   15951
 k-point 22 :  -0.4000 0.2000 0.2000  plane waves:   15962
 k-point 23 :  -0.2000 0.2000 0.2000  plane waves:   15922
 k-point 24 :  -0.0000 0.4000 0.2000  plane waves:   15898
 k-point 25 :   0.2000 0.4000 0.2000  plane waves:   15942
 k-point 26 :   0.4000 0.4000 0.2000  plane waves:   15964
 k-point 27 :  -0.4000 0.4000 0.2000  plane waves:   15932
 k-point 28 :  -0.2000 0.4000 0.2000  plane waves:   15929
 k-point 29 :   0.0000-0.4000 0.2000  plane waves:   15889
 k-point 30 :   0.2000-0.4000 0.2000  plane waves:   15932
 k-point 31 :   0.4000-0.4000 0.2000  plane waves:   15958
 k-point 32 :  -0.4000-0.4000 0.2000  plane waves:   15974
 k-point 33 :  -0.2000-0.4000 0.2000  plane waves:   15937
 k-point 34 :   0.0000-0.2000 0.2000  plane waves:   15940
 k-point 35 :   0.2000-0.2000 0.2000  plane waves:   15937
 k-point 36 :   0.4000-0.2000 0.2000  plane waves:   15980
 k-point 37 :  -0.4000-0.2000 0.2000  plane waves:   15966
 k-point 38 :  -0.2000-0.2000 0.2000  plane waves:   15967
 k-point 39 :   0.0000 0.0000 0.4000  plane waves:   15928
 k-point 40 :   0.2000-0.0000 0.4000  plane waves:   15953
 k-point 41 :   0.4000-0.0000 0.4000  plane waves:   15954
 k-point 42 :  -0.4000 0.0000 0.4000  plane waves:   15964
 k-point 43 :  -0.2000 0.0000 0.4000  plane waves:   15954
 k-point 44 :  -0.0000 0.2000 0.4000  plane waves:   15945
 k-point 45 :   0.2000 0.2000 0.4000  plane waves:   15947
 k-point 46 :   0.4000 0.2000 0.4000  plane waves:   15948
 k-point 47 :  -0.4000 0.2000 0.4000  plane waves:   15930
 k-point 48 :  -0.2000 0.2000 0.4000  plane waves:   15940
 k-point 49 :   0.0000 0.4000 0.4000  plane waves:   15896
 k-point 50 :   0.2000 0.4000 0.4000  plane waves:   15947
 k-point 51 :   0.4000 0.4000 0.4000  plane waves:   15961
 k-point 52 :  -0.4000 0.4000 0.4000  plane waves:   15957
 k-point 53 :  -0.2000 0.4000 0.4000  plane waves:   15929
 k-point 54 :   0.0000-0.4000 0.4000  plane waves:   15888
 k-point 55 :   0.2000-0.4000 0.4000  plane waves:   15930
 k-point 56 :   0.4000-0.4000 0.4000  plane waves:   15958
 k-point 57 :  -0.4000-0.4000 0.4000  plane waves:   15975
 k-point 58 :  -0.2000-0.4000 0.4000  plane waves:   15940
 k-point 59 :   0.0000-0.2000 0.4000  plane waves:   15941
 k-point 60 :   0.2000-0.2000 0.4000  plane waves:   15938
 k-point 61 :   0.4000-0.2000 0.4000  plane waves:   15952
 k-point 62 :  -0.4000-0.2000 0.4000  plane waves:   15945
 k-point 63 :  -0.2000-0.2000 0.4000  plane waves:   15961

 maximum and minimum number of plane-waves per node :      4027     3947

 maximum number of plane-waves:     15980
 maximum index in each direction: 
   IXMAX=   11   IYMAX=   16   IZMAX=   22
   IXMIN=  -11   IYMIN=  -16   IZMIN=  -23


 real space projection operators:
  total allocation   :      16622.27 KBytes
  max/ min on nodes  :       4156.57       4154.55


 parallel 3D FFT for wavefunctions:
    minimum data exchange during FFTs selected (reduces bandwidth)
 parallel 3D FFT for charge:
    minimum data exchange during FFTs selected (reduces bandwidth)


 total amount of memory used by VASP MPI-rank0   107280. kBytes
=======================================================================

   base      :      30000. kBytes
   nonlr-proj:       7263. kBytes
   fftplans  :       2329. kBytes
   grid      :       4665. kBytes
   one-center:        124. kBytes
   wavefun   :      62899. kBytes
 
     INWAV:  cpu time    5.7316: real time   12.4794
 Broyden mixing: mesh for mixing (old mesh)
   NGX = 21   NGY = 33   NGZ = 45
  (NGX  = 72   NGY  =100   NGZ  =140)
  gives a total of  31185 points

 initial charge density was supplied:
 number of electron     198.0000006 magnetization 
 keeping initial charge density in first step


--------------------------------------------------------------------------------------------------------


 Maximum index for non-local projection operator         1033
 Maximum index for augmentation-charges         1417 (set IRDMAX)


--------------------------------------------------------------------------------------------------------


 First call to EWALD:  gamma=   0.227
 Maximum number of real-space cells 4x 3x 2
 Maximum number of reciprocal cells 2x 3x 4

    FEWALD:  cpu time    0.0028: real time    0.0032


--------------------------------------- Iteration      1(   1)  ---------------------------------------


    POTLOK:  cpu time    0.0362: real time    0.0666
    SETDIJ:  cpu time    0.0093: real time    0.0093
     EDDAV:  cpu time   29.6003: real time   29.6348
       DOS:  cpu time    0.0039: real time    0.0039
    CHARGE:  cpu time    0.5841: real time    0.5845
    MIXING:  cpu time    0.0013: real time    0.0014
    --------------------------------------------
      LOOP:  cpu time   30.2350: real time   30.3006

 eigenvalue-minimisations  : 26568
 total energy-change (2. order) :-0.3331892E+03  (-0.1218340E+02)
 number of electron     198.0000010 magnetization 
 augmentation part       35.3434668 magnetization 

 Broyden mixing:
  rms(total) = 0.69719E+01    rms(broyden)= 0.69719E+01
  rms(prec ) = 0.78628E+01
  weight for this iteration     100.00

 Free energy of the ion-electron system (eV)
  ---------------------------------------------------
  alpha Z        PSCENC =      1218.45144901
  Ewald energy   TEWEN  =    -11498.06761579
  -Hartree energ DENC   =     -3038.79623994
  -exchange      EXHF   =         0.00000000
  -V(xc)+E(xc)   XCENC  =      -885.11833357
  PAW double counting   =     19406.01893746   -17894.74147828
  entropy T*S    EENTRO =        -0.01443620
  eigenvalues    EBANDS =      -646.82940520
  atomic energy  EATOM  =     13005.90793652
  Solvation  Ediel_sol  =         0.00000000
  ---------------------------------------------------
  free energy    TOTEN  =      -333.18918599 eV

  energy without entropy =     -333.17474980  energy(sigma->0) =     -333.18437393


--------------------------------------------------------------------------------------------------------




--------------------------------------- Iteration      1(   2)  ---------------------------------------


    POTLOK:  cpu time    0.0233: real time    0.0268
    SETDIJ:  cpu time    0.0054: real time    0.0054
     EDDAV:  cpu time   30.6935: real time   30.7232
       DOS:  cpu time    0.0038: real time    0.0038
    CHARGE:  cpu time    0.5869: real time    0.5873
    MIXING:  cpu time    0.0011: real time    0.0011
    --------------------------------------------
      LOOP:  cpu time   31.3140: real time   31.3476

 eigenvalue-minimisations  : 27696
 total energy-change (2. order) :-0.6465845E+02  (-0.8565975E+02)
 number of electron     198.0000006 magnetization 
 augmentation part       40.3821989 magnetization 

 Broyden mixing:
  rms(total) = 0.11052E+02    rms(broyden)= 0.11052E+02
  rms(prec ) = 0.14480E+02
  weight for this iteration     100.00

 eigenvalues of (default mixing * dielectric matrix)
  average eigenvalue GAMMA=   0.1202
  0.1202

 Free energy of the ion-electron system (eV)
  ---------------------------------------------------
  alpha Z        PSCENC =      1218.45144901
  Ewald energy   TEWEN  =    -11498.06761579
  -Hartree energ DENC   =     -2938.55457979
  -exchange      EXHF   =         0.00000000
  -V(xc)+E(xc)   XCENC  =      -888.68047980
  PAW double counting   =     19174.09342492   -17670.08591049
  entropy T*S    EENTRO =         0.00112455
  eigenvalues    EBANDS =      -800.91298902
  atomic energy  EATOM  =     13005.90793652
  Solvation  Ediel_sol  =         0.00000000
  ---------------------------------------------------
  free energy    TOTEN  =      -397.84763991 eV

  energy without entropy =     -397.84876446  energy(sigma->0) =     -397.84801476


--------------------------------------------------------------------------------------------------------




--------------------------------------- Iteration      1(   3)  ---------------------------------------


    POTLOK:  cpu time    0.0235: real time    0.0246
    SETDIJ:  cpu time    0.0053: real time    0.0054
     EDDAV:  cpu time   29.4989: real time   29.5263
       DOS:  cpu time    0.0041: real time    0.0041
    CHARGE:  cpu time    0.5892: real time    0.5896
    MIXING:  cpu time    0.0010: real time    0.0010
    --------------------------------------------
      LOOP:  cpu time   30.1220: real time   30.1509

 eigenvalue-minimisations  : 26360
 total energy-change (2. order) : 0.7089361E+02  (-0.5452605E+02)
 number of electron     198.0000008 magnetization 
 augmentation part       31.4739814 magnetization 

 Broyden mixing:
  rms(total) = 0.36115E+01    rms(broyden)= 0.36115E+01
  rms(prec ) = 0.47131E+01
  weight for this iteration     100.00

 eigenvalues of (default mixing * dielectric matrix)
  average eigenvalue GAMMA=   0.6530
  1.0604  0.2456

 Free energy of the ion-electron system (eV)
  ---------------------------------------------------
  alpha Z        PSCENC =      1218.45144901
  Ewald energy   TEWEN  =    -11498.06761579
  -Hartree energ DENC   =     -2949.08463406
  -exchange      EXHF   =         0.00000000
  -V(xc)+E(xc)   XCENC  =      -888.97707507
  PAW double counting   =     19159.58374239   -17658.85767172
  entropy T*S    EENTRO =        -0.00928825
  eigenvalues    EBANDS =      -715.90087406
  atomic energy  EATOM  =     13005.90793652
  Solvation  Ediel_sol  =         0.00000000
  ---------------------------------------------------
  free energy    TOTEN  =      -326.95403102 eV

  energy without entropy =     -326.94474277  energy(sigma->0) =     -326.95093494


--------------------------------------------------------------------------------------------------------




--------------------------------------- Iteration      1(   4)  ---------------------------------------


    POTLOK:  cpu time    0.0243: real time    0.0306
    SETDIJ:  cpu time    0.0054: real time    0.0054
     EDDAV:  cpu time   30.1805: real time   30.2094
       DOS:  cpu time    0.0039: real time    0.0039
    CHARGE:  cpu time    0.5897: real time    0.5902
    MIXING:  cpu time    0.0009: real time    0.0008
    --------------------------------------------
      LOOP:  cpu time   30.8047: real time   30.8403

 eigenvalue-minimisations  : 27008
 total energy-change (2. order) :-0.2603655E+02  (-0.3861035E+02)
 number of electron     198.0000015 magnetization 
 augmentation part       45.3469377 magnetization 

 Broyden mixing:
  rms(total) = 0.73682E+01    rms(broyden)= 0.73682E+01
  rms(prec ) = 0.10865E+02
  weight for this iteration     100.00

 eigenvalues of (default mixing * dielectric matrix)
  average eigenvalue GAMMA=   0.6053
  1.3846  0.2156  0.2156

 Free energy of the ion-electron system (eV)
  ---------------------------------------------------
  alpha Z        PSCENC =      1218.45144901
  Ewald energy   TEWEN  =    -11498.06761579
  -Hartree energ DENC   =     -2996.69178639
  -exchange      EXHF   =         0.00000000
  -V(xc)+E(xc)   XCENC  =      -886.45025601
  PAW double counting   =     19304.71630087   -17798.34662902
  entropy T*S    EENTRO =         0.00284899
  eigenvalues    EBANDS =      -702.51283276
  atomic energy  EATOM  =     13005.90793652
  Solvation  Ediel_sol  =         0.00000000
  ---------------------------------------------------
  free energy    TOTEN  =      -352.99058459 eV

  energy without entropy =     -352.99343357  energy(sigma->0) =     -352.99153425


--------------------------------------------------------------------------------------------------------




--------------------------------------- Iteration      1(   5)  ---------------------------------------


    POTLOK:  cpu time    0.0230: real time    0.0235
    SETDIJ:  cpu time    0.0053: real time    0.0053
     EDDAV:  cpu time   30.7172: real time   30.7478
       DOS:  cpu time    0.0039: real time    0.0039
    CHARGE:  cpu time    0.5894: real time    0.5898
    MIXING:  cpu time    0.0010: real time    0.0010
    --------------------------------------------
      LOOP:  cpu time   31.3397: real time   31.3713

 eigenvalue-minimisations  : 27400
 total energy-change (2. order) : 0.2897359E+02  (-0.4396130E+02)
 number of electron     198.0000006 magnetization 
 augmentation part       36.7928157 magnetization 

 Broyden mixing:
  rms(total) = 0.29975E+01    rms(broyden)= 0.29975E+01
  rms(prec ) = 0.46852E+01
  weight for this iteration     100.00

 eigenvalues of (default mixing * dielectric matrix)
  average eigenvalue GAMMA=   0.6556
  1.7832  0.3301  0.3301  0.1790

 Free energy of the ion-electron system (eV)
  ---------------------------------------------------
  alpha Z        PSCENC =      1218.45144901
  Ewald energy   TEWEN  =    -11498.06761579
  -Hartree energ DENC   =     -2991.42560708
  -exchange      EXHF   =         0.00000000
  -V(xc)+E(xc)   XCENC  =      -886.83664899
  PAW double counting   =     19256.23715975   -17756.76615669
  entropy T*S    EENTRO =        -0.02048962
  eigenvalues    EBANDS =      -671.49702248
  atomic energy  EATOM  =     13005.90793652
  Solvation  Ediel_sol  =         0.00000000
  ---------------------------------------------------
  free energy    TOTEN  =      -324.01699539 eV

  energy without entropy =     -323.99650577  energy(sigma->0) =     -324.01016552


--------------------------------------------------------------------------------------------------------




--------------------------------------- Iteration      1(   6)  ---------------------------------------


    POTLOK:  cpu time    0.0353: real time    0.0408
    SETDIJ:  cpu time    0.0089: real time    0.0089
     EDDAV:  cpu time   30.0496: real time   30.0786
       DOS:  cpu time    0.0041: real time    0.0041
    CHARGE:  cpu time    0.5887: real time    0.5892
    MIXING:  cpu time    0.0019: real time    0.0019
    --------------------------------------------
      LOOP:  cpu time   30.6885: real time   30.7236

 eigenvalue-minimisations  : 26920
 total energy-change (2. order) :-0.2220955E+00  (-0.1497765E+02)
 number of electron     198.0000011 magnetization 
 augmentation part       33.6758491 magnetization 

 Broyden mixing:
  rms(total) = 0.25546E+01    rms(broyden)= 0.25546E+01
  rms(prec ) = 0.41537E+01
  weight for this iteration     100.00

 eigenvalues of (default mixing * dielectric matrix)
  average eigenvalue GAMMA=   0.6575
  2.1593  0.3812  0.3812  0.1830  0.1830

 Free energy of the ion-electron system (eV)
  ---------------------------------------------------
  alpha Z        PSCENC =      1218.45144901
  Ewald energy   TEWEN  =    -11498.06761579
  -Hartree energ DENC   =     -2952.48481425
  -exchange      EXHF   =         0.00000000
  -V(xc)+E(xc)   XCENC  =      -887.97950100
  PAW double counting   =     19162.05843111   -17667.44741883
  entropy T*S    EENTRO =        -0.01042745
  eigenvalues    EBANDS =      -704.66713015
  atomic energy  EATOM  =     13005.90793652
  Solvation  Ediel_sol  =         0.00000000
  ---------------------------------------------------
  free energy    TOTEN  =      -324.23909085 eV

  energy without entropy =     -324.22866339  energy(sigma->0) =     -324.23561503


--------------------------------------------------------------------------------------------------------




--------------------------------------- Iteration      1(   7)  ---------------------------------------


    POTLOK:  cpu time    0.0230: real time    0.0236
    SETDIJ:  cpu time    0.0053: real time    0.0053
     EDDAV:  cpu time   29.7655: real time   29.7947
       DOS:  cpu time    0.0041: real time    0.0041
    CHARGE:  cpu time    0.5881: real time    0.5886
    MIXING:  cpu time    0.0011: real time    0.0011
    --------------------------------------------
      LOOP:  cpu time   30.3872: real time   30.4174

 eigenvalue-minimisations  : 26600
 total energy-change (2. order) : 0.2356658E+01  (-0.6173410E+01)
 number of electron     198.0000010 magnetization 
 augmentation part       32.9122364 magnetization 

 Broyden mixing:
  rms(total) = 0.15859E+01    rms(broyden)= 0.15859E+01
  rms(prec ) = 0.25054E+01
  weight for this iteration     100.00

 eigenvalues of (default mixing * dielectric matrix)
  average eigenvalue GAMMA=   0.6366
  2.3431  0.4423  0.4423  0.2226  0.2226  0.1466

 Free energy of the ion-electron system (eV)
  ---------------------------------------------------
  alpha Z        PSCENC =      1218.45144901
  Ewald energy   TEWEN  =    -11498.06761579
  -Hartree energ DENC   =     -2942.34522948
  -exchange      EXHF   =         0.00000000
  -V(xc)+E(xc)   XCENC  =      -888.47320300
  PAW double counting   =     19107.03637984   -17613.79788511
  entropy T*S    EENTRO =        -0.00421121
  eigenvalues    EBANDS =      -710.59005364
  atomic energy  EATOM  =     13005.90793652
  Solvation  Ediel_sol  =         0.00000000
  ---------------------------------------------------
  free energy    TOTEN  =      -321.88243286 eV

  energy without entropy =     -321.87822165  energy(sigma->0) =     -321.88102913


--------------------------------------------------------------------------------------------------------




--------------------------------------- Iteration      1(   8)  ---------------------------------------


    POTLOK:  cpu time    0.0254: real time    0.0313
    SETDIJ:  cpu time    0.0053: real time    0.0053
     EDDAV:  cpu time   28.8573: real time   28.8846
       DOS:  cpu time    0.0042: real time    0.0042
    CHARGE:  cpu time    0.5880: real time    0.5885
    MIXING:  cpu time    0.0010: real time    0.0010
    --------------------------------------------
      LOOP:  cpu time   29.4812: real time   29.5150

 eigenvalue-minimisations  : 25736
 total energy-change (2. order) : 0.2136792E+01  (-0.1828331E+01)
 number of electron     198.0000009 magnetization 
 augmentation part       33.3485293 magnetization 

 Broyden mixing:
  rms(total) = 0.96478E+00    rms(broyden)= 0.96478E+00
  rms(prec ) = 0.13758E+01
  weight for this iteration     100.00

 eigenvalues of (default mixing * dielectric matrix)
  average eigenvalue GAMMA=   0.6029
  2.3561  0.4890  0.4890  0.2823  0.2823  0.1723  0.1493

 Free energy of the ion-electron system (eV)
  ---------------------------------------------------
  alpha Z        PSCENC =      1218.45144901
  Ewald energy   TEWEN  =    -11498.06761579
  -Hartree energ DENC   =     -2950.37729668
  -exchange      EXHF   =         0.00000000
  -V(xc)+E(xc)   XCENC  =      -888.07663235
  PAW double counting   =     19114.81604199   -17620.08995854
  entropy T*S    EENTRO =        -0.01476249
  eigenvalues    EBANDS =      -702.29480296
  atomic energy  EATOM  =     13005.90793652
  Solvation  Ediel_sol  =         0.00000000
  ---------------------------------------------------
  free energy    TOTEN  =      -319.74564130 eV

  energy without entropy =     -319.73087881  energy(sigma->0) =     -319.74072047


--------------------------------------------------------------------------------------------------------




--------------------------------------- Iteration      1(   9)  ---------------------------------------


[...]
    114       7.9031     -0.00000
    115       7.9655     -0.00000
    116       8.0221     -0.00000
    117       8.0845     -0.00000
    118       8.1561     -0.00000
    119       8.1920     -0.00000
    120       8.2561     -0.00000

 k-point    63 :      -0.2000   -0.2000    0.4000
  band No.  band energies     occupation 
      1     -47.3376      2.00000
      2     -47.3128      2.00000
      3     -47.2725      2.00000
      4     -47.2202      2.00000
      5     -47.1885      2.00000
      6     -47.1074      2.00000
      7     -23.9942      2.00000
      8     -23.9235      2.00000
      9     -23.7733      2.00000
     10     -23.7266      2.00000
     11     -23.5044      2.00000
     12     -23.5018      2.00000
     13     -23.4915      2.00000
     14     -23.4477      2.00000
     15     -23.4273      2.00000
     16     -23.4144      2.00000
     17     -23.3832      2.00000
     18     -23.3401      2.00000
     19     -23.3109      2.00000
     20     -23.2809      2.00000
     21     -23.1383      2.00000
     22     -23.1169      2.00000
     23     -22.9680      2.00000
     24     -22.8662      2.00000
     25       0.4223      2.00000
     26       0.7050      2.00000
     27       2.2804      2.00000
     28       2.4799      2.00000
     29       2.5422      2.00000
     30       2.6874      2.00000
     31       2.7924      2.00000
     32       2.8081      2.00000
     33       2.9677      2.00000
     34       3.0219      2.00000
     35       3.0861      2.00000
     36       3.1336      2.00000
     37       3.1833      2.00000
     38       3.2507      2.00000
     39       3.2928      2.00000
     40       3.3885      2.00000
     41       3.4297      2.00000
     42       3.4640      2.00000
     43       3.5543      2.00000
     44       3.6119      2.00000
     45       3.7220      2.00000
     46       3.7494      2.00000
     47       3.9536      2.00000
     48       3.9934      2.00000
     49       4.0820      2.00000
     50       4.1037      2.00000
     51       4.1552      2.00000
     52       4.2274      2.00000
     53       4.2487      2.00000
     54       4.3293      2.00000
     55       4.3943      2.00000
     56       4.4812      2.00000
     57       4.6249      2.00000
     58       4.7160      2.00000
     59       4.7928      2.00000
     60       4.8773      2.00000
     61       4.9030      2.00000
     62       4.9524      2.00000
     63       4.9700      2.00000
     64       5.0276      2.00000
     65       5.0824      2.00000
     66       5.1130      2.00000
     67       5.1626      2.00000
     68       5.2214      2.00000
     69       5.2661      2.00000
     70       5.2851      2.00000
     71       5.4000      2.00000
     72       5.4503      2.00000
     73       5.4794      2.00000
     74       5.5109      2.00000
     75       5.5938      2.00000
     76       5.6331      2.00000
     77       5.6662      2.00000
     78       5.7018      2.00000
     79       5.7640      2.00000
     80       5.7992      2.00000
     81       5.8716      2.00000
     82       5.9248      2.00001
     83       5.9722      2.00003
     84       6.0231      2.00012
     85       6.0566      2.00030
     86       6.0922      2.00075
     87       6.1509      2.00297
     88       6.1546      2.00322
     89       6.2174      2.01101
     90       6.2508      2.01910
     91       6.2823      2.02994
     92       6.3048      2.03946
     93       6.3572      2.06270
     94       6.3987      2.07078
     95       6.4133      2.06785
     96       6.4480      2.04024
     97       6.4723      1.99735
     98       6.5062      1.89510
     99       6.5264      1.80793
    100       6.6570      0.85234
    101       6.7366      0.27575
    102       6.8137     -0.01212
    103       6.8369     -0.04746
    104       6.9225     -0.06241
    105       6.9837     -0.03526
    106       7.0968     -0.00569
    107       7.1837     -0.00081
    108       7.2732     -0.00007
    109       7.5355     -0.00000
    110       7.6475     -0.00000
    111       7.7107     -0.00000
    112       7.7609     -0.00000
    113       7.8770     -0.00000
    114       8.2921     -0.00000
    115       8.3525     -0.00000
    116       8.4137     -0.00000
    117       8.5108     -0.00000
    118       8.5414     -0.00000
    119       8.5913     -0.00000
    120       8.6421     -0.00000


--------------------------------------------------------------------------------------------------------


 soft charge-density along one line, spin component           1
         0         1         2         3         4         5         6         7         8         9
 total charge-density along one line
 
 pseudopotential strength for first ion, spin component:           1
  5.484 -20.903   0.002   0.001  -0.000  -0.005  -0.002   0.001
-20.903   9.788   0.003   0.002  -0.001  -0.000  -0.000   0.000
  0.002   0.003 -10.529  -0.001   0.003   6.776   0.001  -0.003
  0.001   0.002  -0.001 -10.528  -0.005   0.001   6.774   0.006
 -0.000  -0.001   0.003  -0.005 -10.530  -0.003   0.006   6.777
 -0.005  -0.000   6.776   0.001  -0.003   7.455  -0.001   0.002
 -0.002  -0.000   0.001   6.774   0.006  -0.001   7.456  -0.004
  0.001   0.000  -0.003   0.006   6.777   0.002  -0.004   7.454
  0.002   0.001  -0.000  -0.000   0.002   0.001   0.000  -0.003
 -0.001  -0.000   0.001   0.002  -0.000  -0.001  -0.003   0.000
  0.001   0.000  -0.001   0.001   0.000   0.001  -0.001  -0.000
 -0.004  -0.002  -0.000  -0.000   0.001   0.000   0.001  -0.001
 -0.000  -0.000  -0.002   0.000  -0.000   0.002  -0.000   0.000
  0.003   0.001  -0.000  -0.000   0.002   0.001   0.001  -0.004
 -0.001  -0.000   0.001   0.003  -0.000  -0.002  -0.004   0.001
  0.001   0.001  -0.001   0.001   0.000   0.002  -0.002  -0.000
 -0.005  -0.002  -0.000  -0.000   0.001   0.001   0.001  -0.002
 -0.000  -0.000  -0.002   0.000  -0.000   0.003  -0.000   0.000
 total augmentation occupancy for first ion, spin component:           1
  1.996  -0.034  -0.000  -0.000   0.000  -0.000  -0.000   0.000   0.006  -0.004   0.001  -0.009  -0.001  -0.005   0.003  -0.001
 -0.034   1.560  -0.002  -0.002   0.003   0.002   0.000  -0.004   0.016  -0.024  -0.017  -0.038  -0.005  -0.006   0.009   0.007
 -0.000  -0.002   1.998   0.000  -0.000  -0.022  -0.001   0.001   0.008  -0.005  -0.001   0.006  -0.003  -0.005   0.003   0.001
 -0.000  -0.002   0.000   1.998  -0.000  -0.001  -0.023   0.001   0.004  -0.001   0.001   0.007   0.001  -0.003   0.001  -0.000
  0.000   0.003  -0.000  -0.000   1.998   0.001   0.001  -0.023  -0.006   0.006  -0.001  -0.001   0.001   0.003  -0.003   0.000
 -0.000   0.002  -0.022  -0.001   0.001   0.067   0.001  -0.001  -0.007   0.006  -0.000  -0.005   0.002   0.004  -0.003   0.000
 -0.000   0.000  -0.001  -0.023   0.001   0.001   0.067  -0.005  -0.000  -0.005  -0.003  -0.007  -0.000   0.000   0.001   0.001
  0.000  -0.004   0.001   0.001  -0.023  -0.001  -0.005   0.067   0.004  -0.005   0.004  -0.001  -0.004  -0.001   0.002  -0.003
  0.006   0.016   0.008   0.004  -0.006  -0.007  -0.000   0.004   2.767  -0.258  -0.046  -0.019  -0.007  -1.068   0.118   0.018
 -0.004  -0.024  -0.005  -0.001   0.006   0.006  -0.005  -0.005  -0.258   2.790  -0.017   0.034   0.026   0.118  -1.073   0.007
  0.001  -0.017  -0.001   0.001  -0.001  -0.000  -0.003   0.004  -0.046  -0.017   2.546  -0.018   0.016   0.018   0.007  -1.071
 -0.009  -0.038   0.006   0.007  -0.001  -0.005  -0.007  -0.001  -0.019   0.034  -0.018   2.771  -0.036   0.005  -0.011   0.019
 -0.001  -0.005  -0.003   0.001   0.001   0.002  -0.000  -0.004  -0.007   0.026   0.016  -0.036   2.557   0.002  -0.011  -0.009
 -0.005  -0.006  -0.005  -0.003   0.003   0.004   0.000  -0.001  -1.068   0.118   0.018   0.005   0.002   0.428  -0.053  -0.007
  0.003   0.009   0.003   0.001  -0.003  -0.003   0.001   0.002   0.118  -1.073   0.007  -0.011  -0.011  -0.053   0.429  -0.003
 -0.001   0.007   0.001  -0.000   0.000   0.000   0.001  -0.003   0.018   0.007  -1.071   0.019  -0.009  -0.007  -0.003   0.460
  0.008   0.039  -0.004  -0.004   0.001   0.002   0.003  -0.001   0.005  -0.011   0.018  -1.064   0.035  -0.002   0.004  -0.013
  0.001   0.006   0.003  -0.001  -0.000  -0.001  -0.000   0.003   0.002  -0.011  -0.009   0.036  -1.076  -0.000   0.005   0.005


------------------------ aborting loop because EDIFF is reached ----------------------------------------


    CHARGE:  cpu time    0.6047: real time    0.6053
    FORLOC:  cpu time    0.0065: real time    0.0065
    FORNL :  cpu time    3.9375: real time    3.9411
    STRESS:  cpu time   11.8068: real time   11.8270
    FORCOR:  cpu time    0.0288: real time    0.0288
    FORHAR:  cpu time    0.0108: real time    0.0108
    MIXING:  cpu time    0.0023: real time    0.0023
    OFIELD:  cpu time    0.0001: real time    0.0001

  FORCE on cell =-STRESS in cart. coord.  units (eV):
  Direction    XX          YY          ZZ          XY          YZ          ZX
  --------------------------------------------------------------------------------------
  Alpha Z  1218.45145  1218.45145  1218.45145
  Ewald   -3792.42319 -3475.76319 -4229.91077  -128.71760   444.93491   307.82275
  Hartree  1043.65171  1289.53433   630.78942  -109.07197   401.14049   302.16835
  E(xc)    -891.11653  -890.85950  -891.00962    -0.05541    -0.04816    -0.37322
  Local    -370.33674  -933.46512   480.14781   237.84079  -845.94790  -608.21016
  n-local  -278.27318  -278.45971  -278.19914     0.44670     0.13572     1.18067
  augment   330.01051   329.98331   329.79254    -0.02753    -0.02818    -0.33419
  Kinetic  2736.04390  2735.65582  2735.47910    -1.47040    -0.37586    -1.93717
  Fock        0.00000     0.00000     0.00000     0.00000     0.00000     0.00000
  -------------------------------------------------------------------------------------
  Total      -3.99207    -4.92260    -4.45921    -1.05541    -0.18899     0.31702
  in kB     -13.38566   -16.50577   -14.95200    -3.53884    -0.63369     1.06300
  external pressure =      -14.95 kB  Pullay stress =        0.00 kB


 VOLUME and BASIS-vectors are now :
 -----------------------------------------------------------------------------
  energy-cutoff  :      600.00
  volume of cell :      477.83
      direct lattice vectors                 reciprocal lattice vectors
    -3.170000000 -3.170000000 -3.170000000    -0.136698212 -0.126182965 -0.052576236
     1.585000000  1.585000000 -7.925000000     0.042060988  0.063091483 -0.105152471
     7.925000000 -7.925000000 -1.585000000     0.063091483 -0.063091483  0.000000000

  length of vectors
     5.490601060  8.235901590 11.319164059     0.193320466  0.129640673  0.089224830


 FORCES acting on ions
    electron-ion (+dipol)            ewald-force                    non-local-force                 convergence-correction
 -----------------------------------------------------------------------------------------------
   0.151E+03 0.411E+02 -.194E+03   -.151E+03 -.404E+02 0.194E+03   0.375E+00 -.238E+00 -.131E+00   -.327E-01 0.501E-01 0.128E-01
   -.807E+02 -.189E+03 0.112E+03   0.810E+02 0.188E+03 -.111E+03   0.204E-01 -.195E-01 -.200E+00   0.597E-02 -.370E-01 0.221E-01
   -.251E+02 0.814E+02 -.278E+02   0.248E+02 -.810E+02 0.277E+02   0.121E+00 -.103E-01 -.235E+00   0.392E-01 -.625E-01 0.529E-01
   -.611E+02 0.106E+03 -.800E+02   0.614E+02 -.106E+03 0.801E+02   -.725E-01 0.501E-01 -.198E+00   0.368E-01 -.106E+00 0.405E-01
   -.234E+02 -.109E+03 0.253E+03   0.233E+02 0.110E+03 -.253E+03   0.367E-01 0.275E+00 -.201E+00   -.304E-01 -.608E-01 0.935E-01
   0.375E+01 0.771E+02 -.278E+02   -.428E+01 -.769E+02 0.274E+02   0.342E+00 0.521E-01 0.185E-01   -.325E-01 0.426E-01 0.103E-01
   0.118E+02 0.479E+02 -.925E+02   -.117E+02 -.483E+02 0.926E+02   -.116E+00 -.157E+00 0.136E+00   -.117E-01 -.582E-02 0.205E-01
   -.163E+02 0.581E+01 0.128E+02   0.160E+02 -.612E+01 -.125E+02   -.251E+00 -.502E-01 0.228E+00   0.125E-01 0.499E-01 0.388E-02
   0.401E+02 -.503E+02 0.428E+02   -.402E+02 0.506E+02 -.426E+02   -.519E-01 0.121E-01 -.121E+00   -.216E-01 0.292E-01 -.154E-01
   -.839E+02 -.636E+02 0.108E+03   0.837E+02 0.641E+02 -.108E+03   0.247E+00 0.352E-01 -.141E+00   0.683E-01 -.478E-01 -.217E-01
   0.320E+02 0.931E+02 -.710E+02   -.320E+02 -.934E+02 0.715E+02   -.998E-01 -.168E+00 -.212E+00   -.689E-01 0.237E-01 -.481E-01
   0.381E+02 -.513E+02 0.863E+02   -.382E+02 0.515E+02 -.867E+02   0.295E+00 -.228E-01 -.232E+00   -.345E-01 0.147E-01 0.188E-01
   0.550E+02 0.373E+02 -.800E+02   -.550E+02 -.373E+02 0.801E+02   0.305E-02 -.490E+00 0.375E+00   0.449E-01 -.464E-01 0.470E-02
   0.526E+02 0.228E+02 -.132E+03   -.523E+02 -.227E+02 0.132E+03   -.128E+00 0.262E+00 0.906E-01   0.299E-01 0.322E-03 -.210E-01
   -.379E+02 -.363E+02 0.126E+02   0.376E+02 0.366E+02 -.127E+02   0.720E-01 0.147E+00 -.495E-01   0.956E-02 -.226E-03 0.118E-02
   0.290E+00 0.606E+02 -.453E+02   -.697E+00 -.606E+02 0.457E+02   -.300E+00 -.137E+00 0.385E+00   -.476E-02 -.849E-02 0.108E-01
   0.100E+03 0.477E+02 -.981E+02   -.101E+03 -.477E+02 0.987E+02   -.380E+00 -.521E-01 0.456E-01   0.249E-02 0.744E-02 -.164E-01
   -.531E+01 0.521E+01 -.362E+01   0.557E+01 -.529E+01 0.331E+01   0.107E+00 -.261E+00 0.168E+00   -.308E-01 0.158E-01 -.331E-01
   -.166E+02 0.468E+02 -.646E+02   0.169E+02 -.467E+02 0.649E+02   -.152E+00 0.698E-01 0.191E+00   0.436E-02 0.631E-01 -.129E-01
   0.305E+02 0.928E+01 -.380E+02   -.300E+02 -.963E+01 0.380E+02   0.252E-02 -.170E+00 0.835E-01   -.324E-02 -.920E-02 0.302E-02
   -.546E+02 -.174E+02 0.946E+02   0.547E+02 0.171E+02 -.949E+02   -.212E+00 0.928E-01 -.723E-01   0.514E-01 -.376E-01 -.110E-01
   -.697E+01 -.852E+01 0.205E+02   0.682E+01 0.842E+01 -.207E+02   -.233E+00 0.974E-01 -.491E-01   0.648E-02 -.273E-01 -.240E-01
   -.275E+02 -.244E+02 0.767E+02   0.272E+02 0.243E+02 -.762E+02   0.102E+00 -.391E-01 0.179E-01   -.445E-01 -.618E-03 0.176E-01
   0.444E+01 -.539E+01 0.551E+02   -.402E+01 0.516E+01 -.557E+02   0.211E+00 0.951E-01 -.226E+00   -.388E-02 0.352E-02 -.570E-02
   -.229E+02 -.357E+02 0.470E+02   0.227E+02 0.353E+02 -.468E+02   0.212E+00 -.126E-01 0.380E+00   0.366E-01 0.105E-01 0.127E-01
   -.824E+02 -.344E+02 0.905E+02   0.831E+02 0.344E+02 -.911E+02   -.125E+00 0.756E-01 0.179E+00   -.144E-01 0.338E-01 0.173E-01
   -.195E+02 -.755E+02 0.604E+02   0.194E+02 0.758E+02 -.606E+02   0.105E+00 -.299E-01 -.131E-01   -.394E-01 0.960E-02 0.229E-01
   -.188E+02 0.275E+02 -.355E+02   0.190E+02 -.281E+02 0.351E+02   -.523E-02 0.972E-01 -.134E+00   -.215E-01 0.873E-02 0.141E-01
   0.477E+02 0.342E+02 -.866E+02   -.480E+02 -.342E+02 0.871E+02   -.576E-01 -.131E+00 0.138E+00   0.451E-01 -.443E-01 -.445E-02
   0.152E+02 -.419E+02 0.493E+01   -.151E+02 0.421E+02 -.499E+01   0.140E+00 0.285E-01 -.103E+00   -.222E-01 0.345E-01 -.980E-02
 -----------------------------------------------------------------------------------------------
   -.183E+00 0.709E+00 -.263E+00   -.146E-12 0.192E-12 0.163E-12   0.209E+00 -.597E+00 0.119E+00   -.233E-01 -.971E-01 0.156E+00
 
 
 POSITION                                       TOTAL-FORCE (eV/Angst)
 -----------------------------------------------------------------------------------
      1.58500     -4.75500    -11.09500         0.076914      0.448278      0.229931
      1.58500     -4.75500     -4.75500         0.325038     -0.146620      0.015676
     -1.58500     -1.58500     -1.58500        -0.115691      0.384295     -0.233311
      0.00000      0.00000      0.00000         0.250826     -0.023693     -0.040556
      6.34000     -6.34000     -3.17000        -0.046558      0.706666     -0.560094
      4.75500     -4.75500     -1.58500        -0.221369      0.274422     -0.350017
      0.00000     -3.17000     -9.51000        -0.016616     -0.561603      0.184082
      1.58500     -4.75500     -7.92500        -0.542247     -0.309439      0.584206
      0.00000     -3.17000     -6.34000        -0.173067      0.282531      0.051836
     -1.58500     -1.58500     -4.75500         0.173595      0.537001     -0.584708
      4.75500     -4.75500     -7.92500        -0.145672     -0.398090      0.264929
      3.17000     -3.17000     -3.17000         0.134476      0.170888     -0.625958
     -1.58500     -1.58500     -7.92500         0.079997     -0.499881      0.461687
      4.75500     -7.92500    -11.09500         0.209267      0.377241     -0.062904
     -0.00000     -3.17000     -3.17000        -0.224984      0.482983     -0.129526
      1.58500     -1.58500     -7.92500        -0.712309     -0.106934      0.787065
      6.34000     -6.34000     -9.51000        -0.866911     -0.120348      0.631791
      3.17000     -3.17000     -6.34000         0.337870     -0.322136     -0.180418
      3.17000     -6.34000     -9.51000         0.078417      0.209734      0.511029
      3.17000     -3.17000     -9.51000         0.558521     -0.537913      0.116450
     -0.00000     -0.00000     -3.17000        -0.041002     -0.166623     -0.411729
      6.34000     -6.34000     -6.34000        -0.374163     -0.033228     -0.250789
      4.75500     -4.75500     -4.75500        -0.208725     -0.086979      0.498351
      1.58500     -1.58500     -1.58500         0.634632     -0.134231     -0.852237
      4.75500     -7.92500     -7.92500         0.056980     -0.356439      0.588749
      3.17000     -6.34000     -6.34000         0.568390      0.114001     -0.393048
      4.75500     -7.92500     -4.75500         0.017660      0.271130     -0.213079
      3.17000     -6.34000     -3.17000         0.194570     -0.446835     -0.475714
      0.00000      0.00000     -6.34000        -0.247710     -0.254445      0.602290
      1.58500     -1.58500     -4.75500         0.239873      0.246264     -0.163984
 -----------------------------------------------------------------------------------
    total drift:                                0.002822      0.014858      0.011751


--------------------------------------------------------------------------------------------------------



  FREE ENERGIE OF THE ION-ELECTRON SYSTEM (eV)
  ---------------------------------------------------
  free  energy   TOTEN  =      -318.79484197 eV

  energy  without entropy=     -318.78223341  energy(sigma->0) =     -318.79063911
 


--------------------------------------------------------------------------------------------------------


    POTLOK:  cpu time    0.0275: real time    0.0275


--------------------------------------------------------------------------------------------------------


 stress matrix after NEB project (eV)
     -3.99207     -1.05541      0.31702
     -1.05541     -4.92260     -0.18899
      0.31702     -0.18899     -4.45921
  FORCES: max atom, RMS     1.079434    0.651832
  FORCE total and by dimension    3.570231    0.866911
  Stress total and by dimension    7.909066    4.922595
 writing wavefunctions
     LOOP+:  cpu time  717.1772: real time  722.3994
    4ORBIT:  cpu time    0.0000: real time    0.0000

 total amount of memory used by VASP MPI-rank0   107280. kBytes
=======================================================================

   base      :      30000. kBytes
   nonlr-proj:       7263. kBytes
   fftplans  :       2329. kBytes
   grid      :       4665. kBytes
   one-center:        124. kBytes
   wavefun   :      62899. kBytes
 
  
  
 General timing and accounting informations for this job:
 ========================================================
  
                  Total CPU time used (sec):      727.052
                            User time (sec):      720.585
                          System time (sec):        6.467
                         Elapsed time (sec):      741.007
  
                   Maximum memory used (kb):      163832.
                   Average memory used (kb):           0.
  
                          Minor page faults:        66772
                          Major page faults:           24
                 Voluntary context switches:         2462
