 running on   32 total cores
 distrk:  each k-point on   32 cores,    1 groups
 distr:  one band on    4 cores,    8 groups
 using from now: INCAR     
 vasp.5.4.4.18Apr17-6-g9f103f2a35 (build Aug 09 2018 16:20:53) complex          
  
 POSCAR found type information on POSCAR  Nb Mo Ta Ti V 
 POSCAR found :  5 types and      30 ions
 scaLAPACK will be used

 ----------------------------------------------------------------------------- 
|                                                                             |
|  ADVICE TO THIS USER RUNNING 'VASP/VAMP'   (HEAR YOUR MASTER'S VOICE ...):  |
|                                                                             |
|      You enforced a specific xc-type in the INCAR file,                     |
|      a different type was found on the POTCAR file                          |
|          I HOPE YOU KNOW, WHAT YOU ARE  DOING                               |
|                                                                             |
 ----------------------------------------------------------------------------- 

 LDA part: xc-table for Pade appr. of Perdew
 POSCAR found type information on POSCAR  Nb Mo Ta Ti V 
 POSCAR found :  5 types and      30 ions
 found WAVECAR, reading the header
 POSCAR, INCAR and KPOINTS ok, starting setup
 FFT: planning ...
 reading WAVECAR
 the WAVECAR file was read successfully
 charge-density read from file: Nb                                      
 entering main loop
       N       E                     dE             d eps       ncg     rms          rms(c)
DAV:   1    -0.333189185992E+03   -0.33319E+03   -0.12183E+02 26568   0.360E+01    0.697E+01
DAV:   2    -0.397847639906E+03   -0.64658E+02   -0.85660E+02 27696   0.125E+02    0.111E+02
DAV:   3    -0.326954031022E+03    0.70894E+02   -0.54526E+02 26360   0.110E+02    0.361E+01
DAV:   4    -0.352990584587E+03   -0.26037E+02   -0.38610E+02 27008   0.657E+01    0.737E+01
DAV:   5    -0.324016995391E+03    0.28974E+02   -0.43961E+02 27400   0.115E+02    0.300E+01
DAV:   6    -0.324239090845E+03   -0.22210E+00   -0.14978E+02 26920   0.471E+01    0.255E+01
DAV:   7    -0.321882432862E+03    0.23567E+01   -0.61734E+01 26600   0.353E+01    0.159E+01
DAV:   8    -0.319745641297E+03    0.21368E+01   -0.18283E+01 25736   0.177E+01    0.965E+00
DAV:   9    -0.319446616075E+03    0.29903E+00   -0.62543E+00 25368   0.106E+01    0.872E+00
DAV:  10    -0.319136356180E+03    0.31026E+00   -0.15721E+00 24264   0.532E+00    0.686E+00
DAV:  11    -0.319000997489E+03    0.13536E+00   -0.52508E-01 25544   0.283E+00    0.612E+00
DAV:  12    -0.318962217933E+03    0.38780E-01   -0.66528E-01 25440   0.342E+00    0.534E+00
DAV:  13    -0.318920434542E+03    0.41783E-01   -0.97606E-01 25512   0.415E+00    0.438E+00
DAV:  14    -0.318875255361E+03    0.45179E-01   -0.58824E-01 26416   0.354E+00    0.359E+00
DAV:  15    -0.318827031469E+03    0.48224E-01   -0.41913E-01 26704   0.251E+00    0.244E+00
DAV:  16    -0.318821262557E+03    0.57689E-02   -0.28806E-01 25128   0.231E+00    0.204E+00
DAV:  17    -0.318809873709E+03    0.11389E-01   -0.23149E-01 23432   0.210E+00    0.146E+00
DAV:  18    -0.318804419387E+03    0.54543E-02   -0.10807E-01 25472   0.143E+00    0.112E+00
DAV:  19    -0.318797558182E+03    0.68612E-02   -0.69424E-02 24632   0.106E+00    0.568E-01
DAV:  20    -0.318795935263E+03    0.16229E-02   -0.24355E-02 23928   0.537E-01    0.367E-01
DAV:  21    -0.318795165115E+03    0.77015E-03   -0.68179E-03 22728   0.263E-01    0.244E-01
DAV:  22    -0.318795109235E+03    0.55880E-04   -0.24631E-03 25536   0.191E-01    0.200E-01
DAV:  23    -0.318794939791E+03    0.16944E-03   -0.12593E-03 21464   0.136E-01    0.147E-01
DAV:  24    -0.318794841968E+03    0.97823E-04   -0.60451E-04 16432   0.947E-02
   1 F= -.31879484E+03 E0= -.31879064E+03  d E =-.126086E-01
 writing wavefunctions
VASP is done!
