<?xml version="1.0" encoding="ISO-8859-1"?>
<modeling>
 <generator>
  <i name="program" type="string">vasp </i>
  <i name="version" type="string">5.4.4.18Apr17-6-g9f103f2a35  </i>
  <i name="subversion" type="string">(build Aug 09 2018 16:20:53) complex            parallel </i>
  <i name="platform" type="string">LinuxIFC </i>
  <i name="date" type="string">2020 04 28 </i>
  <i name="time" type="string">21:06:14 </i>
 </generator>
 <incar>
  <i type="string" name="SYSTEM"> Nb - Mo - Ta - Ti - V SQS</i>
  <i type="string" name="PREC">normal</i>
  <i type="int" name="ICHARG">     1</i>
  <i type="int" name="NELM">   100</i>
  <i type="int" name="IBRION">     2</i>
  <i name="ENCUT">    600.00000000</i>
  <i type="string" name="LREAL"> Auto</i>
  <i type="int" name="ISMEAR">     1</i>
  <i name="SIGMA">      0.20000000</i>
  <v type="int" name="KPOINT_BSE">    -1     0     0     0</v>
  <i type="int" name="NELM">   100</i>
  <i type="string" name="GGA"> PS</i>
 </incar>
 <structure name="primitive_cell" >
  <crystal>
   <varray name="basis" >
    <v>      -3.17000000      -3.17000000      -3.17000000 </v>
    <v>       1.58500000       1.58500000      -7.92500000 </v>
    <v>       7.92500000      -7.92500000      -1.58500000 </v>
   </varray>
   <i name="volume">    477.82519500 </i>
   <varray name="rec_basis" >
    <v>      -0.13669821      -0.12618297      -0.05257624 </v>
    <v>       0.04206099       0.06309148      -0.10515247 </v>
    <v>       0.06309148      -0.06309148       0.00000000 </v>
   </varray>
  </crystal>
  <varray name="positions" >
   <v>      -0.03333333      -0.06666667       0.40000000 </v>
   <v>       0.30000000      -0.40000000       0.40000000 </v>
   <v>      -0.10000000      -0.20000000       0.20000000 </v>
   <v>       0.06666667       0.13333333       0.20000000 </v>
   <v>       0.46666667      -0.06666667       0.40000000 </v>
   <v>      -0.13333333      -0.26666667      -0.40000000 </v>
   <v>       0.03333333       0.06666667      -0.40000000 </v>
   <v>      -0.36666667       0.26666667       0.40000000 </v>
   <v>       0.40000000      -0.20000000       0.20000000 </v>
   <v>      -0.20000000      -0.40000000       0.40000000 </v>
   <v>      -0.43333333       0.13333333       0.20000000 </v>
   <v>       0.36666667      -0.26666667      -0.40000000 </v>
   <v>       0.13333333       0.26666667       0.40000000 </v>
   <v>      -0.46666667       0.06666667      -0.40000000 </v>
   <v>       0.23333333       0.46666667       0.20000000 </v>
   <v>       0.20000000       0.40000000      -0.40000000 </v>
   <v>       0.00000000       0.00000000       0.00000000 </v>
   <v>      -0.06666667      -0.13333333      -0.20000000 </v>
   <v>      -0.30000000       0.40000000      -0.40000000 </v>
   <v>      -0.26666667       0.46666667       0.20000000 </v>
   <v>       0.33333333      -0.33333333       0.00000000 </v>
   <v>       0.43333333      -0.13333333      -0.20000000 </v>
   <v>      -0.50000000       0.00000000       0.00000000 </v>
   <v>       0.26666667      -0.46666667      -0.20000000 </v>
   <v>      -0.33333333       0.33333333       0.00000000 </v>
   <v>      -0.40000000       0.20000000      -0.20000000 </v>
   <v>      -0.16666667      -0.33333333       0.00000000 </v>
   <v>      -0.23333333      -0.46666667      -0.20000000 </v>
   <v>       0.16666667       0.33333333       0.00000000 </v>
   <v>       0.10000000       0.20000000      -0.20000000 </v>
  </varray>
 </structure>
 <varray name="primitive_index" >
  <v type="int" >        1 </v>
  <v type="int" >       18 </v>
  <v type="int" >        7 </v>
  <v type="int" >       24 </v>
  <v type="int" >       20 </v>
  <v type="int" >       19 </v>
  <v type="int" >        6 </v>
  <v type="int" >        2 </v>
  <v type="int" >       16 </v>
  <v type="int" >        8 </v>
  <v type="int" >       15 </v>
  <v type="int" >       11 </v>
  <v type="int" >       12 </v>
  <v type="int" >       28 </v>
  <v type="int" >       30 </v>
  <v type="int" >       23 </v>
  <v type="int" >        4 </v>
  <v type="int" >       14 </v>
  <v type="int" >       26 </v>
  <v type="int" >        9 </v>
  <v type="int" >       29 </v>
  <v type="int" >       17 </v>
  <v type="int" >        3 </v>
  <v type="int" >       22 </v>
  <v type="int" >       10 </v>
  <v type="int" >       27 </v>
  <v type="int" >       13 </v>
  <v type="int" >       25 </v>
  <v type="int" >       21 </v>
  <v type="int" >        5 </v>
 </varray>
 <kpoints>
  <generation param="Gamma">
   <v type="int" name="divisions">       5        5        5 </v>
   <v name="usershift">      0.00000000       0.00000000       0.00000000 </v>
   <v name="genvec1">      0.20000000       0.00000000       0.00000000 </v>
   <v name="genvec2">     -0.00000000       0.20000000       0.00000000 </v>
   <v name="genvec3">      0.00000000       0.00000000       0.20000000 </v>
   <v name="shift">      0.00000000       0.00000000       0.00000000 </v>
  </generation>
  <varray name="kpointlist" >
   <v>       0.00000000       0.00000000       0.00000000 </v>
   <v>       0.20000000       0.00000000      -0.00000000 </v>
   <v>       0.40000000       0.00000000      -0.00000000 </v>
   <v>       0.00000000       0.20000000       0.00000000 </v>
   <v>       0.20000000       0.20000000      -0.00000000 </v>
   <v>       0.40000000       0.20000000      -0.00000000 </v>
   <v>      -0.40000000       0.20000000       0.00000000 </v>
   <v>      -0.20000000       0.20000000       0.00000000 </v>
   <v>       0.00000000       0.40000000       0.00000000 </v>
   <v>       0.20000000       0.40000000      -0.00000000 </v>
   <v>       0.40000000       0.40000000      -0.00000000 </v>
   <v>      -0.40000000       0.40000000       0.00000000 </v>
   <v>      -0.20000000       0.40000000      -0.00000000 </v>
   <v>       0.00000000       0.00000000       0.20000000 </v>
   <v>       0.20000000      -0.00000000       0.20000000 </v>
   <v>       0.40000000       0.00000000       0.20000000 </v>
   <v>      -0.40000000       0.00000000       0.20000000 </v>
   <v>      -0.20000000       0.00000000       0.20000000 </v>
   <v>       0.00000000       0.20000000       0.20000000 </v>
   <v>       0.20000000       0.20000000       0.20000000 </v>
   <v>       0.40000000       0.20000000       0.20000000 </v>
   <v>      -0.40000000       0.20000000       0.20000000 </v>
   <v>      -0.20000000       0.20000000       0.20000000 </v>
   <v>      -0.00000000       0.40000000       0.20000000 </v>
   <v>       0.20000000       0.40000000       0.20000000 </v>
   <v>       0.40000000       0.40000000       0.20000000 </v>
   <v>      -0.40000000       0.40000000       0.20000000 </v>
   <v>      -0.20000000       0.40000000       0.20000000 </v>
   <v>       0.00000000      -0.40000000       0.20000000 </v>
   <v>       0.20000000      -0.40000000       0.20000000 </v>
   <v>       0.40000000      -0.40000000       0.20000000 </v>
   <v>      -0.40000000      -0.40000000       0.20000000 </v>
   <v>      -0.20000000      -0.40000000       0.20000000 </v>
   <v>       0.00000000      -0.20000000       0.20000000 </v>
   <v>       0.20000000      -0.20000000       0.20000000 </v>
   <v>       0.40000000      -0.20000000       0.20000000 </v>
   <v>      -0.40000000      -0.20000000       0.20000000 </v>
   <v>      -0.20000000      -0.20000000       0.20000000 </v>
   <v>       0.00000000       0.00000000       0.40000000 </v>
   <v>       0.20000000      -0.00000000       0.40000000 </v>
   <v>       0.40000000      -0.00000000       0.40000000 </v>
   <v>      -0.40000000       0.00000000       0.40000000 </v>
   <v>      -0.20000000       0.00000000       0.40000000 </v>
   <v>      -0.00000000       0.20000000       0.40000000 </v>
   <v>       0.20000000       0.20000000       0.40000000 </v>
   <v>       0.40000000       0.20000000       0.40000000 </v>
   <v>      -0.40000000       0.20000000       0.40000000 </v>
   <v>      -0.20000000       0.20000000       0.40000000 </v>
   <v>       0.00000000       0.40000000       0.40000000 </v>
   <v>       0.20000000       0.40000000       0.40000000 </v>
   <v>       0.40000000       0.40000000       0.40000000 </v>
   <v>      -0.40000000       0.40000000       0.40000000 </v>
   <v>      -0.20000000       0.40000000       0.40000000 </v>
   <v>       0.00000000      -0.40000000       0.40000000 </v>
   <v>       0.20000000      -0.40000000       0.40000000 </v>
   <v>       0.40000000      -0.40000000       0.40000000 </v>
   <v>      -0.40000000      -0.40000000       0.40000000 </v>
   <v>      -0.20000000      -0.40000000       0.40000000 </v>
   <v>       0.00000000      -0.20000000       0.40000000 </v>
   <v>       0.20000000      -0.20000000       0.40000000 </v>
   <v>       0.40000000      -0.20000000       0.40000000 </v>
   <v>      -0.40000000      -0.20000000       0.40000000 </v>
   <v>      -0.20000000      -0.20000000       0.40000000 </v>
  </varray>
  <varray name="weights" >
   <v>       0.00800000 </v>
   <v>       0.01600000 </v>
   <v>       0.01600000 </v>
   <v>       0.01600000 </v>
   <v>       0.01600000 </v>
   <v>       0.01600000 </v>
   <v>       0.01600000 </v>
   <v>       0.01600000 </v>
   <v>       0.01600000 </v>
   <v>       0.01600000 </v>
   <v>       0.01600000 </v>
   <v>       0.01600000 </v>
   <v>       0.01600000 </v>
   <v>       0.01600000 </v>
   <v>       0.01600000 </v>
   <v>       0.01600000 </v>
   <v>       0.01600000 </v>
   <v>       0.01600000 </v>
   <v>       0.01600000 </v>
   <v>       0.01600000 </v>
   <v>       0.01600000 </v>
   <v>       0.01600000 </v>
   <v>       0.01600000 </v>
   <v>       0.01600000 </v>
   <v>       0.01600000 </v>
   <v>       0.01600000 </v>
   <v>       0.01600000 </v>
   <v>       0.01600000 </v>
   <v>       0.01600000 </v>
   <v>       0.01600000 </v>
   <v>       0.01600000 </v>
   <v>       0.01600000 </v>
   <v>       0.01600000 </v>
   <v>       0.01600000 </v>
   <v>       0.01600000 </v>
   <v>       0.01600000 </v>
   <v>       0.01600000 </v>
   <v>       0.01600000 </v>
   <v>       0.01600000 </v>
   <v>       0.01600000 </v>
   <v>       0.01600000 </v>
   <v>       0.01600000 </v>
   <v>       0.01600000 </v>
   <v>       0.01600000 </v>
   <v>       0.01600000 </v>
   <v>       0.01600000 </v>
   <v>       0.01600000 </v>
   <v>       0.01600000 </v>
   <v>       0.01600000 </v>
   <v>       0.01600000 </v>
   <v>       0.01600000 </v>
   <v>       0.01600000 </v>
   <v>       0.01600000 </v>
   <v>       0.01600000 </v>
   <v>       0.01600000 </v>
   <v>       0.01600000 </v>
   <v>       0.01600000 </v>
   <v>       0.01600000 </v>
   <v>       0.01600000 </v>
   <v>       0.01600000 </v>
   <v>       0.01600000 </v>
   <v>       0.01600000 </v>
   <v>       0.01600000 </v>
  </varray>
 </kpoints>
 <parameters>
  <separator name="general" >
   <i type="string" name="SYSTEM">Nb - Mo - Ta - Ti - V SQS</i>
   <i type="logical" name="LCOMPAT"> F  </i>
  </separator>
  <separator name="electronic" >
   <i type="string" name="PREC">normal</i>
   <i name="ENMAX">    600.00000000</i>
   <i name="ENAUG">    455.65900000</i>
   <i name="EDIFF">      0.00010000</i>
   <i type="int" name="IALGO">    38</i>
   <i type="int" name="IWAVPR">    10</i>
   <i type="int" name="NBANDS">   120</i>
   <i name="NELECT">    198.00000000</i>
   <i type="int" name="TURBO">     0</i>
   <i type="int" name="IRESTART">     0</i>
   <i type="int" name="NREBOOT">     0</i>
   <i type="int" name="NMIN">     0</i>
   <i name="EREF">      0.00000000</i>
   <separator name="electronic smearing" >
    <i type="int" name="ISMEAR">     1</i>
    <i name="SIGMA">      0.20000000</i>
    <i name="KSPACING">      0.50000000</i>
    <i type="logical" name="KGAMMA"> T  </i>
   </separator>
   <separator name="electronic projectors" >
    <i type="logical" name="LREAL"> T  </i>
    <v name="ROPT">     -0.00050000     -0.00050000     -0.00050000     -0.00050000     -0.00050000</v>
    <i type="int" name="LMAXPAW">  -100</i>
    <i type="int" name="LMAXMIX">     2</i>
    <i type="logical" name="NLSPLINE"> F  </i>
   </separator>
   <separator name="electronic startup" >
    <i type="int" name="ISTART">     1</i>
    <i type="int" name="ICHARG">     1</i>
    <i type="int" name="INIWAV">     1</i>
   </separator>
   <separator name="electronic spin" >
    <i type="int" name="ISPIN">     1</i>
    <i type="logical" name="LNONCOLLINEAR"> F  </i>
    <v name="MAGMOM">      1.00000000      1.00000000      1.00000000      1.00000000      1.00000000      1.00000000      1.00000000      1.00000000      1.00000000      1.00000000      1.00000000      1.00000000      1.00000000      1.00000000      1.00000000      1.00000000      1.00000000      1.00000000      1.00000000      1.00000000
      1.00000000      1.00000000      1.00000000      1.00000000      1.00000000      1.00000000      1.00000000      1.00000000      1.00000000      1.00000000</v>
    <i name="NUPDOWN">     -1.00000000</i>
    <i type="logical" name="LSORBIT"> F  </i>
    <v name="SAXIS">      0.00000000      0.00000000      1.00000000</v>
    <i type="logical" name="LSPIRAL"> F  </i>
    <v name="QSPIRAL">      0.00000000      0.00000000      0.00000000</v>
    <i type="logical" name="LZEROZ"> F  </i>
   </separator>
   <separator name="electronic exchange-correlation" >
    <i type="logical" name="LASPH"> F  </i>
    <i type="logical" name="LMETAGGA"> F  </i>
   </separator>
   <separator name="electronic convergence" >
    <i type="int" name="NELM">   100</i>
    <i type="int" name="NELMDL">     0</i>
    <i type="int" name="NELMIN">     2</i>
    <i name="ENINI">    600.00000000</i>
    <separator name="electronic convergence detail" >
     <i type="logical" name="LDIAG"> T  </i>
     <i type="logical" name="LSUBROT"> F  </i>
     <i name="WEIMIN">      0.00000000</i>
     <i name="EBREAK">      0.00000021</i>
     <i name="DEPER">      0.30000000</i>
     <i type="int" name="NRMM">     4</i>
     <i name="TIME">      0.40000000</i>
    </separator>
   </separator>
   <separator name="electronic mixer" >
    <i name="AMIX">      0.40000000</i>
    <i name="BMIX">      1.00000000</i>
    <i name="AMIN">      0.10000000</i>
    <i name="AMIX_MAG">      1.60000000</i>
    <i name="BMIX_MAG">      1.00000000</i>
    <separator name="electronic mixer details" >
     <i type="int" name="IMIX">     4</i>
     <i type="logical" name="MIXFIRST"> F  </i>
     <i type="int" name="MAXMIX">   -45</i>
     <i name="WC">    100.00000000</i>
     <i type="int" name="INIMIX">     1</i>
     <i type="int" name="MIXPRE">     1</i>
     <i type="int" name="MREMOVE">     5</i>
    </separator>
   </separator>
   <separator name="electronic dipolcorrection" >
    <i type="logical" name="LDIPOL"> F  </i>
    <i type="logical" name="LMONO"> F  </i>
    <i type="int" name="IDIPOL">     0</i>
    <i name="EPSILON">      1.00000000</i>
    <v name="DIPOL">   -100.00000000   -100.00000000   -100.00000000</v>
    <i name="EFIELD">      0.00000000</i>
   </separator>
  </separator>
  <separator name="grids" >
   <i type="int" name="NGX">    36</i>
   <i type="int" name="NGY">    50</i>
   <i type="int" name="NGZ">    70</i>
   <i type="int" name="NGXF">    72</i>
   <i type="int" name="NGYF">   100</i>
   <i type="int" name="NGZF">   140</i>
   <i type="logical" name="ADDGRID"> F  </i>
  </separator>
  <separator name="ionic" >
   <i type="int" name="NSW">     0</i>
   <i type="int" name="IBRION">    -1</i>
   <i type="int" name="MDALGO">     0</i>
   <i type="int" name="ISIF">     2</i>
   <i name="PSTRESS">      0.00000000</i>
   <i name="EDIFFG">      0.00100000</i>
   <i type="int" name="NFREE">     1</i>
   <i name="POTIM">      0.50000000</i>
   <i name="SMASS">     -3.00000000</i>
   <i name="SCALEE">      1.00000000</i>
  </separator>
  <separator name="ionic md" >
   <i name="TEBEG">      0.00010000</i>
   <i name="TEEND">      0.00010000</i>
   <i type="int" name="NBLOCK">     1</i>
   <i type="int" name="KBLOCK">     1</i>
   <i type="int" name="NPACO">   256</i>
   <i name="APACO">     16.00000000</i>
  </separator>
  <separator name="symmetry" >
   <i type="int" name="ISYM">     2</i>
   <i name="SYMPREC">      0.00001000</i>
  </separator>
  <separator name="dos" >
   <i type="int" name="LORBIT">     0</i>
   <v name="RWIGS">     -1.00000000     -1.00000000     -1.00000000     -1.00000000     -1.00000000</v>
   <i type="int" name="NEDOS">   301</i>
   <i name="EMIN">     10.00000000</i>
   <i name="EMAX">    -10.00000000</i>
   <i name="EFERMI">      0.00000000</i>
  </separator>
  <separator name="writing" >
   <i type="int" name="NWRITE">     2</i>
   <i type="logical" name="LWAVE"> T  </i>
   <i type="logical" name="LDOWNSAMPLE"> F  </i>
   <i type="logical" name="LCHARG"> T  </i>
   <i type="logical" name="LPARD"> F  </i>
   <i type="logical" name="LVTOT"> F  </i>
   <i type="logical" name="LVHAR"> F  </i>
   <i type="logical" name="LELF"> F  </i>
   <i type="logical" name="LOPTICS"> F  </i>
   <v name="STM">      0.00000000      0.00000000      0.00000000      0.00000000      0.00000000      0.00000000      0.00000000</v>
  </separator>
  <separator name="performance" >
   <i type="int" name="NPAR">     8</i>
   <i type="int" name="NSIM">     4</i>
   <i type="int" name="NBLK">    -1</i>
   <i type="logical" name="LPLANE"> T  </i>
   <i type="logical" name="LSCALAPACK"> T  </i>
   <i type="logical" name="LSCAAWARE"> F  </i>
   <i type="logical" name="LSCALU"> F  </i>
   <i type="logical" name="LASYNC"> F  </i>
   <i type="logical" name="LORBITALREAL"> F  </i>
  </separator>
  <separator name="miscellaneous" >
   <i type="int" name="IDIOT">     3</i>
   <i type="int" name="ISPECIAL">     0</i>
   <i type="logical" name="LMUSIC"> F  </i>
   <v name="POMASS">     92.91000000     95.94000000    180.94800000     47.88000000     50.94100000</v>
   <v name="DARWINR">      0.00000000      0.00000000      0.00000000      0.00000000      0.00000000</v>
   <v name="DARWINV">      1.00000000      1.00000000      1.00000000      1.00000000      1.00000000</v>
   <i type="logical" name="LCORR"> T  </i>
  </separator>
  <i type="logical" name="GGA_COMPAT"> T  </i>
  <i type="logical" name="LBERRY"> F  </i>
  <i type="int" name="ICORELEVEL">     0</i>
  <i type="logical" name="LDAU"> F  </i>
  <i type="int" name="I_CONSTRAINED_M">     0</i>
  <separator name="electronic exchange-correlation" >
   <i type="string" name="GGA">PS</i>
   <i type="int" name="VOSKOWN">     0</i>
   <i type="logical" name="LHFCALC"> F  </i>
   <i type="string" name="PRECFOCK"></i>
   <i type="logical" name="LSYMGRAD"> F  </i>
   <i type="logical" name="LHFONE"> F  </i>
   <i type="logical" name="LRHFCALC"> F  </i>
   <i type="logical" name="LTHOMAS"> F  </i>
   <i type="logical" name="LMODELHF"> F  </i>
   <i name="ENCUT4O">     -1.00000000</i>
   <i type="int" name="EXXOEP">     0</i>
   <i type="int" name="FOURORBIT">     0</i>
   <i name="AEXX">      0.00000000</i>
   <i name="HFALPHA">      0.00000000</i>
   <i name="MCALPHA">      0.00000000</i>
   <i name="ALDAX">      1.00000000</i>
   <i name="AGGAX">      1.00000000</i>
   <i name="ALDAC">      1.00000000</i>
   <i name="AGGAC">      1.00000000</i>
   <i type="int" name="NKREDX">     1</i>
   <i type="int" name="NKREDY">     1</i>
   <i type="int" name="NKREDZ">     1</i>
   <i type="logical" name="SHIFTRED"> F  </i>
   <i type="logical" name="ODDONLY"> F  </i>
   <i type="logical" name="EVENONLY"> F  </i>
   <i type="int" name="LMAXFOCK">     0</i>
   <i type="int" name="NMAXFOCKAE">     0</i>
   <i type="logical" name="LFOCKAEDFT"> F  </i>
   <i name="HFSCREEN">      0.00000000</i>
   <i name="HFSCREENC">      0.00000000</i>
   <i type="int" name="NBANDSGWLOW">     0</i>
  </separator>
  <separator name="vdW DFT" >
   <i type="logical" name="LUSE_VDW"> F  </i>
   <i name="Zab_VDW">     -0.84910000</i>
   <i name="PARAM1">      0.12340000</i>
   <i name="PARAM2">      1.00000000</i>
   <i name="PARAM3">      0.00000000</i>
  </separator>
  <separator name="model GW" >
   <i type="int" name="MODEL_GW">     0</i>
   <i name="MODEL_EPS0">      9.55650390</i>
   <i name="MODEL_ALPHA">      1.00000000</i>
  </separator>
  <separator name="linear response parameters" >
   <i type="logical" name="LEPSILON"> F  </i>
   <i type="logical" name="LRPA"> F  </i>
   <i type="logical" name="LNABLA"> F  </i>
   <i type="logical" name="LVEL"> F  </i>
   <i type="int" name="KINTER">     0</i>
   <i name="CSHIFT">      0.10000000</i>
   <i name="OMEGAMAX">     -1.00000000</i>
   <i name="DEG_THRESHOLD">      0.00200000</i>
   <i name="RTIME">     -0.10000000</i>
   <i name="WPLASMAI">      0.00000000</i>
   <v name="DFIELD">      0.00000000      0.00000000      0.00000000</v>
   <v name="WPLASMA">      0.00000000      0.00000000      0.00000000      0.00000000      0.00000000      0.00000000      0.00000000      0.00000000      0.00000000</v>
  </separator>
  <separator name="orbital magnetization" >
   <i type="logical" name="NUCIND"> F  </i>
   <v name="MAGPOS">      0.00000000      0.00000000      0.00000000</v>
   <i type="logical" name="LNICSALL"> T  </i>
   <i type="logical" name="ORBITALMAG"> F  </i>
   <i type="logical" name="LMAGBLOCH"> F  </i>
   <i type="logical" name="LCHIMAG"> F  </i>
   <i type="logical" name="LGAUGE"> T  </i>
   <i type="int" name="MAGATOM">     0</i>
   <v name="MAGDIPOL">      0.00000000      0.00000000      0.00000000</v>
   <v name="AVECCONST">      0.00000000      0.00000000      0.00000000</v>
  </separator>
  <separator name="response functions" >
   <i type="logical" name="LADDER"> F  </i>
   <i type="logical" name="LRPAFORCE"> F  </i>
   <i type="logical" name="LFXC"> F  </i>
   <i type="logical" name="LHARTREE"> T  </i>
   <i type="int" name="IBSE">     0</i>
   <v type="int" name="KPOINT">    -1     0     0     0</v>
   <i type="logical" name="LTCTE"> F  </i>
   <i type="logical" name="LTETE"> F  </i>
   <i type="logical" name="LTRIPLET"> F  </i>
   <i type="logical" name="LFXCEPS"> F  </i>
   <i type="logical" name="LFXHEG"> F  </i>
   <i type="int" name="NATURALO">     2</i>
   <i type="logical" name="L2ORDER"> F  </i>
   <i type="logical" name="LMP2LT"> F  </i>
   <i type="logical" name="LUSEW"> F  </i>
   <i name="ENCUTGW">     -2.00000000</i>
   <i name="ENCUTGWSOFT">     -2.00000000</i>
   <i name="ENCUTLF">     -1.00000000</i>
   <i type="int" name="LMAXMP2">    -1</i>
   <i name="SCISSOR">      0.00000000</i>
   <i type="int" name="NOMEGA">     0</i>
   <i type="int" name="NOMEGAR">     0</i>
   <i type="int" name="NBANDSGW">    -1</i>
   <i type="int" name="NBANDSO">    -1</i>
   <i type="int" name="NBANDSV">    -1</i>
   <i type="int" name="NELM">   100</i>
   <i type="int" name="NELMHF">     1</i>
   <i type="int" name="DIM">     3</i>
   <i type="int" name="ANTIRES">     0</i>
   <i name="OMEGAMAX">    -30.00000000</i>
   <i name="OMEGAMIN">    -30.00000000</i>
   <i name="OMEGATL">   -200.00000000</i>
   <i type="int" name="OMEGAGRID">   140</i>
   <i name="CSHIFT">     -0.10000000</i>
   <i type="logical" name="SELFENERGY"> F  </i>
   <i type="logical" name="LSPECTRAL"> F  </i>
   <i type="logical" name="LSPECTRALGW"> F  </i>
   <i type="logical" name="LSINGLES"> F  </i>
   <i type="logical" name="LFERMIGW"> F  </i>
   <i type="logical" name="ODDONLYGW"> F  </i>
   <i type="logical" name="EVENONLYGW"> F  </i>
   <i type="int" name="NKREDLFX">     1</i>
   <i type="int" name="NKREDLFY">     1</i>
   <i type="int" name="NKREDLFZ">     1</i>
   <i type="int" name="MAXMEM">  2800</i>
   <i type="int" name="TELESCOPE">     0</i>
   <i type="int" name="TAUPAR">     1</i>
   <i type="int" name="OMEGAPAR">    -1</i>
   <i name="LAMBDA">      1.00000000</i>
  </separator>
  <separator name="External order field" >
   <i name="OFIELD_KAPPA">      0.00000000</i>
   <v name="OFIELD_K">      0.00000000      0.00000000      0.00000000</v>
   <i name="OFIELD_Q6_NEAR">      0.00000000</i>
   <i name="OFIELD_Q6_FAR">      0.00000000</i>
   <i name="OFIELD_A">      0.00000000</i>
  </separator>
  <separator name="solvation model" >
   <i type="logical" name="LSOL"> F  </i>
  </separator>
 </parameters>
 <atominfo>
  <atoms>      30 </atoms>
  <types>       5 </types>
  <array name="atoms" >
   <dimension dim="1">ion</dimension>
   <field type="string">element</field>
   <field type="int">atomtype</field>
   <set>
    <rc><c>Nb</c><c>   1</c></rc>
    <rc><c>Nb</c><c>   1</c></rc>
    <rc><c>Nb</c><c>   1</c></rc>
    <rc><c>Nb</c><c>   1</c></rc>
    <rc><c>Nb</c><c>   1</c></rc>
    <rc><c>Nb</c><c>   1</c></rc>
    <rc><c>Mo</c><c>   2</c></rc>
    <rc><c>Mo</c><c>   2</c></rc>
    <rc><c>Mo</c><c>   2</c></rc>
    <rc><c>Mo</c><c>   2</c></rc>
    <rc><c>Mo</c><c>   2</c></rc>
    <rc><c>Mo</c><c>   2</c></rc>
    <rc><c>Ta</c><c>   3</c></rc>
    <rc><c>Ta</c><c>   3</c></rc>
    <rc><c>Ta</c><c>   3</c></rc>
    <rc><c>Ta</c><c>   3</c></rc>
    <rc><c>Ta</c><c>   3</c></rc>
    <rc><c>Ta</c><c>   3</c></rc>
    <rc><c>Ti</c><c>   4</c></rc>
    <rc><c>Ti</c><c>   4</c></rc>
    <rc><c>Ti</c><c>   4</c></rc>
    <rc><c>Ti</c><c>   4</c></rc>
    <rc><c>Ti</c><c>   4</c></rc>
    <rc><c>Ti</c><c>   4</c></rc>
    <rc><c>V </c><c>   5</c></rc>
    <rc><c>V </c><c>   5</c></rc>
    <rc><c>V </c><c>   5</c></rc>
    <rc><c>V </c><c>   5</c></rc>
    <rc><c>V </c><c>   5</c></rc>
    <rc><c>V </c><c>   5</c></rc>
   </set>
  </array>
  <array name="atomtypes" >
   <dimension dim="1">type</dimension>
   <field type="int">atomspertype</field>
   <field type="string">element</field>
   <field>mass</field>
   <field>valence</field>
   <field type="string">pseudopotential</field>
   <set>
    <rc><c>   6</c><c>Nb</c><c>     92.91000000</c><c>     13.00000000</c><c>  PAW_PBE Nb_sv 25May2007               </c></rc>
    <rc><c>   6</c><c>Mo</c><c>     95.94000000</c><c>      6.00000000</c><c>  PAW_PBE Mo 08Apr2002                  </c></rc>
    <rc><c>   6</c><c>Ta</c><c>    180.94800000</c><c>      5.00000000</c><c>  PAW_PBE Ta 17Jan2003                  </c></rc>
    <rc><c>   6</c><c>Ti</c><c>     47.88000000</c><c>      4.00000000</c><c>  PAW_PBE Ti 08Apr2002                  </c></rc>
    <rc><c>   6</c><c>V </c><c>     50.94100000</c><c>      5.00000000</c><c>  PAW_PBE V 08Apr2002                   </c></rc>
   </set>
  </array>
 </atominfo>
 <structure name="initialpos" >
  <crystal>
   <varray name="basis" >
    <v>      -3.17000000      -3.17000000      -3.17000000 </v>
    <v>       1.58500000       1.58500000      -7.92500000 </v>
    <v>       7.92500000      -7.92500000      -1.58500000 </v>
   </varray>
   <i name="volume">    477.82519500 </i>
   <varray name="rec_basis" >
    <v>      -0.13669821      -0.12618297      -0.05257624 </v>
    <v>       0.04206099       0.06309148      -0.10515247 </v>
    <v>       0.06309148      -0.06309148       0.00000000 </v>
   </varray>
  </crystal>
  <varray name="positions" >
   <v>       0.96666667       0.93333333       0.40000000 </v>
   <v>       0.63333333       0.26666667       0.40000000 </v>
   <v>       0.50000000       0.00000000       0.00000000 </v>
   <v>       0.00000000       0.00000000       0.00000000 </v>
   <v>       0.10000000       0.20000000       0.80000000 </v>
   <v>       0.03333333       0.06666667       0.60000000 </v>
   <v>       0.90000000       0.80000000       0.20000000 </v>
   <v>       0.80000000       0.60000000       0.40000000 </v>
   <v>       0.73333333       0.46666667       0.20000000 </v>
   <v>       0.66666667       0.33333333       0.00000000 </v>
   <v>       0.36666667       0.73333333       0.60000000 </v>
   <v>       0.13333333       0.26666667       0.40000000 </v>
   <v>       0.83333333       0.66666667       0.00000000 </v>
   <v>       0.93333333       0.86666667       0.80000000 </v>
   <v>       0.56666667       0.13333333       0.20000000 </v>
   <v>       0.40000000       0.80000000       0.20000000 </v>
   <v>       0.43333333       0.86666667       0.80000000 </v>
   <v>       0.30000000       0.60000000       0.40000000 </v>
   <v>       0.86666667       0.73333333       0.60000000 </v>
   <v>       0.46666667       0.93333333       0.40000000 </v>
   <v>       0.16666667       0.33333333       0.00000000 </v>
   <v>       0.26666667       0.53333333       0.80000000 </v>
   <v>       0.20000000       0.40000000       0.60000000 </v>
   <v>       0.06666667       0.13333333       0.20000000 </v>
   <v>       0.76666667       0.53333333       0.80000000 </v>
   <v>       0.70000000       0.40000000       0.60000000 </v>
   <v>       0.60000000       0.20000000       0.80000000 </v>
   <v>       0.53333333       0.06666667       0.60000000 </v>
   <v>       0.33333333       0.66666667       0.00000000 </v>
   <v>       0.23333333       0.46666667       0.20000000 </v>
  </varray>
 </structure>
 <calculation>
  <scstep>
   <time name="dav">   29.60   29.63</time>
   <time name="total">   30.24   30.30</time>
   <energy>
    <i name="alphaZ">   1218.45144901 </i>
    <i name="ewald"> -11498.06761579 </i>
    <i name="hartreedc">  -3038.79623994 </i>
    <i name="XCdc">   -885.11833357 </i>
    <i name="pawpsdc">  19406.01893746 </i>
    <i name="pawaedc"> -17894.74147828 </i>
    <i name="eentropy">     -0.01443620 </i>
    <i name="bandstr">   -646.82940520 </i>
    <i name="atom">  13005.90793652 </i>
    <i name="e_fr_energy">   -333.18918599 </i>
    <i name="e_wo_entrp">   -333.17474980 </i>
    <i name="e_0_energy">   -333.18437393 </i>
   </energy>
  </scstep>
  <scstep>
   <time name="dav">   30.69   30.72</time>
   <time name="total">   31.31   31.35</time>
   <energy>
    <i name="e_fr_energy">   -397.84763991 </i>
    <i name="e_wo_entrp">   -397.84876446 </i>
    <i name="e_0_energy">   -397.84801476 </i>
   </energy>
  </scstep>
  <scstep>
   <time name="dav">   29.50   29.53</time>
   <time name="total">   30.12   30.15</time>
   <energy>
    <i name="e_fr_energy">   -326.95403102 </i>
    <i name="e_wo_entrp">   -326.94474277 </i>
    <i name="e_0_energy">   -326.95093494 </i>
   </energy>
  </scstep>
  <scstep>
   <time name="dav">   30.18   30.21</time>
   <time name="total">   30.80   30.84</time>
   <energy>
    <i name="e_fr_energy">   -352.99058459 </i>
    <i name="e_wo_entrp">   -352.99343357 </i>
    <i name="e_0_energy">   -352.99153425 </i>
   </energy>
  </scstep>
  <scstep>
   <time name="dav">   30.72   30.75</time>
   <time name="total">   31.34   31.37</time>
   <energy>
    <i name="e_fr_energy">   -324.01699539 </i>
    <i name="e_wo_entrp">   -323.99650577 </i>
    <i name="e_0_energy">   -324.01016552 </i>
   </energy>
  </scstep>
  <scstep>
   <time name="dav">   30.05   30.08</time>
   <time name="total">   30.69   30.72</time>
   <energy>
    <i name="e_fr_energy">   -324.23909085 </i>
    <i name="e_wo_entrp">   -324.22866339 </i>
    <i name="e_0_energy">   -324.23561503 </i>
   </energy>
  </scstep>
  <scstep>
   <time name="dav">   29.77   29.79</time>
   <time name="total">   30.39   30.42</time>
   <energy>
    <i name="e_fr_energy">   -321.88243286 </i>
    <i name="e_wo_entrp">   -321.87822165 </i>
    <i name="e_0_energy">   -321.88102913 </i>
   </energy>
  </scstep>
  <scstep>
   <time name="dav">   28.86   28.88</time>
   <time name="total">   29.48   29.52</time>
   <energy>
    <i name="e_fr_energy">   -319.74564130 </i>
    <i name="e_wo_entrp">   -319.73087881 </i>
    <i name="e_0_energy">   -319.74072047 </i>
   </energy>
  </scstep>
  <scstep>
   <time name="dav">   28.54   28.57</time>
   <time name="total">   29.16   29.19</time>
   <energy>
    <i name="e_fr_energy">   -319.44661608 </i>
    <i name="e_wo_entrp">   -319.43686620 </i>
    <i name="e_0_energy">   -319.44336612 </i>
   </energy>
  </scstep>
  <scstep>
   <time name="dav">   27.42   27.45</time>
   <time name="total">   28.05   28.07</time>
   <energy>
    <i name="e_fr_energy">   -319.13635618 </i>
    <i name="e_wo_entrp">   -319.12700653 </i>
    <i name="e_0_energy">   -319.13323963 </i>
   </energy>
  </scstep>
  <scstep>
   <time name="dav">   28.70   28.73</time>
   <time name="total">   29.34   29.37</time>
   <energy>
    <i name="e_fr_energy">   -319.00099749 </i>
    <i name="e_wo_entrp">   -318.98935449 </i>
    <i name="e_0_energy">   -318.99711649 </i>
   </energy>
  </scstep>
  <scstep>
   <time name="dav">   28.62   28.65</time>
   <time name="total">   29.24   29.27</time>
   <energy>
    <i name="e_fr_energy">   -318.96221793 </i>
    <i name="e_wo_entrp">   -318.94840246 </i>
    <i name="e_0_energy">   -318.95761277 </i>
   </energy>
  </scstep>
  <scstep>
   <time name="dav">   28.65   28.67</time>
   <time name="total">   29.27   29.30</time>
   <energy>
    <i name="e_fr_energy">   -318.92043454 </i>
    <i name="e_wo_entrp">   -318.91118592 </i>
    <i name="e_0_energy">   -318.91735167 </i>
   </energy>
  </scstep>
  <scstep>
   <time name="dav">   29.53   29.56</time>
   <time name="total">   30.15   30.19</time>
   <energy>
    <i name="e_fr_energy">   -318.87525536 </i>
    <i name="e_wo_entrp">   -318.85974277 </i>
    <i name="e_0_energy">   -318.87008450 </i>
   </energy>
  </scstep>
  <scstep>
   <time name="dav">   29.79   29.82</time>
   <time name="total">   30.41   30.44</time>
   <energy>
    <i name="e_fr_energy">   -318.82703147 </i>
    <i name="e_wo_entrp">   -318.81528090 </i>
    <i name="e_0_energy">   -318.82311461 </i>
   </energy>
  </scstep>
  <scstep>
   <time name="dav">   28.27   28.30</time>
   <time name="total">   28.89   28.93</time>
   <energy>
    <i name="e_fr_energy">   -318.82126256 </i>
    <i name="e_wo_entrp">   -318.80882215 </i>
    <i name="e_0_energy">   -318.81711575 </i>
   </energy>
  </scstep>
  <scstep>
   <time name="dav">   26.69   26.72</time>
   <time name="total">   27.31   27.35</time>
   <energy>
    <i name="e_fr_energy">   -318.80987371 </i>
    <i name="e_wo_entrp">   -318.79608242 </i>
    <i name="e_0_energy">   -318.80527661 </i>
   </energy>
  </scstep>
  <scstep>
   <time name="dav">   28.62   28.65</time>
   <time name="total">   29.24   29.27</time>
   <energy>
    <i name="e_fr_energy">   -318.80441939 </i>
    <i name="e_wo_entrp">   -318.79245005 </i>
    <i name="e_0_energy">   -318.80042961 </i>
   </energy>
  </scstep>
  <scstep>
   <time name="dav">   27.80   27.83</time>
   <time name="total">   28.45   28.48</time>
   <energy>
    <i name="e_fr_energy">   -318.79755818 </i>
    <i name="e_wo_entrp">   -318.78490726 </i>
    <i name="e_0_energy">   -318.79334121 </i>
   </energy>
  </scstep>
  <scstep>
   <time name="dav">   27.17   27.19</time>
   <time name="total">   27.80   27.82</time>
   <energy>
    <i name="e_fr_energy">   -318.79593526 </i>
    <i name="e_wo_entrp">   -318.78340185 </i>
    <i name="e_0_energy">   -318.79175746 </i>
   </energy>
  </scstep>
  <scstep>
   <time name="dav">   26.02   26.05</time>
   <time name="total">   26.65   26.68</time>
   <energy>
    <i name="e_fr_energy">   -318.79516512 </i>
    <i name="e_wo_entrp">   -318.78273911 </i>
    <i name="e_0_energy">   -318.79102311 </i>
   </energy>
  </scstep>
  <scstep>
   <time name="dav">   28.78   28.80</time>
   <time name="total">   29.42   29.46</time>
   <energy>
    <i name="e_fr_energy">   -318.79510924 </i>
    <i name="e_wo_entrp">   -318.78260284 </i>
    <i name="e_0_energy">   -318.79094044 </i>
   </energy>
  </scstep>
  <scstep>
   <time name="dav">   24.79   24.82</time>
   <time name="total">   25.42   25.44</time>
   <energy>
    <i name="e_fr_energy">   -318.79493979 </i>
    <i name="e_wo_entrp">   -318.78250079 </i>
    <i name="e_0_energy">   -318.79079346 </i>
   </energy>
  </scstep>
  <scstep>
   <time name="dav">   20.06   20.09</time>
   <time name="total">   20.10   20.12</time>
   <energy>
    <i name="alphaZ">   1218.45144901 </i>
    <i name="ewald"> -11498.06761579 </i>
    <i name="hartreedc">  -2963.42214410 </i>
    <i name="XCdc">   -887.31285127 </i>
    <i name="pawpsdc">  19131.53465740 </i>
    <i name="pawaedc"> -17622.10216123 </i>
    <i name="eentropy">     -0.01260856 </i>
    <i name="bandstr">   -703.77150394 </i>
    <i name="atom">  13005.90793652 </i>
    <i name="e_fr_energy">   -318.79484197 </i>
    <i name="e_wo_entrp">   -318.78223341 </i>
    <i name="e_0_energy">   -318.79063911 </i>
   </energy>
  </scstep>
  <structure>
   <crystal>
    <varray name="basis" >
     <v>      -3.17000000      -3.17000000      -3.17000000 </v>
     <v>       1.58500000       1.58500000      -7.92500000 </v>
     <v>       7.92500000      -7.92500000      -1.58500000 </v>
    </varray>
    <i name="volume">    477.82519500 </i>
    <varray name="rec_basis" >
     <v>      -0.13669821      -0.12618297      -0.05257624 </v>
     <v>       0.04206099       0.06309148      -0.10515247 </v>
     <v>       0.06309148      -0.06309148       0.00000000 </v>
    </varray>
   </crystal>
   <varray name="positions" >
    <v>       0.96666667       0.93333333       0.40000000 </v>
    <v>       0.63333333       0.26666667       0.40000000 </v>
    <v>       0.50000000       0.00000000       0.00000000 </v>
    <v>       0.00000000       0.00000000       0.00000000 </v>
    <v>       0.10000000       0.20000000       0.80000000 </v>
    <v>       0.03333333       0.06666667       0.60000000 </v>
    <v>       0.90000000       0.80000000       0.20000000 </v>
    <v>       0.80000000       0.60000000       0.40000000 </v>
    <v>       0.73333333       0.46666667       0.20000000 </v>
    <v>       0.66666667       0.33333333       0.00000000 </v>
    <v>       0.36666667       0.73333333       0.60000000 </v>
    <v>       0.13333333       0.26666667       0.40000000 </v>
    <v>       0.83333333       0.66666667       0.00000000 </v>
    <v>       0.93333333       0.86666667       0.80000000 </v>
    <v>       0.56666667       0.13333333       0.20000000 </v>
    <v>       0.40000000       0.80000000       0.20000000 </v>
    <v>       0.43333333       0.86666667       0.80000000 </v>
    <v>       0.30000000       0.60000000       0.40000000 </v>
    <v>       0.86666667       0.73333333       0.60000000 </v>
    <v>       0.46666667       0.93333333       0.40000000 </v>
    <v>       0.16666667       0.33333333       0.00000000 </v>
    <v>       0.26666667       0.53333333       0.80000000 </v>
    <v>       0.20000000       0.40000000       0.60000000 </v>
    <v>       0.06666667       0.13333333       0.20000000 </v>
    <v>       0.76666667       0.53333333       0.80000000 </v>
    <v>       0.70000000       0.40000000       0.60000000 </v>
    <v>       0.60000000       0.20000000       0.80000000 </v>
    <v>       0.53333333       0.06666667       0.60000000 </v>
    <v>       0.33333333       0.66666667       0.00000000 </v>
    <v>       0.23333333       0.46666667       0.20000000 </v>
   </varray>
  </structure>
  <varray name="forces" >
   <v>       0.07691430       0.44827814       0.22993088 </v>
   <v>       0.32503812      -0.14662015       0.01567586 </v>
   <v>      -0.11569108       0.38429484      -0.23331149 </v>
   <v>       0.25082605      -0.02369307      -0.04055561 </v>
   <v>      -0.04655785       0.70666643      -0.56009395 </v>
   <v>      -0.22136880       0.27442220      -0.35001689 </v>
   <v>      -0.01661617      -0.56160251       0.18408176 </v>
   <v>      -0.54224740      -0.30943896       0.58420609 </v>
   <v>      -0.17306697       0.28253113       0.05183640 </v>
   <v>       0.17359491       0.53700076      -0.58470828 </v>
   <v>      -0.14567229      -0.39809021       0.26492892 </v>
   <v>       0.13447552       0.17088776      -0.62595792 </v>
   <v>       0.07999680      -0.49988120       0.46168740 </v>
   <v>       0.20926736       0.37724101      -0.06290416 </v>
   <v>      -0.22498390       0.48298287      -0.12952590 </v>
   <v>      -0.71230882      -0.10693428       0.78706502 </v>
   <v>      -0.86691147      -0.12034773       0.63179055 </v>
   <v>       0.33786963      -0.32213603      -0.18041756 </v>
   <v>       0.07841711       0.20973435       0.51102925 </v>
   <v>       0.55852126      -0.53791259       0.11644959 </v>
   <v>      -0.04100246      -0.16662270      -0.41172856 </v>
   <v>      -0.37416328      -0.03322765      -0.25078893 </v>
   <v>      -0.20872524      -0.08697894       0.49835061 </v>
   <v>       0.63463200      -0.13423061      -0.85223730 </v>
   <v>       0.05697986      -0.35643854       0.58874905 </v>
   <v>       0.56838962       0.11400106      -0.39304777 </v>
   <v>       0.01766032       0.27112991      -0.21307913 </v>
   <v>       0.19456989      -0.44683451      -0.47571372 </v>
   <v>      -0.24770958      -0.25444483       0.60228990 </v>
   <v>       0.23987255       0.24626406      -0.16398409 </v>
  </varray>
  <varray name="stress" >
   <v>     -13.38566163      -3.53883978       1.06300224 </v>
   <v>      -3.53883989     -16.50576572      -0.63369144 </v>
   <v>       1.06300220      -0.63369138     -14.95199833 </v>
  </varray>
  <energy>
   <i name="e_fr_energy">   -318.79484197 </i>
   <i name="e_wo_entrp">   -318.79063911 </i>
   <i name="e_0_energy">     -0.01260856 </i>
  </energy>
  <time name="totalsc">  717.18  722.40</time>
  <eigenvalues>
   <array>
    <dimension dim="1">band</dimension>
    <dimension dim="2">kpoint</dimension>
    <dimension dim="3">spin</dimension>
    <field>eigene</field>
    <field>occ</field>
    <set>
     <set comment="spin 1">
      <set comment="kpoint 1">
       <r>  -47.3403    1.0000 </r>
       <r>  -47.3183    1.0000 </r>
       <r>  -47.2754    1.0000 </r>
       <r>  -47.2215    1.0000 </r>
       <r>  -47.1892    1.0000 </r>
       <r>  -47.0947    1.0000 </r>
       <r>  -24.0922    1.0000 </r>
       <r>  -23.9345    1.0000 </r>
       <r>  -23.7764    1.0000 </r>
       <r>  -23.7315    1.0000 </r>
       <r>  -23.5058    1.0000 </r>
       <r>  -23.5001    1.0000 </r>
       <r>  -23.4948    1.0000 </r>
       <r>  -23.4451    1.0000 </r>
       <r>  -23.4279    1.0000 </r>
       <r>  -23.4090    1.0000 </r>
       <r>  -23.3806    1.0000 </r>
       <r>  -23.3381    1.0000 </r>
       <r>  -23.3000    1.0000 </r>
       <r>  -23.2783    1.0000 </r>
       <r>  -23.1347    1.0000 </r>
       <r>  -23.1159    1.0000 </r>
       <r>  -22.9654    1.0000 </r>
       <r>  -22.7371    1.0000 </r>
       <r>   -0.1566    1.0000 </r>
       <r>    1.1486    1.0000 </r>
       <r>    1.5075    1.0000 </r>
       <r>    2.2996    1.0000 </r>
       <r>    2.4264    1.0000 </r>
       <r>    2.5077    1.0000 </r>
       <r>    2.6103    1.0000 </r>
       <r>    2.7354    1.0000 </r>
       <r>    2.7872    1.0000 </r>
       <r>    2.8626    1.0000 </r>
       <r>    2.9291    1.0000 </r>
       <r>    2.9778    1.0000 </r>
       <r>    3.0384    1.0000 </r>
       <r>    3.0978    1.0000 </r>
       <r>    3.2065    1.0000 </r>
       <r>    3.2418    1.0000 </r>
       <r>    3.3322    1.0000 </r>
       <r>    3.4224    1.0000 </r>
       <r>    3.5286    1.0000 </r>
       <r>    3.5803    1.0000 </r>
       <r>    3.6613    1.0000 </r>
       <r>    3.7032    1.0000 </r>
       <r>    3.7546    1.0000 </r>
       <r>    3.7716    1.0000 </r>
       <r>    3.9457    1.0000 </r>
       <r>    3.9740    1.0000 </r>
       <r>    4.0716    1.0000 </r>
       <r>    4.1176    1.0000 </r>
       <r>    4.2033    1.0000 </r>
       <r>    4.2441    1.0000 </r>
       <r>    4.3758    1.0000 </r>
       <r>    4.4511    1.0000 </r>
       <r>    4.5364    1.0000 </r>
       <r>    4.5860    1.0000 </r>
       <r>    4.7124    1.0000 </r>
       <r>    4.7493    1.0000 </r>
       <r>    4.8325    1.0000 </r>
       <r>    4.8781    1.0000 </r>
       <r>    4.8856    1.0000 </r>
       <r>    4.9815    1.0000 </r>
       <r>    4.9868    1.0000 </r>
       <r>    5.0810    1.0000 </r>
       <r>    5.0942    1.0000 </r>
       <r>    5.1819    1.0000 </r>
       <r>    5.1963    1.0000 </r>
       <r>    5.2519    1.0000 </r>
       <r>    5.3108    1.0000 </r>
       <r>    5.3395    1.0000 </r>
       <r>    5.3993    1.0000 </r>
       <r>    5.4447    1.0000 </r>
       <r>    5.4563    1.0000 </r>
       <r>    5.4751    1.0000 </r>
       <r>    5.4923    1.0000 </r>
       <r>    5.6164    1.0000 </r>
       <r>    5.6808    1.0000 </r>
       <r>    5.7708    1.0000 </r>
       <r>    5.9512    1.0000 </r>
       <r>    6.0007    1.0000 </r>
       <r>    6.0426    1.0001 </r>
       <r>    6.0815    1.0003 </r>
       <r>    6.1373    1.0011 </r>
       <r>    6.2001    1.0040 </r>
       <r>    6.2514    1.0096 </r>
       <r>    6.2905    1.0166 </r>
       <r>    6.2950    1.0176 </r>
       <r>    6.3265    1.0247 </r>
       <r>    6.3544    1.0308 </r>
       <r>    6.3763    1.0343 </r>
       <r>    6.4061    1.0349 </r>
       <r>    6.4748    0.9958 </r>
       <r>    6.6327    0.5286 </r>
       <r>    6.6617    0.4066 </r>
       <r>    6.7455    0.1139 </r>
       <r>    6.7743    0.0495 </r>
       <r>    6.8197   -0.0116 </r>
       <r>    6.9122   -0.0330 </r>
       <r>    6.9759   -0.0193 </r>
       <r>    7.0121   -0.0121 </r>
       <r>    7.0641   -0.0053 </r>
       <r>    7.0774   -0.0041 </r>
       <r>    7.1038   -0.0025 </r>
       <r>    7.2298   -0.0001 </r>
       <r>    7.4724   -0.0000 </r>
       <r>    7.6250   -0.0000 </r>
       <r>    7.6644   -0.0000 </r>
       <r>    7.7503   -0.0000 </r>
       <r>    8.1064   -0.0000 </r>
       <r>    8.2685   -0.0000 </r>
       <r>    8.4144   -0.0000 </r>
       <r>    8.5098   -0.0000 </r>
       <r>    8.5692   -0.0000 </r>
       <r>    8.5736   -0.0000 </r>
       <r>    8.5997   -0.0000 </r>
       <r>    8.6249   -0.0000 </r>
       <r>    8.7012   -0.0000 </r>
       <r>    8.7175   -0.0000 </r>
      </set>
      <set comment="kpoint 2">
       <r>  -47.3376    1.0000 </r>
       <r>  -47.3122    1.0000 </r>
       <r>  -47.2727    1.0000 </r>
       <r>  -47.2204    1.0000 </r>
       <r>  -47.1886    1.0000 </r>
       <r>  -47.1074    1.0000 </r>
       <r>  -23.9947    1.0000 </r>
       <r>  -23.9220    1.0000 </r>
       <r>  -23.7693    1.0000 </r>
       <r>  -23.7252    1.0000 </r>
       <r>  -23.5046    1.0000 </r>
       <r>  -23.5028    1.0000 </r>
       <r>  -23.4915    1.0000 </r>
       <r>  -23.4475    1.0000 </r>
       <r>  -23.4267    1.0000 </r>
       <r>  -23.4137    1.0000 </r>
       <r>  -23.3829    1.0000 </r>
       <r>  -23.3417    1.0000 </r>
       <r>  -23.3104    1.0000 </r>
       <r>  -23.2812    1.0000 </r>
       <r>  -23.1407    1.0000 </r>
       <r>  -23.1217    1.0000 </r>
       <r>  -22.9677    1.0000 </r>
       <r>  -22.8661    1.0000 </r>
       <r>    0.1586    1.0000 </r>
       <r>    1.4268    1.0000 </r>
       <r>    1.7735    1.0000 </r>
       <r>    2.3515    1.0000 </r>
       <r>    2.6442    1.0000 </r>
       <r>    2.7478    1.0000 </r>
       <r>    2.7886    1.0000 </r>
       <r>    2.9073    1.0000 </r>
       <r>    2.9358    1.0000 </r>
       <r>    2.9832    1.0000 </r>
       <r>    3.1183    1.0000 </r>
       <r>    3.1810    1.0000 </r>
       <r>    3.2315    1.0000 </r>
       <r>    3.3281    1.0000 </r>
       <r>    3.3510    1.0000 </r>
       <r>    3.4170    1.0000 </r>
       <r>    3.4664    1.0000 </r>
       <r>    3.5397    1.0000 </r>
       <r>    3.5867    1.0000 </r>
       <r>    3.6251    1.0000 </r>
       <r>    3.7473    1.0000 </r>
       <r>    3.7951    1.0000 </r>
       <r>    3.8599    1.0000 </r>
       <r>    3.9524    1.0000 </r>
       <r>    4.0128    1.0000 </r>
       <r>    4.0351    1.0000 </r>
       <r>    4.1520    1.0000 </r>
       <r>    4.2284    1.0000 </r>
       <r>    4.2538    1.0000 </r>
       <r>    4.3471    1.0000 </r>
       <r>    4.4021    1.0000 </r>
       <r>    4.4768    1.0000 </r>
       <r>    4.5550    1.0000 </r>
       <r>    4.6354    1.0000 </r>
       <r>    4.7526    1.0000 </r>
       <r>    4.8100    1.0000 </r>
       <r>    4.8707    1.0000 </r>
       <r>    5.0014    1.0000 </r>
       <r>    5.0259    1.0000 </r>
       <r>    5.0927    1.0000 </r>
       <r>    5.1236    1.0000 </r>
       <r>    5.1619    1.0000 </r>
       <r>    5.2137    1.0000 </r>
       <r>    5.2720    1.0000 </r>
       <r>    5.2922    1.0000 </r>
       <r>    5.3053    1.0000 </r>
       <r>    5.3740    1.0000 </r>
       <r>    5.4041    1.0000 </r>
       <r>    5.4693    1.0000 </r>
       <r>    5.4901    1.0000 </r>
       <r>    5.5692    1.0000 </r>
       <r>    5.6024    1.0000 </r>
       <r>    5.6234    1.0000 </r>
       <r>    5.6591    1.0000 </r>
       <r>    5.7048    1.0000 </r>
       <r>    5.7436    1.0000 </r>
       <r>    5.7620    1.0000 </r>
       <r>    5.8583    1.0000 </r>
       <r>    5.9128    1.0000 </r>
       <r>    5.9746    1.0000 </r>
       <r>    6.0411    1.0001 </r>
       <r>    6.0917    1.0004 </r>
       <r>    6.1199    1.0007 </r>
       <r>    6.2089    1.0047 </r>
       <r>    6.3024    1.0192 </r>
       <r>    6.3137    1.0217 </r>
       <r>    6.3552    1.0310 </r>
       <r>    6.3826    1.0350 </r>
       <r>    6.4221    1.0320 </r>
       <r>    6.4568    1.0136 </r>
       <r>    6.5416    0.8642 </r>
       <r>    6.5593    0.8109 </r>
       <r>    6.6235    0.5672 </r>
       <r>    6.6559    0.4309 </r>
       <r>    6.7202    0.1872 </r>
       <r>    6.7695    0.0587 </r>
       <r>    6.7944    0.0168 </r>
       <r>    6.8416   -0.0262 </r>
       <r>    6.9364   -0.0283 </r>
       <r>    6.9593   -0.0231 </r>
       <r>    7.0041   -0.0136 </r>
       <r>    7.0338   -0.0087 </r>
       <r>    7.0701   -0.0047 </r>
       <r>    7.2684   -0.0000 </r>
       <r>    7.3944   -0.0000 </r>
       <r>    7.4946   -0.0000 </r>
       <r>    7.7960   -0.0000 </r>
       <r>    7.8232   -0.0000 </r>
       <r>    7.8732   -0.0000 </r>
       <r>    7.9116   -0.0000 </r>
       <r>    8.0112   -0.0000 </r>
       <r>    8.1734   -0.0000 </r>
       <r>    8.2255   -0.0000 </r>
       <r>    8.2834   -0.0000 </r>
       <r>    8.3015   -0.0000 </r>
       <r>    8.3350   -0.0000 </r>
      </set>
      <set comment="kpoint 3">
       <r>  -47.3347    1.0000 </r>
       <r>  -47.3019    1.0000 </r>
       <r>  -47.2651    1.0000 </r>
       <r>  -47.2166    1.0000 </r>
       <r>  -47.1864    1.0000 </r>
       <r>  -47.1331    1.0000 </r>
       <r>  -23.9456    1.0000 </r>
       <r>  -23.7917    1.0000 </r>
       <r>  -23.7416    1.0000 </r>
       <r>  -23.6173    1.0000 </r>
       <r>  -23.5125    1.0000 </r>
       <r>  -23.5062    1.0000 </r>
       <r>  -23.4775    1.0000 </r>
       <r>  -23.4495    1.0000 </r>
       <r>  -23.4262    1.0000 </r>
       <r>  -23.4138    1.0000 </r>
       <r>  -23.3873    1.0000 </r>
       <r>  -23.3493    1.0000 </r>
       <r>  -23.3333    1.0000 </r>
       <r>  -23.2869    1.0000 </r>
       <r>  -23.2217    1.0000 </r>
       <r>  -23.1459    1.0000 </r>
       <r>  -23.1118    1.0000 </r>
       <r>  -22.9620    1.0000 </r>
       <r>    1.0023    1.0000 </r>
       <r>    1.9515    1.0000 </r>
       <r>    2.2848    1.0000 </r>
       <r>    2.5008    1.0000 </r>
       <r>    2.5795    1.0000 </r>
       <r>    2.9387    1.0000 </r>
       <r>    2.9953    1.0000 </r>
       <r>    3.1733    1.0000 </r>
       <r>    3.2748    1.0000 </r>
       <r>    3.3418    1.0000 </r>
       <r>    3.3873    1.0000 </r>
       <r>    3.4300    1.0000 </r>
       <r>    3.4904    1.0000 </r>
       <r>    3.5260    1.0000 </r>
       <r>    3.6175    1.0000 </r>
       <r>    3.6776    1.0000 </r>
       <r>    3.7520    1.0000 </r>
       <r>    3.7863    1.0000 </r>
       <r>    3.8089    1.0000 </r>
       <r>    3.8912    1.0000 </r>
       <r>    3.9954    1.0000 </r>
       <r>    4.0002    1.0000 </r>
       <r>    4.0766    1.0000 </r>
       <r>    4.1105    1.0000 </r>
       <r>    4.2088    1.0000 </r>
       <r>    4.2332    1.0000 </r>
       <r>    4.3684    1.0000 </r>
       <r>    4.4224    1.0000 </r>
       <r>    4.4818    1.0000 </r>
       <r>    4.5642    1.0000 </r>
       <r>    4.6222    1.0000 </r>
       <r>    4.6930    1.0000 </r>
       <r>    4.7657    1.0000 </r>
       <r>    4.8151    1.0000 </r>
       <r>    4.8455    1.0000 </r>
       <r>    4.9078    1.0000 </r>
       <r>    4.9376    1.0000 </r>
       <r>    4.9837    1.0000 </r>
       <r>    5.0436    1.0000 </r>
       <r>    5.0745    1.0000 </r>
       <r>    5.1096    1.0000 </r>
       <r>    5.1909    1.0000 </r>
       <r>    5.2162    1.0000 </r>
       <r>    5.2466    1.0000 </r>
       <r>    5.2855    1.0000 </r>
       <r>    5.3508    1.0000 </r>
       <r>    5.3989    1.0000 </r>
       <r>    5.4555    1.0000 </r>
       <r>    5.4932    1.0000 </r>
       <r>    5.5385    1.0000 </r>
       <r>    5.5784    1.0000 </r>
       <r>    5.6413    1.0000 </r>
       <r>    5.6947    1.0000 </r>
       <r>    5.7201    1.0000 </r>
       <r>    5.7311    1.0000 </r>
       <r>    5.7809    1.0000 </r>
       <r>    5.8752    1.0000 </r>
       <r>    5.9187    1.0000 </r>
       <r>    5.9537    1.0000 </r>
       <r>    5.9967    1.0000 </r>
       <r>    6.0522    1.0001 </r>
       <r>    6.0956    1.0004 </r>
       <r>    6.1615    1.0019 </r>
       <r>    6.1972    1.0038 </r>
       <r>    6.2340    1.0073 </r>
       <r>    6.2625    1.0114 </r>
       <r>    6.2948    1.0175 </r>
       <r>    6.3336    1.0263 </r>
       <r>    6.3628    1.0324 </r>
       <r>    6.3989    1.0354 </r>
       <r>    6.4033    1.0351 </r>
       <r>    6.4855    0.9820 </r>
       <r>    6.5308    0.8929 </r>
       <r>    6.5662    0.7883 </r>
       <r>    6.6029    0.6520 </r>
       <r>    6.6132    0.6100 </r>
       <r>    6.6558    0.4310 </r>
       <r>    6.7049    0.2388 </r>
       <r>    6.7114    0.2163 </r>
       <r>    6.7945    0.0167 </r>
       <r>    6.8020    0.0068 </r>
       <r>    6.8768   -0.0352 </r>
       <r>    6.9289   -0.0299 </r>
       <r>    6.9575   -0.0235 </r>
       <r>    6.9822   -0.0179 </r>
       <r>    7.0531   -0.0064 </r>
       <r>    7.0921   -0.0031 </r>
       <r>    7.1382   -0.0012 </r>
       <r>    7.4238   -0.0000 </r>
       <r>    7.5461   -0.0000 </r>
       <r>    7.5686   -0.0000 </r>
       <r>    7.7029   -0.0000 </r>
       <r>    7.7883   -0.0000 </r>
       <r>    7.8078   -0.0000 </r>
       <r>    7.9288   -0.0000 </r>
       <r>    8.0414   -0.0000 </r>
      </set>
      <set comment="kpoint 4">
       <r>  -47.3402    1.0000 </r>
       <r>  -47.3181    1.0000 </r>
       <r>  -47.2754    1.0000 </r>
       <r>  -47.2218    1.0000 </r>
       <r>  -47.1893    1.0000 </r>
       <r>  -47.0947    1.0000 </r>
       <r>  -24.0922    1.0000 </r>
       <r>  -23.9333    1.0000 </r>
       <r>  -23.7726    1.0000 </r>
       <r>  -23.7305    1.0000 </r>
       <r>  -23.5059    1.0000 </r>
       <r>  -23.5002    1.0000 </r>
       <r>  -23.4949    1.0000 </r>
       <r>  -23.4452    1.0000 </r>
       <r>  -23.4278    1.0000 </r>
       <r>  -23.4089    1.0000 </r>
       <r>  -23.3805    1.0000 </r>
       <r>  -23.3380    1.0000 </r>
       <r>  -23.3001    1.0000 </r>
       <r>  -23.2784    1.0000 </r>
       <r>  -23.1373    1.0000 </r>
       <r>  -23.1199    1.0000 </r>
       <r>  -22.9658    1.0000 </r>
       <r>  -22.7371    1.0000 </r>
       <r>   -0.0239    1.0000 </r>
       <r>    1.2141    1.0000 </r>
       <r>    1.6292    1.0000 </r>
       <r>    1.8484    1.0000 </r>
       <r>    2.4086    1.0000 </r>
       <r>    2.5602    1.0000 </r>
       <r>    2.6351    1.0000 </r>
       <r>    2.7441    1.0000 </r>
       <r>    2.7655    1.0000 </r>
       <r>    2.8512    1.0000 </r>
       <r>    2.9497    1.0000 </r>
       <r>    3.0050    1.0000 </r>
       <r>    3.0472    1.0000 </r>
       <r>    3.0905    1.0000 </r>
       <r>    3.1502    1.0000 </r>
       <r>    3.1916    1.0000 </r>
       <r>    3.3592    1.0000 </r>
       <r>    3.4027    1.0000 </r>
       <r>    3.5039    1.0000 </r>
       <r>    3.5747    1.0000 </r>
       <r>    3.6702    1.0000 </r>
       <r>    3.7595    1.0000 </r>
       <r>    3.7813    1.0000 </r>
       <r>    3.8846    1.0000 </r>
       <r>    3.9233    1.0000 </r>
       <r>    4.0123    1.0000 </r>
       <r>    4.0841    1.0000 </r>
       <r>    4.1524    1.0000 </r>
       <r>    4.1792    1.0000 </r>
       <r>    4.2391    1.0000 </r>
       <r>    4.3134    1.0000 </r>
       <r>    4.3950    1.0000 </r>
       <r>    4.4901    1.0000 </r>
       <r>    4.6539    1.0000 </r>
       <r>    4.7347    1.0000 </r>
       <r>    4.7999    1.0000 </r>
       <r>    4.8396    1.0000 </r>
       <r>    4.9506    1.0000 </r>
       <r>    4.9852    1.0000 </r>
       <r>    5.0347    1.0000 </r>
       <r>    5.0830    1.0000 </r>
       <r>    5.1155    1.0000 </r>
       <r>    5.1749    1.0000 </r>
       <r>    5.2265    1.0000 </r>
       <r>    5.2511    1.0000 </r>
       <r>    5.2808    1.0000 </r>
       <r>    5.3355    1.0000 </r>
       <r>    5.3645    1.0000 </r>
       <r>    5.4036    1.0000 </r>
       <r>    5.4658    1.0000 </r>
       <r>    5.5065    1.0000 </r>
       <r>    5.5375    1.0000 </r>
       <r>    5.5856    1.0000 </r>
       <r>    5.6101    1.0000 </r>
       <r>    5.7212    1.0000 </r>
       <r>    5.7569    1.0000 </r>
       <r>    5.9625    1.0000 </r>
       <r>    5.9846    1.0000 </r>
       <r>    6.0613    1.0002 </r>
       <r>    6.0900    1.0004 </r>
       <r>    6.1293    1.0009 </r>
       <r>    6.1408    1.0012 </r>
       <r>    6.1747    1.0025 </r>
       <r>    6.2251    1.0063 </r>
       <r>    6.2675    1.0122 </r>
       <r>    6.2850    1.0155 </r>
       <r>    6.3251    1.0244 </r>
       <r>    6.3590    1.0317 </r>
       <r>    6.3976    1.0354 </r>
       <r>    6.4362    1.0268 </r>
       <r>    6.4898    0.9757 </r>
       <r>    6.5011    0.9570 </r>
       <r>    6.5702    0.7747 </r>
       <r>    6.6304    0.5382 </r>
       <r>    6.6831    0.3203 </r>
       <r>    6.9577   -0.0235 </r>
       <r>    6.9960   -0.0151 </r>
       <r>    7.0195   -0.0109 </r>
       <r>    7.1052   -0.0024 </r>
       <r>    7.1659   -0.0006 </r>
       <r>    7.2802   -0.0000 </r>
       <r>    7.3144   -0.0000 </r>
       <r>    7.4485   -0.0000 </r>
       <r>    7.6208   -0.0000 </r>
       <r>    7.6612   -0.0000 </r>
       <r>    7.7444   -0.0000 </r>
       <r>    7.8526   -0.0000 </r>
       <r>    7.9356   -0.0000 </r>
       <r>    8.0664   -0.0000 </r>
       <r>    8.2638   -0.0000 </r>
       <r>    8.3394   -0.0000 </r>
       <r>    8.4696   -0.0000 </r>
       <r>    8.4959   -0.0000 </r>
       <r>    8.5554   -0.0000 </r>
       <r>    8.5911   -0.0000 </r>
       <r>    8.6437   -0.0000 </r>
      </set>
      <set comment="kpoint 5">
       <r>  -47.3378    1.0000 </r>
       <r>  -47.3123    1.0000 </r>
       <r>  -47.2727    1.0000 </r>
       <r>  -47.2201    1.0000 </r>
       <r>  -47.1885    1.0000 </r>
       <r>  -47.1074    1.0000 </r>
       <r>  -23.9949    1.0000 </r>
       <r>  -23.9231    1.0000 </r>
       <r>  -23.7733    1.0000 </r>
       <r>  -23.7258    1.0000 </r>
       <r>  -23.5047    1.0000 </r>
       <r>  -23.5027    1.0000 </r>
       <r>  -23.4914    1.0000 </r>
       <r>  -23.4475    1.0000 </r>
       <r>  -23.4266    1.0000 </r>
       <r>  -23.4137    1.0000 </r>
       <r>  -23.3829    1.0000 </r>
       <r>  -23.3417    1.0000 </r>
       <r>  -23.3103    1.0000 </r>
       <r>  -23.2811    1.0000 </r>
       <r>  -23.1388    1.0000 </r>
       <r>  -23.1172    1.0000 </r>
       <r>  -22.9673    1.0000 </r>
       <r>  -22.8661    1.0000 </r>
       <r>    0.1634    1.0000 </r>
       <r>    1.3869    1.0000 </r>
       <r>    1.8020    1.0000 </r>
       <r>    2.3273    1.0000 </r>
       <r>    2.5908    1.0000 </r>
       <r>    2.7381    1.0000 </r>
       <r>    2.7443    1.0000 </r>
       <r>    2.8326    1.0000 </r>
       <r>    2.8909    1.0000 </r>
       <r>    2.9798    1.0000 </r>
       <r>    3.0381    1.0000 </r>
       <r>    3.1376    1.0000 </r>
       <r>    3.2285    1.0000 </r>
       <r>    3.2910    1.0000 </r>
       <r>    3.3319    1.0000 </r>
       <r>    3.3924    1.0000 </r>
       <r>    3.4344    1.0000 </r>
       <r>    3.4394    1.0000 </r>
       <r>    3.6471    1.0000 </r>
       <r>    3.6857    1.0000 </r>
       <r>    3.7452    1.0000 </r>
       <r>    3.8225    1.0000 </r>
       <r>    3.8732    1.0000 </r>
       <r>    3.9562    1.0000 </r>
       <r>    4.0690    1.0000 </r>
       <r>    4.1182    1.0000 </r>
       <r>    4.1484    1.0000 </r>
       <r>    4.2406    1.0000 </r>
       <r>    4.3121    1.0000 </r>
       <r>    4.3799    1.0000 </r>
       <r>    4.4439    1.0000 </r>
       <r>    4.4967    1.0000 </r>
       <r>    4.6106    1.0000 </r>
       <r>    4.6898    1.0000 </r>
       <r>    4.7600    1.0000 </r>
       <r>    4.8421    1.0000 </r>
       <r>    4.8941    1.0000 </r>
       <r>    4.9172    1.0000 </r>
       <r>    5.0085    1.0000 </r>
       <r>    5.0274    1.0000 </r>
       <r>    5.0640    1.0000 </r>
       <r>    5.1513    1.0000 </r>
       <r>    5.1849    1.0000 </r>
       <r>    5.2254    1.0000 </r>
       <r>    5.2654    1.0000 </r>
       <r>    5.2914    1.0000 </r>
       <r>    5.3266    1.0000 </r>
       <r>    5.3451    1.0000 </r>
       <r>    5.3747    1.0000 </r>
       <r>    5.4326    1.0000 </r>
       <r>    5.4618    1.0000 </r>
       <r>    5.5277    1.0000 </r>
       <r>    5.6134    1.0000 </r>
       <r>    5.6356    1.0000 </r>
       <r>    5.7186    1.0000 </r>
       <r>    5.7829    1.0000 </r>
       <r>    5.8383    1.0000 </r>
       <r>    5.9022    1.0000 </r>
       <r>    5.9722    1.0000 </r>
       <r>    5.9875    1.0000 </r>
       <r>    6.0432    1.0001 </r>
       <r>    6.1041    1.0005 </r>
       <r>    6.1504    1.0015 </r>
       <r>    6.2332    1.0072 </r>
       <r>    6.2588    1.0108 </r>
       <r>    6.2982    1.0183 </r>
       <r>    6.3310    1.0257 </r>
       <r>    6.3606    1.0320 </r>
       <r>    6.3984    1.0354 </r>
       <r>    6.4246    1.0312 </r>
       <r>    6.5180    0.9232 </r>
       <r>    6.5767    0.7515 </r>
       <r>    6.6182    0.5896 </r>
       <r>    6.7094    0.2231 </r>
       <r>    6.7559    0.0883 </r>
       <r>    6.8077    0.0001 </r>
       <r>    6.8564   -0.0318 </r>
       <r>    6.9168   -0.0322 </r>
       <r>    6.9786   -0.0187 </r>
       <r>    7.0073   -0.0130 </r>
       <r>    7.0423   -0.0076 </r>
       <r>    7.1224   -0.0017 </r>
       <r>    7.1782   -0.0005 </r>
       <r>    7.2293   -0.0001 </r>
       <r>    7.3070   -0.0000 </r>
       <r>    7.3478   -0.0000 </r>
       <r>    7.4128   -0.0000 </r>
       <r>    7.8165   -0.0000 </r>
       <r>    8.1108   -0.0000 </r>
       <r>    8.2171   -0.0000 </r>
       <r>    8.2928   -0.0000 </r>
       <r>    8.3261   -0.0000 </r>
       <r>    8.4829   -0.0000 </r>
       <r>    8.5479   -0.0000 </r>
       <r>    8.5894   -0.0000 </r>
       <r>    8.6524   -0.0000 </r>
      </set>
      <set comment="kpoint 6">
       <r>  -47.3350    1.0000 </r>
       <r>  -47.3021    1.0000 </r>
       <r>  -47.2651    1.0000 </r>
       <r>  -47.2162    1.0000 </r>
       <r>  -47.1863    1.0000 </r>
       <r>  -47.1331    1.0000 </r>
       <r>  -23.9472    1.0000 </r>
       <r>  -23.7954    1.0000 </r>
       <r>  -23.7462    1.0000 </r>
       <r>  -23.6173    1.0000 </r>
       <r>  -23.5126    1.0000 </r>
       <r>  -23.5061    1.0000 </r>
       <r>  -23.4774    1.0000 </r>
       <r>  -23.4495    1.0000 </r>
       <r>  -23.4262    1.0000 </r>
       <r>  -23.4137    1.0000 </r>
       <r>  -23.3874    1.0000 </r>
       <r>  -23.3493    1.0000 </r>
       <r>  -23.3332    1.0000 </r>
       <r>  -23.2868    1.0000 </r>
       <r>  -23.2216    1.0000 </r>
       <r>  -23.1377    1.0000 </r>
       <r>  -23.1093    1.0000 </r>
       <r>  -22.9615    1.0000 </r>
       <r>    0.9062    1.0000 </r>
       <r>    1.8900    1.0000 </r>
       <r>    2.2416    1.0000 </r>
       <r>    2.4404    1.0000 </r>
       <r>    2.5694    1.0000 </r>
       <r>    2.7057    1.0000 </r>
       <r>    3.0012    1.0000 </r>
       <r>    3.2007    1.0000 </r>
       <r>    3.3115    1.0000 </r>
       <r>    3.3633    1.0000 </r>
       <r>    3.4373    1.0000 </r>
       <r>    3.4712    1.0000 </r>
       <r>    3.5273    1.0000 </r>
       <r>    3.5957    1.0000 </r>
       <r>    3.6128    1.0000 </r>
       <r>    3.7012    1.0000 </r>
       <r>    3.7658    1.0000 </r>
       <r>    3.7843    1.0000 </r>
       <r>    3.8761    1.0000 </r>
       <r>    3.9181    1.0000 </r>
       <r>    3.9438    1.0000 </r>
       <r>    3.9883    1.0000 </r>
       <r>    4.0613    1.0000 </r>
       <r>    4.1365    1.0000 </r>
       <r>    4.2045    1.0000 </r>
       <r>    4.2752    1.0000 </r>
       <r>    4.3266    1.0000 </r>
       <r>    4.3983    1.0000 </r>
       <r>    4.4501    1.0000 </r>
       <r>    4.4827    1.0000 </r>
       <r>    4.5522    1.0000 </r>
       <r>    4.6045    1.0000 </r>
       <r>    4.6604    1.0000 </r>
       <r>    4.7451    1.0000 </r>
       <r>    4.8170    1.0000 </r>
       <r>    4.9363    1.0000 </r>
       <r>    4.9652    1.0000 </r>
       <r>    4.9841    1.0000 </r>
       <r>    5.0496    1.0000 </r>
       <r>    5.1036    1.0000 </r>
       <r>    5.1391    1.0000 </r>
       <r>    5.1957    1.0000 </r>
       <r>    5.2213    1.0000 </r>
       <r>    5.2776    1.0000 </r>
       <r>    5.3076    1.0000 </r>
       <r>    5.3585    1.0000 </r>
       <r>    5.4121    1.0000 </r>
       <r>    5.4230    1.0000 </r>
       <r>    5.4666    1.0000 </r>
       <r>    5.5203    1.0000 </r>
       <r>    5.5583    1.0000 </r>
       <r>    5.6024    1.0000 </r>
       <r>    5.6299    1.0000 </r>
       <r>    5.7258    1.0000 </r>
       <r>    5.7627    1.0000 </r>
       <r>    5.8320    1.0000 </r>
       <r>    5.8571    1.0000 </r>
       <r>    5.9247    1.0000 </r>
       <r>    5.9739    1.0000 </r>
       <r>    5.9975    1.0000 </r>
       <r>    6.0170    1.0000 </r>
       <r>    6.0518    1.0001 </r>
       <r>    6.1278    1.0009 </r>
       <r>    6.1448    1.0013 </r>
       <r>    6.1912    1.0034 </r>
       <r>    6.2297    1.0068 </r>
       <r>    6.2565    1.0104 </r>
       <r>    6.3006    1.0188 </r>
       <r>    6.3231    1.0239 </r>
       <r>    6.3588    1.0317 </r>
       <r>    6.3909    1.0354 </r>
       <r>    6.4172    1.0332 </r>
       <r>    6.4658    1.0055 </r>
       <r>    6.4967    0.9646 </r>
       <r>    6.5231    0.9116 </r>
       <r>    6.5536    0.8290 </r>
       <r>    6.5918    0.6956 </r>
       <r>    6.6549    0.4350 </r>
       <r>    6.7028    0.2465 </r>
       <r>    6.7350    0.1425 </r>
       <r>    6.7879    0.0262 </r>
       <r>    6.8010    0.0080 </r>
       <r>    6.9237   -0.0310 </r>
       <r>    7.0311   -0.0091 </r>
       <r>    7.0745   -0.0044 </r>
       <r>    7.1631   -0.0007 </r>
       <r>    7.2365   -0.0001 </r>
       <r>    7.5862   -0.0000 </r>
       <r>    7.7076   -0.0000 </r>
       <r>    7.7724   -0.0000 </r>
       <r>    7.8561   -0.0000 </r>
       <r>    7.9732   -0.0000 </r>
       <r>    8.0385   -0.0000 </r>
       <r>    8.0990   -0.0000 </r>
       <r>    8.1595   -0.0000 </r>
       <r>    8.2256   -0.0000 </r>
      </set>
      <set comment="kpoint 7">
       <r>  -47.3347    1.0000 </r>
       <r>  -47.3019    1.0000 </r>
       <r>  -47.2651    1.0000 </r>
       <r>  -47.2166    1.0000 </r>
       <r>  -47.1864    1.0000 </r>
       <r>  -47.1331    1.0000 </r>
       <r>  -23.9456    1.0000 </r>
       <r>  -23.7917    1.0000 </r>
       <r>  -23.7415    1.0000 </r>
       <r>  -23.6173    1.0000 </r>
       <r>  -23.5127    1.0000 </r>
       <r>  -23.5062    1.0000 </r>
       <r>  -23.4775    1.0000 </r>
       <r>  -23.4496    1.0000 </r>
       <r>  -23.4261    1.0000 </r>
       <r>  -23.4138    1.0000 </r>
       <r>  -23.3873    1.0000 </r>
       <r>  -23.3493    1.0000 </r>
       <r>  -23.3333    1.0000 </r>
       <r>  -23.2869    1.0000 </r>
       <r>  -23.2217    1.0000 </r>
       <r>  -23.1460    1.0000 </r>
       <r>  -23.1118    1.0000 </r>
       <r>  -22.9620    1.0000 </r>
       <r>    1.2678    1.0000 </r>
       <r>    1.9360    1.0000 </r>
       <r>    2.0604    1.0000 </r>
       <r>    2.3513    1.0000 </r>
       <r>    2.6234    1.0000 </r>
       <r>    2.8524    1.0000 </r>
       <r>    2.9492    1.0000 </r>
       <r>    3.0526    1.0000 </r>
       <r>    3.2841    1.0000 </r>
       <r>    3.3268    1.0000 </r>
       <r>    3.3963    1.0000 </r>
       <r>    3.4202    1.0000 </r>
       <r>    3.4705    1.0000 </r>
       <r>    3.5553    1.0000 </r>
       <r>    3.6146    1.0000 </r>
       <r>    3.6849    1.0000 </r>
       <r>    3.7227    1.0000 </r>
       <r>    3.7694    1.0000 </r>
       <r>    3.8426    1.0000 </r>
       <r>    3.8882    1.0000 </r>
       <r>    3.9665    1.0000 </r>
       <r>    4.0660    1.0000 </r>
       <r>    4.1050    1.0000 </r>
       <r>    4.2043    1.0000 </r>
       <r>    4.2726    1.0000 </r>
       <r>    4.3293    1.0000 </r>
       <r>    4.3604    1.0000 </r>
       <r>    4.4133    1.0000 </r>
       <r>    4.4774    1.0000 </r>
       <r>    4.5841    1.0000 </r>
       <r>    4.6711    1.0000 </r>
       <r>    4.7565    1.0000 </r>
       <r>    4.8103    1.0000 </r>
       <r>    4.8423    1.0000 </r>
       <r>    4.8551    1.0000 </r>
       <r>    4.8969    1.0000 </r>
       <r>    4.9117    1.0000 </r>
       <r>    4.9922    1.0000 </r>
       <r>    5.0052    1.0000 </r>
       <r>    5.0710    1.0000 </r>
       <r>    5.1153    1.0000 </r>
       <r>    5.1709    1.0000 </r>
       <r>    5.2235    1.0000 </r>
       <r>    5.2671    1.0000 </r>
       <r>    5.3005    1.0000 </r>
       <r>    5.3180    1.0000 </r>
       <r>    5.3274    1.0000 </r>
       <r>    5.4351    1.0000 </r>
       <r>    5.4622    1.0000 </r>
       <r>    5.5118    1.0000 </r>
       <r>    5.5803    1.0000 </r>
       <r>    5.5894    1.0000 </r>
       <r>    5.6454    1.0000 </r>
       <r>    5.6726    1.0000 </r>
       <r>    5.7613    1.0000 </r>
       <r>    5.8141    1.0000 </r>
       <r>    5.8334    1.0000 </r>
       <r>    5.8911    1.0000 </r>
       <r>    5.9168    1.0000 </r>
       <r>    5.9756    1.0000 </r>
       <r>    6.0739    1.0002 </r>
       <r>    6.1094    1.0006 </r>
       <r>    6.1543    1.0016 </r>
       <r>    6.1918    1.0034 </r>
       <r>    6.2367    1.0076 </r>
       <r>    6.2723    1.0131 </r>
       <r>    6.3237    1.0240 </r>
       <r>    6.3412    1.0280 </r>
       <r>    6.3679    1.0332 </r>
       <r>    6.4031    1.0352 </r>
       <r>    6.4433    1.0230 </r>
       <r>    6.4957    0.9663 </r>
       <r>    6.5296    0.8961 </r>
       <r>    6.5796    0.7413 </r>
       <r>    6.6026    0.6530 </r>
       <r>    6.6285    0.5465 </r>
       <r>    6.6589    0.4181 </r>
       <r>    6.6922    0.2851 </r>
       <r>    6.7209    0.1851 </r>
       <r>    6.7701    0.0576 </r>
       <r>    6.7956    0.0151 </r>
       <r>    6.8371   -0.0239 </r>
       <r>    6.8760   -0.0352 </r>
       <r>    6.8975   -0.0349 </r>
       <r>    7.0021   -0.0139 </r>
       <r>    7.0576   -0.0059 </r>
       <r>    7.1950   -0.0003 </r>
       <r>    7.2241   -0.0001 </r>
       <r>    7.2528   -0.0001 </r>
       <r>    7.3697   -0.0000 </r>
       <r>    7.6468   -0.0000 </r>
       <r>    7.8217   -0.0000 </r>
       <r>    8.0402   -0.0000 </r>
       <r>    8.0542   -0.0000 </r>
       <r>    8.1087   -0.0000 </r>
       <r>    8.1475   -0.0000 </r>
      </set>
      <set comment="kpoint 8">
       <r>  -47.3373    1.0000 </r>
       <r>  -47.3119    1.0000 </r>
       <r>  -47.2727    1.0000 </r>
       <r>  -47.2208    1.0000 </r>
       <r>  -47.1887    1.0000 </r>
       <r>  -47.1074    1.0000 </r>
       <r>  -23.9945    1.0000 </r>
       <r>  -23.9203    1.0000 </r>
       <r>  -23.7626    1.0000 </r>
       <r>  -23.7238    1.0000 </r>
       <r>  -23.5047    1.0000 </r>
       <r>  -23.5030    1.0000 </r>
       <r>  -23.4916    1.0000 </r>
       <r>  -23.4475    1.0000 </r>
       <r>  -23.4267    1.0000 </r>
       <r>  -23.4136    1.0000 </r>
       <r>  -23.3828    1.0000 </r>
       <r>  -23.3416    1.0000 </r>
       <r>  -23.3105    1.0000 </r>
       <r>  -23.2813    1.0000 </r>
       <r>  -23.1463    1.0000 </r>
       <r>  -23.1271    1.0000 </r>
       <r>  -22.9683    1.0000 </r>
       <r>  -22.8662    1.0000 </r>
       <r>    0.4005    1.0000 </r>
       <r>    1.5337    1.0000 </r>
       <r>    1.7848    1.0000 </r>
       <r>    1.9786    1.0000 </r>
       <r>    2.5310    1.0000 </r>
       <r>    2.7931    1.0000 </r>
       <r>    2.8822    1.0000 </r>
       <r>    2.9623    1.0000 </r>
       <r>    2.9690    1.0000 </r>
       <r>    3.0145    1.0000 </r>
       <r>    3.1531    1.0000 </r>
       <r>    3.1913    1.0000 </r>
       <r>    3.2318    1.0000 </r>
       <r>    3.2839    1.0000 </r>
       <r>    3.3091    1.0000 </r>
       <r>    3.3567    1.0000 </r>
       <r>    3.4100    1.0000 </r>
       <r>    3.4808    1.0000 </r>
       <r>    3.5791    1.0000 </r>
       <r>    3.6466    1.0000 </r>
       <r>    3.7221    1.0000 </r>
       <r>    3.7955    1.0000 </r>
       <r>    3.8641    1.0000 </r>
       <r>    3.9810    1.0000 </r>
       <r>    4.0204    1.0000 </r>
       <r>    4.0902    1.0000 </r>
       <r>    4.1293    1.0000 </r>
       <r>    4.1998    1.0000 </r>
       <r>    4.2611    1.0000 </r>
       <r>    4.3554    1.0000 </r>
       <r>    4.4261    1.0000 </r>
       <r>    4.5003    1.0000 </r>
       <r>    4.6666    1.0000 </r>
       <r>    4.7171    1.0000 </r>
       <r>    4.7883    1.0000 </r>
       <r>    4.8497    1.0000 </r>
       <r>    4.9413    1.0000 </r>
       <r>    4.9901    1.0000 </r>
       <r>    5.0175    1.0000 </r>
       <r>    5.1074    1.0000 </r>
       <r>    5.1881    1.0000 </r>
       <r>    5.1973    1.0000 </r>
       <r>    5.2828    1.0000 </r>
       <r>    5.3052    1.0000 </r>
       <r>    5.3460    1.0000 </r>
       <r>    5.3642    1.0000 </r>
       <r>    5.4600    1.0000 </r>
       <r>    5.4993    1.0000 </r>
       <r>    5.5050    1.0000 </r>
       <r>    5.5537    1.0000 </r>
       <r>    5.5939    1.0000 </r>
       <r>    5.6484    1.0000 </r>
       <r>    5.6839    1.0000 </r>
       <r>    5.6988    1.0000 </r>
       <r>    5.7221    1.0000 </r>
       <r>    5.7894    1.0000 </r>
       <r>    5.8085    1.0000 </r>
       <r>    5.8450    1.0000 </r>
       <r>    5.8814    1.0000 </r>
       <r>    5.9383    1.0000 </r>
       <r>    6.0227    1.0001 </r>
       <r>    6.1185    1.0007 </r>
       <r>    6.1503    1.0015 </r>
       <r>    6.1978    1.0039 </r>
       <r>    6.2477    1.0091 </r>
       <r>    6.2821    1.0149 </r>
       <r>    6.3299    1.0255 </r>
       <r>    6.3845    1.0351 </r>
       <r>    6.4240    1.0314 </r>
       <r>    6.4856    0.9817 </r>
       <r>    6.5256    0.9057 </r>
       <r>    6.5527    0.8316 </r>
       <r>    6.5898    0.7033 </r>
       <r>    6.6062    0.6387 </r>
       <r>    6.6338    0.5240 </r>
       <r>    6.7208    0.1854 </r>
       <r>    6.7619    0.0746 </r>
       <r>    6.7849    0.0309 </r>
       <r>    6.8212   -0.0128 </r>
       <r>    6.8482   -0.0291 </r>
       <r>    6.8917   -0.0353 </r>
       <r>    6.9524   -0.0247 </r>
       <r>    6.9919   -0.0159 </r>
       <r>    7.1451   -0.0010 </r>
       <r>    7.2680   -0.0000 </r>
       <r>    7.3233   -0.0000 </r>
       <r>    7.4042   -0.0000 </r>
       <r>    7.5503   -0.0000 </r>
       <r>    7.8287   -0.0000 </r>
       <r>    7.8766   -0.0000 </r>
       <r>    7.9170   -0.0000 </r>
       <r>    8.0091   -0.0000 </r>
       <r>    8.0908   -0.0000 </r>
       <r>    8.1701   -0.0000 </r>
       <r>    8.2231   -0.0000 </r>
       <r>    8.3468   -0.0000 </r>
      </set>
      <set comment="kpoint 9">
       <r>  -47.3400    1.0000 </r>
       <r>  -47.3178    1.0000 </r>
       <r>  -47.2754    1.0000 </r>
       <r>  -47.2222    1.0000 </r>
       <r>  -47.1894    1.0000 </r>
       <r>  -47.0947    1.0000 </r>
       <r>  -24.0922    1.0000 </r>
       <r>  -23.9315    1.0000 </r>
       <r>  -23.7665    1.0000 </r>
       <r>  -23.7283    1.0000 </r>
       <r>  -23.5061    1.0000 </r>
       <r>  -23.5003    1.0000 </r>
       <r>  -23.4951    1.0000 </r>
       <r>  -23.4453    1.0000 </r>
       <r>  -23.4278    1.0000 </r>
       <r>  -23.4087    1.0000 </r>
       <r>  -23.3803    1.0000 </r>
       <r>  -23.3379    1.0000 </r>
       <r>  -23.3001    1.0000 </r>
       <r>  -23.2785    1.0000 </r>
       <r>  -23.1442    1.0000 </r>
       <r>  -23.1241    1.0000 </r>
       <r>  -22.9664    1.0000 </r>
       <r>  -22.7371    1.0000 </r>
       <r>    0.3229    1.0000 </r>
       <r>    1.0987    1.0000 </r>
       <r>    1.4577    1.0000 </r>
       <r>    1.9353    1.0000 </r>
       <r>    2.2521    1.0000 </r>
       <r>    2.4906    1.0000 </r>
       <r>    2.6597    1.0000 </r>
       <r>    2.7123    1.0000 </r>
       <r>    2.7867    1.0000 </r>
       <r>    2.8491    1.0000 </r>
       <r>    2.9305    1.0000 </r>
       <r>    3.0514    1.0000 </r>
       <r>    3.0732    1.0000 </r>
       <r>    3.1380    1.0000 </r>
       <r>    3.1638    1.0000 </r>
       <r>    3.2268    1.0000 </r>
       <r>    3.3335    1.0000 </r>
       <r>    3.4060    1.0000 </r>
       <r>    3.4805    1.0000 </r>
       <r>    3.5975    1.0000 </r>
       <r>    3.6430    1.0000 </r>
       <r>    3.7033    1.0000 </r>
       <r>    3.7389    1.0000 </r>
       <r>    3.7979    1.0000 </r>
       <r>    3.8677    1.0000 </r>
       <r>    3.9863    1.0000 </r>
       <r>    4.0626    1.0000 </r>
       <r>    4.1073    1.0000 </r>
       <r>    4.1475    1.0000 </r>
       <r>    4.1993    1.0000 </r>
       <r>    4.3205    1.0000 </r>
       <r>    4.4403    1.0000 </r>
       <r>    4.7043    1.0000 </r>
       <r>    4.7817    1.0000 </r>
       <r>    4.8301    1.0000 </r>
       <r>    4.8963    1.0000 </r>
       <r>    4.9444    1.0000 </r>
       <r>    5.0068    1.0000 </r>
       <r>    5.0880    1.0000 </r>
       <r>    5.1276    1.0000 </r>
       <r>    5.1474    1.0000 </r>
       <r>    5.1813    1.0000 </r>
       <r>    5.2556    1.0000 </r>
       <r>    5.2897    1.0000 </r>
       <r>    5.3118    1.0000 </r>
       <r>    5.3501    1.0000 </r>
       <r>    5.3754    1.0000 </r>
       <r>    5.3950    1.0000 </r>
       <r>    5.4611    1.0000 </r>
       <r>    5.5061    1.0000 </r>
       <r>    5.5329    1.0000 </r>
       <r>    5.5805    1.0000 </r>
       <r>    5.5874    1.0000 </r>
       <r>    5.6823    1.0000 </r>
       <r>    5.7212    1.0000 </r>
       <r>    5.8383    1.0000 </r>
       <r>    5.9150    1.0000 </r>
       <r>    6.0085    1.0000 </r>
       <r>    6.0416    1.0001 </r>
       <r>    6.0986    1.0004 </r>
       <r>    6.1227    1.0008 </r>
       <r>    6.1904    1.0033 </r>
       <r>    6.2183    1.0056 </r>
       <r>    6.2347    1.0074 </r>
       <r>    6.2897    1.0165 </r>
       <r>    6.3174    1.0226 </r>
       <r>    6.3449    1.0288 </r>
       <r>    6.3700    1.0335 </r>
       <r>    6.4169    1.0332 </r>
       <r>    6.4563    1.0140 </r>
[...]
       <r>    4.9030    1.0000 </r>
       <r>    4.9524    1.0000 </r>
       <r>    4.9700    1.0000 </r>
       <r>    5.0276    1.0000 </r>
       <r>    5.0824    1.0000 </r>
       <r>    5.1130    1.0000 </r>
       <r>    5.1626    1.0000 </r>
       <r>    5.2214    1.0000 </r>
       <r>    5.2661    1.0000 </r>
       <r>    5.2851    1.0000 </r>
       <r>    5.4000    1.0000 </r>
       <r>    5.4503    1.0000 </r>
       <r>    5.4794    1.0000 </r>
       <r>    5.5109    1.0000 </r>
       <r>    5.5938    1.0000 </r>
       <r>    5.6331    1.0000 </r>
       <r>    5.6662    1.0000 </r>
       <r>    5.7018    1.0000 </r>
       <r>    5.7640    1.0000 </r>
       <r>    5.7992    1.0000 </r>
       <r>    5.8716    1.0000 </r>
       <r>    5.9248    1.0000 </r>
       <r>    5.9722    1.0000 </r>
       <r>    6.0231    1.0001 </r>
       <r>    6.0566    1.0001 </r>
       <r>    6.0922    1.0004 </r>
       <r>    6.1509    1.0015 </r>
       <r>    6.1546    1.0016 </r>
       <r>    6.2174    1.0055 </r>
       <r>    6.2508    1.0096 </r>
       <r>    6.2823    1.0150 </r>
       <r>    6.3048    1.0197 </r>
       <r>    6.3572    1.0313 </r>
       <r>    6.3987    1.0354 </r>
       <r>    6.4133    1.0339 </r>
       <r>    6.4480    1.0201 </r>
       <r>    6.4723    0.9987 </r>
       <r>    6.5062    0.9475 </r>
       <r>    6.5264    0.9040 </r>
       <r>    6.6570    0.4262 </r>
       <r>    6.7366    0.1379 </r>
       <r>    6.8137   -0.0061 </r>
       <r>    6.8369   -0.0237 </r>
       <r>    6.9225   -0.0312 </r>
       <r>    6.9837   -0.0176 </r>
       <r>    7.0968   -0.0028 </r>
       <r>    7.1837   -0.0004 </r>
       <r>    7.2732   -0.0000 </r>
       <r>    7.5355   -0.0000 </r>
       <r>    7.6475   -0.0000 </r>
       <r>    7.7107   -0.0000 </r>
       <r>    7.7609   -0.0000 </r>
       <r>    7.8770   -0.0000 </r>
       <r>    8.2921   -0.0000 </r>
       <r>    8.3525   -0.0000 </r>
       <r>    8.4137   -0.0000 </r>
       <r>    8.5108   -0.0000 </r>
       <r>    8.5414   -0.0000 </r>
       <r>    8.5913   -0.0000 </r>
       <r>    8.6421   -0.0000 </r>
      </set>
     </set>
    </set>
   </array>
  </eigenvalues>
  <separator name="orbital magnetization" >
   <v name="MAGDIPOLOUT">      0.00000000      0.00000000      0.00000000</v>
  </separator>
  <dos>
   <i name="efermi">      6.63947883 </i>
   <total>
    <array>
     <dimension dim="1">gridpoints</dimension>
     <dimension dim="2">spin</dimension>
     <field>energy</field>
     <field>total</field>
     <field>integrated</field>
     <set>
      <set comment="spin 1">
       <r>   -50.1465     0.0000     0.0000 </r>
       <r>   -49.9407     0.0000     0.0000 </r>
       <r>   -49.7349     0.0000     0.0000 </r>
       <r>   -49.5291     0.0000     0.0000 </r>
       <r>   -49.3233     0.0000     0.0000 </r>
       <r>   -49.1175    -0.0000    -0.0000 </r>
       <r>   -48.9118    -0.0000    -0.0000 </r>
       <r>   -48.7060    -0.0000    -0.0000 </r>
       <r>   -48.5002    -0.0000    -0.0000 </r>
       <r>   -48.2944    -0.0000    -0.0000 </r>
       <r>   -48.0886    -0.0000    -0.0000 </r>
       <r>   -47.8828    -0.0065    -0.0013 </r>
       <r>   -47.6770    -0.4141    -0.0866 </r>
       <r>   -47.4712    -0.0532    -0.0975 </r>
       <r>   -47.2655    24.9231     5.0313 </r>
       <r>   -47.0597    31.4018    11.4934 </r>
       <r>   -46.8539     3.2198    12.1560 </r>
       <r>   -46.6481    -0.7273    12.0063 </r>
       <r>   -46.4423    -0.0307    12.0000 </r>
       <r>   -46.2365    -0.0001    12.0000 </r>
       <r>   -46.0307    -0.0000    12.0000 </r>
       <r>   -45.8250    -0.0000    12.0000 </r>
       <r>   -45.6192     0.0000    12.0000 </r>
       <r>   -45.4134     0.0000    12.0000 </r>
       <r>   -45.2076     0.0000    12.0000 </r>
       <r>   -45.0018     0.0000    12.0000 </r>
       <r>   -44.7960     0.0000    12.0000 </r>
       <r>   -44.5902     0.0000    12.0000 </r>
       <r>   -44.3844     0.0000    12.0000 </r>
       <r>   -44.1787     0.0000    12.0000 </r>
       <r>   -43.9729     0.0000    12.0000 </r>
       <r>   -43.7671     0.0000    12.0000 </r>
       <r>   -43.5613     0.0000    12.0000 </r>
       <r>   -43.3555     0.0000    12.0000 </r>
       <r>   -43.1497     0.0000    12.0000 </r>
       <r>   -42.9439     0.0000    12.0000 </r>
       <r>   -42.7381     0.0000    12.0000 </r>
       <r>   -42.5324     0.0000    12.0000 </r>
       <r>   -42.3266     0.0000    12.0000 </r>
       <r>   -42.1208     0.0000    12.0000 </r>
       <r>   -41.9150     0.0000    12.0000 </r>
       <r>   -41.7092     0.0000    12.0000 </r>
       <r>   -41.5034     0.0000    12.0000 </r>
       <r>   -41.2976     0.0000    12.0000 </r>
       <r>   -41.0918     0.0000    12.0000 </r>
       <r>   -40.8861     0.0000    12.0000 </r>
       <r>   -40.6803     0.0000    12.0000 </r>
       <r>   -40.4745     0.0000    12.0000 </r>
       <r>   -40.2687     0.0000    12.0000 </r>
       <r>   -40.0629     0.0000    12.0000 </r>
       <r>   -39.8571     0.0000    12.0000 </r>
       <r>   -39.6513     0.0000    12.0000 </r>
       <r>   -39.4455     0.0000    12.0000 </r>
       <r>   -39.2398     0.0000    12.0000 </r>
       <r>   -39.0340     0.0000    12.0000 </r>
       <r>   -38.8282     0.0000    12.0000 </r>
       <r>   -38.6224     0.0000    12.0000 </r>
       <r>   -38.4166     0.0000    12.0000 </r>
       <r>   -38.2108     0.0000    12.0000 </r>
       <r>   -38.0050     0.0000    12.0000 </r>
       <r>   -37.7992     0.0000    12.0000 </r>
       <r>   -37.5935     0.0000    12.0000 </r>
       <r>   -37.3877     0.0000    12.0000 </r>
       <r>   -37.1819     0.0000    12.0000 </r>
       <r>   -36.9761     0.0000    12.0000 </r>
       <r>   -36.7703     0.0000    12.0000 </r>
       <r>   -36.5645     0.0000    12.0000 </r>
       <r>   -36.3587     0.0000    12.0000 </r>
       <r>   -36.1529     0.0000    12.0000 </r>
       <r>   -35.9472     0.0000    12.0000 </r>
       <r>   -35.7414     0.0000    12.0000 </r>
       <r>   -35.5356     0.0000    12.0000 </r>
       <r>   -35.3298     0.0000    12.0000 </r>
       <r>   -35.1240     0.0000    12.0000 </r>
       <r>   -34.9182     0.0000    12.0000 </r>
       <r>   -34.7124     0.0000    12.0000 </r>
       <r>   -34.5066     0.0000    12.0000 </r>
       <r>   -34.3009     0.0000    12.0000 </r>
       <r>   -34.0951     0.0000    12.0000 </r>
       <r>   -33.8893     0.0000    12.0000 </r>
       <r>   -33.6835     0.0000    12.0000 </r>
       <r>   -33.4777     0.0000    12.0000 </r>
       <r>   -33.2719     0.0000    12.0000 </r>
       <r>   -33.0661     0.0000    12.0000 </r>
       <r>   -32.8604     0.0000    12.0000 </r>
       <r>   -32.6546     0.0000    12.0000 </r>
       <r>   -32.4488     0.0000    12.0000 </r>
       <r>   -32.2430     0.0000    12.0000 </r>
       <r>   -32.0372     0.0000    12.0000 </r>
       <r>   -31.8314     0.0000    12.0000 </r>
       <r>   -31.6256     0.0000    12.0000 </r>
       <r>   -31.4198     0.0000    12.0000 </r>
       <r>   -31.2141     0.0000    12.0000 </r>
       <r>   -31.0083     0.0000    12.0000 </r>
       <r>   -30.8025     0.0000    12.0000 </r>
       <r>   -30.5967     0.0000    12.0000 </r>
       <r>   -30.3909     0.0000    12.0000 </r>
       <r>   -30.1851     0.0000    12.0000 </r>
       <r>   -29.9793     0.0000    12.0000 </r>
       <r>   -29.7735     0.0000    12.0000 </r>
       <r>   -29.5678     0.0000    12.0000 </r>
       <r>   -29.3620     0.0000    12.0000 </r>
       <r>   -29.1562     0.0000    12.0000 </r>
       <r>   -28.9504     0.0000    12.0000 </r>
       <r>   -28.7446     0.0000    12.0000 </r>
       <r>   -28.5388     0.0000    12.0000 </r>
       <r>   -28.3330     0.0000    12.0000 </r>
       <r>   -28.1272     0.0000    12.0000 </r>
       <r>   -27.9215     0.0000    12.0000 </r>
       <r>   -27.7157     0.0000    12.0000 </r>
       <r>   -27.5099     0.0000    12.0000 </r>
       <r>   -27.3041     0.0000    12.0000 </r>
       <r>   -27.0983     0.0000    12.0000 </r>
       <r>   -26.8925     0.0000    12.0000 </r>
       <r>   -26.6867     0.0000    12.0000 </r>
       <r>   -26.4809     0.0000    12.0000 </r>
       <r>   -26.2752     0.0000    12.0000 </r>
       <r>   -26.0694     0.0000    12.0000 </r>
       <r>   -25.8636    -0.0000    12.0000 </r>
       <r>   -25.6578    -0.0000    12.0000 </r>
       <r>   -25.4520    -0.0000    12.0000 </r>
       <r>   -25.2462    -0.0000    12.0000 </r>
       <r>   -25.0404    -0.0000    12.0000 </r>
       <r>   -24.8346    -0.0000    12.0000 </r>
       <r>   -24.6289    -0.0011    11.9998 </r>
       <r>   -24.4231    -0.0727    11.9848 </r>
       <r>   -24.2173    -0.2812    11.9269 </r>
       <r>   -24.0115     4.8185    12.9185 </r>
       <r>   -23.8057    15.2236    16.0513 </r>
       <r>   -23.5999    19.8476    20.1357 </r>
       <r>   -23.3941    53.8247    31.2122 </r>
       <r>   -23.1883    49.6626    41.4321 </r>
       <r>   -22.9826    21.1230    45.7790 </r>
       <r>   -22.7768     9.3988    47.7131 </r>
       <r>   -22.5710     1.5919    48.0407 </r>
       <r>   -22.3652    -0.1687    48.0060 </r>
       <r>   -22.1594    -0.0288    48.0001 </r>
       <r>   -21.9536    -0.0003    48.0000 </r>
       <r>   -21.7478    -0.0000    48.0000 </r>
       <r>   -21.5420    -0.0000    48.0000 </r>
       <r>   -21.3363    -0.0000    48.0000 </r>
       <r>   -21.1305     0.0000    48.0000 </r>
       <r>   -20.9247     0.0000    48.0000 </r>
       <r>   -20.7189     0.0000    48.0000 </r>
       <r>   -20.5131     0.0000    48.0000 </r>
       <r>   -20.3073     0.0000    48.0000 </r>
       <r>   -20.1015     0.0000    48.0000 </r>
       <r>   -19.8957     0.0000    48.0000 </r>
       <r>   -19.6900     0.0000    48.0000 </r>
       <r>   -19.4842     0.0000    48.0000 </r>
       <r>   -19.2784     0.0000    48.0000 </r>
       <r>   -19.0726     0.0000    48.0000 </r>
       <r>   -18.8668     0.0000    48.0000 </r>
       <r>   -18.6610     0.0000    48.0000 </r>
       <r>   -18.4552     0.0000    48.0000 </r>
       <r>   -18.2495     0.0000    48.0000 </r>
       <r>   -18.0437     0.0000    48.0000 </r>
       <r>   -17.8379     0.0000    48.0000 </r>
       <r>   -17.6321     0.0000    48.0000 </r>
       <r>   -17.4263     0.0000    48.0000 </r>
       <r>   -17.2205     0.0000    48.0000 </r>
       <r>   -17.0147     0.0000    48.0000 </r>
       <r>   -16.8089     0.0000    48.0000 </r>
       <r>   -16.6032     0.0000    48.0000 </r>
       <r>   -16.3974     0.0000    48.0000 </r>
       <r>   -16.1916     0.0000    48.0000 </r>
       <r>   -15.9858     0.0000    48.0000 </r>
       <r>   -15.7800     0.0000    48.0000 </r>
       <r>   -15.5742     0.0000    48.0000 </r>
       <r>   -15.3684     0.0000    48.0000 </r>
       <r>   -15.1626     0.0000    48.0000 </r>
       <r>   -14.9569     0.0000    48.0000 </r>
       <r>   -14.7511     0.0000    48.0000 </r>
       <r>   -14.5453     0.0000    48.0000 </r>
       <r>   -14.3395     0.0000    48.0000 </r>
       <r>   -14.1337     0.0000    48.0000 </r>
       <r>   -13.9279     0.0000    48.0000 </r>
       <r>   -13.7221     0.0000    48.0000 </r>
       <r>   -13.5163     0.0000    48.0000 </r>
       <r>   -13.3106     0.0000    48.0000 </r>
       <r>   -13.1048     0.0000    48.0000 </r>
       <r>   -12.8990     0.0000    48.0000 </r>
       <r>   -12.6932     0.0000    48.0000 </r>
       <r>   -12.4874     0.0000    48.0000 </r>
       <r>   -12.2816     0.0000    48.0000 </r>
       <r>   -12.0758     0.0000    48.0000 </r>
       <r>   -11.8700     0.0000    48.0000 </r>
       <r>   -11.6643     0.0000    48.0000 </r>
       <r>   -11.4585     0.0000    48.0000 </r>
       <r>   -11.2527     0.0000    48.0000 </r>
       <r>   -11.0469     0.0000    48.0000 </r>
       <r>   -10.8411     0.0000    48.0000 </r>
       <r>   -10.6353     0.0000    48.0000 </r>
       <r>   -10.4295     0.0000    48.0000 </r>
       <r>   -10.2237     0.0000    48.0000 </r>
       <r>   -10.0180     0.0000    48.0000 </r>
       <r>    -9.8122     0.0000    48.0000 </r>
       <r>    -9.6064     0.0000    48.0000 </r>
       <r>    -9.4006     0.0000    48.0000 </r>
       <r>    -9.1948     0.0000    48.0000 </r>
       <r>    -8.9890     0.0000    48.0000 </r>
       <r>    -8.7832     0.0000    48.0000 </r>
       <r>    -8.5774     0.0000    48.0000 </r>
       <r>    -8.3717     0.0000    48.0000 </r>
       <r>    -8.1659     0.0000    48.0000 </r>
       <r>    -7.9601     0.0000    48.0000 </r>
       <r>    -7.7543     0.0000    48.0000 </r>
       <r>    -7.5485     0.0000    48.0000 </r>
       <r>    -7.3427     0.0000    48.0000 </r>
       <r>    -7.1369     0.0000    48.0000 </r>
       <r>    -6.9311     0.0000    48.0000 </r>
       <r>    -6.7254     0.0000    48.0000 </r>
       <r>    -6.5196     0.0000    48.0000 </r>
       <r>    -6.3138     0.0000    48.0000 </r>
       <r>    -6.1080     0.0000    48.0000 </r>
       <r>    -5.9022     0.0000    48.0000 </r>
       <r>    -5.6964     0.0000    48.0000 </r>
       <r>    -5.4906     0.0000    48.0000 </r>
       <r>    -5.2848     0.0000    48.0000 </r>
       <r>    -5.0791     0.0000    48.0000 </r>
       <r>    -4.8733     0.0000    48.0000 </r>
       <r>    -4.6675     0.0000    48.0000 </r>
       <r>    -4.4617     0.0000    48.0000 </r>
       <r>    -4.2559     0.0000    48.0000 </r>
       <r>    -4.0501     0.0000    48.0000 </r>
       <r>    -3.8443     0.0000    48.0000 </r>
       <r>    -3.6386     0.0000    48.0000 </r>
       <r>    -3.4328     0.0000    48.0000 </r>
       <r>    -3.2270     0.0000    48.0000 </r>
       <r>    -3.0212     0.0000    48.0000 </r>
       <r>    -2.8154     0.0000    48.0000 </r>
       <r>    -2.6096     0.0000    48.0000 </r>
       <r>    -2.4038     0.0000    48.0000 </r>
       <r>    -2.1980     0.0000    48.0000 </r>
       <r>    -1.9923     0.0000    48.0000 </r>
       <r>    -1.7865    -0.0000    48.0000 </r>
       <r>    -1.5807    -0.0000    48.0000 </r>
       <r>    -1.3749    -0.0000    48.0000 </r>
       <r>    -1.1691    -0.0000    48.0000 </r>
       <r>    -0.9633    -0.0000    48.0000 </r>
       <r>    -0.7575    -0.0000    48.0000 </r>
       <r>    -0.5517    -0.0012    47.9997 </r>
       <r>    -0.3460    -0.0140    47.9969 </r>
       <r>    -0.1402     0.0897    48.0153 </r>
       <r>     0.0656     0.5865    48.1360 </r>
       <r>     0.2714     1.3000    48.4035 </r>
       <r>     0.4772     1.9477    48.8043 </r>
       <r>     0.6830     1.6442    49.1427 </r>
       <r>     0.8888     1.7525    49.5033 </r>
       <r>     1.0946     2.8047    50.0805 </r>
       <r>     1.3003     3.4779    50.7962 </r>
       <r>     1.5061     3.2182    51.4585 </r>
       <r>     1.7119     2.7515    52.0247 </r>
       <r>     1.9177     4.7054    52.9930 </r>
       <r>     2.1235     4.7795    53.9766 </r>
       <r>     2.3293     6.2054    55.2536 </r>
       <r>     2.5351     8.5674    57.0166 </r>
       <r>     2.7409    13.6443    59.8245 </r>
       <r>     2.9466    19.7676    63.8924 </r>
       <r>     3.1524    23.2610    68.6792 </r>
       <r>     3.3582    28.1316    74.4683 </r>
       <r>     3.5640    31.2458    80.8983 </r>
       <r>     3.7698    30.8891    87.2549 </r>
       <r>     3.9756    31.6354    93.7650 </r>
       <r>     4.1814    31.9833   100.3468 </r>
       <r>     4.3872    29.9766   106.5156 </r>
       <r>     4.5929    23.9102   111.4360 </r>
       <r>     4.7987    25.7535   116.7358 </r>
       <r>     5.0045    35.6540   124.0729 </r>
       <r>     5.2103    42.6375   132.8472 </r>
       <r>     5.4161    45.8419   142.2808 </r>
       <r>     5.6219    44.7734   151.4947 </r>
       <r>     5.8277    40.9350   159.9186 </r>
       <r>     6.0335    41.3003   168.4177 </r>
       <r>     6.2392    46.4517   177.9768 </r>
       <r>     6.4450    51.1576   188.5044 </r>
       <r>     6.6508    48.6773   198.5216 </r>
       <r>     6.8566    42.5938   207.2868 </r>
       <r>     7.0624    31.2094   213.7093 </r>
       <r>     7.2682    19.5332   217.7290 </r>
       <r>     7.4740    13.0052   220.4053 </r>
       <r>     7.6798    13.3939   223.1616 </r>
       <r>     7.8855    16.9268   226.6450 </r>
       <r>     8.0913    19.4213   230.6416 </r>
       <r>     8.2971    20.4986   234.8600 </r>
       <r>     8.5029    15.9236   238.1369 </r>
       <r>     8.7087     7.9498   239.7728 </r>
       <r>     8.9145     1.3038   240.0411 </r>
       <r>     9.1203    -0.1814   240.0038 </r>
       <r>     9.3260    -0.0182   240.0000 </r>
       <r>     9.5318    -0.0002   240.0000 </r>
       <r>     9.7376    -0.0000   240.0000 </r>
       <r>     9.9434    -0.0000   240.0000 </r>
       <r>    10.1492    -0.0000   240.0000 </r>
       <r>    10.3550     0.0000   240.0000 </r>
       <r>    10.5608     0.0000   240.0000 </r>
       <r>    10.7666     0.0000   240.0000 </r>
       <r>    10.9723     0.0000   240.0000 </r>
       <r>    11.1781     0.0000   240.0000 </r>
       <r>    11.3839     0.0000   240.0000 </r>
       <r>    11.5897     0.0000   240.0000 </r>
      </set>
     </set>
    </array>
   </total>
  </dos>
 </calculation>
 <structure name="finalpos" >
  <crystal>
   <varray name="basis" >
    <v>      -3.17000000      -3.17000000      -3.17000000 </v>
    <v>       1.58500000       1.58500000      -7.92500000 </v>
    <v>       7.92500000      -7.92500000      -1.58500000 </v>
   </varray>
   <i name="volume">    477.82519500 </i>
   <varray name="rec_basis" >
    <v>      -0.13669821      -0.12618297      -0.05257624 </v>
    <v>       0.04206099       0.06309148      -0.10515247 </v>
    <v>       0.06309148      -0.06309148       0.00000000 </v>
   </varray>
  </crystal>
  <varray name="positions" >
   <v>       0.96666667       0.93333333       0.40000000 </v>
   <v>       0.63333333       0.26666667       0.40000000 </v>
   <v>       0.50000000       0.00000000       0.00000000 </v>
   <v>       0.00000000       0.00000000       0.00000000 </v>
   <v>       0.10000000       0.20000000       0.80000000 </v>
   <v>       0.03333333       0.06666667       0.60000000 </v>
   <v>       0.90000000       0.80000000       0.20000000 </v>
   <v>       0.80000000       0.60000000       0.40000000 </v>
   <v>       0.73333333       0.46666667       0.20000000 </v>
   <v>       0.66666667       0.33333333       0.00000000 </v>
   <v>       0.36666667       0.73333333       0.60000000 </v>
   <v>       0.13333333       0.26666667       0.40000000 </v>
   <v>       0.83333333       0.66666667       0.00000000 </v>
   <v>       0.93333333       0.86666667       0.80000000 </v>
   <v>       0.56666667       0.13333333       0.20000000 </v>
   <v>       0.40000000       0.80000000       0.20000000 </v>
   <v>       0.43333333       0.86666667       0.80000000 </v>
   <v>       0.30000000       0.60000000       0.40000000 </v>
   <v>       0.86666667       0.73333333       0.60000000 </v>
   <v>       0.46666667       0.93333333       0.40000000 </v>
   <v>       0.16666667       0.33333333       0.00000000 </v>
   <v>       0.26666667       0.53333333       0.80000000 </v>
   <v>       0.20000000       0.40000000       0.60000000 </v>
   <v>       0.06666667       0.13333333       0.20000000 </v>
   <v>       0.76666667       0.53333333       0.80000000 </v>
   <v>       0.70000000       0.40000000       0.60000000 </v>
   <v>       0.60000000       0.20000000       0.80000000 </v>
   <v>       0.53333333       0.06666667       0.60000000 </v>
   <v>       0.33333333       0.66666667       0.00000000 </v>
   <v>       0.23333333       0.46666667       0.20000000 </v>
  </varray>
 </structure>
</modeling>
