       N       E                     dE             d eps       ncg     rms          rms(c)
DAV:   1     0.194418666950E+04    0.19442E+04   -0.85971E+04 15120   0.167E+03
DAV:   2     0.314183024697E+02   -0.19128E+04   -0.18408E+04 15120   0.483E+02
DAV:   3    -0.310085041895E+03   -0.34150E+03   -0.32015E+03 26776   0.172E+02
DAV:   4    -0.351244259920E+03   -0.41159E+02   -0.37686E+02 23824   0.553E+01
DAV:   5    -0.355410472680E+03   -0.41662E+01   -0.40829E+01 28208   0.197E+01    0.764E+01
DAV:   6    -0.347995889359E+03    0.74146E+01   -0.13190E+02 21632   0.324E+01    0.415E+01
DAV:   7    -0.356830342052E+03   -0.88345E+01   -0.46611E+02 22312   0.900E+01    0.283E+01
DAV:   8    -0.347527105251E+03    0.93032E+01   -0.75281E+01 22256   0.255E+01    0.197E+01
DAV:   9    -0.338364681948E+03    0.91624E+01   -0.18771E+01 21328   0.141E+01    0.133E+01
DAV:  10    -0.335072285775E+03    0.32924E+01   -0.88417E+00 22504   0.846E+00    0.107E+01
DAV:  11    -0.333341893653E+03    0.17304E+01   -0.29744E+00 22728   0.492E+00    0.734E+00
DAV:  12    -0.332601029760E+03    0.74086E+00   -0.21573E+00 22664   0.414E+00    0.445E+00
DAV:  13    -0.332344107725E+03    0.25692E+00   -0.16716E+00 21976   0.376E+00    0.224E+00
DAV:  14    -0.332290817718E+03    0.53290E-01   -0.60292E-01 22712   0.247E+00    0.135E+00
DAV:  15    -0.332312734717E+03   -0.21917E-01   -0.61961E-01 22336   0.244E+00    0.182E+00
DAV:  16    -0.332277594211E+03    0.35141E-01   -0.21809E-01 22720   0.141E+00    0.770E-01
DAV:  17    -0.332273735627E+03    0.38586E-02   -0.54567E-02 22344   0.684E-01    0.631E-01
DAV:  18    -0.332270245985E+03    0.34896E-02   -0.52903E-02 22072   0.657E-01    0.312E-01
DAV:  19    -0.332269134854E+03    0.11111E-02   -0.83064E-03 22120   0.298E-01    0.152E-01
DAV:  20    -0.332269158106E+03   -0.23252E-04   -0.24136E-03 21424   0.150E-01    0.160E-01
DAV:  21    -0.332268819977E+03    0.33813E-03   -0.35549E-03 20608   0.171E-01    0.693E-02
DAV:  22    -0.332268755484E+03    0.64493E-04   -0.29898E-04 13104   0.679E-02
   1 F= -.33226876E+03 E0= -.33226428E+03  d E =-.332269E+03
       N       E                     dE             d eps       ncg     rms          rms(c)
DAV:   1    -0.333708617264E+03   -0.14398E+01   -0.15076E+02 16288   0.487E+01    0.136E+01
DAV:   2    -0.333941633976E+03   -0.23302E+00   -0.21777E+01 23016   0.197E+01    0.837E+00
DAV:   3    -0.333256630587E+03    0.68500E+00   -0.13316E+01 22024   0.116E+01    0.650E+00
DAV:   4    -0.332870320882E+03    0.38631E+00   -0.70427E+00 23408   0.911E+00    0.376E+00
DAV:   5    -0.332697660211E+03    0.17266E+00   -0.23488E+00 22912   0.523E+00    0.261E+00
DAV:   6    -0.332577071866E+03    0.12059E+00   -0.77484E-01 25472   0.267E+00    0.138E+00
DAV:   7    -0.332581827229E+03   -0.47554E-02   -0.19239E-01 23840   0.127E+00    0.103E+00
DAV:   8    -0.332583353533E+03   -0.15263E-02   -0.58175E-02 23608   0.774E-01    0.759E-01
DAV:   9    -0.332589926174E+03   -0.65726E-02   -0.50447E-02 23240   0.678E-01    0.662E-01
DAV:  10    -0.332590883200E+03   -0.95703E-03   -0.41772E-02 24104   0.631E-01    0.391E-01
DAV:  11    -0.332591452432E+03   -0.56923E-03   -0.18213E-02 23952   0.413E-01    0.254E-01
DAV:  12    -0.332591245605E+03    0.20683E-03   -0.84537E-03 23368   0.258E-01    0.151E-01
DAV:  13    -0.332591304124E+03   -0.58519E-04   -0.21681E-03 22976   0.125E-01    0.743E-02
DAV:  14    -0.332591334693E+03   -0.30569E-04   -0.69948E-04 17784   0.837E-02
   2 F= -.33259133E+03 E0= -.33258907E+03  d E =-.322579E+00
       N       E                     dE             d eps       ncg     rms          rms(c)
DAV:   1    -0.332798919197E+03   -0.20762E+00   -0.15662E+01 16680   0.157E+01    0.447E+00
DAV:   2    -0.332820786891E+03   -0.21868E-01   -0.20680E+00 24648   0.610E+00    0.292E+00
DAV:   3    -0.332787450856E+03    0.33336E-01   -0.17619E+00 22776   0.434E+00    0.225E+00
DAV:   4    -0.332713201643E+03    0.74249E-01   -0.58095E-01 24048   0.259E+00    0.109E+00
DAV:   5    -0.332701756553E+03    0.11445E-01   -0.24406E-01 22904   0.166E+00    0.937E-01
DAV:   6    -0.332688843562E+03    0.12913E-01   -0.10734E-01 24096   0.100E+00    0.449E-01
DAV:   7    -0.332688475228E+03    0.36833E-03   -0.21185E-02 23736   0.433E-01    0.317E-01
DAV:   8    -0.332688639014E+03   -0.16379E-03   -0.60487E-03 22504   0.236E-01    0.228E-01
DAV:   9    -0.332689291542E+03   -0.65253E-03   -0.55344E-03 21224   0.219E-01    0.220E-01
DAV:  10    -0.332689266587E+03    0.24955E-04   -0.42723E-03 23056   0.201E-01    0.125E-01
DAV:  11    -0.332689286661E+03   -0.20074E-04   -0.17381E-03 21968   0.128E-01    0.756E-02
DAV:  12    -0.332689276844E+03    0.98171E-05   -0.76681E-04 18512   0.817E-02
   3 F= -.33268928E+03 E0= -.33268613E+03  d E =-.420521E+00
       N       E                     dE             d eps       ncg     rms          rms(c)
DAV:   1    -0.332834190281E+03   -0.14490E+00   -0.87884E+01 15520   0.307E+01    0.399E+00
DAV:   2    -0.333211102614E+03   -0.37691E+00   -0.55454E+00 22168   0.888E+00    0.331E+00
DAV:   3    -0.333194822522E+03    0.16280E-01   -0.21197E+00 23000   0.505E+00    0.264E+00
DAV:   4    -0.333109024807E+03    0.85798E-01   -0.54657E-01 22784   0.248E+00    0.149E+00
DAV:   5    -0.333089560692E+03    0.19464E-01   -0.26287E-01 22776   0.164E+00    0.993E-01
DAV:   6    -0.333082131897E+03    0.74288E-02   -0.13111E-01 24320   0.121E+00    0.674E-01
DAV:   7    -0.333077916695E+03    0.42152E-02   -0.56965E-02 24248   0.789E-01    0.483E-01
DAV:   8    -0.333075660673E+03    0.22560E-02   -0.21508E-02 23808   0.441E-01    0.298E-01
DAV:   9    -0.333075623511E+03    0.37162E-04   -0.44979E-03 21560   0.189E-01    0.225E-01
DAV:  10    -0.333075819868E+03   -0.19636E-03   -0.21818E-03 22064   0.152E-01    0.151E-01
DAV:  11    -0.333076051406E+03   -0.23154E-03   -0.30643E-03 20784   0.177E-01    0.117E-01
DAV:  12    -0.333075836276E+03    0.21513E-03   -0.14742E-03 20136   0.135E-01    0.438E-02
DAV:  13    -0.333075809540E+03    0.26736E-04   -0.28010E-04 12520   0.666E-02
   4 F= -.33307581E+03 E0= -.33307419E+03  d E =-.386533E+00
       N       E                     dE             d eps       ncg     rms          rms(c)
DAV:   1    -0.333078467205E+03   -0.26309E-02   -0.75256E+00 15912   0.894E+00    0.112E+00
DAV:   2    -0.333108273519E+03   -0.29806E-01   -0.45219E-01 22112   0.256E+00    0.939E-01
DAV:   3    -0.333105072005E+03    0.32015E-02   -0.16383E-01 22520   0.137E+00    0.730E-01
DAV:   4    -0.333099205211E+03    0.58668E-02   -0.48374E-02 23064   0.734E-01    0.431E-01
DAV:   5    -0.333097556404E+03    0.16488E-02   -0.23371E-02 22816   0.491E-01    0.285E-01
DAV:   6    -0.333096873692E+03    0.68271E-03   -0.98890E-03 24160   0.337E-01    0.182E-01
DAV:   7    -0.333096534766E+03    0.33893E-03   -0.40913E-03 23456   0.220E-01    0.132E-01
DAV:   8    -0.333096389320E+03    0.14545E-03   -0.16006E-03 21096   0.121E-01    0.855E-02
DAV:   9    -0.333096375292E+03    0.14028E-04   -0.29232E-04 12448   0.600E-02
   5 F= -.33309638E+03 E0= -.33309507E+03  d E =-.407098E+00
       N       E                     dE             d eps       ncg     rms          rms(c)
DAV:   1    -0.333134576913E+03   -0.38188E-01   -0.61318E+00 15592   0.819E+00    0.112E+00
DAV:   2    -0.333179100001E+03   -0.44523E-01   -0.50330E-01 22528   0.277E+00    0.129E+00
DAV:   3    -0.333158769013E+03    0.20331E-01   -0.20515E-01 22512   0.152E+00    0.657E-01
DAV:   4    -0.333155997217E+03    0.27718E-02   -0.42294E-02 23552   0.722E-01    0.449E-01
DAV:   5    -0.333154185225E+03    0.18120E-02   -0.26392E-02 22696   0.524E-01    0.283E-01
DAV:   6    -0.333154035573E+03    0.14965E-03   -0.12675E-02 24184   0.370E-01    0.232E-01
DAV:   7    -0.333153117135E+03    0.91844E-03   -0.68327E-03 23888   0.261E-01    0.107E-01
DAV:   8    -0.333152986510E+03    0.13063E-03   -0.11147E-03 19848   0.103E-01    0.668E-02
DAV:   9    -0.333152981019E+03    0.54901E-05   -0.27066E-04 12312   0.620E-02
   6 F= -.33315298E+03 E0= -.33315226E+03  d E =-.566057E-01
       N       E                     dE             d eps       ncg     rms          rms(c)
DAV:   1    -0.333151312397E+03    0.16741E-02   -0.78764E+00 15488   0.929E+00    0.128E+00
DAV:   2    -0.333208210518E+03   -0.56898E-01   -0.64960E-01 22528   0.315E+00    0.145E+00
DAV:   3    -0.333183165087E+03    0.25045E-01   -0.26359E-01 22288   0.173E+00    0.750E-01
DAV:   4    -0.333179172679E+03    0.39924E-02   -0.53990E-02 23536   0.821E-01    0.499E-01
DAV:   5    -0.333177056840E+03    0.21158E-02   -0.33738E-02 22696   0.591E-01    0.323E-01
DAV:   6    -0.333176729875E+03    0.32697E-03   -0.16129E-02 24096   0.419E-01    0.255E-01
DAV:   7    -0.333175623254E+03    0.11066E-02   -0.85083E-03 23920   0.293E-01    0.121E-01
DAV:   8    -0.333175453814E+03    0.16944E-03   -0.15099E-03 21040   0.119E-01    0.748E-02
DAV:   9    -0.333175445751E+03    0.80638E-05   -0.36600E-04 13560   0.637E-02
   7 F= -.33317545E+03 E0= -.33317529E+03  d E =-.790705E-01
       N       E                     dE             d eps       ncg     rms          rms(c)
DAV:   1    -0.333220345255E+03   -0.44891E-01   -0.35388E+00 15128   0.727E+00    0.183E+00
DAV:   2    -0.333240518474E+03   -0.20173E-01   -0.49631E-01 22344   0.290E+00    0.135E+00
DAV:   3    -0.333222128272E+03    0.18390E-01   -0.33082E-01 22384   0.193E+00    0.994E-01
DAV:   4    -0.333212451003E+03    0.96773E-02   -0.13164E-01 22936   0.121E+00    0.646E-01
DAV:   5    -0.333204944202E+03    0.75068E-02   -0.64095E-02 22720   0.799E-01    0.301E-01
DAV:   6    -0.333203915140E+03    0.10291E-02   -0.15776E-02 25144   0.380E-01    0.196E-01
DAV:   7    -0.333203892093E+03    0.23047E-04   -0.77806E-03 22480   0.257E-01    0.157E-01
DAV:   8    -0.333203675951E+03    0.21614E-03   -0.19632E-03 21232   0.140E-01    0.916E-02
DAV:   9    -0.333203695671E+03   -0.19719E-04   -0.26458E-04 11424   0.672E-02
   8 F= -.33320370E+03 E0= -.33320396E+03  d E =-.282499E-01
       N       E                     dE             d eps       ncg     rms          rms(c)
DAV:   1    -0.333209573061E+03   -0.58971E-02   -0.82519E-01 15176   0.351E+00    0.890E-01
DAV:   2    -0.333213543248E+03   -0.39702E-02   -0.11075E-01 22160   0.139E+00    0.643E-01
DAV:   3    -0.333209770390E+03    0.37729E-02   -0.78403E-02 22320   0.953E-01    0.474E-01
DAV:   4    -0.333207487067E+03    0.22833E-02   -0.30744E-02 23120   0.592E-01    0.308E-01
DAV:   5    -0.333205740443E+03    0.17466E-02   -0.14378E-02 22720   0.379E-01    0.142E-01
DAV:   6    -0.333205562967E+03    0.17748E-03   -0.33521E-03 23256   0.174E-01    0.972E-02
DAV:   7    -0.333205569492E+03   -0.65253E-05   -0.14767E-03 20864   0.115E-01    0.777E-02
DAV:   8    -0.333205541052E+03    0.28440E-04   -0.27932E-04 12160   0.651E-02
   9 F= -.33320554E+03 E0= -.33320599E+03  d E =-.300953E-01
       N       E                     dE             d eps       ncg     rms          rms(c)
DAV:   1    -0.333214864803E+03   -0.92953E-02   -0.63775E-01 16136   0.239E+00    0.216E-01
DAV:   2    -0.333219579322E+03   -0.47145E-02   -0.40440E-02 24784   0.864E-01    0.433E-01
DAV:   3    -0.333216041982E+03    0.35373E-02   -0.18808E-02 22632   0.470E-01    0.134E-01
DAV:   4    -0.333215954323E+03    0.87659E-04   -0.20896E-03 22448   0.145E-01    0.104E-01
DAV:   5    -0.333215879391E+03    0.74932E-04   -0.87753E-04 17376   0.999E-02
  10 F= -.33321588E+03 E0= -.33321636E+03  d E =-.103383E-01
       N       E                     dE             d eps       ncg     rms          rms(c)
DAV:   1    -0.333222261669E+03   -0.63073E-02   -0.57307E+00 16136   0.718E+00    0.670E-01
DAV:   2    -0.333266369954E+03   -0.44108E-01   -0.38053E-01 24880   0.263E+00    0.133E+00
DAV:   3    -0.333232814597E+03    0.33555E-01   -0.17548E-01 22288   0.141E+00    0.389E-01
DAV:   4    -0.333232003488E+03    0.81111E-03   -0.18345E-02 24784   0.434E-01    0.301E-01
DAV:   5    -0.333231291668E+03    0.71182E-03   -0.82512E-03 22152   0.291E-01    0.228E-01
DAV:   6    -0.333231024272E+03    0.26740E-03   -0.66190E-03 22384   0.265E-01    0.177E-01
DAV:   7    -0.333230595676E+03    0.42860E-03   -0.39549E-03 21512   0.190E-01    0.890E-02
DAV:   8    -0.333230503521E+03    0.92156E-04   -0.14848E-03 19704   0.121E-01    0.630E-02
DAV:   9    -0.333230432408E+03    0.71113E-04   -0.44416E-04 14464   0.740E-02
  11 F= -.33323043E+03 E0= -.33323100E+03  d E =-.248914E-01
       N       E                     dE             d eps       ncg     rms          rms(c)
DAV:   1    -0.333241198039E+03   -0.10695E-01   -0.64489E-01 16448   0.326E+00    0.956E-01
DAV:   2    -0.333241857479E+03   -0.65944E-03   -0.98500E-02 24080   0.130E+00    0.624E-01
DAV:   3    -0.333239474280E+03    0.23832E-02   -0.91510E-02 22584   0.939E-01    0.486E-01
DAV:   4    -0.333235507810E+03    0.39665E-02   -0.28265E-02 23632   0.545E-01    0.191E-01
DAV:   5    -0.333235261471E+03    0.24634E-03   -0.86953E-03 22920   0.298E-01    0.187E-01
DAV:   6    -0.333234799907E+03    0.46156E-03   -0.39995E-03 21608   0.191E-01    0.869E-02
DAV:   7    -0.333234785410E+03    0.14497E-04   -0.53640E-04 15736   0.840E-02
  12 F= -.33323479E+03 E0= -.33323528E+03  d E =-.435300E-02
       N       E                     dE             d eps       ncg     rms          rms(c)
DAV:   1    -0.333234836382E+03   -0.36475E-04   -0.48919E-03 17600   0.287E-01    0.788E-02
DAV:   2    -0.333234892266E+03   -0.55883E-04   -0.86167E-04 18096   0.131E-01
  13 F= -.33323489E+03 E0= -.33323538E+03  d E =-.445986E-02
       N       E                     dE             d eps       ncg     rms          rms(c)
DAV:   1    -0.333238276244E+03   -0.34399E-02   -0.45864E-01 15328   0.214E+00    0.278E-01
DAV:   2    -0.333240064282E+03   -0.17880E-02   -0.27803E-02 23832   0.653E-01    0.247E-01
DAV:   3    -0.333239688111E+03    0.37617E-03   -0.87113E-03 22160   0.311E-01    0.194E-01
DAV:   4    -0.333239346549E+03    0.34156E-03   -0.28172E-03 21192   0.175E-01    0.112E-01
DAV:   5    -0.333239318277E+03    0.28272E-04   -0.19832E-03 20136   0.143E-01    0.906E-02
DAV:   6    -0.333239215845E+03    0.10243E-03   -0.11499E-03 18552   0.112E-01    0.465E-02
DAV:   7    -0.333239165814E+03    0.50030E-04   -0.27897E-04 12608   0.713E-02
  14 F= -.33323917E+03 E0= -.33323967E+03  d E =-.427355E-02
       N       E                     dE             d eps       ncg     rms          rms(c)
DAV:   1    -0.333238302756E+03    0.91309E-03   -0.18402E+00 15496   0.429E+00    0.556E-01
DAV:   2    -0.333244021825E+03   -0.57191E-02   -0.99143E-02 23304   0.123E+00    0.418E-01
DAV:   3    -0.333243776767E+03    0.24506E-03   -0.29219E-02 22472   0.572E-01    0.361E-01
DAV:   4    -0.333242471060E+03    0.13057E-02   -0.12009E-02 22504   0.364E-01    0.210E-01
DAV:   5    -0.333242203990E+03    0.26707E-03   -0.63261E-03 22672   0.263E-01    0.148E-01
DAV:   6    -0.333241983029E+03    0.22096E-03   -0.38212E-03 22896   0.195E-01    0.101E-01
DAV:   7    -0.333241820339E+03    0.16269E-03   -0.13032E-03 19576   0.117E-01    0.469E-02
DAV:   8    -0.333241804783E+03    0.15556E-04   -0.15897E-04 11104   0.544E-02
  15 F= -.33324180E+03 E0= -.33324236E+03  d E =-.691252E-02
       N       E                     dE             d eps       ncg     rms          rms(c)
DAV:   1    -0.333242684200E+03   -0.86386E-03   -0.66599E-01 15752   0.259E+00    0.295E-01
DAV:   2    -0.333246099688E+03   -0.34155E-02   -0.46193E-02 23384   0.826E-01    0.321E-01
DAV:   3    -0.333244988806E+03    0.11109E-02   -0.15043E-02 22384   0.396E-01    0.190E-01
DAV:   4    -0.333244669108E+03    0.31970E-03   -0.31602E-03 21464   0.199E-01    0.128E-01
DAV:   5    -0.333244494510E+03    0.17460E-03   -0.18114E-03 20392   0.144E-01    0.822E-02
DAV:   6    -0.333244439393E+03    0.55116E-04   -0.94907E-04 18144   0.106E-01
  16 F= -.33324444E+03 E0= -.33324501E+03  d E =-.263461E-02
       N       E                     dE             d eps       ncg     rms          rms(c)
DAV:   1    -0.333242213436E+03    0.22811E-02   -0.11803E+00 15704   0.345E+00    0.387E-01
DAV:   2    -0.333248480753E+03   -0.62673E-02   -0.82388E-02 23608   0.111E+00    0.430E-01
DAV:   3    -0.333246510896E+03    0.19699E-02   -0.26187E-02 22416   0.514E-01    0.244E-01
DAV:   4    -0.333245997624E+03    0.51327E-03   -0.54060E-03 22328   0.264E-01    0.167E-01
DAV:   5    -0.333245656668E+03    0.34096E-03   -0.30121E-03 21552   0.186E-01    0.100E-01
DAV:   6    -0.333245578861E+03    0.77807E-04   -0.13448E-03 20912   0.122E-01    0.729E-02
DAV:   7    -0.333245508249E+03    0.70612E-04   -0.73780E-04 18032   0.933E-02
  17 F= -.33324551E+03 E0= -.33324609E+03  d E =-.370347E-02
       N       E                     dE             d eps       ncg     rms          rms(c)
DAV:   1    -0.333246699461E+03   -0.11206E-02   -0.99130E-01 15224   0.347E+00    0.597E-01
DAV:   2    -0.333251484150E+03   -0.47847E-02   -0.88181E-02 21688   0.111E+00    0.424E-01
DAV:   3    -0.333250932259E+03    0.55189E-03   -0.36348E-02 22480   0.658E-01    0.362E-01
DAV:   4    -0.333249075570E+03    0.18567E-02   -0.12279E-02 22080   0.396E-01    0.182E-01
DAV:   5    -0.333248625709E+03    0.44986E-03   -0.54744E-03 22824   0.245E-01    0.113E-01
DAV:   6    -0.333248517785E+03    0.10792E-03   -0.25348E-03 20880   0.152E-01    0.821E-02
DAV:   7    -0.333248447087E+03    0.70697E-04   -0.10689E-03 19224   0.105E-01    0.503E-02
DAV:   8    -0.333248417926E+03    0.29162E-04   -0.20190E-04 11488   0.628E-02
  18 F= -.33324842E+03 E0= -.33324910E+03  d E =-.290968E-02
       N       E                     dE             d eps       ncg     rms          rms(c)
DAV:   1    -0.333248389854E+03    0.57233E-04   -0.38885E-02 15280   0.688E-01    0.111E-01
DAV:   2    -0.333248571751E+03   -0.18190E-03   -0.32047E-03 20784   0.214E-01    0.784E-02
DAV:   3    -0.333248561419E+03    0.10332E-04   -0.12472E-03 18328   0.126E-01    0.657E-02
DAV:   4    -0.333248498642E+03    0.62778E-04   -0.38299E-04 13912   0.839E-02
  19 F= -.33324850E+03 E0= -.33324920E+03  d E =-.299039E-02
       N       E                     dE             d eps       ncg     rms          rms(c)
DAV:   1    -0.333248533644E+03    0.27775E-04   -0.87749E-01 15120   0.321E+00    0.473E-01
DAV:   2    -0.333253937330E+03   -0.54037E-02   -0.78791E-02 22944   0.107E+00    0.440E-01
DAV:   3    -0.333252356592E+03    0.15807E-02   -0.31127E-02 22336   0.563E-01    0.294E-01
DAV:   4    -0.333251533557E+03    0.82303E-03   -0.78364E-03 22400   0.309E-01    0.183E-01
DAV:   5    -0.333251136061E+03    0.39750E-03   -0.48565E-03 21752   0.231E-01    0.109E-01
DAV:   6    -0.333250982299E+03    0.15376E-03   -0.18709E-03 21504   0.142E-01    0.648E-02
DAV:   7    -0.333250937929E+03    0.44370E-04   -0.73920E-04 16920   0.973E-02
  20 F= -.33325094E+03 E0= -.33325166E+03  d E =-.243929E-02
