<?xml version="1.0" encoding="ISO-8859-1"?>
<modeling>
 <generator>
  <i name="program" type="string">vasp </i>
  <i name="version" type="string">5.4.4.18Apr17-6-g9f103f2a35  </i>
  <i name="subversion" type="string">(build Aug 09 2018 16:20:53) complex            parallel </i>
  <i name="platform" type="string">LinuxIFC </i>
  <i name="date" type="string">2020 04 12 </i>
  <i name="time" type="string">18:45:44 </i>
 </generator>
 <incar>
  <i type="string" name="SYSTEM"> SQS with 1 vacancy for VFE and VRV</i>
  <i type="string" name="PREC">normal</i>
  <i type="int" name="IALGO">    38</i>
  <i type="int" name="ICHARG">     2</i>
  <i type="int" name="IBRION">     2</i>
  <i type="int" name="NSW">    20</i>
  <i type="int" name="ISIF">     3</i>
  <i type="int" name="ISYM">     0</i>
  <i name="ENCUT">    600.00000000</i>
  <i type="string" name="LREAL"> Auto</i>
  <i type="int" name="ISMEAR">     1</i>
  <i name="SIGMA">      0.20000000</i>
  <v type="int" name="KPOINT_BSE">    -1     0     0     0</v>
  <i type="string" name="GGA"> PS</i>
 </incar>
 <structure name="primitive_cell" >
  <crystal>
   <varray name="basis" >
    <v>      -3.19000000      -3.19000000      -3.19000000 </v>
    <v>       1.59500000       1.59500000      -7.97500000 </v>
    <v>       7.97500000      -7.97500000      -1.59500000 </v>
   </varray>
   <i name="volume">    486.92638500 </i>
   <varray name="rec_basis" >
    <v>      -0.13584117      -0.12539185      -0.05224660 </v>
    <v>       0.04179728       0.06269592      -0.10449321 </v>
    <v>       0.06269592      -0.06269592       0.00000000 </v>
   </varray>
  </crystal>
  <varray name="positions" >
   <v>      -0.36666667       0.26666667       0.40000000 </v>
   <v>       0.30000000      -0.40000000       0.40000000 </v>
   <v>      -0.30000000       0.40000000      -0.40000000 </v>
   <v>      -0.26666667       0.46666667       0.20000000 </v>
   <v>       0.13333333       0.26666667       0.40000000 </v>
   <v>      -0.46666667       0.06666667      -0.40000000 </v>
   <v>      -0.43333333       0.13333333       0.20000000 </v>
   <v>       0.20000000       0.40000000      -0.40000000 </v>
   <v>      -0.20000000      -0.40000000       0.40000000 </v>
   <v>       0.23333333       0.46666667       0.20000000 </v>
   <v>       0.03333333       0.06666667      -0.40000000 </v>
   <v>       0.06666667       0.13333333       0.20000000 </v>
   <v>       0.46666667      -0.06666667       0.40000000 </v>
   <v>       0.36666667      -0.26666667      -0.40000000 </v>
   <v>       0.40000000      -0.20000000       0.20000000 </v>
   <v>      -0.33333333       0.33333333       0.00000000 </v>
   <v>      -0.40000000       0.20000000      -0.20000000 </v>
   <v>      -0.10000000      -0.20000000       0.20000000 </v>
   <v>      -0.13333333      -0.26666667      -0.40000000 </v>
   <v>       0.26666667      -0.46666667      -0.20000000 </v>
   <v>       0.16666667       0.33333333       0.00000000 </v>
   <v>       0.10000000       0.20000000      -0.20000000 </v>
   <v>      -0.06666667      -0.13333333      -0.20000000 </v>
   <v>       0.33333333      -0.33333333       0.00000000 </v>
   <v>       0.00000000       0.00000000       0.00000000 </v>
   <v>      -0.23333333      -0.46666667      -0.20000000 </v>
   <v>      -0.16666667      -0.33333333       0.00000000 </v>
   <v>       0.43333333      -0.13333333      -0.20000000 </v>
   <v>      -0.50000000       0.00000000       0.00000000 </v>
  </varray>
 </structure>
 <varray name="primitive_index" >
  <v type="int" >        1 </v>
  <v type="int" >       17 </v>
  <v type="int" >       25 </v>
  <v type="int" >        8 </v>
  <v type="int" >       11 </v>
  <v type="int" >       27 </v>
  <v type="int" >       14 </v>
  <v type="int" >       22 </v>
  <v type="int" >        7 </v>
  <v type="int" >       29 </v>
  <v type="int" >        5 </v>
  <v type="int" >       23 </v>
  <v type="int" >       19 </v>
  <v type="int" >       10 </v>
  <v type="int" >       15 </v>
  <v type="int" >        9 </v>
  <v type="int" >       26 </v>
  <v type="int" >        6 </v>
  <v type="int" >       18 </v>
  <v type="int" >       21 </v>
  <v type="int" >       20 </v>
  <v type="int" >        4 </v>
  <v type="int" >       13 </v>
  <v type="int" >       28 </v>
  <v type="int" >        3 </v>
  <v type="int" >       24 </v>
  <v type="int" >       12 </v>
  <v type="int" >       16 </v>
  <v type="int" >        2 </v>
 </varray>
 <kpoints>
  <generation param="Gamma">
   <v type="int" name="divisions">       5        5        5 </v>
   <v name="usershift">      0.00000000       0.00000000       0.00000000 </v>
   <v name="genvec1">      0.20000000      -0.00000000      -0.00000000 </v>
   <v name="genvec2">      0.00000000       0.20000000       0.00000000 </v>
   <v name="genvec3">      0.00000000       0.00000000       0.20000000 </v>
   <v name="shift">      0.00000000       0.00000000       0.00000000 </v>
  </generation>
  <varray name="kpointlist" >
   <v>       0.00000000       0.00000000       0.00000000 </v>
   <v>       0.20000000      -0.00000000       0.00000000 </v>
   <v>       0.40000000      -0.00000000       0.00000000 </v>
   <v>       0.00000000       0.20000000       0.00000000 </v>
   <v>       0.20000000       0.20000000      -0.00000000 </v>
   <v>       0.40000000       0.20000000      -0.00000000 </v>
   <v>      -0.40000000       0.20000000      -0.00000000 </v>
   <v>      -0.20000000       0.20000000       0.00000000 </v>
   <v>       0.00000000       0.40000000       0.00000000 </v>
   <v>       0.20000000       0.40000000       0.00000000 </v>
   <v>       0.40000000       0.40000000      -0.00000000 </v>
   <v>      -0.40000000       0.40000000       0.00000000 </v>
   <v>      -0.20000000       0.40000000       0.00000000 </v>
   <v>       0.00000000       0.00000000       0.20000000 </v>
   <v>       0.20000000      -0.00000000       0.20000000 </v>
   <v>       0.40000000       0.00000000       0.20000000 </v>
   <v>      -0.40000000       0.00000000       0.20000000 </v>
   <v>      -0.20000000       0.00000000       0.20000000 </v>
   <v>       0.00000000       0.20000000       0.20000000 </v>
   <v>       0.20000000       0.20000000       0.20000000 </v>
   <v>       0.40000000       0.20000000       0.20000000 </v>
   <v>      -0.40000000       0.20000000       0.20000000 </v>
   <v>      -0.20000000       0.20000000       0.20000000 </v>
   <v>       0.00000000       0.40000000       0.20000000 </v>
   <v>       0.20000000       0.40000000       0.20000000 </v>
   <v>       0.40000000       0.40000000       0.20000000 </v>
   <v>      -0.40000000       0.40000000       0.20000000 </v>
   <v>      -0.20000000       0.40000000       0.20000000 </v>
   <v>       0.00000000      -0.40000000       0.20000000 </v>
   <v>       0.20000000      -0.40000000       0.20000000 </v>
   <v>       0.40000000      -0.40000000       0.20000000 </v>
   <v>      -0.40000000      -0.40000000       0.20000000 </v>
   <v>      -0.20000000      -0.40000000       0.20000000 </v>
   <v>       0.00000000      -0.20000000       0.20000000 </v>
   <v>       0.20000000      -0.20000000       0.20000000 </v>
   <v>       0.40000000      -0.20000000       0.20000000 </v>
   <v>      -0.40000000      -0.20000000       0.20000000 </v>
   <v>      -0.20000000      -0.20000000       0.20000000 </v>
   <v>       0.00000000       0.00000000       0.40000000 </v>
   <v>       0.20000000      -0.00000000       0.40000000 </v>
   <v>       0.40000000      -0.00000000       0.40000000 </v>
   <v>      -0.40000000       0.00000000       0.40000000 </v>
   <v>      -0.20000000       0.00000000       0.40000000 </v>
   <v>      -0.00000000       0.20000000       0.40000000 </v>
   <v>       0.20000000       0.20000000       0.40000000 </v>
   <v>       0.40000000       0.20000000       0.40000000 </v>
   <v>      -0.40000000       0.20000000       0.40000000 </v>
   <v>      -0.20000000       0.20000000       0.40000000 </v>
   <v>       0.00000000       0.40000000       0.40000000 </v>
   <v>       0.20000000       0.40000000       0.40000000 </v>
   <v>       0.40000000       0.40000000       0.40000000 </v>
   <v>      -0.40000000       0.40000000       0.40000000 </v>
   <v>      -0.20000000       0.40000000       0.40000000 </v>
   <v>       0.00000000      -0.40000000       0.40000000 </v>
   <v>       0.20000000      -0.40000000       0.40000000 </v>
   <v>       0.40000000      -0.40000000       0.40000000 </v>
   <v>      -0.40000000      -0.40000000       0.40000000 </v>
   <v>      -0.20000000      -0.40000000       0.40000000 </v>
   <v>       0.00000000      -0.20000000       0.40000000 </v>
   <v>       0.20000000      -0.20000000       0.40000000 </v>
   <v>       0.40000000      -0.20000000       0.40000000 </v>
   <v>      -0.40000000      -0.20000000       0.40000000 </v>
   <v>      -0.20000000      -0.20000000       0.40000000 </v>
  </varray>
  <varray name="weights" >
   <v>       0.00800000 </v>
   <v>       0.01600000 </v>
   <v>       0.01600000 </v>
   <v>       0.01600000 </v>
   <v>       0.01600000 </v>
   <v>       0.01600000 </v>
   <v>       0.01600000 </v>
   <v>       0.01600000 </v>
   <v>       0.01600000 </v>
   <v>       0.01600000 </v>
   <v>       0.01600000 </v>
   <v>       0.01600000 </v>
   <v>       0.01600000 </v>
   <v>       0.01600000 </v>
   <v>       0.01600000 </v>
   <v>       0.01600000 </v>
   <v>       0.01600000 </v>
   <v>       0.01600000 </v>
   <v>       0.01600000 </v>
   <v>       0.01600000 </v>
   <v>       0.01600000 </v>
   <v>       0.01600000 </v>
   <v>       0.01600000 </v>
   <v>       0.01600000 </v>
   <v>       0.01600000 </v>
   <v>       0.01600000 </v>
   <v>       0.01600000 </v>
   <v>       0.01600000 </v>
   <v>       0.01600000 </v>
   <v>       0.01600000 </v>
   <v>       0.01600000 </v>
   <v>       0.01600000 </v>
   <v>       0.01600000 </v>
   <v>       0.01600000 </v>
   <v>       0.01600000 </v>
   <v>       0.01600000 </v>
   <v>       0.01600000 </v>
   <v>       0.01600000 </v>
   <v>       0.01600000 </v>
   <v>       0.01600000 </v>
   <v>       0.01600000 </v>
   <v>       0.01600000 </v>
   <v>       0.01600000 </v>
   <v>       0.01600000 </v>
   <v>       0.01600000 </v>
   <v>       0.01600000 </v>
   <v>       0.01600000 </v>
   <v>       0.01600000 </v>
   <v>       0.01600000 </v>
   <v>       0.01600000 </v>
   <v>       0.01600000 </v>
   <v>       0.01600000 </v>
   <v>       0.01600000 </v>
   <v>       0.01600000 </v>
   <v>       0.01600000 </v>
   <v>       0.01600000 </v>
   <v>       0.01600000 </v>
   <v>       0.01600000 </v>
   <v>       0.01600000 </v>
   <v>       0.01600000 </v>
   <v>       0.01600000 </v>
   <v>       0.01600000 </v>
   <v>       0.01600000 </v>
  </varray>
 </kpoints>
 <parameters>
  <separator name="general" >
   <i type="string" name="SYSTEM">SQS with 1 vacancy for VFE and VRV</i>
   <i type="logical" name="LCOMPAT"> F  </i>
  </separator>
  <separator name="electronic" >
   <i type="string" name="PREC">normal</i>
   <i name="ENMAX">    600.00000000</i>
   <i name="ENAUG">    455.65900000</i>
   <i name="EDIFF">      0.00010000</i>
   <i type="int" name="IALGO">    38</i>
   <i type="int" name="IWAVPR">    11</i>
   <i type="int" name="NBANDS">   120</i>
   <i name="NELECT">    191.00000000</i>
   <i type="int" name="TURBO">     0</i>
   <i type="int" name="IRESTART">     0</i>
   <i type="int" name="NREBOOT">     0</i>
   <i type="int" name="NMIN">     0</i>
   <i name="EREF">      0.00000000</i>
   <separator name="electronic smearing" >
    <i type="int" name="ISMEAR">     1</i>
    <i name="SIGMA">      0.20000000</i>
    <i name="KSPACING">      0.50000000</i>
    <i type="logical" name="KGAMMA"> T  </i>
   </separator>
   <separator name="electronic projectors" >
    <i type="logical" name="LREAL"> T  </i>
    <v name="ROPT">     -0.00050000     -0.00050000     -0.00050000     -0.00050000     -0.00050000</v>
    <i type="int" name="LMAXPAW">  -100</i>
    <i type="int" name="LMAXMIX">     2</i>
    <i type="logical" name="NLSPLINE"> F  </i>
   </separator>
   <separator name="electronic startup" >
    <i type="int" name="ISTART">     0</i>
    <i type="int" name="ICHARG">     2</i>
    <i type="int" name="INIWAV">     1</i>
   </separator>
   <separator name="electronic spin" >
    <i type="int" name="ISPIN">     1</i>
    <i type="logical" name="LNONCOLLINEAR"> F  </i>
    <v name="MAGMOM">      1.00000000      1.00000000      1.00000000      1.00000000      1.00000000      1.00000000      1.00000000      1.00000000      1.00000000      1.00000000      1.00000000      1.00000000      1.00000000      1.00000000      1.00000000      1.00000000      1.00000000      1.00000000      1.00000000      1.00000000
      1.00000000      1.00000000      1.00000000      1.00000000      1.00000000      1.00000000      1.00000000      1.00000000      1.00000000</v>
    <i name="NUPDOWN">     -1.00000000</i>
    <i type="logical" name="LSORBIT"> F  </i>
    <v name="SAXIS">      0.00000000      0.00000000      1.00000000</v>
    <i type="logical" name="LSPIRAL"> F  </i>
    <v name="QSPIRAL">      0.00000000      0.00000000      0.00000000</v>
    <i type="logical" name="LZEROZ"> F  </i>
   </separator>
   <separator name="electronic exchange-correlation" >
    <i type="logical" name="LASPH"> F  </i>
    <i type="logical" name="LMETAGGA"> F  </i>
   </separator>
   <separator name="electronic convergence" >
    <i type="int" name="NELM">    60</i>
    <i type="int" name="NELMDL">    -5</i>
    <i type="int" name="NELMIN">     2</i>
    <i name="ENINI">    600.00000000</i>
    <separator name="electronic convergence detail" >
     <i type="logical" name="LDIAG"> T  </i>
     <i type="logical" name="LSUBROT"> F  </i>
     <i name="WEIMIN">      0.00100000</i>
     <i name="EBREAK">      0.00000021</i>
     <i name="DEPER">      0.30000000</i>
     <i type="int" name="NRMM">     4</i>
     <i name="TIME">      0.40000000</i>
    </separator>
   </separator>
   <separator name="electronic mixer" >
    <i name="AMIX">      0.40000000</i>
    <i name="BMIX">      1.00000000</i>
    <i name="AMIN">      0.10000000</i>
    <i name="AMIX_MAG">      1.60000000</i>
    <i name="BMIX_MAG">      1.00000000</i>
    <separator name="electronic mixer details" >
     <i type="int" name="IMIX">     4</i>
     <i type="logical" name="MIXFIRST"> F  </i>
     <i type="int" name="MAXMIX">   -45</i>
     <i name="WC">    100.00000000</i>
     <i type="int" name="INIMIX">     1</i>
     <i type="int" name="MIXPRE">     1</i>
     <i type="int" name="MREMOVE">     5</i>
    </separator>
   </separator>
   <separator name="electronic dipolcorrection" >
    <i type="logical" name="LDIPOL"> F  </i>
    <i type="logical" name="LMONO"> F  </i>
    <i type="int" name="IDIPOL">     0</i>
    <i name="EPSILON">      1.00000000</i>
    <v name="DIPOL">   -100.00000000   -100.00000000   -100.00000000</v>
    <i name="EFIELD">      0.00000000</i>
   </separator>
  </separator>
  <separator name="grids" >
   <i type="int" name="NGX">    36</i>
   <i type="int" name="NGY">    50</i>
   <i type="int" name="NGZ">    70</i>
   <i type="int" name="NGXF">    72</i>
   <i type="int" name="NGYF">   100</i>
   <i type="int" name="NGZF">   140</i>
   <i type="logical" name="ADDGRID"> F  </i>
  </separator>
  <separator name="ionic" >
   <i type="int" name="NSW">    20</i>
   <i type="int" name="IBRION">     2</i>
   <i type="int" name="MDALGO">     0</i>
   <i type="int" name="ISIF">     3</i>
   <i name="PSTRESS">      0.00000000</i>
   <i name="EDIFFG">      0.00100000</i>
   <i type="int" name="NFREE">     1</i>
   <i name="POTIM">      0.50000000</i>
   <i name="SMASS">     -3.00000000</i>
   <i name="SCALEE">      1.00000000</i>
  </separator>
  <separator name="ionic md" >
   <i name="TEBEG">      0.00010000</i>
   <i name="TEEND">      0.00010000</i>
   <i type="int" name="NBLOCK">     1</i>
   <i type="int" name="KBLOCK">    20</i>
   <i type="int" name="NPACO">   256</i>
   <i name="APACO">     16.00000000</i>
  </separator>
  <separator name="symmetry" >
   <i type="int" name="ISYM">     0</i>
   <i name="SYMPREC">      0.00001000</i>
  </separator>
  <separator name="dos" >
   <i type="int" name="LORBIT">     0</i>
   <v name="RWIGS">     -1.00000000     -1.00000000     -1.00000000     -1.00000000     -1.00000000</v>
   <i type="int" name="NEDOS">   301</i>
   <i name="EMIN">     10.00000000</i>
   <i name="EMAX">    -10.00000000</i>
   <i name="EFERMI">      0.00000000</i>
  </separator>
  <separator name="writing" >
   <i type="int" name="NWRITE">     2</i>
   <i type="logical" name="LWAVE"> T  </i>
   <i type="logical" name="LDOWNSAMPLE"> F  </i>
   <i type="logical" name="LCHARG"> T  </i>
   <i type="logical" name="LPARD"> F  </i>
   <i type="logical" name="LVTOT"> F  </i>
   <i type="logical" name="LVHAR"> F  </i>
   <i type="logical" name="LELF"> F  </i>
   <i type="logical" name="LOPTICS"> F  </i>
   <v name="STM">      0.00000000      0.00000000      0.00000000      0.00000000      0.00000000      0.00000000      0.00000000</v>
  </separator>
  <separator name="performance" >
   <i type="int" name="NPAR">     8</i>
   <i type="int" name="NSIM">     4</i>
   <i type="int" name="NBLK">    -1</i>
   <i type="logical" name="LPLANE"> T  </i>
   <i type="logical" name="LSCALAPACK"> T  </i>
   <i type="logical" name="LSCAAWARE"> F  </i>
   <i type="logical" name="LSCALU"> F  </i>
   <i type="logical" name="LASYNC"> F  </i>
   <i type="logical" name="LORBITALREAL"> F  </i>
  </separator>
  <separator name="miscellaneous" >
   <i type="int" name="IDIOT">     3</i>
   <i type="int" name="ISPECIAL">     0</i>
   <i type="logical" name="LMUSIC"> F  </i>
   <v name="POMASS">     92.91000000     95.94000000    180.94800000     47.88000000    183.85000000</v>
   <v name="DARWINR">      0.00000000      0.00000000      0.00000000      0.00000000      0.00000000</v>
   <v name="DARWINV">      1.00000000      1.00000000      1.00000000      1.00000000      1.00000000</v>
   <i type="logical" name="LCORR"> T  </i>
  </separator>
  <i type="logical" name="GGA_COMPAT"> T  </i>
  <i type="logical" name="LBERRY"> F  </i>
  <i type="int" name="ICORELEVEL">     0</i>
  <i type="logical" name="LDAU"> F  </i>
  <i type="int" name="I_CONSTRAINED_M">     0</i>
  <separator name="electronic exchange-correlation" >
   <i type="string" name="GGA">PS</i>
   <i type="int" name="VOSKOWN">     0</i>
   <i type="logical" name="LHFCALC"> F  </i>
   <i type="string" name="PRECFOCK"></i>
   <i type="logical" name="LSYMGRAD"> F  </i>
   <i type="logical" name="LHFONE"> F  </i>
   <i type="logical" name="LRHFCALC"> F  </i>
   <i type="logical" name="LTHOMAS"> F  </i>
   <i type="logical" name="LMODELHF"> F  </i>
   <i name="ENCUT4O">     -1.00000000</i>
   <i type="int" name="EXXOEP">     0</i>
   <i type="int" name="FOURORBIT">     0</i>
   <i name="AEXX">      0.00000000</i>
   <i name="HFALPHA">      0.00000000</i>
   <i name="MCALPHA">      0.00000000</i>
   <i name="ALDAX">      1.00000000</i>
   <i name="AGGAX">      1.00000000</i>
   <i name="ALDAC">      1.00000000</i>
   <i name="AGGAC">      1.00000000</i>
   <i type="int" name="NKREDX">     1</i>
   <i type="int" name="NKREDY">     1</i>
   <i type="int" name="NKREDZ">     1</i>
   <i type="logical" name="SHIFTRED"> F  </i>
   <i type="logical" name="ODDONLY"> F  </i>
   <i type="logical" name="EVENONLY"> F  </i>
   <i type="int" name="LMAXFOCK">     0</i>
   <i type="int" name="NMAXFOCKAE">     0</i>
   <i type="logical" name="LFOCKAEDFT"> F  </i>
   <i name="HFSCREEN">      0.00000000</i>
   <i name="HFSCREENC">      0.00000000</i>
   <i type="int" name="NBANDSGWLOW">     0</i>
  </separator>
  <separator name="vdW DFT" >
   <i type="logical" name="LUSE_VDW"> F  </i>
   <i name="Zab_VDW">     -0.84910000</i>
   <i name="PARAM1">      0.12340000</i>
   <i name="PARAM2">      1.00000000</i>
   <i name="PARAM3">      0.00000000</i>
  </separator>
  <separator name="model GW" >
   <i type="int" name="MODEL_GW">     0</i>
   <i name="MODEL_EPS0">     10.07433900</i>
   <i name="MODEL_ALPHA">      1.00000000</i>
  </separator>
  <separator name="linear response parameters" >
   <i type="logical" name="LEPSILON"> F  </i>
   <i type="logical" name="LRPA"> F  </i>
   <i type="logical" name="LNABLA"> F  </i>
   <i type="logical" name="LVEL"> F  </i>
   <i type="int" name="KINTER">     0</i>
   <i name="CSHIFT">      0.10000000</i>
   <i name="OMEGAMAX">     -1.00000000</i>
   <i name="DEG_THRESHOLD">      0.00200000</i>
   <i name="RTIME">     -0.10000000</i>
   <i name="WPLASMAI">      0.00000000</i>
   <v name="DFIELD">      0.00000000      0.00000000      0.00000000</v>
   <v name="WPLASMA">      0.00000000      0.00000000      0.00000000      0.00000000      0.00000000      0.00000000      0.00000000      0.00000000      0.00000000</v>
  </separator>
  <separator name="orbital magnetization" >
   <i type="logical" name="NUCIND"> F  </i>
   <v name="MAGPOS">      0.00000000      0.00000000      0.00000000</v>
   <i type="logical" name="LNICSALL"> T  </i>
   <i type="logical" name="ORBITALMAG"> F  </i>
   <i type="logical" name="LMAGBLOCH"> F  </i>
   <i type="logical" name="LCHIMAG"> F  </i>
   <i type="logical" name="LGAUGE"> T  </i>
   <i type="int" name="MAGATOM">     0</i>
   <v name="MAGDIPOL">      0.00000000      0.00000000      0.00000000</v>
   <v name="AVECCONST">      0.00000000      0.00000000      0.00000000</v>
  </separator>
  <separator name="response functions" >
   <i type="logical" name="LADDER"> F  </i>
   <i type="logical" name="LRPAFORCE"> F  </i>
   <i type="logical" name="LFXC"> F  </i>
   <i type="logical" name="LHARTREE"> T  </i>
   <i type="int" name="IBSE">     0</i>
   <v type="int" name="KPOINT">    -1     0     0     0</v>
   <i type="logical" name="LTCTE"> F  </i>
   <i type="logical" name="LTETE"> F  </i>
   <i type="logical" name="LTRIPLET"> F  </i>
   <i type="logical" name="LFXCEPS"> F  </i>
   <i type="logical" name="LFXHEG"> F  </i>
   <i type="int" name="NATURALO">     2</i>
   <i type="logical" name="L2ORDER"> F  </i>
   <i type="logical" name="LMP2LT"> F  </i>
   <i type="logical" name="LUSEW"> F  </i>
   <i name="ENCUTGW">     -2.00000000</i>
   <i name="ENCUTGWSOFT">     -2.00000000</i>
   <i name="ENCUTLF">     -1.00000000</i>
   <i type="int" name="LMAXMP2">    -1</i>
   <i name="SCISSOR">      0.00000000</i>
   <i type="int" name="NOMEGA">     0</i>
   <i type="int" name="NOMEGAR">     0</i>
   <i type="int" name="NBANDSGW">    -1</i>
   <i type="int" name="NBANDSO">    -1</i>
   <i type="int" name="NBANDSV">    -1</i>
   <i type="int" name="NELM">     1</i>
   <i type="int" name="NELMHF">     1</i>
   <i type="int" name="DIM">     3</i>
   <i type="int" name="ANTIRES">     0</i>
   <i name="OMEGAMAX">    -30.00000000</i>
   <i name="OMEGAMIN">    -30.00000000</i>
   <i name="OMEGATL">   -200.00000000</i>
   <i type="int" name="OMEGAGRID">   140</i>
   <i name="CSHIFT">     -0.10000000</i>
   <i type="logical" name="SELFENERGY"> F  </i>
   <i type="logical" name="LSPECTRAL"> F  </i>
   <i type="logical" name="LSPECTRALGW"> F  </i>
   <i type="logical" name="LSINGLES"> F  </i>
   <i type="logical" name="LFERMIGW"> F  </i>
   <i type="logical" name="ODDONLYGW"> F  </i>
   <i type="logical" name="EVENONLYGW"> F  </i>
   <i type="int" name="NKREDLFX">     1</i>
   <i type="int" name="NKREDLFY">     1</i>
   <i type="int" name="NKREDLFZ">     1</i>
   <i type="int" name="MAXMEM">  2800</i>
   <i type="int" name="TELESCOPE">     0</i>
   <i type="int" name="TAUPAR">     1</i>
   <i type="int" name="OMEGAPAR">    -1</i>
   <i name="LAMBDA">      1.00000000</i>
  </separator>
  <separator name="External order field" >
   <i name="OFIELD_KAPPA">      0.00000000</i>
   <v name="OFIELD_K">      0.00000000      0.00000000      0.00000000</v>
   <i name="OFIELD_Q6_NEAR">      0.00000000</i>
   <i name="OFIELD_Q6_FAR">      0.00000000</i>
   <i name="OFIELD_A">      0.00000000</i>
  </separator>
  <separator name="solvation model" >
   <i type="logical" name="LSOL"> F  </i>
  </separator>
 </parameters>
 <atominfo>
  <atoms>      29 </atoms>
  <types>       5 </types>
  <array name="atoms" >
   <dimension dim="1">ion</dimension>
   <field type="string">element</field>
   <field type="int">atomtype</field>
   <set>
    <rc><c>Nb</c><c>   1</c></rc>
    <rc><c>Nb</c><c>   1</c></rc>
    <rc><c>Nb</c><c>   1</c></rc>
    <rc><c>Nb</c><c>   1</c></rc>
    <rc><c>Nb</c><c>   1</c></rc>
    <rc><c>Mo</c><c>   2</c></rc>
    <rc><c>Mo</c><c>   2</c></rc>
    <rc><c>Mo</c><c>   2</c></rc>
    <rc><c>Mo</c><c>   2</c></rc>
    <rc><c>Mo</c><c>   2</c></rc>
    <rc><c>Mo</c><c>   2</c></rc>
    <rc><c>Ta</c><c>   3</c></rc>
    <rc><c>Ta</c><c>   3</c></rc>
    <rc><c>Ta</c><c>   3</c></rc>
    <rc><c>Ta</c><c>   3</c></rc>
    <rc><c>Ta</c><c>   3</c></rc>
    <rc><c>Ta</c><c>   3</c></rc>
    <rc><c>Ti</c><c>   4</c></rc>
    <rc><c>Ti</c><c>   4</c></rc>
    <rc><c>Ti</c><c>   4</c></rc>
    <rc><c>Ti</c><c>   4</c></rc>
    <rc><c>Ti</c><c>   4</c></rc>
    <rc><c>Ti</c><c>   4</c></rc>
    <rc><c>W </c><c>   5</c></rc>
    <rc><c>W </c><c>   5</c></rc>
    <rc><c>W </c><c>   5</c></rc>
    <rc><c>W </c><c>   5</c></rc>
    <rc><c>W </c><c>   5</c></rc>
    <rc><c>W </c><c>   5</c></rc>
   </set>
  </array>
  <array name="atomtypes" >
   <dimension dim="1">type</dimension>
   <field type="int">atomspertype</field>
   <field type="string">element</field>
   <field>mass</field>
   <field>valence</field>
   <field type="string">pseudopotential</field>
   <set>
    <rc><c>   5</c><c>Nb</c><c>     92.91000000</c><c>     13.00000000</c><c>  PAW_PBE Nb_sv 25May2007               </c></rc>
    <rc><c>   6</c><c>Mo</c><c>     95.94000000</c><c>      6.00000000</c><c>  PAW_PBE Mo 08Apr2002                  </c></rc>
    <rc><c>   6</c><c>Ta</c><c>    180.94800000</c><c>      5.00000000</c><c>  PAW_PBE Ta 17Jan2003                  </c></rc>
    <rc><c>   6</c><c>Ti</c><c>     47.88000000</c><c>      4.00000000</c><c>  PAW_PBE Ti 08Apr2002                  </c></rc>
    <rc><c>   6</c><c>W </c><c>    183.85000000</c><c>      6.00000000</c><c>  PAW_PBE W 08Apr2002                   </c></rc>
   </set>
  </array>
 </atominfo>
 <structure name="initialpos" >
  <crystal>
   <varray name="basis" >
    <v>      -3.19000000      -3.19000000      -3.19000000 </v>
    <v>       1.59500000       1.59500000      -7.97500000 </v>
    <v>       7.97500000      -7.97500000      -1.59500000 </v>
   </varray>
   <i name="volume">    486.92638500 </i>
   <varray name="rec_basis" >
    <v>      -0.13584117      -0.12539185      -0.05224660 </v>
    <v>       0.04179728       0.06269592      -0.10449321 </v>
    <v>       0.06269592      -0.06269592       0.00000000 </v>
   </varray>
  </crystal>
  <varray name="positions" >
   <v>       0.63333333       0.26666667       0.40000000 </v>
   <v>       0.50000000       0.00000000       0.00000000 </v>
   <v>       0.00000000       0.00000000       0.00000000 </v>
   <v>       0.10000000       0.20000000       0.80000000 </v>
   <v>       0.03333333       0.06666667       0.60000000 </v>
   <v>       0.90000000       0.80000000       0.20000000 </v>
   <v>       0.80000000       0.60000000       0.40000000 </v>
   <v>       0.73333333       0.46666667       0.20000000 </v>
   <v>       0.66666667       0.33333333       0.00000000 </v>
   <v>       0.36666667       0.73333333       0.60000000 </v>
   <v>       0.13333333       0.26666667       0.40000000 </v>
   <v>       0.83333333       0.66666667       0.00000000 </v>
   <v>       0.93333333       0.86666667       0.80000000 </v>
   <v>       0.56666667       0.13333333       0.20000000 </v>
   <v>       0.40000000       0.80000000       0.20000000 </v>
   <v>       0.43333333       0.86666667       0.80000000 </v>
   <v>       0.30000000       0.60000000       0.40000000 </v>
   <v>       0.86666667       0.73333333       0.60000000 </v>
   <v>       0.46666667       0.93333333       0.40000000 </v>
   <v>       0.16666667       0.33333333       0.00000000 </v>
   <v>       0.26666667       0.53333333       0.80000000 </v>
   <v>       0.20000000       0.40000000       0.60000000 </v>
   <v>       0.06666667       0.13333333       0.20000000 </v>
   <v>       0.76666667       0.53333333       0.80000000 </v>
   <v>       0.70000000       0.40000000       0.60000000 </v>
   <v>       0.60000000       0.20000000       0.80000000 </v>
   <v>       0.53333333       0.06666667       0.60000000 </v>
   <v>       0.33333333       0.66666667       0.00000000 </v>
   <v>       0.23333333       0.46666667       0.20000000 </v>
  </varray>
 </structure>
 <calculation>
  <scstep>
   <time name="dav">   18.28   18.32</time>
   <time name="total">   18.32   18.36</time>
   <energy>
    <i name="alphaZ">   1248.41475165 </i>
    <i name="ewald"> -10513.97993310 </i>
    <i name="hartreedc">  -2891.01610615 </i>
    <i name="XCdc">   -961.91085042 </i>
    <i name="pawpsdc">  11070.58973812 </i>
    <i name="pawaedc">  -9526.02277447 </i>
    <i name="eentropy">     -0.00890472 </i>
    <i name="bandstr">   1861.46076413 </i>
    <i name="atom">  11656.65998444 </i>
    <i name="e_fr_energy">   1944.18666950 </i>
    <i name="e_wo_entrp">   1944.19557422 </i>
    <i name="e_0_energy">   1944.18963774 </i>
   </energy>
  </scstep>
  <scstep>
   <time name="dav">   18.33   18.35</time>
   <time name="total">   18.33   18.36</time>
   <energy>
    <i name="e_fr_energy">     31.41830247 </i>
    <i name="e_wo_entrp">     31.42177386 </i>
    <i name="e_0_energy">     31.41945960 </i>
   </energy>
  </scstep>
  <scstep>
   <time name="dav">   29.61   29.65</time>
   <time name="total">   29.62   29.66</time>
   <energy>
    <i name="e_fr_energy">   -310.08504190 </i>
    <i name="e_wo_entrp">   -310.09017966 </i>
    <i name="e_0_energy">   -310.08675448 </i>
   </energy>
  </scstep>
  <scstep>
   <time name="dav">   26.66   26.71</time>
   <time name="total">   26.67   26.71</time>
   <energy>
    <i name="e_fr_energy">   -351.24425992 </i>
    <i name="e_wo_entrp">   -351.24687915 </i>
    <i name="e_0_energy">   -351.24513300 </i>
   </energy>
  </scstep>
  <scstep>
   <time name="dav">   30.63   30.67</time>
   <time name="total">   31.23   31.27</time>
   <energy>
    <i name="e_fr_energy">   -355.41047268 </i>
    <i name="e_wo_entrp">   -355.41386838 </i>
    <i name="e_0_energy">   -355.41160458 </i>
   </energy>
  </scstep>
  <scstep>
   <time name="dav">   24.39   24.42</time>
   <time name="total">   25.01   25.05</time>
   <energy>
    <i name="e_fr_energy">   -347.99588936 </i>
    <i name="e_wo_entrp">   -347.99066325 </i>
    <i name="e_0_energy">   -347.99414732 </i>
   </energy>
  </scstep>
  <scstep>
   <time name="dav">   25.03   25.06</time>
   <time name="total">   25.65   25.70</time>
   <energy>
    <i name="e_fr_energy">   -356.83034205 </i>
    <i name="e_wo_entrp">   -356.82243335 </i>
    <i name="e_0_energy">   -356.82770582 </i>
   </energy>
  </scstep>
  <scstep>
   <time name="dav">   25.04   25.08</time>
   <time name="total">   25.67   25.70</time>
   <energy>
    <i name="e_fr_energy">   -347.52710525 </i>
    <i name="e_wo_entrp">   -347.52521962 </i>
    <i name="e_0_energy">   -347.52647671 </i>
   </energy>
  </scstep>
  <scstep>
   <time name="dav">   24.18   24.21</time>
   <time name="total">   24.80   24.83</time>
   <energy>
    <i name="e_fr_energy">   -338.36468195 </i>
    <i name="e_wo_entrp">   -338.36515035 </i>
    <i name="e_0_energy">   -338.36483808 </i>
   </energy>
  </scstep>
  <scstep>
   <time name="dav">   25.27   25.30</time>
   <time name="total">   25.90   25.94</time>
   <energy>
    <i name="e_fr_energy">   -335.07228577 </i>
    <i name="e_wo_entrp">   -335.06053528 </i>
    <i name="e_0_energy">   -335.06836894 </i>
   </energy>
  </scstep>
  <scstep>
   <time name="dav">   25.47   25.50</time>
   <time name="total">   26.09   26.13</time>
   <energy>
    <i name="e_fr_energy">   -333.34189365 </i>
    <i name="e_wo_entrp">   -333.33047256 </i>
    <i name="e_0_energy">   -333.33808662 </i>
   </energy>
  </scstep>
  <scstep>
   <time name="dav">   25.38   25.42</time>
   <time name="total">   26.01   26.04</time>
   <energy>
    <i name="e_fr_energy">   -332.60102976 </i>
    <i name="e_wo_entrp">   -332.58626084 </i>
    <i name="e_0_energy">   -332.59610679 </i>
   </energy>
  </scstep>
  <scstep>
   <time name="dav">   24.75   24.78</time>
   <time name="total">   25.38   25.42</time>
   <energy>
    <i name="e_fr_energy">   -332.34410773 </i>
    <i name="e_wo_entrp">   -332.33414091 </i>
    <i name="e_0_energy">   -332.34078545 </i>
   </energy>
  </scstep>
  <scstep>
   <time name="dav">   25.47   25.51</time>
   <time name="total">   26.10   26.13</time>
   <energy>
    <i name="e_fr_energy">   -332.29081772 </i>
    <i name="e_wo_entrp">   -332.27732068 </i>
    <i name="e_0_energy">   -332.28631870 </i>
   </energy>
  </scstep>
  <scstep>
   <time name="dav">   25.09   25.12</time>
   <time name="total">   25.71   25.75</time>
   <energy>
    <i name="e_fr_energy">   -332.31273472 </i>
    <i name="e_wo_entrp">   -332.29954300 </i>
    <i name="e_0_energy">   -332.30833748 </i>
   </energy>
  </scstep>
  <scstep>
   <time name="dav">   25.45   25.49</time>
   <time name="total">   26.08   26.12</time>
   <energy>
    <i name="e_fr_energy">   -332.27759421 </i>
    <i name="e_wo_entrp">   -332.26414785 </i>
    <i name="e_0_energy">   -332.27311209 </i>
   </energy>
  </scstep>
  <scstep>
   <time name="dav">   25.10   25.13</time>
   <time name="total">   25.72   25.76</time>
   <energy>
    <i name="e_fr_energy">   -332.27373563 </i>
    <i name="e_wo_entrp">   -332.26035342 </i>
    <i name="e_0_energy">   -332.26927489 </i>
   </energy>
  </scstep>
  <scstep>
   <time name="dav">   24.82   24.86</time>
   <time name="total">   25.45   25.48</time>
   <energy>
    <i name="e_fr_energy">   -332.27024599 </i>
    <i name="e_wo_entrp">   -332.25687740 </i>
    <i name="e_0_energy">   -332.26578979 </i>
   </energy>
  </scstep>
  <scstep>
   <time name="dav">   24.87   24.90</time>
   <time name="total">   25.50   25.54</time>
   <energy>
    <i name="e_fr_energy">   -332.26913485 </i>
    <i name="e_wo_entrp">   -332.25576330 </i>
    <i name="e_0_energy">   -332.26467767 </i>
   </energy>
  </scstep>
  <scstep>
   <time name="dav">   24.32   24.35</time>
   <time name="total">   24.94   24.98</time>
   <energy>
    <i name="e_fr_energy">   -332.26915811 </i>
    <i name="e_wo_entrp">   -332.25570468 </i>
    <i name="e_0_energy">   -332.26467363 </i>
   </energy>
  </scstep>
  <scstep>
   <time name="dav">   23.87   23.90</time>
   <time name="total">   24.50   24.56</time>
   <energy>
    <i name="e_fr_energy">   -332.26881998 </i>
    <i name="e_wo_entrp">   -332.25541438 </i>
    <i name="e_0_energy">   -332.26435144 </i>
   </energy>
  </scstep>
  <scstep>
   <time name="dav">   16.83   16.85</time>
   <time name="total">   16.87   16.90</time>
   <energy>
    <i name="alphaZ">   1248.41475165 </i>
    <i name="ewald"> -10513.97993310 </i>
    <i name="hartreedc">  -2753.40842025 </i>
    <i name="XCdc">   -955.14534281 </i>
    <i name="pawpsdc">  19796.57361140 </i>
    <i name="pawaedc"> -18257.85489994 </i>
    <i name="eentropy">     -0.01344100 </i>
    <i name="bandstr">   -553.51506587 </i>
    <i name="atom">  11656.65998444 </i>
    <i name="e_fr_energy">   -332.26875548 </i>
    <i name="e_wo_entrp">   -332.25531448 </i>
    <i name="e_0_energy">   -332.26427515 </i>
   </energy>
  </scstep>
  <structure>
   <crystal>
    <varray name="basis" >
     <v>      -3.19000000      -3.19000000      -3.19000000 </v>
     <v>       1.59500000       1.59500000      -7.97500000 </v>
     <v>       7.97500000      -7.97500000      -1.59500000 </v>
    </varray>
    <i name="volume">    486.92638500 </i>
    <varray name="rec_basis" >
     <v>      -0.13584117      -0.12539185      -0.05224660 </v>
     <v>       0.04179728       0.06269592      -0.10449321 </v>
     <v>       0.06269592      -0.06269592       0.00000000 </v>
    </varray>
   </crystal>
   <varray name="positions" >
    <v>       0.63333333       0.26666667       0.40000000 </v>
    <v>       0.50000000       0.00000000       0.00000000 </v>
    <v>       0.00000000       0.00000000       0.00000000 </v>
    <v>       0.10000000       0.20000000       0.80000000 </v>
    <v>       0.03333333       0.06666667       0.60000000 </v>
    <v>       0.90000000       0.80000000       0.20000000 </v>
    <v>       0.80000000       0.60000000       0.40000000 </v>
    <v>       0.73333333       0.46666667       0.20000000 </v>
    <v>       0.66666667       0.33333333       0.00000000 </v>
    <v>       0.36666667       0.73333333       0.60000000 </v>
    <v>       0.13333333       0.26666667       0.40000000 </v>
    <v>       0.83333333       0.66666667       0.00000000 </v>
    <v>       0.93333333       0.86666667       0.80000000 </v>
    <v>       0.56666667       0.13333333       0.20000000 </v>
    <v>       0.40000000       0.80000000       0.20000000 </v>
    <v>       0.43333333       0.86666667       0.80000000 </v>
    <v>       0.30000000       0.60000000       0.40000000 </v>
    <v>       0.86666667       0.73333333       0.60000000 </v>
    <v>       0.46666667       0.93333333       0.40000000 </v>
    <v>       0.16666667       0.33333333       0.00000000 </v>
    <v>       0.26666667       0.53333333       0.80000000 </v>
    <v>       0.20000000       0.40000000       0.60000000 </v>
    <v>       0.06666667       0.13333333       0.20000000 </v>
    <v>       0.76666667       0.53333333       0.80000000 </v>
    <v>       0.70000000       0.40000000       0.60000000 </v>
    <v>       0.60000000       0.20000000       0.80000000 </v>
    <v>       0.53333333       0.06666667       0.60000000 </v>
    <v>       0.33333333       0.66666667       0.00000000 </v>
    <v>       0.23333333       0.46666667       0.20000000 </v>
   </varray>
  </structure>
  <varray name="forces" >
   <v>      -0.13012813      -0.53188785       0.54450331 </v>
   <v>       0.19813533      -0.03373785      -0.31668445 </v>
   <v>       0.42637978      -0.25186520      -0.12564546 </v>
   <v>       0.36051481       0.30470285      -0.55569256 </v>
   <v>      -0.93555438       0.59365737       0.18827633 </v>
   <v>       0.33843748      -0.62057896       0.04337531 </v>
   <v>      -0.41727938       0.07516266       0.77774322 </v>
   <v>       0.06595035       0.02893148       0.02256132 </v>
   <v>       0.09653782       0.30057610      -0.44870935 </v>
   <v>      -0.40932120      -0.48475600       0.20358124 </v>
   <v>      -0.01889870       0.18630297      -0.84171055 </v>
   <v>       0.14008241      -0.43089627       0.38992757 </v>
   <v>       0.07960423       0.45047646      -0.12542760 </v>
   <v>      -0.20378164       0.63557779       0.06592946 </v>
   <v>      -0.83867943      -0.21747226       0.51530687 </v>
   <v>      -0.93662289       0.16021520       0.70534235 </v>
   <v>       0.77087815       0.30766305      -0.91990509 </v>
   <v>      -0.17469355       0.63224963       0.00166006 </v>
   <v>       0.48348292      -0.59168920       0.12773308 </v>
   <v>      -0.02304110      -0.20055620      -0.26270775 </v>
   <v>      -0.29071640       0.10649611      -0.26979454 </v>
   <v>      -0.51776154       0.15228617       0.61578414 </v>
   <v>       0.95857908      -0.45015635      -0.36502033 </v>
   <v>      -0.15703415      -0.32788139       0.55290896 </v>
   <v>       0.66515064       0.24358686      -0.74661863 </v>
   <v>      -0.22662511       0.46486881      -0.12761937 </v>
   <v>       0.45850125      -0.20120275      -0.34638810 </v>
   <v>       0.07901673      -0.40298123       0.71871986 </v>
   <v>       0.15888659       0.10290801      -0.02142930 </v>
  </varray>
  <varray name="stress" >
   <v>     -29.87361376      -2.06594852      -3.88328804 </v>
   <v>      -2.06594854     -30.45923493      -1.38786981 </v>
   <v>      -3.88328797      -1.38786983     -28.94107570 </v>
  </varray>
  <energy>
   <i name="e_fr_energy">   -332.26875548 </i>
   <i name="e_wo_entrp">   -332.26427515 </i>
   <i name="e_0_energy">     -0.01344100 </i>
  </energy>
  <time name="totalsc">  569.08  569.97</time>
 </calculation>
 <calculation>
  <scstep>
   <time name="dav">   19.97   20.00</time>
   <time name="total">   20.62   20.65</time>
   <energy>
    <i name="alphaZ">   1306.50806109 </i>
    <i name="ewald"> -10726.10199670 </i>
    <i name="hartreedc">  -2745.57674335 </i>
    <i name="XCdc">   -950.28829871 </i>
    <i name="pawpsdc">  19796.23580297 </i>
    <i name="pawaedc"> -18257.49212530 </i>
    <i name="eentropy">     -0.00851957 </i>
    <i name="bandstr">   -413.64478214 </i>
    <i name="atom">  11656.65998444 </i>
    <i name="e_fr_energy">   -333.70861726 </i>
    <i name="e_wo_entrp">   -333.70009769 </i>
    <i name="e_0_energy">   -333.70577741 </i>
   </energy>
  </scstep>
  <scstep>
   <time name="dav">   26.60   26.64</time>
   <time name="total">   27.23   27.27</time>
   <energy>
    <i name="e_fr_energy">   -333.94163398 </i>
    <i name="e_wo_entrp">   -333.93381147 </i>
    <i name="e_0_energy">   -333.93902647 </i>
   </energy>
  </scstep>
  <scstep>
   <time name="dav">   26.01   26.04</time>
   <time name="total">   26.65   26.69</time>
   <energy>
    <i name="e_fr_energy">   -333.25663059 </i>
    <i name="e_wo_entrp">   -333.24629859 </i>
    <i name="e_0_energy">   -333.25318659 </i>
   </energy>
  </scstep>
  <scstep>
   <time name="dav">   27.20   27.23</time>
   <time name="total">   27.83   27.87</time>
   <energy>
    <i name="e_fr_energy">   -332.87032088 </i>
    <i name="e_wo_entrp">   -332.86909324 </i>
    <i name="e_0_energy">   -332.86991167 </i>
   </energy>
  </scstep>
  <scstep>
   <time name="dav">   26.08   26.11</time>
   <time name="total">   26.71   26.74</time>
   <energy>
    <i name="e_fr_energy">   -332.69766021 </i>
    <i name="e_wo_entrp">   -332.68943945 </i>
    <i name="e_0_energy">   -332.69491996 </i>
   </energy>
  </scstep>
  <scstep>
   <time name="dav">   28.50   28.54</time>
   <time name="total">   29.13   29.18</time>
   <energy>
    <i name="e_fr_energy">   -332.57707187 </i>
    <i name="e_wo_entrp">   -332.57140016 </i>
    <i name="e_0_energy">   -332.57518130 </i>
   </energy>
  </scstep>
  <scstep>
   <time name="dav">   26.90   26.94</time>
   <time name="total">   27.52   27.56</time>
   <energy>
    <i name="e_fr_energy">   -332.58182723 </i>
    <i name="e_wo_entrp">   -332.57493200 </i>
    <i name="e_0_energy">   -332.57952882 </i>
   </energy>
  </scstep>
  <scstep>
   <time name="dav">   26.67   26.70</time>
   <time name="total">   27.29   27.33</time>
   <energy>
    <i name="e_fr_energy">   -332.58335353 </i>
    <i name="e_wo_entrp">   -332.57656582 </i>
    <i name="e_0_energy">   -332.58109096 </i>
   </energy>
  </scstep>
  <scstep>
   <time name="dav">   26.28   26.32</time>
   <time name="total">   26.91   26.96</time>
   <energy>
    <i name="e_fr_energy">   -332.58992617 </i>
    <i name="e_wo_entrp">   -332.58338530 </i>
    <i name="e_0_energy">   -332.58774588 </i>
   </energy>
  </scstep>
  <scstep>
   <time name="dav">   27.07   27.11</time>
   <time name="total">   27.70   27.74</time>
   <energy>
    <i name="e_fr_energy">   -332.59088320 </i>
    <i name="e_wo_entrp">   -332.58418898 </i>
    <i name="e_0_energy">   -332.58865179 </i>
   </energy>
  </scstep>
  <scstep>
   <time name="dav">   26.95   26.99</time>
   <time name="total">   27.57   27.61</time>
   <energy>
    <i name="e_fr_energy">   -332.59145243 </i>
    <i name="e_wo_entrp">   -332.58453296 </i>
    <i name="e_0_energy">   -332.58914594 </i>
   </energy>
  </scstep>
  <scstep>
   <time name="dav">   26.43   26.47</time>
   <time name="total">   27.06   27.10</time>
   <energy>
    <i name="e_fr_energy">   -332.59124561 </i>
    <i name="e_wo_entrp">   -332.58446791 </i>
    <i name="e_0_energy">   -332.58898637 </i>
   </energy>
  </scstep>
  <scstep>
   <time name="dav">   26.03   26.07</time>
   <time name="total">   26.66   26.70</time>
   <energy>
    <i name="e_fr_energy">   -332.59130412 </i>
    <i name="e_wo_entrp">   -332.58450266 </i>
    <i name="e_0_energy">   -332.58903697 </i>
   </energy>
  </scstep>
  <scstep>
   <time name="dav">   21.20   21.23</time>
   <time name="total">   21.24   21.27</time>
   <energy>
    <i name="alphaZ">   1306.50806109 </i>
    <i name="ewald"> -10726.10199670 </i>
    <i name="hartreedc">  -2674.13003184 </i>
    <i name="XCdc">   -952.09377990 </i>
    <i name="pawpsdc">  21270.71034742 </i>
    <i name="pawaedc"> -19733.20429576 </i>
    <i name="eentropy">     -0.00679192 </i>
    <i name="bandstr">   -480.93283152 </i>
    <i name="atom">  11656.65998444 </i>
    <i name="e_fr_energy">   -332.59133469 </i>
    <i name="e_wo_entrp">   -332.58454277 </i>
    <i name="e_0_energy">   -332.58907072 </i>
   </energy>
  </scstep>
  <structure>
   <crystal>
    <varray name="basis" >
     <v>      -3.13222543      -3.13530552      -3.13482301 </v>
     <v>       1.58490145       1.57436777      -7.86256126 </v>
     <v>       7.86601196      -7.85940013      -1.58172356 </v>
    </varray>
    <i name="volume">    465.27541628 </i>
    <varray name="rec_basis" >
     <v>      -0.13816597      -0.12753763      -0.05338853 </v>
     <v>       0.04229461       0.06364589      -0.10591525 </v>
     <v>       0.06359007      -0.06360899       0.00008140 </v>
    </varray>
   </crystal>
   <varray name="positions" >
    <v>       0.63603119       0.26205066       0.40121517 </v>
    <v>       0.49970385       0.00189389       0.00070133 </v>
    <v>      -0.00095393       0.00073134       0.00205143 </v>
    <v>       0.09719484       0.20444982       0.80016881 </v>
    <v>       0.03539861       0.06562669       0.59537472 </v>
    <v>       0.90142680       0.79858676       0.20290066 </v>
    <v>       0.80031958       0.59546530       0.39851055 </v>
    <v>       0.73266926       0.46677343       0.20011197 </v>
    <v>       0.66534675       0.33669908      -0.00061714 </v>
    <v>       0.37176836       0.73001551       0.60022816 </v>
    <v>       0.13445173       0.27143515       0.39937934 </v>
    <v>       0.83403910       0.66368020       0.00172699 </v>
    <v>       0.93040276       0.86882199       0.79887825 </v>
    <v>       0.56399118       0.13451245       0.19746126 </v>
    <v>       0.40551285       0.79505343       0.19812109 </v>
    <v>       0.43672433       0.86170699       0.79668248 </v>
    <v>       0.29540568       0.60712224       0.40140105 </v>
    <v>       0.86398268       0.73488502       0.59755931 </v>
    <v>       0.46675556       0.93187469       0.40325198 </v>
    <v>       0.16869304       0.33400458       0.00053692 </v>
    <v>       0.26860763       0.53442928       0.79879858 </v>
    <v>       0.20091976       0.39631240       0.59797336 </v>
    <v>       0.06402792       0.13574475       0.20426089 </v>
    <v>       0.76828558       0.52923774       0.80051675 </v>
    <v>       0.69604939       0.40584170       0.60127507 </v>
    <v>       0.59899472       0.20159241       0.79790850 </v>
    <v>       0.53241882       0.06872879       0.60199535 </v>
    <v>       0.33344169       0.66198405       0.00145786 </v>
    <v>       0.23172359       0.46740633       0.20016931 </v>
   </varray>
  </structure>
  <varray name="forces" >
   <v>      -0.30085119      -0.30955414       0.41175971 </v>
   <v>      -0.11215526       0.13992671       0.02764135 </v>
   <v>       0.19854362      -0.15444772      -0.12627031 </v>
   <v>      -0.01127851       0.07523849      -0.06596870 </v>
   <v>      -0.60695398       0.47989337       0.24235011 </v>
   <v>       0.36690497      -0.49575438      -0.19184908 </v>
   <v>      -0.03539923       0.05449400       0.18728864 </v>
   <v>       0.04841488      -0.17964909       0.24511909 </v>
   <v>       0.01895423       0.06442557      -0.12411274 </v>
   <v>      -0.21421367      -0.08581264       0.08199285 </v>
   <v>      -0.01074131      -0.02974853      -0.26545298 </v>
   <v>       0.00970202      -0.08435164       0.01936492 </v>
   <v>      -0.08038126       0.14752216      -0.05829858 </v>
   <v>       0.06955193       0.11562178       0.10040522 </v>
   <v>      -0.08258752      -0.16229773      -0.06091580 </v>
   <v>      -0.08820816       0.03534813       0.27468156 </v>
   <v>       0.66636029       0.27234627      -0.62086416 </v>
   <v>      -0.38457668       0.49458204      -0.14599974 </v>
   <v>       0.14035116      -0.31490422       0.06039127 </v>
   <v>       0.00942477      -0.16656600      -0.11546395 </v>
   <v>      -0.17346162       0.15663490      -0.02007348 </v>
   <v>      -0.19433224       0.23219017       0.15436806 </v>
   <v>       0.81201708      -0.52831258      -0.05953489 </v>
   <v>      -0.14099243      -0.17832725       0.00228879 </v>
   <v>       0.12288091       0.20593528      -0.18155970 </v>
   <v>      -0.02856230       0.15084482      -0.08241176 </v>
   <v>       0.00274188       0.04695265      -0.08348106 </v>
   <v>      -0.10514104       0.07052458       0.35174554 </v>
   <v>       0.10398867      -0.05275499       0.04285981 </v>
  </varray>
  <varray name="stress" >
   <v>      72.61825003      -2.16435328      -1.02266534 </v>
   <v>      -2.16435336      72.16861605      -0.35090399 </v>
   <v>      -1.02266544      -0.35090403      72.94374046 </v>
  </varray>
  <energy>
   <i name="e_fr_energy">   -332.59133469 </i>
   <i name="e_wo_entrp">   -332.58907072 </i>
   <i name="e_0_energy">     -0.00679192 </i>
  </energy>
  <time name="totalsc">  388.31  388.90</time>
 </calculation>
 <calculation>
  <scstep>
   <time name="dav">   20.01   20.05</time>
   <time name="total">   20.64   20.68</time>
   <energy>
    <i name="alphaZ">   1287.49550835 </i>
    <i name="ewald"> -10658.04484244 </i>
    <i name="hartreedc">  -2676.60591361 </i>
    <i name="XCdc">   -953.64074300 </i>
    <i name="pawpsdc">  21270.50666502 </i>
    <i name="pawaedc"> -19732.94739087 </i>
    <i name="eentropy">     -0.00916303 </i>
    <i name="bandstr">   -526.21302405 </i>
    <i name="atom">  11656.65998444 </i>
    <i name="e_fr_energy">   -332.79891920 </i>
    <i name="e_wo_entrp">   -332.78975616 </i>
    <i name="e_0_energy">   -332.79586485 </i>
   </energy>
  </scstep>
  <scstep>
   <time name="dav">   27.59   27.63</time>
   <time name="total">   28.21   28.25</time>
   <energy>
    <i name="e_fr_energy">   -332.82078689 </i>
    <i name="e_wo_entrp">   -332.81113779 </i>
    <i name="e_0_energy">   -332.81757052 </i>
   </energy>
  </scstep>
  <scstep>
   <time name="dav">   25.76   25.80</time>
   <time name="total">   26.39   26.44</time>
   <energy>
    <i name="e_fr_energy">   -332.78745086 </i>
    <i name="e_wo_entrp">   -332.77901593 </i>
    <i name="e_0_energy">   -332.78463921 </i>
   </energy>
  </scstep>
  <scstep>
   <time name="dav">   27.02   27.06</time>
   <time name="total">   27.64   27.68</time>
   <energy>
    <i name="e_fr_energy">   -332.71320164 </i>
    <i name="e_wo_entrp">   -332.70259653 </i>
    <i name="e_0_energy">   -332.70966660 </i>
   </energy>
  </scstep>
  <scstep>
   <time name="dav">   25.90   25.94</time>
   <time name="total">   26.53   26.56</time>
   <energy>
    <i name="e_fr_energy">   -332.70175655 </i>
    <i name="e_wo_entrp">   -332.69382506 </i>
    <i name="e_0_energy">   -332.69911272 </i>
   </energy>
  </scstep>
  <scstep>
   <time name="dav">   27.09   27.13</time>
   <time name="total">   27.72   27.77</time>
   <energy>
    <i name="e_fr_energy">   -332.68884356 </i>
    <i name="e_wo_entrp">   -332.67910979 </i>
    <i name="e_0_energy">   -332.68559897 </i>
   </energy>
  </scstep>
  <scstep>
   <time name="dav">   26.81   26.85</time>
   <time name="total">   27.43   27.47</time>
   <energy>
    <i name="e_fr_energy">   -332.68847523 </i>
    <i name="e_wo_entrp">   -332.67914167 </i>
    <i name="e_0_energy">   -332.68536404 </i>
   </energy>
  </scstep>
  <scstep>
   <time name="dav">   25.59   25.63</time>
   <time name="total">   26.23   26.27</time>
   <energy>
    <i name="e_fr_energy">   -332.68863901 </i>
    <i name="e_wo_entrp">   -332.67918583 </i>
    <i name="e_0_energy">   -332.68548795 </i>
   </energy>
  </scstep>
  <scstep>
   <time name="dav">   24.40   24.43</time>
   <time name="total">   25.02   25.07</time>
   <energy>
    <i name="e_fr_energy">   -332.68929154 </i>
    <i name="e_wo_entrp">   -332.67984177 </i>
    <i name="e_0_energy">   -332.68614162 </i>
   </energy>
  </scstep>
  <scstep>
   <time name="dav">   25.93   25.97</time>
   <time name="total">   26.55   26.59</time>
   <energy>
    <i name="e_fr_energy">   -332.68926659 </i>
    <i name="e_wo_entrp">   -332.67982938 </i>
    <i name="e_0_energy">   -332.68612085 </i>
   </energy>
  </scstep>
  <scstep>
   <time name="dav">   24.93   24.96</time>
   <time name="total">   25.56   25.59</time>
   <energy>
    <i name="e_fr_energy">   -332.68928666 </i>
    <i name="e_wo_entrp">   -332.67986437 </i>
    <i name="e_0_energy">   -332.68614590 </i>
   </energy>
  </scstep>
  <scstep>
   <time name="dav">   21.75   21.78</time>
   <time name="total">   21.79   21.83</time>
   <energy>
    <i name="alphaZ">   1287.49550835 </i>
    <i name="ewald"> -10658.04484244 </i>
    <i name="hartreedc">  -2699.40074480 </i>
    <i name="XCdc">   -953.05893879 </i>
    <i name="pawpsdc">  20768.09504417 </i>
    <i name="pawaedc"> -19229.85499554 </i>
    <i name="eentropy">     -0.00942861 </i>
    <i name="bandstr">   -504.57086362 </i>
    <i name="atom">  11656.65998444 </i>
    <i name="e_fr_energy">   -332.68927684 </i>
    <i name="e_wo_entrp">   -332.67984823 </i>
    <i name="e_0_energy">   -332.68613397 </i>
   </energy>
  </scstep>
  <structure>
   <crystal>
    <varray name="basis" >
     <v>      -3.15074875      -3.15284132      -3.15251351 </v>
     <v>       1.58813918       1.58098275      -7.89861066 </v>
     <v>       7.90095502      -7.89646303      -1.58598017 </v>
    </varray>
    <i name="volume">    472.14617687 </i>
    <varray name="rec_basis" >
     <v>      -0.13741188      -0.12684167      -0.05301739 </v>
     <v>       0.04213391       0.06333821      -0.10545511 </v>
     <v>       0.06330060      -0.06331337       0.00005480 </v>
    </varray>
   </crystal>
   <varray name="positions" >
    <v>       0.63515350       0.26355141       0.40081917 </v>
    <v>       0.49979921       0.00127869       0.00047365 </v>
    <v>      -0.00064333       0.00049452       0.00138442 </v>
    <v>       0.09810747       0.20300367       0.80011470 </v>
    <v>       0.03472584       0.06596273       0.59687873 </v>
    <v>       0.90096169       0.79904733       0.20195717 </v>
    <v>       0.80021835       0.59693840       0.39899394 </v>
    <v>       0.73288590       0.46673876       0.20007554 </v>
    <v>       0.66577545       0.33560494      -0.00041580 </v>
    <v>       0.37010548       0.73109400       0.60015357 </v>
    <v>       0.13408379       0.26988520       0.39958229 </v>
    <v>       0.83381044       0.66465153       0.00116478 </v>
    <v>       0.93135794       0.86812097       0.79924332 </v>
    <v>       0.56486391       0.13412809       0.19828693 </v>
    <v>       0.40371708       0.79666035       0.19873137 </v>
    <v>       0.43562123       0.86331750       0.79776045 </v>
    <v>       0.29690037       0.60480807       0.40094670 </v>
    <v>       0.86485794       0.73437962       0.59835317 </v>
    <v>       0.46672706       0.93235013       0.40219415 </v>
    <v>       0.16803123       0.33378671       0.00036259 </v>
    <v>       0.26797365       0.53407264       0.79918964 </v>
    <v>       0.20062218       0.39750999       0.59863167 </v>
    <v>       0.06488702       0.13496283       0.20287563 </v>
    <v>       0.76775978       0.53056903       0.80034792 </v>
    <v>       0.69733483       0.40394365       0.60086145 </v>
    <v>       0.59932205       0.20107397       0.79858892 </v>
    <v>       0.53271571       0.06805946       0.60134687 </v>
    <v>       0.33340911       0.66350648       0.00098276 </v>
    <v>       0.23224845       0.46716598       0.20011431 </v>
   </varray>
  </structure>
  <varray name="forces" >
   <v>      -0.24278159      -0.39377073       0.46555190 </v>
   <v>      -0.00099017       0.07896525      -0.09291403 </v>
   <v>       0.27897138      -0.18449993      -0.13141455 </v>
   <v>       0.11927454       0.16096838      -0.23887127 </v>
   <v>      -0.72582907       0.52833876       0.21998329 </v>
   <v>       0.35942731      -0.54374278      -0.11036372 </v>
   <v>      -0.17712562       0.05890406       0.39896999 </v>
   <v>       0.05619648      -0.10453820       0.15885493 </v>
   <v>       0.04869517       0.15195471      -0.24724495 </v>
   <v>      -0.29651839      -0.23606637       0.13488770 </v>
   <v>      -0.00450136       0.04749301      -0.47672372 </v>
   <v>       0.05734680      -0.22139391       0.15497194 </v>
   <v>      -0.02440381       0.25083520      -0.09065768 </v>
   <v>      -0.03038347       0.28741202       0.09352652 </v>
   <v>      -0.34312706      -0.18818403       0.14097043 </v>
   <v>      -0.37101266       0.08923956       0.41972400 </v>
   <v>       0.70899827       0.28173395      -0.71500646 </v>
   <v>      -0.31953547       0.55374354      -0.09599502 </v>
   <v>       0.26261840      -0.41510366       0.08841052 </v>
   <v>      -0.00007118      -0.18279874      -0.16486737 </v>
   <v>      -0.22780642       0.14284400      -0.10694352 </v>
   <v>      -0.30972990       0.20753854       0.31871038 </v>
   <v>       0.87457236      -0.49375218      -0.16962885 </v>
   <v>      -0.15362100      -0.23083240       0.21481333 </v>
   <v>       0.32497823       0.22180787      -0.39480454 </v>
   <v>      -0.10633365       0.27013427      -0.10004227 </v>
   <v>       0.16493256      -0.03740565      -0.18776839 </v>
   <v>      -0.04364089      -0.10438756       0.49055319 </v>
   <v>       0.12140020       0.00456305       0.02331823 </v>
  </varray>
  <varray name="stress" >
   <v>      37.53424743      -2.15895932      -2.08300376 </v>
   <v>      -2.15895933      36.94202319      -0.45215904 </v>
   <v>      -2.08300382      -0.45215894      38.32706891 </v>
  </varray>
  <energy>
   <i name="e_fr_energy">   -332.68927684 </i>
   <i name="e_wo_entrp">   -332.68613397 </i>
   <i name="e_0_energy">     -0.00942861 </i>
  </energy>
  <time name="totalsc">  327.83  328.34</time>
 </calculation>
 <calculation>
  <scstep>
   <time name="dav">   18.82   18.85</time>
   <time name="total">   19.46   19.49</time>
   <energy>
    <i name="alphaZ">   1271.29968048 </i>
    <i name="ewald"> -10661.70872086 </i>
    <i name="hartreedc">  -2640.58441798 </i>
    <i name="XCdc">   -954.62928151 </i>
    <i name="pawpsdc">  20767.77394864 </i>
    <i name="pawaedc"> -19229.63287014 </i>
    <i name="eentropy">     -0.00502597 </i>
    <i name="bandstr">   -542.00748737 </i>
    <i name="atom">  11656.65998444 </i>
    <i name="e_fr_energy">   -332.83419028 </i>
    <i name="e_wo_entrp">   -332.82916431 </i>
    <i name="e_0_energy">   -332.83251496 </i>
   </energy>
  </scstep>
  <scstep>
   <time name="dav">   25.05   25.09</time>
   <time name="total">   25.67   25.72</time>
   <energy>
    <i name="e_fr_energy">   -333.21110261 </i>
    <i name="e_wo_entrp">   -333.20859062 </i>
    <i name="e_0_energy">   -333.21026528 </i>
   </energy>
  </scstep>
  <scstep>
   <time name="dav">   25.79   25.83</time>
   <time name="total">   26.42   26.47</time>
   <energy>
    <i name="e_fr_energy">   -333.19482252 </i>
    <i name="e_wo_entrp">   -333.18880978 </i>
    <i name="e_0_energy">   -333.19281828 </i>
   </energy>
  </scstep>
  <scstep>
   <time name="dav">   25.64   25.67</time>
   <time name="total">   26.26   26.30</time>
   <energy>
    <i name="e_fr_energy">   -333.10902481 </i>
    <i name="e_wo_entrp">   -333.10525764 </i>
    <i name="e_0_energy">   -333.10776908 </i>
   </energy>
  </scstep>
  <scstep>
   <time name="dav">   25.68   25.72</time>
   <time name="total">   26.31   26.35</time>
   <energy>
    <i name="e_fr_energy">   -333.08956069 </i>
    <i name="e_wo_entrp">   -333.08431777 </i>
    <i name="e_0_energy">   -333.08781305 </i>
   </energy>
  </scstep>
  <scstep>
   <time name="dav">   27.14   27.18</time>
   <time name="total">   27.77   27.82</time>
   <energy>
    <i name="e_fr_energy">   -333.08213190 </i>
    <i name="e_wo_entrp">   -333.07743174 </i>
    <i name="e_0_energy">   -333.08056518 </i>
   </energy>
  </scstep>
  <scstep>
   <time name="dav">   27.15   27.19</time>
   <time name="total">   27.78   27.81</time>
   <energy>
    <i name="e_fr_energy">   -333.07791670 </i>
    <i name="e_wo_entrp">   -333.07314933 </i>
    <i name="e_0_energy">   -333.07632758 </i>
   </energy>
  </scstep>
  <scstep>
   <time name="dav">   26.47   26.51</time>
   <time name="total">   27.10   27.13</time>
   <energy>
    <i name="e_fr_energy">   -333.07566067 </i>
    <i name="e_wo_entrp">   -333.07084280 </i>
    <i name="e_0_energy">   -333.07405472 </i>
   </energy>
  </scstep>
  <scstep>
   <time name="dav">   24.42   24.45</time>
   <time name="total">   25.06   25.10</time>
   <energy>
    <i name="e_fr_energy">   -333.07562351 </i>
    <i name="e_wo_entrp">   -333.07081548 </i>
    <i name="e_0_energy">   -333.07402083 </i>
   </energy>
  </scstep>
  <scstep>
   <time name="dav">   25.09   25.12</time>
   <time name="total">   25.72   25.75</time>
   <energy>
    <i name="e_fr_energy">   -333.07581987 </i>
    <i name="e_wo_entrp">   -333.07094343 </i>
    <i name="e_0_energy">   -333.07419439 </i>
   </energy>
  </scstep>
  <scstep>
   <time name="dav">   23.88   23.92</time>
   <time name="total">   24.51   24.54</time>
   <energy>
    <i name="e_fr_energy">   -333.07605141 </i>
    <i name="e_wo_entrp">   -333.07122117 </i>
    <i name="e_0_energy">   -333.07444133 </i>
   </energy>
  </scstep>
  <scstep>
   <time name="dav">   23.35   23.38</time>
   <time name="total">   23.98   24.02</time>
   <energy>
    <i name="e_fr_energy">   -333.07583628 </i>
    <i name="e_wo_entrp">   -333.07098080 </i>
    <i name="e_0_energy">   -333.07421778 </i>
   </energy>
  </scstep>
  <scstep>
   <time name="dav">   16.29   16.31</time>
   <time name="total">   16.32   16.34</time>
   <energy>
    <i name="alphaZ">   1271.29968048 </i>
    <i name="ewald"> -10661.70872086 </i>
    <i name="hartreedc">  -2657.13367950 </i>
    <i name="XCdc">   -954.15197505 </i>
    <i name="pawpsdc">  20303.97923847 </i>
    <i name="pawaedc"> -18766.32971458 </i>
    <i name="eentropy">     -0.00484631 </i>
    <i name="bandstr">   -525.68577662 </i>
    <i name="atom">  11656.65998444 </i>
    <i name="e_fr_energy">   -333.07580954 </i>
    <i name="e_wo_entrp">   -333.07096323 </i>
    <i name="e_0_energy">   -333.07419410 </i>
   </energy>
  </scstep>
  <structure>
   <crystal>
    <varray name="basis" >
     <v>      -3.15476987      -3.15948471      -3.16037807 </v>
     <v>       1.60606719       1.58909570      -7.93898969 </v>
     <v>       7.94630768      -7.93565015      -1.60263536 </v>
    </varray>
    <i name="volume">    478.16112231 </i>
    <varray name="rec_basis" >
     <v>      -0.13708305      -0.12655089      -0.05306293 </v>
     <v>       0.04186069       0.06309439      -0.10486295 </v>
     <v>       0.06296049      -0.06299438       0.00012781 </v>
    </varray>
   </crystal>
   <varray name="positions" >
    <v>       0.63839504       0.25850919       0.40175266 </v>
    <v>       0.49949089       0.00272562       0.00067909 </v>
    <v>      -0.00138956       0.00131042       0.00337088 </v>
    <v>       0.09589119       0.20658392       0.80011842 </v>
    <v>       0.03646144       0.06478722       0.59198444 </v>
    <v>       0.90250228       0.79807120       0.20525846 </v>
    <v>       0.80024731       0.59314559       0.39775260 </v>
    <v>       0.73244936       0.46613564       0.20045311 </v>
    <v>       0.66468646       0.33853850      -0.00094288 </v>
    <v>       0.37475494       0.72806250       0.60015301 </v>
    <v>       0.13529298       0.27402892       0.39915427 </v>
    <v>       0.83455235       0.66222191       0.00261715 </v>
    <v>       0.92908979       0.87000764       0.79811312 </v>
    <v>       0.56230202       0.13496369       0.19633584 </v>
    <v>       0.40857975       0.79279652       0.19744780 </v>
    <v>       0.43793103       0.85904002       0.79512329 </v>
    <v>       0.29152386       0.61237016       0.40252061 </v>
    <v>       0.86279350       0.73618240       0.59535011 </v>
    <v>       0.46714526       0.93082063       0.40523111 </v>
    <v>       0.17008948       0.33431736       0.00100397 </v>
    <v>       0.26957725       0.53497919       0.79782857 </v>
    <v>       0.20107814       0.39454312       0.59655234 </v>
    <v>       0.06199127       0.13695016       0.20780677 </v>
    <v>       0.76982377       0.52706808       0.80077121 </v>
    <v>       0.69365353       0.40915511       0.60172746 </v>
    <v>       0.59834890       0.20262953       0.79675345 </v>
    <v>       0.53199094       0.06989496       0.60278543 </v>
    <v>       0.33325032       0.65918467       0.00186349 </v>
    <v>       0.23082985       0.46764280       0.20043422 </v>
   </varray>
  </structure>
  <varray name="forces" >
   <v>      -0.11766759      -0.05385604       0.08427162 </v>
   <v>      -0.33418847       0.15527304       0.16597554 </v>
   <v>       0.11037698      -0.11393897       0.01448625 </v>
   <v>      -0.16779560       0.01768041       0.20321533 </v>
   <v>      -0.22852312       0.22722640       0.09248963 </v>
   <v>       0.14209383      -0.24330007      -0.07577340 </v>
   <v>       0.08410976       0.06310111       0.05948754 </v>
   <v>       0.09102430      -0.16920414       0.22685767 </v>
   <v>      -0.04096074       0.00814844       0.01238980 </v>
   <v>      -0.05798682       0.00597954      -0.02082065 </v>
   <v>      -0.03897339      -0.09822446      -0.10417978 </v>
   <v>       0.03507359       0.12732204      -0.15812878 </v>
   <v>      -0.04667742       0.05783120      -0.07506151 </v>
   <v>       0.09919657       0.04766393       0.06370607 </v>
   <v>       0.01039718      -0.08762523      -0.16353363 </v>
   <v>       0.20142897      -0.02778663       0.03389636 </v>
   <v>       0.27001699       0.13191595      -0.21532827 </v>
   <v>      -0.25842380       0.26790929      -0.13959230 </v>
   <v>      -0.02357543      -0.16188743       0.00733621 </v>
   <v>       0.07095585      -0.16313609      -0.03734324 </v>
   <v>      -0.07870673       0.09998758       0.06925957 </v>
   <v>      -0.07536660       0.22789535      -0.01623123 </v>
   <v>       0.57392973      -0.42122872      -0.00550868 </v>
   <v>      -0.06547244      -0.05964329      -0.22197030 </v>
   <v>      -0.12145397       0.10795440       0.13917483 </v>
   <v>      -0.04385056      -0.04073390       0.01951364 </v>
   <v>       0.00052333       0.04975368       0.02599024 </v>
   <v>      -0.08504825       0.15777850       0.07370909 </v>
   <v>       0.09554385      -0.11285588      -0.05828761 </v>
  </varray>
  <varray name="stress" >
   <v>      10.14565802      -1.30199874      -0.08115591 </v>
   <v>      -1.30199874       9.75011187       1.06211609 </v>
   <v>      -0.08115582       1.06211612       9.11906481 </v>
  </varray>
  <energy>
   <i name="e_fr_energy">   -333.07580954 </i>
   <i name="e_wo_entrp">   -333.07419410 </i>
   <i name="e_0_energy">     -0.00484631 </i>
  </energy>
  <time name="totalsc">  340.97  341.49</time>
 </calculation>
 <calculation>
  <scstep>
   <time name="dav">   19.22   19.25</time>
   <time name="total">   19.84   19.88</time>
   <energy>
    <i name="alphaZ">   1266.59983298 </i>
    <i name="ewald"> -10661.36285161 </i>
    <i name="hartreedc">  -2641.08287978 </i>
    <i name="XCdc">   -954.60763931 </i>
    <i name="pawpsdc">  20304.21282403 </i>
    <i name="pawaedc"> -18766.56865467 </i>
    <i name="eentropy">     -0.00394272 </i>
    <i name="bandstr">   -536.92514056 </i>
    <i name="atom">  11656.65998444 </i>
    <i name="e_fr_energy">   -333.07846721 </i>
    <i name="e_wo_entrp">   -333.07452448 </i>
    <i name="e_0_energy">   -333.07715296 </i>
   </energy>
  </scstep>
  <scstep>
   <time name="dav">   25.03   25.06</time>
   <time name="total">   25.66   25.70</time>
   <energy>
    <i name="e_fr_energy">   -333.10827352 </i>
    <i name="e_wo_entrp">   -333.10487480 </i>
    <i name="e_0_energy">   -333.10714061 </i>
   </energy>
  </scstep>
  <scstep>
   <time name="dav">   25.36   25.40</time>
   <time name="total">   25.99   26.03</time>
   <energy>
    <i name="e_fr_energy">   -333.10507201 </i>
    <i name="e_wo_entrp">   -333.10079876 </i>
    <i name="e_0_energy">   -333.10364759 </i>
   </energy>
  </scstep>
  <scstep>
   <time name="dav">   25.88   25.92</time>
   <time name="total">   26.51   26.54</time>
   <energy>
    <i name="e_fr_energy">   -333.09920521 </i>
    <i name="e_wo_entrp">   -333.09553921 </i>
    <i name="e_0_energy">   -333.09798321 </i>
   </energy>
  </scstep>
  <scstep>
   <time name="dav">   25.62   25.65</time>
   <time name="total">   26.24   26.28</time>
   <energy>
    <i name="e_fr_energy">   -333.09755640 </i>
    <i name="e_wo_entrp">   -333.09354366 </i>
    <i name="e_0_energy">   -333.09621882 </i>
   </energy>
  </scstep>
  <scstep>
   <time name="dav">   26.84   26.87</time>
   <time name="total">   27.46   27.50</time>
   <energy>
    <i name="e_fr_energy">   -333.09687369 </i>
    <i name="e_wo_entrp">   -333.09297667 </i>
    <i name="e_0_energy">   -333.09557469 </i>
   </energy>
  </scstep>
  <scstep>
   <time name="dav">   26.20   26.24</time>
   <time name="total">   26.83   26.87</time>
   <energy>
    <i name="e_fr_energy">   -333.09653477 </i>
    <i name="e_wo_entrp">   -333.09264720 </i>
    <i name="e_0_energy">   -333.09523891 </i>
   </energy>
  </scstep>
  <scstep>
   <time name="dav">   24.01   24.04</time>
   <time name="total">   24.66   24.69</time>
   <energy>
    <i name="e_fr_energy">   -333.09638932 </i>
    <i name="e_wo_entrp">   -333.09246042 </i>
    <i name="e_0_energy">   -333.09507969 </i>
   </energy>
  </scstep>
  <scstep>
   <time name="dav">   16.08   16.10</time>
   <time name="total">   16.11   16.13</time>
   <energy>
    <i name="alphaZ">   1266.59983298 </i>
    <i name="ewald"> -10661.36285161 </i>
    <i name="hartreedc">  -2646.39176549 </i>
    <i name="XCdc">   -954.45757301 </i>
    <i name="pawpsdc">  20185.66481408 </i>
    <i name="pawaedc"> -18647.91667573 </i>
    <i name="eentropy">     -0.00391923 </i>
    <i name="bandstr">   -531.88822171 </i>
    <i name="atom">  11656.65998444 </i>
    <i name="e_fr_energy">   -333.09637529 </i>
    <i name="e_wo_entrp">   -333.09245606 </i>
    <i name="e_0_energy">   -333.09506888 </i>
   </energy>
  </scstep>
  <structure>
   <crystal>
    <varray name="basis" >
     <v>      -3.15595012      -3.16143464      -3.16268642 </v>
     <v>       1.61132931       1.59147697      -7.95084149 </v>
     <v>       7.95961931      -7.94715212      -1.60752389 </v>
    </varray>
    <i name="volume">    479.93538778 </i>
    <varray name="rec_basis" >
     <v>      -0.13698695      -0.12646582      -0.05307596 </v>
     <v>       0.04178118       0.06302316      -0.10469041 </v>
     <v>       0.06286140      -0.06290136       0.00014896 </v>
    </varray>
   </crystal>
   <varray name="positions" >
    <v>       0.63934287       0.25703682       0.40202595 </v>
    <v>       0.49940115       0.00314793       0.00073882 </v>
    <v>      -0.00160766       0.00154795       0.00395072 </v>
    <v>       0.09524327       0.20762914       0.80011897 </v>
    <v>       0.03696894       0.06444565       0.59055567 </v>
    <v>       0.90295362       0.79778502       0.20622238 </v>
    <v>       0.80025416       0.59203889       0.39739086 </v>
    <v>       0.73232126       0.46595949       0.20056347 </v>
    <v>       0.66436850       0.33939507      -0.00109723 </v>
    <v>       0.37611595       0.72717728       0.60015316 </v>
    <v>       0.13564883       0.27523853       0.39902851 </v>
    <v>       0.83476892       0.66151215       0.00304157 </v>
    <v>       0.92842587       0.87055891       0.79778292 </v>
    <v>       0.56155154       0.13520846       0.19576619 </v>
    <v>       0.41000277       0.79166877       0.19707352 </v>
    <v>       0.43860578       0.85779216       0.79435403 </v>
    <v>       0.28995179       0.61457737       0.40297902 </v>
    <v>       0.86218903       0.73670981       0.59447314 </v>
    <v>       0.46726752       0.93037309       0.40611801 </v>
    <v>       0.17069279       0.33447189       0.00119102 </v>
    <v>       0.27004729       0.53524417       0.79743097 </v>
    <v>       0.20121034       0.39367778       0.59594579 </v>
    <v>       0.06114419       0.13752876       0.20924620 </v>
    <v>       0.77042716       0.52604586       0.80089533 </v>
    <v>       0.69257712       0.41067629       0.60197953 </v>
    <v>       0.59806419       0.20308430       0.79621735 </v>
    <v>       0.53177948       0.07043031       0.60320513 </v>
    <v>       0.33320220       0.65792284       0.00212141 </v>
    <v>       0.23041445       0.46778197       0.20052761 </v>
   </varray>
  </structure>
  <varray name="forces" >
   <v>      -0.08030474       0.04323022      -0.02548131 </v>
   <v>      -0.42779696       0.17627567       0.23322909 </v>
   <v>       0.07020671      -0.09507647       0.05340362 </v>
   <v>      -0.24858769      -0.02688574       0.32163170 </v>
   <v>      -0.09087184       0.13430367       0.05363370 </v>
   <v>       0.08065285      -0.15369368      -0.06003789 </v>
   <v>       0.16097920       0.06873713      -0.04859358 </v>
   <v>       0.09600471      -0.19249516       0.23775820 </v>
   <v>      -0.06350099      -0.03651090       0.09220944 </v>
   <v>       0.01700873       0.08527501      -0.07443156 </v>
   <v>      -0.05030396      -0.13869507       0.00820381 </v>
   <v>       0.02509899       0.20305462      -0.25110798 </v>
   <v>      -0.04765521       0.00952900      -0.07197279 </v>
   <v>       0.15099404      -0.02212160       0.05459686 </v>
   <v>       0.09930326      -0.07194656      -0.24002646 </v>
   <v>       0.34913307      -0.06208747      -0.05825620 </v>
   <v>       0.13603649       0.11202518      -0.07585042 </v>
   <v>      -0.24754983       0.19223524      -0.14536273 </v>
   <v>      -0.10626292      -0.09690683      -0.01721475 </v>
   <v>       0.08955365      -0.15409409      -0.00091232 </v>
   <v>      -0.03526962       0.08776436       0.12814005 </v>
   <v>       0.00291503       0.23287556      -0.11728775 </v>
   <v>       0.48551496      -0.40031304       0.03633478 </v>
   <v>      -0.03806094      -0.00684580      -0.34427476 </v>
   <v>      -0.25196563       0.07077946       0.29318265 </v>
   <v>      -0.01717774      -0.12372300       0.04801797 </v>
   <v>      -0.05142688       0.07906478       0.09152333 </v>
   <v>      -0.09476845       0.22925965      -0.04263061 </v>
   <v>       0.08810171      -0.14301414      -0.07842411 </v>
  </varray>
  <varray name="stress" >
   <v>       3.07866171      -0.76109920       0.34698161 </v>
   <v>      -0.76109917       3.04384253       1.40734670 </v>
   <v>       0.34698159       1.40734666       1.67228737 </v>
  </varray>
  <energy>
   <i name="e_fr_energy">   -333.09637529 </i>
   <i name="e_wo_entrp">   -333.09506888 </i>
   <i name="e_0_energy">     -0.00391923 </i>
  </energy>
  <time name="totalsc">  237.21  237.57</time>
 </calculation>
 <calculation>
  <scstep>
   <time name="dav">   18.82   18.85</time>
   <time name="total">   19.45   19.48</time>
   <energy>
    <i name="alphaZ">   1262.53459298 </i>
    <i name="ewald"> -10653.29943127 </i>
    <i name="hartreedc">  -2640.53535801 </i>
    <i name="XCdc">   -954.82322364 </i>
    <i name="pawpsdc">  20183.31373780 </i>
    <i name="pawaedc"> -18645.69627628 </i>
    <i name="eentropy">     -0.00191523 </i>
    <i name="bandstr">   -541.28668771 </i>
    <i name="atom">  11656.65998444 </i>
    <i name="e_fr_energy">   -333.13457691 </i>
    <i name="e_wo_entrp">   -333.13266168 </i>
    <i name="e_0_energy">   -333.13393850 </i>
   </energy>
  </scstep>
  <scstep>
   <time name="dav">   25.50   25.54</time>
   <time name="total">   26.15   26.19</time>
   <energy>
    <i name="e_fr_energy">   -333.17910000 </i>
    <i name="e_wo_entrp">   -333.17657350 </i>
    <i name="e_0_energy">   -333.17825784 </i>
   </energy>
  </scstep>
  <scstep>
   <time name="dav">   25.23   25.26</time>
   <time name="total">   25.85   25.89</time>
   <energy>
    <i name="e_fr_energy">   -333.15876901 </i>
    <i name="e_wo_entrp">   -333.15675431 </i>
    <i name="e_0_energy">   -333.15809745 </i>
   </energy>
  </scstep>
  <scstep>
   <time name="dav">   26.21   26.25</time>
   <time name="total">   26.84   26.87</time>
   <energy>
    <i name="e_fr_energy">   -333.15599722 </i>
    <i name="e_wo_entrp">   -333.15397873 </i>
    <i name="e_0_energy">   -333.15532439 </i>
   </energy>
  </scstep>
  <scstep>
   <time name="dav">   25.40   25.43</time>
   <time name="total">   26.04   26.08</time>
   <energy>
    <i name="e_fr_energy">   -333.15418522 </i>
    <i name="e_wo_entrp">   -333.15185811 </i>
    <i name="e_0_energy">   -333.15340952 </i>
   </energy>
  </scstep>
  <scstep>
   <time name="dav">   26.79   26.82</time>
   <time name="total">   27.41   27.45</time>
   <energy>
    <i name="e_fr_energy">   -333.15403557 </i>
    <i name="e_wo_entrp">   -333.15206223 </i>
    <i name="e_0_energy">   -333.15337779 </i>
   </energy>
  </scstep>
  <scstep>
   <time name="dav">   26.59   26.63</time>
   <time name="total">   27.22   27.25</time>
   <energy>
    <i name="e_fr_energy">   -333.15311714 </i>
    <i name="e_wo_entrp">   -333.15088982 </i>
    <i name="e_0_energy">   -333.15237470 </i>
   </energy>
  </scstep>
  <scstep>
   <time name="dav">   22.84   22.87</time>
   <time name="total">   23.47   23.51</time>
   <energy>
    <i name="e_fr_energy">   -333.15298651 </i>
    <i name="e_wo_entrp">   -333.15082541 </i>
    <i name="e_0_energy">   -333.15226614 </i>
   </energy>
  </scstep>
  <scstep>
   <time name="dav">   15.95   15.97</time>
   <time name="total">   15.98   16.01</time>
   <energy>
    <i name="alphaZ">   1262.53459298 </i>
    <i name="ewald"> -10653.29943127 </i>
    <i name="hartreedc">  -2645.33675974 </i>
    <i name="XCdc">   -954.69245584 </i>
    <i name="pawpsdc">  20057.12739876 </i>
    <i name="pawaedc"> -18519.33183755 </i>
    <i name="eentropy">     -0.00215731 </i>
    <i name="bandstr">   -536.81231549 </i>
    <i name="atom">  11656.65998444 </i>
    <i name="e_fr_energy">   -333.15298102 </i>
    <i name="e_wo_entrp">   -333.15082371 </i>
    <i name="e_0_energy">   -333.15226192 </i>
   </energy>
  </scstep>
  <structure>
   <crystal>
    <varray name="basis" >
     <v>      -3.15900492      -3.16572239      -3.16673954 </v>
     <v>       1.61244520       1.58923043      -7.95618472 </v>
     <v>       7.97186362      -7.95999039      -1.61205514 </v>
    </varray>
[...]
       <r>    4.6131    1.0000 </r>
       <r>    4.6606    1.0000 </r>
       <r>    4.6754    1.0000 </r>
       <r>    4.7958    1.0000 </r>
       <r>    4.8445    1.0000 </r>
       <r>    4.8898    1.0000 </r>
       <r>    4.9376    1.0000 </r>
       <r>    4.9794    1.0000 </r>
       <r>    5.0389    1.0000 </r>
       <r>    5.0798    1.0000 </r>
       <r>    5.1704    1.0000 </r>
       <r>    5.2101    1.0000 </r>
       <r>    5.2660    1.0000 </r>
       <r>    5.2972    1.0000 </r>
       <r>    5.3630    1.0000 </r>
       <r>    5.3920    1.0000 </r>
       <r>    5.4738    1.0000 </r>
       <r>    5.5056    1.0000 </r>
       <r>    5.5917    1.0000 </r>
       <r>    5.6616    1.0000 </r>
       <r>    5.7357    1.0000 </r>
       <r>    5.8019    1.0000 </r>
       <r>    5.8384    1.0000 </r>
       <r>    5.8730    1.0000 </r>
       <r>    5.9172    1.0000 </r>
       <r>    5.9913    1.0002 </r>
       <r>    6.0469    1.0007 </r>
       <r>    6.0920    1.0020 </r>
       <r>    6.1131    1.0031 </r>
       <r>    6.1974    1.0127 </r>
       <r>    6.2357    1.0206 </r>
       <r>    6.2907    1.0325 </r>
       <r>    6.3178    1.0354 </r>
       <r>    6.3971    1.0012 </r>
       <r>    6.4845    0.8169 </r>
       <r>    6.5198    0.6919 </r>
       <r>    6.5967    0.3739 </r>
       <r>    6.7301    0.0056 </r>
       <r>    6.8207   -0.0351 </r>
       <r>    6.8781   -0.0250 </r>
       <r>    7.0732   -0.0010 </r>
       <r>    7.1289   -0.0003 </r>
       <r>    7.2486   -0.0000 </r>
       <r>    7.3630   -0.0000 </r>
       <r>    7.4920   -0.0000 </r>
       <r>    7.6664   -0.0000 </r>
       <r>    7.7922   -0.0000 </r>
       <r>    7.8430   -0.0000 </r>
       <r>    7.9026   -0.0000 </r>
       <r>    8.2381   -0.0000 </r>
       <r>    8.3208   -0.0000 </r>
       <r>    8.4448   -0.0000 </r>
       <r>    8.5200   -0.0000 </r>
       <r>    8.5745   -0.0000 </r>
       <r>    8.6356   -0.0000 </r>
       <r>    8.7387   -0.0000 </r>
       <r>    8.7932   -0.0000 </r>
       <r>    8.8200   -0.0000 </r>
       <r>    8.8748   -0.0000 </r>
       <r>    8.9214   -0.0000 </r>
       <r>    8.9487   -0.0000 </r>
      </set>
     </set>
    </set>
   </array>
  </eigenvalues>
  <separator name="orbital magnetization" >
   <v name="MAGDIPOLOUT">      0.00000000      0.00000000      0.00000000</v>
  </separator>
  <dos>
   <i name="efermi">      6.56651599 </i>
   <total>
    <array>
     <dimension dim="1">gridpoints</dimension>
     <dimension dim="2">spin</dimension>
     <field>energy</field>
     <field>total</field>
     <field>integrated</field>
     <set>
      <set comment="spin 1">
       <r>   -50.4575     0.0000     0.0000 </r>
       <r>   -50.2494     0.0000     0.0000 </r>
       <r>   -50.0413     0.0000     0.0000 </r>
       <r>   -49.8332     0.0000     0.0000 </r>
       <r>   -49.6252     0.0000     0.0000 </r>
       <r>   -49.4171    -0.0000    -0.0000 </r>
       <r>   -49.2090    -0.0000    -0.0000 </r>
       <r>   -49.0009    -0.0000    -0.0000 </r>
       <r>   -48.7928    -0.0000    -0.0000 </r>
       <r>   -48.5847    -0.0000    -0.0000 </r>
       <r>   -48.3766    -0.0000    -0.0000 </r>
       <r>   -48.1686    -0.0053    -0.0011 </r>
       <r>   -47.9605    -0.3312    -0.0700 </r>
       <r>   -47.7524     0.4043     0.0141 </r>
       <r>   -47.5443    18.1651     3.7940 </r>
       <r>   -47.3362    20.1502     7.9869 </r>
       <r>   -47.1281     8.8029     9.8187 </r>
       <r>   -46.9201     1.1356    10.0549 </r>
       <r>   -46.7120    -0.2559    10.0017 </r>
       <r>   -46.5039    -0.0081    10.0000 </r>
       <r>   -46.2958    -0.0000    10.0000 </r>
       <r>   -46.0877    -0.0000    10.0000 </r>
       <r>   -45.8796    -0.0000    10.0000 </r>
       <r>   -45.6715     0.0000    10.0000 </r>
       <r>   -45.4635     0.0000    10.0000 </r>
       <r>   -45.2554     0.0000    10.0000 </r>
       <r>   -45.0473     0.0000    10.0000 </r>
       <r>   -44.8392     0.0000    10.0000 </r>
       <r>   -44.6311     0.0000    10.0000 </r>
       <r>   -44.4230     0.0000    10.0000 </r>
       <r>   -44.2149     0.0000    10.0000 </r>
       <r>   -44.0069     0.0000    10.0000 </r>
       <r>   -43.7988     0.0000    10.0000 </r>
       <r>   -43.5907     0.0000    10.0000 </r>
       <r>   -43.3826     0.0000    10.0000 </r>
       <r>   -43.1745     0.0000    10.0000 </r>
       <r>   -42.9664     0.0000    10.0000 </r>
       <r>   -42.7584     0.0000    10.0000 </r>
       <r>   -42.5503     0.0000    10.0000 </r>
       <r>   -42.3422     0.0000    10.0000 </r>
       <r>   -42.1341     0.0000    10.0000 </r>
       <r>   -41.9260     0.0000    10.0000 </r>
       <r>   -41.7179     0.0000    10.0000 </r>
       <r>   -41.5098     0.0000    10.0000 </r>
       <r>   -41.3018     0.0000    10.0000 </r>
       <r>   -41.0937     0.0000    10.0000 </r>
       <r>   -40.8856     0.0000    10.0000 </r>
       <r>   -40.6775     0.0000    10.0000 </r>
       <r>   -40.4694     0.0000    10.0000 </r>
       <r>   -40.2613     0.0000    10.0000 </r>
       <r>   -40.0533     0.0000    10.0000 </r>
       <r>   -39.8452     0.0000    10.0000 </r>
       <r>   -39.6371     0.0000    10.0000 </r>
       <r>   -39.4290     0.0000    10.0000 </r>
       <r>   -39.2209     0.0000    10.0000 </r>
       <r>   -39.0128     0.0000    10.0000 </r>
       <r>   -38.8047     0.0000    10.0000 </r>
       <r>   -38.5967     0.0000    10.0000 </r>
       <r>   -38.3886     0.0000    10.0000 </r>
       <r>   -38.1805     0.0000    10.0000 </r>
       <r>   -37.9724     0.0000    10.0000 </r>
       <r>   -37.7643     0.0000    10.0000 </r>
       <r>   -37.5562     0.0000    10.0000 </r>
       <r>   -37.3482     0.0000    10.0000 </r>
       <r>   -37.1401     0.0000    10.0000 </r>
       <r>   -36.9320     0.0000    10.0000 </r>
       <r>   -36.7239     0.0000    10.0000 </r>
       <r>   -36.5158     0.0000    10.0000 </r>
       <r>   -36.3077     0.0000    10.0000 </r>
       <r>   -36.0996     0.0000    10.0000 </r>
       <r>   -35.8916     0.0000    10.0000 </r>
       <r>   -35.6835     0.0000    10.0000 </r>
       <r>   -35.4754     0.0000    10.0000 </r>
       <r>   -35.2673     0.0000    10.0000 </r>
       <r>   -35.0592     0.0000    10.0000 </r>
       <r>   -34.8511     0.0000    10.0000 </r>
       <r>   -34.6431     0.0000    10.0000 </r>
       <r>   -34.4350     0.0000    10.0000 </r>
       <r>   -34.2269     0.0000    10.0000 </r>
       <r>   -34.0188     0.0000    10.0000 </r>
       <r>   -33.8107     0.0000    10.0000 </r>
       <r>   -33.6026     0.0000    10.0000 </r>
       <r>   -33.3945     0.0000    10.0000 </r>
       <r>   -33.1865     0.0000    10.0000 </r>
       <r>   -32.9784     0.0000    10.0000 </r>
       <r>   -32.7703     0.0000    10.0000 </r>
       <r>   -32.5622     0.0000    10.0000 </r>
       <r>   -32.3541     0.0000    10.0000 </r>
       <r>   -32.1460     0.0000    10.0000 </r>
       <r>   -31.9380     0.0000    10.0000 </r>
       <r>   -31.7299     0.0000    10.0000 </r>
       <r>   -31.5218     0.0000    10.0000 </r>
       <r>   -31.3137     0.0000    10.0000 </r>
       <r>   -31.1056     0.0000    10.0000 </r>
       <r>   -30.8975     0.0000    10.0000 </r>
       <r>   -30.6894     0.0000    10.0000 </r>
       <r>   -30.4814     0.0000    10.0000 </r>
       <r>   -30.2733     0.0000    10.0000 </r>
       <r>   -30.0652     0.0000    10.0000 </r>
       <r>   -29.8571     0.0000    10.0000 </r>
       <r>   -29.6490     0.0000    10.0000 </r>
       <r>   -29.4409     0.0000    10.0000 </r>
       <r>   -29.2328     0.0000    10.0000 </r>
       <r>   -29.0248     0.0000    10.0000 </r>
       <r>   -28.8167     0.0000    10.0000 </r>
       <r>   -28.6086     0.0000    10.0000 </r>
       <r>   -28.4005     0.0000    10.0000 </r>
       <r>   -28.1924     0.0000    10.0000 </r>
       <r>   -27.9843     0.0000    10.0000 </r>
       <r>   -27.7763     0.0000    10.0000 </r>
       <r>   -27.5682     0.0000    10.0000 </r>
       <r>   -27.3601     0.0000    10.0000 </r>
       <r>   -27.1520     0.0000    10.0000 </r>
       <r>   -26.9439     0.0000    10.0000 </r>
       <r>   -26.7358     0.0000    10.0000 </r>
       <r>   -26.5277     0.0000    10.0000 </r>
       <r>   -26.3197     0.0000    10.0000 </r>
       <r>   -26.1116     0.0000    10.0000 </r>
       <r>   -25.9035    -0.0000    10.0000 </r>
       <r>   -25.6954    -0.0000    10.0000 </r>
       <r>   -25.4873    -0.0000    10.0000 </r>
       <r>   -25.2792    -0.0000    10.0000 </r>
       <r>   -25.0712    -0.0000    10.0000 </r>
       <r>   -24.8631    -0.0001    10.0000 </r>
       <r>   -24.6550    -0.0123     9.9974 </r>
       <r>   -24.4469    -0.1475     9.9667 </r>
       <r>   -24.2388     0.8179    10.1369 </r>
       <r>   -24.0307     5.0654    11.1909 </r>
       <r>   -23.8226    29.4000    17.3086 </r>
       <r>   -23.6146    49.1449    27.5349 </r>
       <r>   -23.4065    34.5562    34.7255 </r>
       <r>   -23.1984    19.6687    38.8183 </r>
       <r>   -22.9903     2.6130    39.3620 </r>
       <r>   -22.7822     2.9120    39.9679 </r>
       <r>   -22.5741     0.2248    40.0147 </r>
       <r>   -22.3661    -0.0688    40.0004 </r>
       <r>   -22.1580    -0.0019    40.0000 </r>
       <r>   -21.9499    -0.0000    40.0000 </r>
       <r>   -21.7418    -0.0000    40.0000 </r>
       <r>   -21.5337    -0.0000    40.0000 </r>
       <r>   -21.3256     0.0000    40.0000 </r>
       <r>   -21.1175     0.0000    40.0000 </r>
       <r>   -20.9095     0.0000    40.0000 </r>
       <r>   -20.7014     0.0000    40.0000 </r>
       <r>   -20.4933     0.0000    40.0000 </r>
       <r>   -20.2852     0.0000    40.0000 </r>
       <r>   -20.0771     0.0000    40.0000 </r>
       <r>   -19.8690     0.0000    40.0000 </r>
       <r>   -19.6610     0.0000    40.0000 </r>
       <r>   -19.4529     0.0000    40.0000 </r>
       <r>   -19.2448     0.0000    40.0000 </r>
       <r>   -19.0367     0.0000    40.0000 </r>
       <r>   -18.8286     0.0000    40.0000 </r>
       <r>   -18.6205     0.0000    40.0000 </r>
       <r>   -18.4124     0.0000    40.0000 </r>
       <r>   -18.2044     0.0000    40.0000 </r>
       <r>   -17.9963     0.0000    40.0000 </r>
       <r>   -17.7882     0.0000    40.0000 </r>
       <r>   -17.5801     0.0000    40.0000 </r>
       <r>   -17.3720     0.0000    40.0000 </r>
       <r>   -17.1639     0.0000    40.0000 </r>
       <r>   -16.9559     0.0000    40.0000 </r>
       <r>   -16.7478     0.0000    40.0000 </r>
       <r>   -16.5397     0.0000    40.0000 </r>
       <r>   -16.3316     0.0000    40.0000 </r>
       <r>   -16.1235     0.0000    40.0000 </r>
       <r>   -15.9154     0.0000    40.0000 </r>
       <r>   -15.7073     0.0000    40.0000 </r>
       <r>   -15.4993     0.0000    40.0000 </r>
       <r>   -15.2912     0.0000    40.0000 </r>
       <r>   -15.0831     0.0000    40.0000 </r>
       <r>   -14.8750     0.0000    40.0000 </r>
       <r>   -14.6669     0.0000    40.0000 </r>
       <r>   -14.4588     0.0000    40.0000 </r>
       <r>   -14.2507     0.0000    40.0000 </r>
       <r>   -14.0427     0.0000    40.0000 </r>
       <r>   -13.8346     0.0000    40.0000 </r>
       <r>   -13.6265     0.0000    40.0000 </r>
       <r>   -13.4184     0.0000    40.0000 </r>
       <r>   -13.2103     0.0000    40.0000 </r>
       <r>   -13.0022     0.0000    40.0000 </r>
       <r>   -12.7942     0.0000    40.0000 </r>
       <r>   -12.5861     0.0000    40.0000 </r>
       <r>   -12.3780     0.0000    40.0000 </r>
       <r>   -12.1699     0.0000    40.0000 </r>
       <r>   -11.9618     0.0000    40.0000 </r>
       <r>   -11.7537     0.0000    40.0000 </r>
       <r>   -11.5456     0.0000    40.0000 </r>
       <r>   -11.3376     0.0000    40.0000 </r>
       <r>   -11.1295     0.0000    40.0000 </r>
       <r>   -10.9214     0.0000    40.0000 </r>
       <r>   -10.7133     0.0000    40.0000 </r>
       <r>   -10.5052     0.0000    40.0000 </r>
       <r>   -10.2971     0.0000    40.0000 </r>
       <r>   -10.0891     0.0000    40.0000 </r>
       <r>    -9.8810     0.0000    40.0000 </r>
       <r>    -9.6729     0.0000    40.0000 </r>
       <r>    -9.4648     0.0000    40.0000 </r>
       <r>    -9.2567     0.0000    40.0000 </r>
       <r>    -9.0486     0.0000    40.0000 </r>
       <r>    -8.8405     0.0000    40.0000 </r>
       <r>    -8.6325     0.0000    40.0000 </r>
       <r>    -8.4244     0.0000    40.0000 </r>
       <r>    -8.2163     0.0000    40.0000 </r>
       <r>    -8.0082     0.0000    40.0000 </r>
       <r>    -7.8001     0.0000    40.0000 </r>
       <r>    -7.5920     0.0000    40.0000 </r>
       <r>    -7.3840     0.0000    40.0000 </r>
       <r>    -7.1759     0.0000    40.0000 </r>
       <r>    -6.9678     0.0000    40.0000 </r>
       <r>    -6.7597     0.0000    40.0000 </r>
       <r>    -6.5516     0.0000    40.0000 </r>
       <r>    -6.3435     0.0000    40.0000 </r>
       <r>    -6.1354     0.0000    40.0000 </r>
       <r>    -5.9274     0.0000    40.0000 </r>
       <r>    -5.7193     0.0000    40.0000 </r>
       <r>    -5.5112     0.0000    40.0000 </r>
       <r>    -5.3031     0.0000    40.0000 </r>
       <r>    -5.0950     0.0000    40.0000 </r>
       <r>    -4.8869     0.0000    40.0000 </r>
       <r>    -4.6789     0.0000    40.0000 </r>
       <r>    -4.4708     0.0000    40.0000 </r>
       <r>    -4.2627     0.0000    40.0000 </r>
       <r>    -4.0546     0.0000    40.0000 </r>
       <r>    -3.8465     0.0000    40.0000 </r>
       <r>    -3.6384     0.0000    40.0000 </r>
       <r>    -3.4303     0.0000    40.0000 </r>
       <r>    -3.2223     0.0000    40.0000 </r>
       <r>    -3.0142     0.0000    40.0000 </r>
       <r>    -2.8061     0.0000    40.0000 </r>
       <r>    -2.5980    -0.0000    40.0000 </r>
       <r>    -2.3899    -0.0000    40.0000 </r>
       <r>    -2.1818    -0.0000    40.0000 </r>
       <r>    -1.9737    -0.0000    40.0000 </r>
       <r>    -1.7657    -0.0000    40.0000 </r>
       <r>    -1.5576    -0.0000    40.0000 </r>
       <r>    -1.3495    -0.0001    40.0000 </r>
       <r>    -1.1414    -0.0054    39.9989 </r>
       <r>    -0.9333    -0.0029    39.9982 </r>
       <r>    -0.7252     0.2852    40.0576 </r>
       <r>    -0.5172     0.9225    40.2496 </r>
       <r>    -0.3091     1.5825    40.5789 </r>
       <r>    -0.1010     1.8286    40.9594 </r>
       <r>     0.1071     1.3281    41.2357 </r>
       <r>     0.3152     2.3770    41.7303 </r>
       <r>     0.5233     3.3856    42.4348 </r>
       <r>     0.7314     2.9245    43.0434 </r>
       <r>     0.9394     2.7375    43.6130 </r>
       <r>     1.1475     3.9974    44.4448 </r>
       <r>     1.3556     4.2204    45.3230 </r>
       <r>     1.5637     4.1531    46.1872 </r>
       <r>     1.7718     6.3472    47.5079 </r>
       <r>     1.9799     9.2658    49.4360 </r>
       <r>     2.1879    13.2398    52.1910 </r>
       <r>     2.3960    17.3623    55.8038 </r>
       <r>     2.6041    20.8816    60.1490 </r>
       <r>     2.8122    24.8725    65.3246 </r>
       <r>     3.0203    27.5563    71.0586 </r>
       <r>     3.2284    28.5850    77.0067 </r>
       <r>     3.4365    29.4070    83.1259 </r>
       <r>     3.6445    29.8995    89.3475 </r>
       <r>     3.8526    29.0696    95.3964 </r>
       <r>     4.0607    24.6557   100.5269 </r>
       <r>     4.2688    24.6076   105.6474 </r>
       <r>     4.4769    33.3779   112.5928 </r>
       <r>     4.6850    38.5316   120.6106 </r>
       <r>     4.8930    39.8565   128.9042 </r>
       <r>     5.1011    38.4111   136.8969 </r>
       <r>     5.3092    35.0890   144.1984 </r>
       <r>     5.5173    35.5004   151.5855 </r>
       <r>     5.7254    37.7714   159.4451 </r>
       <r>     5.9335    39.9196   167.7518 </r>
       <r>     6.1416    39.5676   175.9852 </r>
       <r>     6.3496    37.6808   183.8260 </r>
       <r>     6.5577    33.2040   190.7352 </r>
       <r>     6.7658    27.7015   196.4995 </r>
       <r>     6.9739    22.4496   201.1709 </r>
       <r>     7.1820    17.0405   204.7168 </r>
       <r>     7.3901    15.8050   208.0056 </r>
       <r>     7.5981    15.9638   211.3274 </r>
       <r>     7.8062    18.0478   215.0829 </r>
       <r>     8.0143    20.3722   219.3220 </r>
       <r>     8.2224    22.8978   224.0867 </r>
       <r>     8.4305    26.2790   229.5549 </r>
       <r>     8.6386    23.4079   234.4258 </r>
       <r>     8.8467    17.1284   237.9899 </r>
       <r>     9.0547     8.7317   239.8069 </r>
       <r>     9.2628     1.1111   240.0381 </r>
       <r>     9.4709    -0.1656   240.0036 </r>
       <r>     9.6790    -0.0172   240.0000 </r>
       <r>     9.8871    -0.0002   240.0000 </r>
       <r>    10.0952    -0.0000   240.0000 </r>
       <r>    10.3032    -0.0000   240.0000 </r>
       <r>    10.5113    -0.0000   240.0000 </r>
       <r>    10.7194     0.0000   240.0000 </r>
       <r>    10.9275     0.0000   240.0000 </r>
       <r>    11.1356     0.0000   240.0000 </r>
       <r>    11.3437     0.0000   240.0000 </r>
       <r>    11.5518     0.0000   240.0000 </r>
       <r>    11.7598     0.0000   240.0000 </r>
       <r>    11.9679     0.0000   240.0000 </r>
      </set>
     </set>
    </array>
   </total>
  </dos>
 </calculation>
 <structure name="finalpos" >
  <crystal>
   <varray name="basis" >
    <v>      -3.15827449      -3.17452386      -3.15858767 </v>
    <v>       1.62438743       1.57782355      -7.93226076 </v>
    <v>       7.96056708      -7.94974561      -1.63085210 </v>
   </varray>
   <i name="volume">    479.79377629 </i>
   <varray name="rec_basis" >
    <v>      -0.13679346      -0.12608783      -0.05309330 </v>
    <v>       0.04154449       0.06314135      -0.10500030 </v>
    <v>       0.06287044      -0.06290833       0.00036152 </v>
   </varray>
  </crystal>
  <varray name="positions" >
   <v>       0.63566153       0.26236353       0.40246423 </v>
   <v>       0.50358266      -0.00072381      -0.00258525 </v>
   <v>      -0.00129351       0.00045449       0.00634909 </v>
   <v>       0.09528599       0.20329403       0.79921631 </v>
   <v>       0.03607546       0.06322045       0.58674526 </v>
   <v>       0.90563575       0.79827731       0.20584681 </v>
   <v>       0.79621220       0.59597715       0.39686343 </v>
   <v>       0.73134812       0.46424211       0.20249217 </v>
   <v>       0.66455423       0.33776390      -0.00070810 </v>
   <v>       0.37582460       0.72959740       0.59905273 </v>
   <v>       0.13669444       0.27577719       0.40077919 </v>
   <v>       0.83547909       0.66230537       0.00147725 </v>
   <v>       0.92826231       0.87091015       0.79499611 </v>
   <v>       0.55720151       0.13629947       0.19611219 </v>
   <v>       0.41321537       0.79419889       0.19692223 </v>
   <v>       0.43576623       0.85776628       0.79497978 </v>
   <v>       0.28435383       0.62133331       0.40192041 </v>
   <v>       0.86289536       0.73999029       0.58954179 </v>
   <v>       0.48589471       0.92952029       0.40617391 </v>
   <v>       0.16971863       0.33079922       0.00564299 </v>
   <v>       0.27047979       0.53237978       0.79612563 </v>
   <v>       0.19631700       0.39779891       0.59334351 </v>
   <v>       0.05757884       0.12816054       0.22603200 </v>
   <v>       0.77295499       0.52713186       0.79951115 </v>
   <v>       0.69159070       0.40918079       0.60016898 </v>
   <v>       0.59882328       0.20115074       0.79597035 </v>
   <v>       0.52939137       0.07116898       0.60256987 </v>
   <v>       0.33410677       0.65732993       0.00022487 </v>
   <v>       0.22972208       0.46899811       0.20177112 </v>
  </varray>
 </structure>
</modeling>
