  29  29   0   0
  0.1632129E+02  0.5473281E-09  0.8209921E-09  0.1128346E-08  0.5000000E-15
  1.000000000000000E-004
  CAR 
 Nb - Mo - Ta - Ti - V SQS               
     11.67813276    -50.63540397  301      6.44504903      1.00000000
    -50.635  0.0000E+00  0.0000E+00
    -50.428  0.0000E+00  0.0000E+00
    -50.220  0.0000E+00  0.0000E+00
    -50.012  0.0000E+00  0.0000E+00
    -49.805  0.0000E+00  0.0000E+00
    -49.597 -0.5478E-35 -0.1138E-35
    -49.389 -0.2037E-27 -0.4232E-28
    -49.181 -0.8612E-21 -0.1789E-21
    -48.974 -0.4008E-15 -0.8325E-16
    -48.766 -0.2109E-10 -0.4381E-11
    -48.558 -0.1211E-06 -0.2516E-07
    -48.351 -0.7166E-04 -0.1491E-04
    -48.143 -0.3570E-02 -0.7564E-03
    -47.935  0.9294E-02  0.1174E-02
    -47.727  0.1456E+00  0.3142E-01
    -47.520  0.3057E+00  0.9491E-01
    -47.312  0.4080E+00  0.1797E+00
    -47.104  0.1120E+00  0.2029E+00
    -46.897 -0.1309E-01  0.2002E+00
    -46.689 -0.9643E-03  0.2000E+00
    -46.481 -0.4749E-05  0.2000E+00
    -46.273 -0.2412E-08  0.2000E+00
    -46.066 -0.1359E-12  0.2000E+00
    -45.858  0.0000E+00  0.2000E+00
    -45.650  0.0000E+00  0.2000E+00
    -45.443  0.0000E+00  0.2000E+00
    -45.235  0.0000E+00  0.2000E+00
    -45.027  0.0000E+00  0.2000E+00
    -44.819  0.0000E+00  0.2000E+00
    -44.612  0.0000E+00  0.2000E+00
    -44.404  0.0000E+00  0.2000E+00
    -44.196  0.0000E+00  0.2000E+00
    -43.989  0.0000E+00  0.2000E+00
    -43.781  0.0000E+00  0.2000E+00
    -43.573  0.0000E+00  0.2000E+00
    -43.365  0.0000E+00  0.2000E+00
    -43.158  0.0000E+00  0.2000E+00
    -42.950  0.0000E+00  0.2000E+00
    -42.742  0.0000E+00  0.2000E+00
    -42.535  0.0000E+00  0.2000E+00
    -42.327  0.0000E+00  0.2000E+00
    -42.119  0.0000E+00  0.2000E+00
    -41.912  0.0000E+00  0.2000E+00
    -41.704  0.0000E+00  0.2000E+00
    -41.496  0.0000E+00  0.2000E+00
    -41.288  0.0000E+00  0.2000E+00
    -41.081  0.0000E+00  0.2000E+00
    -40.873  0.0000E+00  0.2000E+00
    -40.665  0.0000E+00  0.2000E+00
    -40.458  0.0000E+00  0.2000E+00
    -40.250  0.0000E+00  0.2000E+00
    -40.042  0.0000E+00  0.2000E+00
    -39.834  0.0000E+00  0.2000E+00
    -39.627  0.0000E+00  0.2000E+00
    -39.419  0.0000E+00  0.2000E+00
    -39.211  0.0000E+00  0.2000E+00
    -39.004  0.0000E+00  0.2000E+00
    -38.796  0.0000E+00  0.2000E+00
    -38.588  0.0000E+00  0.2000E+00
    -38.380  0.0000E+00  0.2000E+00
    -38.173  0.0000E+00  0.2000E+00
    -37.965  0.0000E+00  0.2000E+00
    -37.757  0.0000E+00  0.2000E+00
    -37.550  0.0000E+00  0.2000E+00
    -37.342  0.0000E+00  0.2000E+00
    -37.134  0.0000E+00  0.2000E+00
    -36.926  0.0000E+00  0.2000E+00
    -36.719  0.0000E+00  0.2000E+00
    -36.511  0.0000E+00  0.2000E+00
    -36.303  0.0000E+00  0.2000E+00
    -36.096  0.0000E+00  0.2000E+00
    -35.888  0.0000E+00  0.2000E+00
    -35.680  0.0000E+00  0.2000E+00
    -35.472  0.0000E+00  0.2000E+00
    -35.265  0.0000E+00  0.2000E+00
    -35.057  0.0000E+00  0.2000E+00
    -34.849  0.0000E+00  0.2000E+00
    -34.642  0.0000E+00  0.2000E+00
    -34.434  0.0000E+00  0.2000E+00
    -34.226  0.0000E+00  0.2000E+00
    -34.018  0.0000E+00  0.2000E+00
    -33.811  0.0000E+00  0.2000E+00
    -33.603  0.0000E+00  0.2000E+00
    -33.395  0.0000E+00  0.2000E+00
    -33.188  0.0000E+00  0.2000E+00
    -32.980  0.0000E+00  0.2000E+00
    -32.772  0.0000E+00  0.2000E+00
    -32.564  0.0000E+00  0.2000E+00
    -32.357  0.0000E+00  0.2000E+00
    -32.149  0.0000E+00  0.2000E+00
    -31.941  0.0000E+00  0.2000E+00
    -31.734  0.0000E+00  0.2000E+00
    -31.526  0.0000E+00  0.2000E+00
    -31.318  0.0000E+00  0.2000E+00
    -31.110  0.0000E+00  0.2000E+00
    -30.903  0.0000E+00  0.2000E+00
    -30.695  0.0000E+00  0.2000E+00
    -30.487  0.0000E+00  0.2000E+00
    -30.280  0.0000E+00  0.2000E+00
    -30.072  0.0000E+00  0.2000E+00
    -29.864  0.0000E+00  0.2000E+00
    -29.657  0.0000E+00  0.2000E+00
    -29.449  0.0000E+00  0.2000E+00
    -29.241  0.0000E+00  0.2000E+00
    -29.033  0.0000E+00  0.2000E+00
    -28.826  0.0000E+00  0.2000E+00
    -28.618  0.0000E+00  0.2000E+00
    -28.410  0.0000E+00  0.2000E+00
    -28.203  0.0000E+00  0.2000E+00
    -27.995  0.0000E+00  0.2000E+00
    -27.787  0.0000E+00  0.2000E+00
    -27.579  0.0000E+00  0.2000E+00
    -27.372  0.0000E+00  0.2000E+00
    -27.164  0.0000E+00  0.2000E+00
    -26.956  0.0000E+00  0.2000E+00
    -26.749  0.0000E+00  0.2000E+00
    -26.541  0.0000E+00  0.2000E+00
    -26.333  0.0000E+00  0.2000E+00
    -26.125 -0.7964E-36  0.2000E+00
    -25.918 -0.6840E-28  0.2000E+00
    -25.710 -0.3276E-21  0.2000E+00
    -25.502 -0.1783E-15  0.2000E+00
    -25.295 -0.1076E-10  0.2000E+00
    -25.087 -0.7360E-07  0.2000E+00
    -24.879 -0.5339E-04  0.2000E+00
    -24.671 -0.3472E-02  0.1993E+00
    -24.464  0.5423E-02  0.2004E+00
    -24.256  0.1687E+00  0.2354E+00
    -24.048  0.2109E+00  0.2792E+00
    -23.841  0.5600E+00  0.3956E+00
    -23.633  0.7738E+00  0.5563E+00
    -23.425  0.6728E+00  0.6960E+00
    -23.217  0.2949E+00  0.7573E+00
    -23.010  0.1781E+00  0.7943E+00
    -22.802  0.3207E-01  0.8010E+00
    -22.594 -0.4169E-02  0.8001E+00
    -22.387 -0.4037E-03  0.8000E+00
    -22.179 -0.3069E-05  0.8000E+00
    -21.971 -0.2496E-08  0.8000E+00
    -21.763 -0.2271E-12  0.8000E+00
    -21.556  0.0000E+00  0.8000E+00
    -21.348  0.0000E+00  0.8000E+00
    -21.140  0.0000E+00  0.8000E+00
    -20.933  0.0000E+00  0.8000E+00
    -20.725  0.0000E+00  0.8000E+00
    -20.517  0.0000E+00  0.8000E+00
    -20.309  0.0000E+00  0.8000E+00
    -20.102  0.0000E+00  0.8000E+00
    -19.894  0.0000E+00  0.8000E+00
    -19.686  0.0000E+00  0.8000E+00
    -19.479  0.0000E+00  0.8000E+00
    -19.271  0.0000E+00  0.8000E+00
    -19.063  0.0000E+00  0.8000E+00
    -18.856  0.0000E+00  0.8000E+00
    -18.648  0.0000E+00  0.8000E+00
    -18.440  0.0000E+00  0.8000E+00
    -18.232  0.0000E+00  0.8000E+00
    -18.025  0.0000E+00  0.8000E+00
    -17.817  0.0000E+00  0.8000E+00
    -17.609  0.0000E+00  0.8000E+00
    -17.402  0.0000E+00  0.8000E+00
    -17.194  0.0000E+00  0.8000E+00
    -16.986  0.0000E+00  0.8000E+00
    -16.778  0.0000E+00  0.8000E+00
    -16.571  0.0000E+00  0.8000E+00
    -16.363  0.0000E+00  0.8000E+00
    -16.155  0.0000E+00  0.8000E+00
    -15.948  0.0000E+00  0.8000E+00
    -15.740  0.0000E+00  0.8000E+00
    -15.532  0.0000E+00  0.8000E+00
    -15.324  0.0000E+00  0.8000E+00
    -15.117  0.0000E+00  0.8000E+00
    -14.909  0.0000E+00  0.8000E+00
    -14.701  0.0000E+00  0.8000E+00
    -14.494  0.0000E+00  0.8000E+00
    -14.286  0.0000E+00  0.8000E+00
    -14.078  0.0000E+00  0.8000E+00
    -13.870  0.0000E+00  0.8000E+00
    -13.663  0.0000E+00  0.8000E+00
    -13.455  0.0000E+00  0.8000E+00
    -13.247  0.0000E+00  0.8000E+00
    -13.040  0.0000E+00  0.8000E+00
    -12.832  0.0000E+00  0.8000E+00
    -12.624  0.0000E+00  0.8000E+00
    -12.416  0.0000E+00  0.8000E+00
    -12.209  0.0000E+00  0.8000E+00
    -12.001  0.0000E+00  0.8000E+00
    -11.793  0.0000E+00  0.8000E+00
    -11.586  0.0000E+00  0.8000E+00
    -11.378  0.0000E+00  0.8000E+00
    -11.170  0.0000E+00  0.8000E+00
    -10.962  0.0000E+00  0.8000E+00
    -10.755  0.0000E+00  0.8000E+00
    -10.547  0.0000E+00  0.8000E+00
    -10.339  0.0000E+00  0.8000E+00
    -10.132  0.0000E+00  0.8000E+00
     -9.924  0.0000E+00  0.8000E+00
     -9.716  0.0000E+00  0.8000E+00
     -9.508  0.0000E+00  0.8000E+00
     -9.301  0.0000E+00  0.8000E+00
     -9.093  0.0000E+00  0.8000E+00
     -8.885  0.0000E+00  0.8000E+00
     -8.678  0.0000E+00  0.8000E+00
     -8.470  0.0000E+00  0.8000E+00
     -8.262  0.0000E+00  0.8000E+00
     -8.054  0.0000E+00  0.8000E+00
     -7.847  0.0000E+00  0.8000E+00
     -7.639  0.0000E+00  0.8000E+00
     -7.431  0.0000E+00  0.8000E+00
     -7.224  0.0000E+00  0.8000E+00
     -7.016  0.0000E+00  0.8000E+00
     -6.808  0.0000E+00  0.8000E+00
     -6.601  0.0000E+00  0.8000E+00
     -6.393  0.0000E+00  0.8000E+00
     -6.185  0.0000E+00  0.8000E+00
     -5.977  0.0000E+00  0.8000E+00
     -5.770  0.0000E+00  0.8000E+00
     -5.562  0.0000E+00  0.8000E+00
     -5.354  0.0000E+00  0.8000E+00
     -5.147  0.0000E+00  0.8000E+00
     -4.939  0.0000E+00  0.8000E+00
     -4.731  0.0000E+00  0.8000E+00
     -4.523  0.0000E+00  0.8000E+00
     -4.316  0.0000E+00  0.8000E+00
     -4.108  0.0000E+00  0.8000E+00
     -3.900  0.0000E+00  0.8000E+00
     -3.693  0.0000E+00  0.8000E+00
     -3.485  0.0000E+00  0.8000E+00
     -3.277  0.0000E+00  0.8000E+00
     -3.069  0.0000E+00  0.8000E+00
     -2.862  0.0000E+00  0.8000E+00
     -2.654  0.0000E+00  0.8000E+00
     -2.446  0.0000E+00  0.8000E+00
     -2.239  0.0000E+00  0.8000E+00
     -2.031 -0.1123E-31  0.8000E+00
     -1.823 -0.8588E-25  0.8000E+00
     -1.615 -0.7609E-19  0.8000E+00
     -1.408 -0.7547E-14  0.8000E+00
     -1.200 -0.8919E-10  0.8000E+00
     -0.992 -0.1228E-06  0.8000E+00
     -0.785 -0.1959E-04  0.8000E+00
     -0.577 -0.3072E-03  0.7999E+00
     -0.369  0.1507E-02  0.8002E+00
     -0.161  0.1430E-01  0.8032E+00
      0.046  0.2476E-01  0.8084E+00
      0.254  0.3202E-01  0.8150E+00
      0.462  0.4310E-01  0.8240E+00
      0.669  0.3622E-01  0.8315E+00
      0.877  0.5079E-01  0.8420E+00
      1.085  0.6300E-01  0.8551E+00
      1.293  0.6108E-01  0.8678E+00
      1.500  0.7316E-01  0.8830E+00
      1.708  0.8662E-01  0.9010E+00
      1.916  0.1050E+00  0.9228E+00
      2.123  0.1196E+00  0.9476E+00
      2.331  0.1830E+00  0.9857E+00
      2.539  0.2986E+00  0.1048E+01
      2.747  0.3909E+00  0.1129E+01
      2.954  0.4841E+00  0.1229E+01
      3.162  0.5578E+00  0.1345E+01
      3.370  0.6003E+00  0.1470E+01
      3.577  0.6251E+00  0.1600E+01
      3.785  0.6189E+00  0.1728E+01
      3.993  0.6096E+00  0.1855E+01
      4.201  0.5808E+00  0.1976E+01
      4.408  0.5276E+00  0.2085E+01
      4.616  0.6189E+00  0.2214E+01
      4.824  0.7578E+00  0.2371E+01
      5.031  0.8077E+00  0.2539E+01
      5.239  0.8099E+00  0.2707E+01
      5.447  0.8006E+00  0.2873E+01
      5.654  0.7856E+00  0.3037E+01
      5.862  0.8380E+00  0.3211E+01
      6.070  0.8664E+00  0.3391E+01
      6.278  0.8467E+00  0.3567E+01
      6.485  0.7880E+00  0.3730E+01
      6.693  0.6778E+00  0.3871E+01
      6.901  0.5568E+00  0.3987E+01
      7.108  0.4393E+00  0.4078E+01
      7.316  0.4123E+00  0.4164E+01
      7.524  0.3771E+00  0.4242E+01
      7.732  0.3911E+00  0.4323E+01
      7.939  0.4487E+00  0.4416E+01
      8.147  0.5343E+00  0.4527E+01
      8.355  0.5930E+00  0.4650E+01
      8.562  0.4866E+00  0.4752E+01
      8.770  0.2195E+00  0.4797E+01
      8.978  0.1878E-01  0.4801E+01
      9.186 -0.4649E-02  0.4800E+01
      9.393 -0.2694E-03  0.4800E+01
      9.601 -0.1884E-05  0.4800E+01
      9.809 -0.1825E-08  0.4800E+01
     10.016 -0.2318E-12  0.4800E+01
     10.224 -0.3241E-17  0.4800E+01
     10.432  0.0000E+00  0.4800E+01
     10.640  0.0000E+00  0.4800E+01
     10.847  0.0000E+00  0.4800E+01
     11.055  0.0000E+00  0.4800E+01
     11.263  0.0000E+00  0.4800E+01
     11.470  0.0000E+00  0.4800E+01
     11.678  0.0000E+00  0.4800E+01
