   29   29   50    1
  0.1632129E+02  0.5473281E-09  0.8209921E-09  0.1128346E-08  0.5000000E-15
  1.000000000000000E-004
  CAR 
 Nb - Mo - Ta - Ti - V SQS               
    185    172    120
 
  0.0000000E+00  0.0000000E+00  0.0000000E+00  0.2915452E-02
    1      -47.802970   1.000000
    2      -47.603829   1.000000
    3      -47.522813   1.000000
    4      -47.389894   1.000000
    5      -47.328562   1.000000
    6      -24.331940   1.000000
    7      -24.290424   1.000000
    8      -23.970799   1.000000
    9      -23.940317   1.000000
   10      -23.931475   1.000000
   11      -23.788669   1.000000
   12      -23.752076   1.000000
   13      -23.701405   1.000000
   14      -23.662317   1.000000
   15      -23.593786   1.000000
   16      -23.520031   1.000000
   17      -23.492733   1.000000
   18      -23.407761   1.000000
   19      -23.189954   1.000000
   20      -22.989123   1.000000
   21       -0.393064   1.000000
   22        0.906137   1.000000
   23        1.281225   1.000000
   24        2.071930   1.000000
   25        2.211358   1.000000
   26        2.296015   1.000000
   27        2.427952   1.000000
   28        2.491586   1.000000
   29        2.555516   1.000000
   30        2.627524   1.000000
   31        2.715172   1.000000
   32        2.745569   1.000000
   33        2.833367   1.000000
   34        2.959990   1.000000
   35        3.005071   1.000000
   36        3.069863   1.000000
   37        3.118117   1.000000
   38        3.234207   1.000000
   39        3.339248   1.000000
   40        3.402911   1.000000
   41        3.444806   1.000000
   42        3.570332   1.000000
   43        3.611699   1.000000
   44        3.653423   1.000000
   45        3.669090   1.000000
   46        3.791975   1.000000
   47        3.848644   1.000000
   48        3.953786   1.000000
   49        4.036402   1.000000
   50        4.086369   1.000000
   51        4.164450   1.000000
   52        4.215322   1.000000
   53        4.264704   1.000000
   54        4.404908   1.000000
   55        4.445179   1.000000
   56        4.501487   1.000000
   57        4.561819   1.000000
   58        4.667632   1.000000
   59        4.675076   1.000000
   60        4.806144   1.000000
   61        4.812882   1.000000
   62        4.839364   1.000000
   63        4.863340   1.000000
   64        4.950228   1.000000
   65        4.997314   1.000000
   66        5.055510   1.000000
   67        5.083752   1.000000
   68        5.139231   1.000000
   69        5.193648   1.000000
   70        5.244584   1.000000
   71        5.265821   1.000000
   72        5.385047   1.000000
   73        5.422799   1.000000
   74        5.492441   1.000000
   75        5.695579   1.000001
   76        5.725077   1.000002
   77        5.771175   1.000010
   78        5.801151   1.000026
   79        5.838385   1.000077
   80        5.870701   1.000188
   81        5.944129   1.001134
   82        5.980776   1.002477
   83        6.014158   1.004704
   84        6.106928   1.018959
   85        6.177278   1.033748
   86        6.209787   1.035072
   87        6.351638   0.851470
   88        6.358709   0.830313
   89        6.401260   0.680454
   90        6.526955   0.183550
   91        6.556843   0.099248
   92        6.618601  -0.005409
   93        6.698679  -0.035184
   94        6.792379  -0.016980
   95        6.829266  -0.010230
   96        6.898334  -0.003083
   97        7.018615  -0.000192
   98        7.130663  -0.000007
   99        7.185931  -0.000001
  100        7.241150  -0.000000
  101        7.243215  -0.000000
  102        7.329202  -0.000000
  103        7.454620  -0.000000
  104        7.650217  -0.000000
  105        7.714608  -0.000000
  106        7.871112  -0.000000
  107        7.998217  -0.000000
  108        8.101628  -0.000000
  109        8.230643  -0.000000
  110        8.278236  -0.000000
  111        8.377885  -0.000000
  112        8.429809  -0.000000
  113        8.452758  -0.000000
  114        8.518820  -0.000000
  115        8.549145  -0.000000
  116        8.602356  -0.000000
  117        8.624961  -0.000000
  118        8.671650  -0.000000
  119        8.718288  -0.000000
  120        8.750849  -0.000000
 
  0.1428571E+00  0.0000000E+00 -0.1561251E-16  0.5830904E-02
    1      -47.802871   1.000000
    2      -47.599274   1.000000
    3      -47.522578   1.000000
    4      -47.389904   1.000000
    5      -47.333365   1.000000
    6      -24.314494   1.000000
    7      -24.250849   1.000000
    8      -23.971235   1.000000
    9      -23.938929   1.000000
   10      -23.930324   1.000000
   11      -23.787258   1.000000
   12      -23.749904   1.000000
   13      -23.701668   1.000000
   14      -23.663581   1.000000
   15      -23.597515   1.000000
   16      -23.525639   1.000000
   17      -23.492240   1.000000
   18      -23.410347   1.000000
   19      -23.190521   1.000000
   20      -23.055611   1.000000
   21       -0.228067   1.000000
   22        1.053058   1.000000
   23        1.418220   1.000000
   24        2.096856   1.000000
   25        2.301437   1.000000
   26        2.428422   1.000000
   27        2.523420   1.000000
   28        2.596782   1.000000
   29        2.656826   1.000000
   30        2.678799   1.000000
   31        2.798286   1.000000
   32        2.845001   1.000000
   33        2.949452   1.000000
   34        3.028172   1.000000
   35        3.097295   1.000000
   36        3.126866   1.000000
   37        3.219566   1.000000
   38        3.272027   1.000000
   39        3.388087   1.000000
   40        3.412404   1.000000
   41        3.484744   1.000000
   42        3.523685   1.000000
   43        3.676384   1.000000
   44        3.735831   1.000000
   45        3.774154   1.000000
   46        3.863289   1.000000
   47        3.900275   1.000000
   48        3.969528   1.000000
   49        4.020596   1.000000
   50        4.126670   1.000000
   51        4.183784   1.000000
   52        4.227284   1.000000
   53        4.308322   1.000000
   54        4.421122   1.000000
   55        4.456529   1.000000
   56        4.507407   1.000000
   57        4.603779   1.000000
   58        4.677278   1.000000
   59        4.749885   1.000000
   60        4.825690   1.000000
   61        4.861284   1.000000
   62        4.895045   1.000000
   63        4.929453   1.000000
   64        5.015672   1.000000
   65        5.055155   1.000000
   66        5.090311   1.000000
   67        5.134252   1.000000
   68        5.181903   1.000000
   69        5.221046   1.000000
   70        5.251842   1.000000
   71        5.373825   1.000000
   72        5.419072   1.000000
   73        5.432341   1.000000
   74        5.540761   1.000000
   75        5.600835   1.000000
   76        5.641475   1.000000
   77        5.701973   1.000001
   78        5.725276   1.000002
   79        5.816367   1.000041
   80        5.867547   1.000173
   81        5.935754   1.000938
   82        5.955406   1.001455
   83        6.068658   1.011486
   84        6.091012   1.015604
   85        6.146317   1.027933
   86        6.200817   1.035456
   87        6.283239   0.992327
   88        6.348267   0.861134
   89        6.390232   0.722570
   90        6.449131   0.482730
   91        6.489922   0.315322
   92        6.523916   0.193314
   93        6.563690   0.083057
   94        6.638801  -0.021574
   95        6.701008  -0.035025
   96        6.799105  -0.015600
   97        6.851219  -0.007227
   98        6.955667  -0.000910
   99        7.009845  -0.000242
  100        7.110860  -0.000013
  101        7.158126  -0.000003
  102        7.221664  -0.000000
  103        7.257707  -0.000000
  104        7.357375  -0.000000
  105        7.634653  -0.000000
  106        7.727437  -0.000000
  107        7.812271  -0.000000
  108        7.947863  -0.000000
  109        7.998878  -0.000000
  110        8.136633  -0.000000
  111        8.145121  -0.000000
  112        8.232319  -0.000000
  113        8.276884  -0.000000
  114        8.341779  -0.000000
  115        8.374300  -0.000000
  116        8.418200  -0.000000
  117        8.527781  -0.000000
  118        8.561224  -0.000000
  119        8.602456  -0.000000
  120        8.636421  -0.000000
 
  0.2857143E+00  0.1387779E-16  0.3469447E-17  0.5830904E-02
    1      -47.802646   1.000000
    2      -47.588404   1.000000
    3      -47.521984   1.000000
    4      -47.390083   1.000000
    5      -47.344702   1.000000
    6      -24.310605   1.000000
    7      -24.098050   1.000000
    8      -23.972366   1.000000
    9      -23.939248   1.000000
   10      -23.919651   1.000000
   11      -23.785478   1.000000
   12      -23.743214   1.000000
   13      -23.702063   1.000000
   14      -23.666129   1.000000
   15      -23.605769   1.000000
   16      -23.539123   1.000000
   17      -23.492283   1.000000
   18      -23.417858   1.000000
   19      -23.244540   1.000000
   20      -23.182594   1.000000
   21        0.241276   1.000000
   22        1.446476   1.000000
   23        1.782306   1.000000
   24        2.204178   1.000000
   25        2.465827   1.000000
   26        2.552598   1.000000
   27        2.693190   1.000000
   28        2.809475   1.000000
   29        2.859215   1.000000
   30        2.936350   1.000000
   31        2.988640   1.000000
   32        3.076565   1.000000
   33        3.134194   1.000000
   34        3.192348   1.000000
   35        3.266222   1.000000
   36        3.316774   1.000000
   37        3.339855   1.000000
   38        3.374396   1.000000
   39        3.504715   1.000000
   40        3.529780   1.000000
   41        3.623722   1.000000
   42        3.641099   1.000000
   43        3.691227   1.000000
   44        3.850372   1.000000
   45        3.905514   1.000000
   46        3.987402   1.000000
   47        4.019084   1.000000
   48        4.091643   1.000000
   49        4.202590   1.000000
   50        4.240451   1.000000
   51        4.283733   1.000000
   52        4.331939   1.000000
   53        4.413468   1.000000
   54        4.483883   1.000000
   55        4.521280   1.000000
   56        4.539437   1.000000
   57        4.658340   1.000000
   58        4.745285   1.000000
   59        4.794701   1.000000
   60        4.854381   1.000000
   61        4.881255   1.000000
   62        4.971546   1.000000
   63        5.004804   1.000000
   64        5.062511   1.000000
   65        5.131558   1.000000
   66        5.147064   1.000000
   67        5.220500   1.000000
   68        5.254085   1.000000
   69        5.317571   1.000000
   70        5.350993   1.000000
   71        5.373770   1.000000
   72        5.437758   1.000000
   73        5.460726   1.000000
   74        5.532590   1.000000
   75        5.596640   1.000000
   76        5.616380   1.000000
   77        5.691013   1.000001
   78        5.708374   1.000001
   79        5.795210   1.000022
   80        5.840839   1.000083
   81        5.871956   1.000194
   82        5.912806   1.000547
   83        5.964956   1.001786
   84        6.008976   1.004277
   85        6.047515   1.008318
   86        6.107874   1.019167
   87        6.149579   1.028649
   88        6.240162   1.027481
   89        6.292720   0.979573
   90        6.309751   0.951396
   91        6.387954   0.731021
   92        6.417726   0.614426
   93        6.434369   0.545119
   94        6.470480   0.393349
   95        6.586049   0.038394
   96        6.611603   0.002038
   97        6.640637  -0.022684
   98        6.697336  -0.035261
   99        6.746274  -0.027377
  100        6.785276  -0.018498
  101        6.864881  -0.005728
  102        6.930682  -0.001587
  103        6.998250  -0.000325
  104        7.090979  -0.000024
  105        7.267490  -0.000000
  106        7.402037  -0.000000
  107        7.465157  -0.000000
  108        7.546329  -0.000000
  109        7.595435  -0.000000
  110        7.694038  -0.000000
  111        7.788861  -0.000000
  112        7.888458  -0.000000
  113        7.947628  -0.000000
  114        8.059403  -0.000000
  115        8.121463  -0.000000
  116        8.212606  -0.000000
  117        8.235075  -0.000000
  118        8.339644  -0.000000
  119        8.417981  -0.000000
  120        8.446130  -0.000000
 
  0.4285714E+00  0.5551115E-16 -0.4163336E-16  0.5830904E-02
    1      -47.802466   1.000000
    2      -47.578931   1.000000
    3      -47.521398   1.000000
    4      -47.390529   1.000000
    5      -47.354358   1.000000
    6      -24.310876   1.000000
    7      -23.973554   1.000000
    8      -23.957012   1.000000
    9      -23.938901   1.000000
   10      -23.830324   1.000000
   11      -23.784558   1.000000
   12      -23.736674   1.000000
   13      -23.701877   1.000000
   14      -23.667927   1.000000
   15      -23.615050   1.000000
   16      -23.551752   1.000000
   17      -23.512700   1.000000
   18      -23.481384   1.000000
   19      -23.401054   1.000000
   20      -23.186379   1.000000
   21        0.929026   1.000000
   22        1.660468   1.000000
   23        2.093718   1.000000
   24        2.320896   1.000000
   25        2.410825   1.000000
   26        2.648316   1.000000
   27        2.731058   1.000000
   28        2.891163   1.000000
   29        2.991462   1.000000
   30        3.111245   1.000000
   31        3.179870   1.000000
   32        3.209125   1.000000
   33        3.270511   1.000000
   34        3.346220   1.000000
   35        3.408650   1.000000
   36        3.497043   1.000000
   37        3.504865   1.000000
   38        3.563186   1.000000
   39        3.595487   1.000000
   40        3.679790   1.000000
   41        3.764316   1.000000
   42        3.813828   1.000000
   43        3.932043   1.000000
   44        3.953870   1.000000
   45        3.992050   1.000000
   46        4.057761   1.000000
   47        4.090672   1.000000
   48        4.202865   1.000000
   49        4.263873   1.000000
   50        4.384696   1.000000
   51        4.433793   1.000000
   52        4.490008   1.000000
   53        4.531789   1.000000
   54        4.584208   1.000000
   55        4.618767   1.000000
   56        4.663524   1.000000
   57        4.680074   1.000000
   58        4.732607   1.000000
   59        4.784467   1.000000
   60        4.823496   1.000000
   61        4.881864   1.000000
   62        4.934983   1.000000
   63        4.983503   1.000000
   64        5.053813   1.000000
   65        5.113049   1.000000
   66        5.142878   1.000000
   67        5.240183   1.000000
   68        5.272637   1.000000
   69        5.313141   1.000000
   70        5.325202   1.000000
   71        5.376564   1.000000
   72        5.442974   1.000000
   73        5.471000   1.000000
   74        5.510358   1.000000
   75        5.558552   1.000000
   76        5.612785   1.000000
   77        5.685881   1.000001
   78        5.727827   1.000002
   79        5.754724   1.000006
   80        5.798994   1.000024
   81        5.858536   1.000135
   82        5.888767   1.000301
   83        5.940908   1.001055
   84        5.991361   1.003058
   85        6.017273   1.004976
   86        6.055817   1.009477
   87        6.087796   1.014965
   88        6.124347   1.022903
   89        6.178213   1.033875
   90        6.206253   1.035306
   91        6.231691   1.030742
   92        6.321329   0.928187
   93        6.364950   0.810671
   94        6.377758   0.767654
   95        6.434000   0.546674
   96        6.465940   0.412133
   97        6.542049   0.138251
   98        6.596863   0.021178
   99        6.653733  -0.029066
  100        6.719881  -0.032674
  101        6.813482  -0.012864
  102        6.880422  -0.004333
  103        6.981682  -0.000492
  104        7.012577  -0.000225
  105        7.041621  -0.000103
  106        7.155278  -0.000003
  107        7.241768  -0.000000
  108        7.373296  -0.000000
  109        7.420036  -0.000000
  110        7.514810  -0.000000
  111        7.602803  -0.000000
  112        7.720154  -0.000000
  113        7.770607  -0.000000
  114        7.857712  -0.000000
  115        7.956065  -0.000000
  116        8.000335  -0.000000
  117        8.116718  -0.000000
  118        8.179962  -0.000000
  119        8.222899  -0.000000
  120        8.272135  -0.000000
 
 -0.6938894E-17  0.1428571E+00  0.1040834E-16  0.5830904E-02
    1      -47.802970   1.000000
    2      -47.603825   1.000000
    3      -47.522809   1.000000
    4      -47.389889   1.000000
    5      -47.328557   1.000000
    6      -24.331950   1.000000
    7      -24.290435   1.000000
    8      -23.970812   1.000000
    9      -23.940341   1.000000
   10      -23.931482   1.000000
   11      -23.788735   1.000000
   12      -23.752145   1.000000
   13      -23.701494   1.000000
   14      -23.662339   1.000000
   15      -23.593844   1.000000
   16      -23.520152   1.000000
   17      -23.492773   1.000000
   18      -23.407768   1.000000
   19      -23.189960   1.000000
   20      -22.989132   1.000000
   21       -0.322071   1.000000
   22        0.947514   1.000000
   23        1.343036   1.000000
   24        1.837138   1.000000
   25        2.195777   1.000000
   26        2.313327   1.000000
   27        2.410826   1.000000
   28        2.497702   1.000000
   29        2.575953   1.000000
   30        2.627633   1.000000
   31        2.716381   1.000000
   32        2.787554   1.000000
   33        2.833962   1.000000
   34        2.923637   1.000000
   35        2.984324   1.000000
   36        3.034120   1.000000
   37        3.179551   1.000000
   38        3.253259   1.000000
   39        3.321816   1.000000
   40        3.370744   1.000000
   41        3.435727   1.000000
   42        3.536966   1.000000
   43        3.629946   1.000000
   44        3.687934   1.000000
   45        3.751099   1.000000
   46        3.825904   1.000000
   47        3.895609   1.000000
   48        3.927586   1.000000
   49        4.018910   1.000000
   50        4.098841   1.000000
   51        4.151004   1.000000
   52        4.172811   1.000000
   53        4.268302   1.000000
   54        4.361518   1.000000
   55        4.471332   1.000000
   56        4.533295   1.000000
   57        4.625617   1.000000
   58        4.685936   1.000000
   59        4.719990   1.000000
   60        4.782891   1.000000
   61        4.839979   1.000000
   62        4.879519   1.000000
   63        4.919435   1.000000
   64        4.990370   1.000000
   65        5.003506   1.000000
   66        5.077204   1.000000
   67        5.097494   1.000000
   68        5.158012   1.000000
   69        5.238062   1.000000
   70        5.279058   1.000000
   71        5.324000   1.000000
   72        5.386179   1.000000
   73        5.459906   1.000000
   74        5.477379   1.000000
   75        5.635277   1.000000
   76        5.682779   1.000000
   77        5.746590   1.000005
   78        5.789344   1.000018
   79        5.878940   1.000233
   80        5.885495   1.000277
   81        5.941431   1.001068
   82        5.987268   1.002821
   83        6.022735   1.005484
   84        6.094213   1.016253
   85        6.167239   1.032165
   86        6.194308   1.035334
   87        6.269727   1.007134
   88        6.303779   0.962070
   89        6.370205   0.793446
   90        6.483466   0.340723
   91        6.495990   0.292007
   92        6.542770   0.136226
   93        6.634269  -0.018591
   94        6.679410  -0.034994
   95        6.801391  -0.015144
   96        6.902026  -0.002867
   97        6.984005  -0.000464
   98        7.142804  -0.000005
   99        7.240460  -0.000000
  100        7.281250  -0.000000
  101        7.342656  -0.000000
  102        7.414380  -0.000000
  103        7.478858  -0.000000
  104        7.543961  -0.000000
  105        7.710027  -0.000000
  106        7.790649  -0.000000
  107        7.942232  -0.000000
  108        8.032321  -0.000000
  109        8.095024  -0.000000
  110        8.192954  -0.000000
  111        8.269079  -0.000000
  112        8.337729  -0.000000
  113        8.384542  -0.000000
  114        8.434255  -0.000000
  115        8.494181  -0.000000
  116        8.504497  -0.000000
  117        8.601315  -0.000000
  118        8.638534  -0.000000
  119        8.654034  -0.000000
  120        8.689209  -0.000000
 
  0.1428571E+00  0.1428571E+00 -0.1387779E-16  0.5830904E-02
    1      -47.802871   1.000000
    2      -47.599277   1.000000
    3      -47.522582   1.000000
    4      -47.389909   1.000000
    5      -47.333370   1.000000
    6      -24.314488   1.000000
    7      -24.250832   1.000000
    8      -23.971230   1.000000
    9      -23.938923   1.000000
   10      -23.930313   1.000000
   11      -23.787224   1.000000
   12      -23.749843   1.000000
   13      -23.701586   1.000000
   14      -23.663556   1.000000
   15      -23.597454   1.000000
   16      -23.525513   1.000000
   17      -23.492203   1.000000
   18      -23.410338   1.000000
   19      -23.190516   1.000000
   20      -23.055602   1.000000
   21       -0.229591   1.000000
   22        1.032491   1.000000
   23        1.432369   1.000000
   24        2.117024   1.000000
   25        2.293584   1.000000
   26        2.422994   1.000000
   27        2.500769   1.000000
   28        2.559006   1.000000
   29        2.603951   1.000000
   30        2.682605   1.000000
   31        2.726001   1.000000
   32        2.848121   1.000000
   33        2.880979   1.000000
   34        3.033567   1.000000
   35        3.084500   1.000000
   36        3.126972   1.000000
   37        3.180664   1.000000
   38        3.272706   1.000000
   39        3.393324   1.000000
   40        3.419010   1.000000
   41        3.487781   1.000000
   42        3.554702   1.000000
   43        3.668838   1.000000
   44        3.727312   1.000000
   45        3.765563   1.000000
   46        3.855126   1.000000
   47        3.932170   1.000000
   48        3.994514   1.000000
   49        4.050016   1.000000
   50        4.125318   1.000000
   51        4.196131   1.000000
   52        4.296166   1.000000
   53        4.350832   1.000000
   54        4.378454   1.000000
   55        4.533504   1.000000
   56        4.560537   1.000000
   57        4.608539   1.000000
   58        4.677309   1.000000
   59        4.717272   1.000000
   60        4.765716   1.000000
   61        4.860441   1.000000
   62        4.882159   1.000000
   63        4.920901   1.000000
   64        4.999870   1.000000
   65        5.033954   1.000000
   66        5.063682   1.000000
   67        5.103946   1.000000
   68        5.142637   1.000000
   69        5.194307   1.000000
   70        5.237224   1.000000
   71        5.306410   1.000000
   72        5.379121   1.000000
   73        5.447388   1.000000
   74        5.526284   1.000000
   75        5.571053   1.000000
   76        5.668133   1.000000
   77        5.701069   1.000001
   78        5.738541   1.000004
   79        5.765045   1.000008
   80        5.837130   1.000075
   81        5.901650   1.000416
   82        5.968314   1.001917
   83        6.042199   1.007633
   84        6.072206   1.012088
   85        6.110005   1.019640
   86        6.189146   1.035029
   87        6.278920   0.997478
   88        6.380302   0.758700
   89        6.424540   0.586278
   90        6.468344   0.402168
   91        6.524566   0.191209
   92        6.534227   0.161053
   93        6.619657  -0.006447
   94        6.665834  -0.032822
   95        6.809802  -0.013535
   96        6.816391  -0.012349
   97        6.891810  -0.003498
   98        6.994692  -0.000356
   99        7.050967  -0.000079
  100        7.114394  -0.000012
  101        7.150759  -0.000004
  102        7.253402  -0.000000
  103        7.310733  -0.000000
  104        7.439619  -0.000000
  105        7.574309  -0.000000
  106        7.623428  -0.000000
  107        7.848883  -0.000000
  108        7.915355  -0.000000
  109        8.005545  -0.000000
  110        8.157535  -0.000000
  111        8.289408  -0.000000
  112        8.372533  -0.000000
  113        8.442173  -0.000000
  114        8.447656  -0.000000
  115        8.494669  -0.000000
  116        8.558505  -0.000000
  117        8.603713  -0.000000
  118        8.674756  -0.000000
  119        8.702075  -0.000000
  120        8.749552  -0.000000
 
  0.2857143E+00  0.1428571E+00  0.2775558E-16  0.5830904E-02
    1      -47.802646   1.000000
    2      -47.588412   1.000000
    3      -47.521992   1.000000
    4      -47.390095   1.000000
    5      -47.344712   1.000000
    6      -24.310590   1.000000
    7      -24.098014   1.000000
    8      -23.972350   1.000000
    9      -23.939248   1.000000
   10      -23.919599   1.000000
   11      -23.785406   1.000000
   12      -23.743047   1.000000
   13      -23.701872   1.000000
   14      -23.666076   1.000000
   15      -23.605619   1.000000
   16      -23.538843   1.000000
   17      -23.492214   1.000000
   18      -23.417829   1.000000
   19      -23.244517   1.000000
   20      -23.182581   1.000000
   21        0.173317   1.000000
   22        1.362001   1.000000
   23        1.749109   1.000000
   24        2.305914   1.000000
   25        2.426084   1.000000
   26        2.551048   1.000000
   27        2.711061   1.000000
   28        2.782483   1.000000
   29        2.819972   1.000000
   30        2.867310   1.000000
   31        2.974794   1.000000
   32        3.014761   1.000000
   33        3.119697   1.000000
   34        3.160136   1.000000
   35        3.261760   1.000000
   36        3.312096   1.000000
   37        3.355654   1.000000
   38        3.404407   1.000000
   39        3.505016   1.000000
   40        3.552061   1.000000
   41        3.636703   1.000000
   42        3.670181   1.000000
   43        3.750712   1.000000
   44        3.842138   1.000000
   45        3.887005   1.000000
   46        3.929487   1.000000
   47        4.027757   1.000000
   48        4.059422   1.000000
   49        4.123876   1.000000
   50        4.208567   1.000000
   51        4.244621   1.000000
   52        4.393963   1.000000
   53        4.453011   1.000000
   54        4.469604   1.000000
   55        4.555936   1.000000
   56        4.642488   1.000000
   57        4.665949   1.000000
   58        4.743356   1.000000
   59        4.782384   1.000000
   60        4.825133   1.000000
   61        4.869996   1.000000
   62        4.925167   1.000000
   63        4.969309   1.000000
   64        5.036534   1.000000
   65        5.105543   1.000000
   66        5.150170   1.000000
   67        5.171099   1.000000
   68        5.195207   1.000000
   69        5.258885   1.000000
   70        5.326217   1.000000
   71        5.333748   1.000000
   72        5.403788   1.000000
   73        5.453402   1.000000
   74        5.519896   1.000000
   75        5.560985   1.000000
   76        5.611396   1.000000
   77        5.654871   1.000000
   78        5.740092   1.000004
   79        5.789713   1.000018
   80        5.832848   1.000066
   81        5.880428   1.000243
   82        5.933179   1.000885
   83        5.981391   1.002508
   84        6.019695   1.005196
   85        6.052985   1.009069
   86        6.160266   1.030866
   87        6.181636   1.034303
   88        6.228201   1.031805
   89        6.262106   1.013863
   90        6.295245   0.975831
   91        6.339691   0.884457
   92        6.386037   0.738057
   93        6.424292   0.587308
   94        6.523300   0.195318
   95        6.563700   0.083036
   96        6.594796   0.024255
   97        6.635404  -0.019372
   98        6.713005  -0.033723
   99        6.734550  -0.029915
  100        6.779616  -0.019746
  101        6.870592  -0.005179
  102        6.970726  -0.000640
  103        7.016702  -0.000202
  104        7.165606  -0.000002
  105        7.343762  -0.000000
  106        7.425254  -0.000000
  107        7.614835  -0.000000
  108        7.687905  -0.000000
  109        7.756345  -0.000000
  110        7.893530  -0.000000
  111        8.031728  -0.000000
  112        8.138996  -0.000000
  113        8.214385  -0.000000
  114        8.244487  -0.000000
  115        8.291930  -0.000000
  116        8.353186  -0.000000
  117        8.369055  -0.000000
  118        8.438300  -0.000000
  119        8.521380  -0.000000
  120        8.541762  -0.000000
 
  0.4285714E+00  0.1428571E+00 -0.2081668E-16  0.5830904E-02
    1      -47.802466   1.000000
    2      -47.578937   1.000000
    3      -47.521405   1.000000
    4      -47.390538   1.000000
    5      -47.354365   1.000000
    6      -24.310865   1.000000
    7      -23.973541   1.000000
    8      -23.956987   1.000000
    9      -23.938900   1.000000
   10      -23.830276   1.000000
   11      -23.784503   1.000000
   12      -23.736534   1.000000
   13      -23.701728   1.000000
   14      -23.667889   1.000000
   15      -23.614918   1.000000
   16      -23.551525   1.000000
   17      -23.512674   1.000000
   18      -23.481355   1.000000
   19      -23.401027   1.000000
   20      -23.186367   1.000000
   21        0.823507   1.000000
   22        1.689209   1.000000
   23        2.017266   1.000000
   24        2.297474   1.000000
   25        2.367642   1.000000
   26        2.483427   1.000000
   27        2.786273   1.000000
   28        3.001140   1.000000
   29        3.029552   1.000000
   30        3.117571   1.000000
   31        3.161424   1.000000
   32        3.216739   1.000000
   33        3.314559   1.000000
   34        3.366954   1.000000
   35        3.422415   1.000000
   36        3.483462   1.000000
   37        3.526252   1.000000
   38        3.576277   1.000000
   39        3.646378   1.000000
   40        3.701058   1.000000
   41        3.726789   1.000000
   42        3.822752   1.000000
   43        3.855558   1.000000
   44        3.925204   1.000000
   45        3.976734   1.000000
   46        4.001334   1.000000
   47        4.096500   1.000000