 running on   96 total cores
 distrk:  each k-point on   96 cores,    1 groups
 distr:  one band on    8 cores,   12 groups
 using from now: INCAR     
 vasp.5.4.4.18Apr17-6-g9f103f2a35 (build Aug 09 2018 16:20:53) complex          
  
 POSCAR found :  5 types and      29 ions
 scaLAPACK will be used

 ----------------------------------------------------------------------------- 
|                                                                             |
|  ADVICE TO THIS USER RUNNING 'VASP/VAMP'   (HEAR YOUR MASTER'S VOICE ...):  |
|                                                                             |
|      You enforced a specific xc-type in the INCAR file,                     |
|      a different type was found on the POTCAR file                          |
|          I HOPE YOU KNOW, WHAT YOU ARE  DOING                               |
|                                                                             |
 ----------------------------------------------------------------------------- 

 LDA part: xc-table for Pade appr. of Perdew
 POSCAR found :  5 types and      29 ions
 POSCAR, INCAR and KPOINTS ok, starting setup
 FFT: planning ...
 WAVECAR not read
 WARNING: random wavefunctions but no delay for mixing, default for NELMDL
 entering main loop
       N       E                     dE             d eps       ncg     rms          rms(c)
DAV:   1     0.223267058043E+04    0.22327E+04   -0.76817E+04 41280   0.172E+03
DAV:   2     0.170737245924E+03   -0.20619E+04   -0.19975E+04 46152   0.461E+02
DAV:   3    -0.263421049149E+03   -0.43416E+03   -0.40975E+03 70380   0.196E+02
DAV:   4    -0.327863021035E+03   -0.64442E+02   -0.59720E+02 73200   0.843E+01
DAV:   5    -0.335559118230E+03   -0.76961E+01   -0.74897E+01 78204   0.295E+01    0.697E+01
DAV:   6    -0.374076545455E+03   -0.38517E+02   -0.53587E+02 76560   0.881E+01    0.877E+01
DAV:   7    -0.320760688395E+03    0.53316E+02   -0.95098E+02 79380   0.180E+02    0.396E+01
DAV:   8    -0.327914074437E+03   -0.71534E+01   -0.32846E+02 66012   0.552E+01    0.284E+01
DAV:   9    -0.315537325687E+03    0.12377E+02   -0.11140E+02 70488   0.478E+01    0.247E+01
DAV:  10    -0.308559509631E+03    0.69778E+01   -0.44811E+01 67296   0.316E+01    0.170E+01
DAV:  11    -0.306615047613E+03    0.19445E+01   -0.87929E+00 67092   0.118E+01    0.144E+01
DAV:  12    -0.305527724342E+03    0.10873E+01   -0.44268E+00 70944   0.892E+00    0.119E+01
DAV:  13    -0.305076847413E+03    0.45088E+00   -0.10352E+00 69324   0.437E+00    0.104E+01
DAV:  14    -0.304977861171E+03    0.98986E-01   -0.27982E-01 68376   0.233E+00    0.988E+00
DAV:  15    -0.304887596001E+03    0.90265E-01   -0.68169E-01 66636   0.323E+00    0.888E+00
DAV:  16    -0.304651303050E+03    0.23629E+00   -0.20187E+00 69960   0.586E+00    0.678E+00
DAV:  17    -0.304608083372E+03    0.43220E-01   -0.26166E+00 67860   0.740E+00    0.563E+00
DAV:  18    -0.304387117369E+03    0.22097E+00   -0.21514E+00 69108   0.583E+00    0.292E+00
DAV:  19    -0.304348565600E+03    0.38552E-01   -0.67149E-01 72324   0.329E+00    0.203E+00
DAV:  20    -0.304330778264E+03    0.17787E-01   -0.33453E-01 72756   0.245E+00    0.157E+00
DAV:  21    -0.304317148598E+03    0.13630E-01   -0.15276E-01 72360   0.166E+00    0.868E-01
DAV:  22    -0.304312574585E+03    0.45740E-02   -0.50220E-02 71472   0.780E-01    0.529E-01
DAV:  23    -0.304310583276E+03    0.19913E-02   -0.14176E-02 70200   0.403E-01    0.317E-01
DAV:  24    -0.304310633384E+03   -0.50108E-04   -0.97100E-03 68700   0.350E-01    0.279E-01
DAV:  25    -0.304309809625E+03    0.82376E-03   -0.56955E-03 66132   0.273E-01    0.106E-01
DAV:  26    -0.304309783172E+03    0.26453E-04   -0.13906E-03 61836   0.145E-01    0.792E-02
DAV:  27    -0.304309735157E+03    0.48014E-04   -0.58101E-04 47364   0.876E-02
   1 F= -.30430974E+03 E0= -.30430220E+03  d E =-.304310E+03
 curvature:   0.00 expect dE= 0.000E+00 dE for cont linesearch  0.000E+00
 trial: gam= 0.00000 g(F)=  0.844E+00 g(S)=  0.294E+00 ort = 0.000E+00 (trialstep = 0.100E+01)
 search vector abs. value=  0.114E+01
 bond charge predicted
       N       E                     dE             d eps       ncg     rms          rms(c)
DAV:   1    -0.305423719729E+03   -0.11139E+01   -0.13772E+02 42036   0.458E+01    0.112E+01
DAV:   2    -0.307431477076E+03   -0.20078E+01   -0.29388E+01 74196   0.282E+01    0.115E+01
DAV:   3    -0.306065489067E+03    0.13660E+01   -0.19827E+01 72564   0.191E+01    0.960E+00
DAV:   4    -0.305610347051E+03    0.45514E+00   -0.12233E+01 70188   0.170E+01    0.720E+00
DAV:   5    -0.305233308975E+03    0.37704E+00   -0.50611E+00 74664   0.103E+01    0.487E+00
DAV:   6    -0.305025752777E+03    0.20756E+00   -0.21823E+00 74508   0.678E+00    0.288E+00
DAV:   7    -0.304993855619E+03    0.31897E-01   -0.12072E+00 77088   0.460E+00    0.278E+00
DAV:   8    -0.304976647660E+03    0.17208E-01   -0.76323E-01 70464   0.382E+00    0.216E+00
DAV:   9    -0.304946372643E+03    0.30275E-01   -0.32340E-01 72996   0.235E+00    0.123E+00
DAV:  10    -0.304940165796E+03    0.62068E-02   -0.11358E-01 73176   0.144E+00    0.935E-01
DAV:  11    -0.304941510851E+03   -0.13451E-02   -0.64287E-02 70584   0.111E+00    0.821E-01
DAV:  12    -0.304943493253E+03   -0.19824E-02   -0.43885E-02 74988   0.933E-01    0.545E-01
DAV:  13    -0.304944558187E+03   -0.10649E-02   -0.39240E-02 76428   0.791E-01    0.459E-01
DAV:  14    -0.304943734638E+03    0.82355E-03   -0.25594E-02 69528   0.760E-01    0.328E-01
DAV:  15    -0.304942799336E+03    0.93530E-03   -0.94604E-03 71448   0.431E-01    0.130E-01
DAV:  16    -0.304942764616E+03    0.34720E-04   -0.32313E-03 69396   0.229E-01    0.128E-01
DAV:  17    -0.304942672137E+03    0.92479E-04   -0.13681E-03 57180   0.180E-01    0.899E-02
DAV:  18    -0.304942620450E+03    0.51688E-04   -0.32140E-04 36756   0.105E-01
   2 F= -.30494262E+03 E0= -.30493658E+03  d E =-.632885E+00
 trial-energy change:   -0.632885  1 .order   -0.622195   -1.137251   -0.107140
 step:   1.0974(harm=  1.1040)  dis= 0.04919  next Energy=  -304.947846 (dE=-0.638E+00)
 bond charge predicted
       N       E                     dE             d eps       ncg     rms          rms(c)
DAV:   1    -0.304950818094E+03   -0.81460E-02   -0.13276E+00 46452   0.455E+00    0.107E+00
DAV:   2    -0.304969792704E+03   -0.18975E-01   -0.26924E-01 73284   0.263E+00    0.120E+00
DAV:   3    -0.304957351162E+03    0.12442E-01   -0.20776E-01 72840   0.203E+00    0.884E-01
DAV:   4    -0.304953887749E+03    0.34634E-02   -0.10426E-01 70320   0.145E+00    0.747E-01
DAV:   5    -0.304950022175E+03    0.38656E-02   -0.54932E-02 71640   0.109E+00    0.505E-01
DAV:   6    -0.304947692425E+03    0.23298E-02   -0.21946E-02 72372   0.722E-01    0.271E-01
DAV:   7    -0.304947388953E+03    0.30347E-03   -0.10919E-02 73980   0.459E-01    0.248E-01
DAV:   8    -0.304947270046E+03    0.11891E-03   -0.64066E-03 66168   0.343E-01    0.206E-01
DAV:   9    -0.304947037466E+03    0.23258E-03   -0.29133E-03 62196   0.233E-01    0.135E-01
DAV:  10    -0.304946950580E+03    0.86886E-04   -0.96644E-04 50136   0.145E-01
   3 F= -.30494695E+03 E0= -.30494119E+03  d E =-.637215E+00
 curvature:  -0.55 expect dE=-0.729E+00 dE for cont linesearch -0.690E-05
 trial: gam= 1.16901 g(F)=  0.372E+00 g(S)=  0.954E+00 ort =-0.378E-02 (trialstep = 0.404E+00)
 search vector abs. value=  0.287E+01
 bond charge predicted
       N       E                     dE             d eps       ncg     rms          rms(c)
DAV:   1    -0.305134892670E+03   -0.18786E+00   -0.54955E+01 41628   0.251E+01    0.367E+00
DAV:   2    -0.305927669728E+03   -0.79278E+00   -0.76751E+00 70848   0.135E+01    0.643E+00
DAV:   3    -0.305434760392E+03    0.49291E+00   -0.39704E+00 71772   0.904E+00    0.293E+00
DAV:   4    -0.305437928736E+03   -0.31683E-02   -0.10532E+00 69360   0.497E+00    0.272E+00
DAV:   5    -0.305365371578E+03    0.72557E-01   -0.51181E-01 68952   0.364E+00    0.127E+00
DAV:   6    -0.305359577137E+03    0.57944E-02   -0.23537E-01 74412   0.211E+00    0.122E+00
DAV:   7    -0.305365104808E+03   -0.55277E-02   -0.24910E-01 70116   0.211E+00    0.152E+00
DAV:   8    -0.305348414334E+03    0.16690E-01   -0.13902E-01 69612   0.168E+00    0.640E-01
DAV:   9    -0.305344693299E+03    0.37210E-02   -0.39207E-02 71688   0.792E-01    0.405E-01
DAV:  10    -0.305343966603E+03    0.72670E-03   -0.16601E-02 63912   0.596E-01    0.303E-01
DAV:  11    -0.305343610396E+03    0.35621E-03   -0.54467E-03 66696   0.322E-01    0.187E-01
DAV:  12    -0.305343705988E+03   -0.95592E-04   -0.23795E-03 66372   0.207E-01    0.159E-01
DAV:  13    -0.305343875889E+03   -0.16990E-03   -0.33722E-03 64440   0.266E-01    0.167E-01
DAV:  14    -0.305343739866E+03    0.13602E-03   -0.27110E-03 61968   0.252E-01    0.984E-02
DAV:  15    -0.305343634523E+03    0.10534E-03   -0.12000E-03 59376   0.150E-01    0.460E-02
DAV:  16    -0.305343600823E+03    0.33700E-04   -0.18900E-04 27468   0.880E-02
   4 F= -.30534360E+03 E0= -.30533856E+03  d E =-.396650E+00
 trial-energy change:   -0.396650  1 .order   -0.397598   -0.533565   -0.261631
 step:   0.8093(harm=  0.7924)  dis= 0.07186  next Energy=  -305.474003 (dE=-0.527E+00)
 bond charge predicted
       N       E                     dE             d eps       ncg     rms          rms(c)
DAV:   1    -0.305271884515E+03    0.71750E-01   -0.55235E+01 41664   0.251E+01    0.361E+00
DAV:   2    -0.306074849683E+03   -0.80297E+00   -0.78340E+00 70968   0.137E+01    0.645E+00
DAV:   3    -0.305560562264E+03    0.51429E+00   -0.40422E+00 72324   0.910E+00    0.273E+00
DAV:   4    -0.305563047778E+03   -0.24855E-02   -0.95966E-01 69456   0.471E+00    0.255E+00
DAV:   5    -0.305498723661E+03    0.64324E-01   -0.47053E-01 69024   0.349E+00    0.125E+00
DAV:   6    -0.305496571438E+03    0.21522E-02   -0.23873E-01 73536   0.216E+00    0.135E+00
DAV:   7    -0.305496481596E+03    0.89842E-04   -0.24484E-01 69012   0.209E+00    0.141E+00
DAV:   8    -0.305482362656E+03    0.14119E-01   -0.12634E-01 70740   0.157E+00    0.597E-01
DAV:   9    -0.305478940357E+03    0.34223E-02   -0.35522E-02 72096   0.740E-01    0.357E-01
DAV:  10    -0.305478595190E+03    0.34517E-03   -0.14491E-02 64692   0.552E-01    0.303E-01
DAV:  11    -0.305478271715E+03    0.32347E-03   -0.56976E-03 64860   0.337E-01    0.187E-01
DAV:  12    -0.305478382708E+03   -0.11099E-03   -0.25393E-03 66756   0.210E-01    0.151E-01
DAV:  13    -0.305478507571E+03   -0.12486E-03   -0.31544E-03 67176   0.243E-01    0.150E-01
DAV:  14    -0.305478441087E+03    0.66484E-04   -0.26902E-03 61632   0.254E-01    0.113E-01
DAV:  15    -0.305478302701E+03    0.13839E-03   -0.12489E-03 58632   0.164E-01    0.427E-02
DAV:  16    -0.305478271968E+03    0.30733E-04   -0.16109E-04 26904   0.791E-02
   5 F= -.30547827E+03 E0= -.30547362E+03  d E =-.531321E+00
 curvature:  -0.86 expect dE=-0.135E+00 dE for cont linesearch -0.101E-03
 trial: gam=-0.00966 g(F)=  0.133E+00 g(S)=  0.240E-01 ort = 0.183E-01 (trialstep = 0.485E+00)
 search vector abs. value=  0.157E+00
 bond charge predicted
       N       E                     dE             d eps       ncg     rms          rms(c)
DAV:   1    -0.305521999908E+03   -0.43697E-01   -0.46579E+00 41280   0.764E+00    0.129E+00
DAV:   2    -0.305564593406E+03   -0.42593E-01   -0.57771E-01 69972   0.374E+00    0.146E+00
DAV:   3    -0.305561378552E+03    0.32149E-02   -0.32309E-01 68376   0.278E+00    0.141E+00
DAV:   4    -0.305547828869E+03    0.13550E-01   -0.14619E-01 68088   0.189E+00    0.695E-01
DAV:   5    -0.305542527146E+03    0.53017E-02   -0.57211E-02 72264   0.944E-01    0.466E-01
DAV:   6    -0.305541335140E+03    0.11920E-02   -0.33551E-02 73428   0.804E-01    0.388E-01
DAV:   7    -0.305540782657E+03    0.55248E-03   -0.19947E-02 71592   0.643E-01    0.311E-01
DAV:   8    -0.305540116884E+03    0.66577E-03   -0.87430E-03 70320   0.399E-01    0.199E-01
DAV:   9    -0.305539921533E+03    0.19535E-03   -0.32920E-03 62556   0.251E-01    0.158E-01
DAV:  10    -0.305539785930E+03    0.13560E-03   -0.13927E-03 55596   0.159E-01    0.972E-02
DAV:  11    -0.305539802141E+03   -0.16211E-04   -0.47220E-04 42996   0.939E-02
   6 F= -.30553980E+03 E0= -.30553506E+03  d E =-.615302E-01
 trial-energy change:   -0.061530  1 .order   -0.061928   -0.075935   -0.047920
 step:   1.3144(harm=  1.3144)  dis= 0.02278  next Energy=  -305.581183 (dE=-0.103E+00)
 bond charge predicted
       N       E                     dE             d eps       ncg     rms          rms(c)
DAV:   1    -0.305527379349E+03    0.12407E-01   -0.13639E+01 41280   0.131E+01    0.218E+00
DAV:   2    -0.305650839733E+03   -0.12346E+00   -0.16743E+00 69948   0.640E+00    0.250E+00
DAV:   3    -0.305640168017E+03    0.10672E-01   -0.92758E-01 68496   0.474E+00    0.240E+00
DAV:   4    -0.305602388524E+03    0.37779E-01   -0.43270E-01 68484   0.325E+00    0.119E+00
DAV:   5    -0.305586563493E+03    0.15825E-01   -0.16186E-01 72516   0.163E+00    0.806E-01
DAV:   6    -0.305583322875E+03    0.32406E-02   -0.99629E-02 73044   0.139E+00    0.662E-01
DAV:   7    -0.305581224567E+03    0.20983E-02   -0.56047E-02 71976   0.108E+00    0.492E-01
DAV:   8    -0.305579370463E+03    0.18541E-02   -0.22408E-02 73128   0.640E-01    0.289E-01
DAV:   9    -0.305579011759E+03    0.35870E-03   -0.76389E-03 65976   0.364E-01    0.257E-01
DAV:  10    -0.305578765437E+03    0.24632E-03   -0.39386E-03 63480   0.268E-01    0.179E-01
DAV:  11    -0.305578814792E+03   -0.49356E-04   -0.18283E-03 62880   0.168E-01    0.140E-01
DAV:  12    -0.305578915032E+03   -0.10024E-03   -0.17211E-03 62376   0.189E-01    0.108E-01
DAV:  13    -0.305578866308E+03    0.48724E-04   -0.17657E-03 64164   0.196E-01    0.778E-02
DAV:  14    -0.305578836954E+03    0.29354E-04   -0.89522E-04 54480   0.136E-01
   7 F= -.30557884E+03 E0= -.30557401E+03  d E =-.100565E+00
 curvature:  -0.66 expect dE=-0.103E+00 dE for cont linesearch -0.111E-04
 trial: gam= 1.00350 g(F)=  0.340E-01 g(S)=  0.122E+00 ort =-0.162E-02 (trialstep = 0.328E+00)
 search vector abs. value=  0.310E+00
 bond charge predicted
       N       E                     dE             d eps       ncg     rms          rms(c)
DAV:   1    -0.305615066952E+03   -0.36201E-01   -0.41255E+00 41352   0.761E+00    0.155E+00
DAV:   2    -0.305641255931E+03   -0.26189E-01   -0.56528E-01 70260   0.354E+00    0.124E+00
DAV:   3    -0.305650939576E+03   -0.96836E-02   -0.35268E-01 68424   0.285E+00    0.170E+00
DAV:   4    -0.305628127077E+03    0.22812E-01   -0.22408E-01 71184   0.237E+00    0.820E-01
DAV:   5    -0.305620136085E+03    0.79910E-02   -0.80131E-02 72720   0.110E+00    0.434E-01
DAV:   6    -0.305619271275E+03    0.86481E-03   -0.32934E-02 78036   0.741E-01    0.430E-01
DAV:   7    -0.305618503881E+03    0.76739E-03   -0.20412E-02 70020   0.625E-01    0.343E-01
DAV:   8    -0.305617943535E+03    0.56035E-03   -0.10306E-02 66432   0.421E-01    0.223E-01
DAV:   9    -0.305617618543E+03    0.32499E-03   -0.36738E-03 65244   0.247E-01    0.142E-01
DAV:  10    -0.305617602376E+03    0.16167E-04   -0.17853E-03 59304   0.190E-01    0.111E-01
DAV:  11    -0.305617641857E+03   -0.39481E-04   -0.84514E-04 50568   0.133E-01
   8 F= -.30561764E+03 E0= -.30561303E+03  d E =-.388049E-01
 trial-energy change:   -0.038805  1 .order   -0.039526   -0.050689   -0.028363
 step:   0.7456(harm=  0.7456)  dis= 0.02011  next Energy=  -305.636379 (dE=-0.575E-01)
 bond charge predicted
       N       E                     dE             d eps       ncg     rms          rms(c)
DAV:   1    -0.305627233909E+03   -0.96315E-02   -0.66490E+00 41304   0.965E+00    0.198E+00
DAV:   2    -0.305670001493E+03   -0.42768E-01   -0.90698E-01 70380   0.460E+00    0.165E+00
DAV:   3    -0.305686364253E+03   -0.16363E-01   -0.59599E-01 67560   0.375E+00    0.224E+00
DAV:   4    -0.305648208077E+03    0.38156E-01   -0.39273E-01 70404   0.311E+00    0.104E+00
DAV:   5    -0.305636010870E+03    0.12197E-01   -0.13072E-01 74232   0.145E+00    0.609E-01
DAV:   6    -0.305634250485E+03    0.17604E-02   -0.57843E-02 76620   0.105E+00    0.540E-01
DAV:   7    -0.305632716884E+03    0.15336E-02   -0.30847E-02 72924   0.790E-01    0.413E-01
DAV:   8    -0.305632114566E+03    0.60232E-03   -0.16088E-02 68484   0.528E-01    0.308E-01
DAV:   9    -0.305631508877E+03    0.60569E-03   -0.57596E-03 66168   0.315E-01    0.179E-01
DAV:  10    -0.305631527466E+03   -0.18589E-04   -0.25840E-03 63024   0.219E-01    0.150E-01
DAV:  11    -0.305631682642E+03   -0.15518E-03   -0.18396E-03 62952   0.189E-01    0.122E-01
DAV:  12    -0.305631715673E+03   -0.33031E-04   -0.17844E-03 61464   0.204E-01    0.901E-02
DAV:  13    -0.305631675121E+03    0.40552E-04   -0.11701E-03 62472   0.156E-01    0.539E-02
DAV:  14    -0.305631651081E+03    0.24040E-04   -0.23926E-04 30636   0.903E-02
   9 F= -.30563165E+03 E0= -.30562739E+03  d E =-.528141E-01
 curvature:  -0.75 expect dE=-0.423E-01 dE for cont linesearch -0.472E-03
 trial: gam= 0.41151 g(F)=  0.439E-01 g(S)=  0.125E-01 ort =-0.140E-01 (trialstep = 0.412E+00)
 search vector abs. value=  0.975E-01
 bond charge predicted
       N       E                     dE             d eps       ncg     rms          rms(c)
DAV:   1    -0.305641896345E+03   -0.10221E-01   -0.18505E+00 41280   0.435E+00    0.485E-01
DAV:   2    -0.305663272277E+03   -0.21376E-01   -0.21218E-01 69108   0.232E+00    0.102E+00
DAV:   3    -0.305652543108E+03    0.10729E-01   -0.87084E-02 68604   0.151E+00    0.370E-01
DAV:   4    -0.305652238160E+03    0.30495E-03   -0.16230E-02 72924   0.597E-01    0.343E-01
DAV:   5    -0.305651248198E+03    0.98996E-03   -0.11126E-02 69732   0.498E-01    0.224E-01
DAV:   6    -0.305651115469E+03    0.13273E-03   -0.60453E-03 64224   0.357E-01    0.230E-01
DAV:   7    -0.305650869586E+03    0.24588E-03   -0.49651E-03 63228   0.317E-01    0.158E-01
DAV:   8    -0.305650755868E+03    0.11372E-03   -0.25962E-03 63348   0.236E-01    0.118E-01
DAV:   9    -0.305650584628E+03    0.17124E-03   -0.10408E-03 54000   0.155E-01    0.478E-02
DAV:  10    -0.305650559129E+03    0.25499E-04   -0.17027E-04 27168   0.939E-02
  10 F= -.30565056E+03 E0= -.30564646E+03  d E =-.189080E-01
 ZBRENT: can't locate minimum, use default step
 trial-energy change:   -0.018908  1 .order   -0.018872   -0.020873   -0.016871
 step:   1.6474(harm=  2.1485)  dis= 0.03484  next Energy=  -305.686093 (dE=-0.544E-01)
 bond charge predicted
       N       E                     dE             d eps       ncg     rms          rms(c)
DAV:   1    -0.305609658971E+03    0.40926E-01   -0.16733E+01 41868   0.131E+01    0.145E+00
DAV:   2    -0.305788391838E+03   -0.17873E+00   -0.18035E+00 68820   0.675E+00    0.289E+00
DAV:   3    -0.305699540085E+03    0.88852E-01   -0.73197E-01 68856   0.432E+00    0.111E+00
DAV:   4    -0.305696220756E+03    0.33193E-02   -0.14804E-01 72312   0.179E+00    0.101E+00
DAV:   5    -0.305687878959E+03    0.83418E-02   -0.96842E-02 71160   0.148E+00    0.656E-01
DAV:   6    -0.305686505087E+03    0.13739E-02   -0.50529E-02 68340   0.105E+00    0.651E-01
DAV:   7    -0.305684703341E+03    0.18017E-02   -0.42256E-02 68268   0.927E-01    0.477E-01
DAV:   8    -0.305683725198E+03    0.97814E-03   -0.23861E-02 70968   0.716E-01    0.356E-01
DAV:   9    -0.305682146440E+03    0.15788E-02   -0.97739E-03 72180   0.446E-01    0.138E-01
DAV:  10    -0.305682040040E+03    0.10640E-03   -0.26716E-03 65064   0.244E-01    0.118E-01
DAV:  11    -0.305681966689E+03    0.73351E-04   -0.16483E-03 61872   0.171E-01    0.647E-02
DAV:  12    -0.305681915872E+03    0.50817E-04   -0.21822E-04 32268   0.831E-02
  11 F= -.30568192E+03 E0= -.30567837E+03  d E =-.502648E-01
 curvature:  -1.89 expect dE=-0.399E-01 dE for cont linesearch -0.157E-02
 ZBRENT: extrapolating
 opt :   1.9942  next Energy=  -305.683473 (dE=-0.518E-01)
 bond charge predicted
       N       E                     dE             d eps       ncg     rms          rms(c)
DAV:   1    -0.305677541228E+03    0.44255E-02   -0.13147E+00 41412   0.367E+00    0.405E-01
DAV:   2    -0.305692168207E+03   -0.14627E-01   -0.14880E-01 68832   0.195E+00    0.836E-01
DAV:   3    -0.305685011311E+03    0.71569E-02   -0.60807E-02 68628   0.127E+00    0.314E-01
DAV:   4    -0.305684848548E+03    0.16276E-03   -0.12269E-02 72828   0.517E-01    0.306E-01
DAV:   5    -0.305684050794E+03    0.79775E-03   -0.83308E-03 68916   0.431E-01    0.185E-01
DAV:   6    -0.305683923255E+03    0.12754E-03   -0.40171E-03 63936   0.293E-01    0.179E-01
DAV:   7    -0.305683778371E+03    0.14488E-03   -0.32948E-03 62640   0.265E-01    0.129E-01
DAV:   8    -0.305683689534E+03    0.88837E-04   -0.17026E-03 60420   0.195E-01    0.918E-02
DAV:   9    -0.305683580935E+03    0.10860E-03   -0.61164E-04 45336   0.129E-01    0.396E-02
DAV:  10    -0.305683567181E+03    0.13754E-04   -0.13742E-04 26832   0.826E-02
  12 F= -.30568357E+03 E0= -.30568016E+03  d E =-.519161E-01
 curvature:  -1.88 expect dE=-0.400E-01 dE for cont linesearch -0.214E-05
 trial: gam= 0.06805 g(F)=  0.174E-01 g(S)=  0.382E-02 ort = 0.333E-03 (trialstep = 0.728E+00)
 search vector abs. value=  0.218E-01
 bond charge predicted
       N       E                     dE             d eps       ncg     rms          rms(c)
DAV:   1    -0.305691354654E+03   -0.77737E-02   -0.14977E+00 41928   0.458E+00    0.910E-01
DAV:   2    -0.305703747390E+03   -0.12393E-01   -0.21273E-01 69996   0.212E+00    0.830E-01
DAV:   3    -0.305703589526E+03    0.15786E-03   -0.15143E-01 71376   0.181E+00    0.885E-01
DAV:   4    -0.305699186278E+03    0.44032E-02   -0.72346E-02 68676   0.130E+00    0.669E-01
DAV:   5    -0.305695820549E+03    0.33657E-02   -0.42085E-02 66216   0.907E-01    0.413E-01
DAV:   6    -0.305694245477E+03    0.15751E-02   -0.14755E-02 71724   0.562E-01    0.204E-01
DAV:   7    -0.305694109906E+03    0.13557E-03   -0.61589E-03 76236   0.332E-01    0.181E-01
DAV:   8    -0.305693905824E+03    0.20408E-03   -0.29978E-03 64704   0.259E-01    0.118E-01
DAV:   9    -0.305693829258E+03    0.76567E-04   -0.88433E-04 52908   0.147E-01
  13 F= -.30569383E+03 E0= -.30569046E+03  d E =-.102621E-01
 trial-energy change:   -0.010262  1 .order   -0.010538   -0.015499   -0.005577
 step:   1.1378(harm=  1.1378)  dis= 0.00869  next Energy=  -305.695673 (dE=-0.121E-01)
 bond charge predicted
       N       E                     dE             d eps       ncg     rms          rms(c)
DAV:   1    -0.305694439985E+03   -0.53416E-03   -0.47532E-01 42564   0.258E+00    0.501E-01
DAV:   2    -0.305698895358E+03   -0.44554E-02   -0.68804E-02 70008   0.123E+00    0.506E-01
DAV:   3    -0.305697985911E+03    0.90945E-03   -0.48538E-02 70740   0.105E+00    0.480E-01
DAV:   4    -0.305696878859E+03    0.11071E-02   -0.21309E-02 65340   0.708E-01    0.383E-01
DAV:   5    -0.305695755765E+03    0.11231E-02   -0.12918E-02 61416   0.506E-01    0.221E-01
DAV:   6    -0.305695361853E+03    0.39391E-03   -0.41750E-03 64992   0.305E-01    0.125E-01
DAV:   7    -0.305695336733E+03    0.25119E-04   -0.20260E-03 70356   0.210E-01    0.115E-01
DAV:   8    -0.305695248445E+03    0.88289E-04   -0.99190E-04 56616   0.156E-01
  14 F= -.30569525E+03 E0= -.30569188E+03  d E =-.116813E-01
 curvature:  -0.58 expect dE=-0.134E-01 dE for cont linesearch -0.387E-05
 trial: gam= 1.10389 g(F)=  0.438E-02 g(S)=  0.187E-01 ort =-0.381E-03 (trialstep = 0.362E+00)
 search vector abs. value=  0.487E-01
 bond charge predicted
       N       E                     dE             d eps       ncg     rms          rms(c)
DAV:   1    -0.305699147534E+03   -0.38108E-02   -0.79227E-01 41316   0.316E+00    0.576E-01
DAV:   2    -0.305708899107E+03   -0.97516E-02   -0.12338E-01 72840   0.182E+00    0.727E-01
DAV:   3    -0.305704291199E+03    0.46079E-02   -0.73159E-02 72204   0.128E+00    0.489E-01
DAV:   4    -0.305703760750E+03    0.53045E-03   -0.33485E-02 68364   0.817E-01    0.476E-01
DAV:   5    -0.305702250543E+03    0.15102E-02   -0.19229E-02 65256   0.598E-01    0.293E-01
DAV:   6    -0.305701528080E+03    0.72246E-03   -0.83992E-03 69264   0.392E-01    0.177E-01
DAV:   7    -0.305701315877E+03    0.21220E-03   -0.43741E-03 67512   0.301E-01    0.128E-01
DAV:   8    -0.305701271952E+03    0.43926E-04   -0.21685E-03 63996   0.217E-01    0.990E-02
DAV:   9    -0.305701177909E+03    0.94043E-04   -0.87823E-04 51444   0.147E-01
  15 F= -.30570118E+03 E0= -.30569787E+03  d E =-.592946E-02
 trial-energy change:   -0.005929  1 .order   -0.005924   -0.008188   -0.003659
 step:   0.6540(harm=  0.6540)  dis= 0.00794  next Energy=  -305.702650 (dE=-0.740E-02)
 bond charge predicted
       N       E                     dE             d eps       ncg     rms          rms(c)
DAV:   1    -0.305701201286E+03    0.70666E-04   -0.51839E-01 41340   0.256E+00    0.440E-01
DAV:   2    -0.305707162878E+03   -0.59616E-02   -0.74547E-02 72192   0.141E+00    0.548E-01
DAV:   3    -0.305704577693E+03    0.25852E-02   -0.40677E-02 72672   0.962E-01    0.375E-01
DAV:   4    -0.305704450382E+03    0.12731E-03   -0.20233E-02 64692   0.635E-01    0.385E-01
DAV:   5    -0.305703369540E+03    0.10808E-02   -0.11658E-02 64104   0.473E-01    0.212E-01
DAV:   6    -0.305703010107E+03    0.35943E-03   -0.45270E-03 68772   0.292E-01    0.136E-01
DAV:   7    -0.305702928570E+03    0.81537E-04   -0.24437E-03 64776   0.237E-01    0.107E-01
DAV:   8    -0.305702885787E+03    0.42783E-04   -0.11306E-03 57240   0.166E-01    0.789E-02
DAV:   9    -0.305702824446E+03    0.61341E-04   -0.33891E-04 35760   0.108E-01
  16 F= -.30570282E+03 E0= -.30569955E+03  d E =-.757600E-02
 curvature:  -0.70 expect dE=-0.264E-02 dE for cont linesearch -0.704E-05
 trial: gam= 0.07814 g(F)=  0.368E-02 g(S)=  0.713E-04 ort = 0.698E-03 (trialstep = 0.420E+00)
 search vector abs. value=  0.416E-02
 bond charge predicted
       N       E                     dE             d eps       ncg     rms          rms(c)
DAV:   1    -0.305703707779E+03   -0.82199E-03   -0.87463E-02 41604   0.100E+00    0.108E-01
DAV:   2    -0.305704466132E+03   -0.75835E-03   -0.86619E-03 67020   0.434E-01    0.125E-01
DAV:   3    -0.305704453006E+03    0.13126E-04   -0.25301E-03 65340   0.266E-01    0.116E-01
DAV:   4    -0.305704329391E+03    0.12361E-03   -0.76166E-04 47952   0.148E-01    0.476E-02
DAV:   5    -0.305704320173E+03    0.92184E-05   -0.22886E-04 32328   0.922E-02
  17 F= -.30570432E+03 E0= -.30570106E+03  d E =-.149573E-02
 ZBRENT: can't locate minimum, use default step
 trial-energy change:   -0.001496  1 .order   -0.001528   -0.001601   -0.001456
 step:   1.6809(harm=  4.6225)  dis= 0.00798  next Energy=  -305.711631 (dE=-0.881E-02)
 bond charge predicted
       N       E                     dE             d eps       ncg     rms          rms(c)
DAV:   1    -0.305702154479E+03    0.21749E-02   -0.78353E-01 41280   0.297E+00    0.315E-01
DAV:   2    -0.305708622165E+03   -0.64677E-02   -0.76954E-02 67560   0.131E+00    0.375E-01
DAV:   3    -0.305708680083E+03   -0.57918E-04   -0.21877E-02 67968   0.791E-01    0.355E-01
DAV:   4    -0.305707496027E+03    0.11841E-02   -0.72422E-03 67752   0.425E-01    0.171E-01
DAV:   5    -0.305707456635E+03    0.39392E-04   -0.36988E-03 63072   0.285E-01    0.177E-01
DAV:   6    -0.305707254648E+03    0.20199E-03   -0.24991E-03 64776   0.225E-01    0.107E-01
DAV:   7    -0.305707246503E+03    0.81454E-05   -0.14061E-03 58968   0.169E-01    0.983E-02
DAV:   8    -0.305707186536E+03    0.59967E-04   -0.10530E-03 52884   0.171E-01    0.694E-02
DAV:   9    -0.305707124260E+03    0.62275E-04   -0.20308E-04 29832   0.101E-01
  18 F= -.30570712E+03 E0= -.30570393E+03  d E =-.429981E-02
 curvature:  -1.29 expect dE=-0.287E-02 dE for cont linesearch -0.557E-03
 trial: gam= 0.26334 g(F)=  0.136E-02 g(S)=  0.867E-03 ort = 0.134E-02 (trialstep = 0.672E+00)
 search vector abs. value=  0.323E-02
 bond charge predicted
       N       E                     dE             d eps       ncg     rms          rms(c)
DAV:   1    -0.305708344812E+03   -0.11583E-02   -0.18437E-01 44424   0.167E+00    0.368E-01
DAV:   2    -0.305709383520E+03   -0.10387E-02   -0.26296E-02 69660   0.721E-01    0.258E-01
DAV:   3    -0.305709899559E+03   -0.51604E-03   -0.19041E-02 70668   0.587E-01    0.362E-01
DAV:   4    -0.305709014118E+03    0.88544E-03   -0.11878E-02 63708   0.522E-01    0.239E-01
DAV:   5    -0.305708605067E+03    0.40905E-03   -0.62336E-03 61536   0.345E-01    0.180E-01
DAV:   6    -0.305708369932E+03    0.23514E-03   -0.27960E-03 60672   0.256E-01    0.969E-02
DAV:   7    -0.305708299839E+03    0.70092E-04   -0.85269E-04 47208   0.148E-01
  19 F= -.30570830E+03 E0= -.30570511E+03  d E =-.117558E-02
 trial-energy change:   -0.001176  1 .order   -0.001240   -0.001738   -0.000742
 step:   1.1729(harm=  1.1729)  dis= 0.00493  next Energy=  -305.708640 (dE=-0.152E-02)
 bond charge predicted
       N       E                     dE             d eps       ncg     rms          rms(c)
DAV:   1    -0.305708229974E+03    0.13996E-03   -0.10019E-01 42096   0.123E+00    0.258E-01
DAV:   2    -0.305709058025E+03   -0.82805E-03   -0.14175E-02 67824   0.603E-01    0.238E-01
DAV:   3    -0.305709199392E+03   -0.14137E-03   -0.10890E-02 67680   0.537E-01    0.272E-01
DAV:   4    -0.305708615695E+03    0.58370E-03   -0.57418E-03 63420   0.376E-01    0.128E-01
DAV:   5    -0.305708449923E+03    0.16577E-03   -0.23071E-03 63264   0.212E-01    0.113E-01
DAV:   6    -0.305708374791E+03    0.75132E-04   -0.10537E-03 50556   0.166E-01    0.694E-02
DAV:   7    -0.305708346560E+03    0.28231E-04   -0.32017E-04 33264   0.988E-02
  20 F= -.30570835E+03 E0= -.30570513E+03  d E =-.122230E-02
 curvature:  -0.73 expect dE=-0.334E-02 dE for cont linesearch -0.259E-04
 trial: gam= 2.38685 g(F)=  0.867E-03 g(S)=  0.369E-02 ort =-0.338E-03 (trialstep = 0.117E+00)
 search vector abs. value=  0.213E-01
 bond charge predicted
       N       E                     dE             d eps       ncg     rms          rms(c)
DAV:   1    -0.305708471999E+03   -0.97208E-04   -0.36339E-02 41568   0.619E-01    0.667E-02
DAV:   2    -0.305708829455E+03   -0.35746E-03   -0.37485E-03 67764   0.283E-01    0.851E-02
DAV:   3    -0.305708774599E+03    0.54856E-04   -0.95205E-04 52872   0.163E-01
  21 F= -.30570877E+03 E0= -.30570555E+03  d E =-.428039E-03
 ZBRENT: can't locate minimum, use default step
 trial-energy change:   -0.000428  1 .order   -0.000408   -0.000438   -0.000379
 step:   0.4675(harm=  0.8580)  dis= 0.00586  next Energy=  -305.709956 (dE=-0.161E-02)
 bond charge predicted
       N       E                     dE             d eps       ncg     rms          rms(c)
DAV:   1    -0.305707431686E+03    0.13978E-02   -0.32858E-01 41280   0.184E+00    0.173E-01
DAV:   2    -0.305710367478E+03   -0.29358E-02   -0.31023E-02 67404   0.835E-01    0.238E-01
DAV:   3    -0.305709917710E+03    0.44977E-03   -0.76305E-03 70368   0.434E-01    0.146E-01
DAV:   4    -0.305709794073E+03    0.12364E-03   -0.19014E-03 58704   0.224E-01    0.112E-01
DAV:   5    -0.305709687377E+03    0.10670E-03   -0.80258E-04 47100   0.146E-01    0.737E-02
DAV:   6    -0.305709729243E+03   -0.41866E-04   -0.78580E-04 50460   0.145E-01
  22 F= -.30570973E+03 E0= -.30570652E+03  d E =-.138268E-02
 curvature:  -1.76 expect dE=-0.870E-02 dE for cont linesearch -0.603E-03
 trial: gam= 0.08307 g(F)=  0.102E-02 g(S)=  0.392E-02 ort = 0.270E-02 (trialstep = 0.187E+00)
 search vector abs. value=  0.553E-02
 bond charge predicted
       N       E                     dE             d eps       ncg     rms          rms(c)
DAV:   1    -0.305710908098E+03   -0.12207E-02   -0.26597E-02 58428   0.773E-01    0.214E-01
DAV:   2    -0.305711473371E+03   -0.56527E-03   -0.99591E-03 76752   0.461E-01    0.274E-01
DAV:   3    -0.305710928493E+03    0.54488E-03   -0.10337E-02 67728   0.456E-01    0.219E-01
DAV:   4    -0.305710696783E+03    0.23171E-03   -0.50225E-03 64608   0.312E-01    0.153E-01
DAV:   5    -0.305710570024E+03    0.12676E-03   -0.25781E-03 62880   0.229E-01    0.123E-01
DAV:   6    -0.305710438378E+03    0.13165E-03   -0.13194E-03 54264   0.180E-01    0.621E-02
DAV:   7    -0.305710385964E+03    0.52415E-04   -0.28807E-04 32268   0.102E-01
  23 F= -.30571039E+03 E0= -.30570721E+03  d E =-.656720E-03
 trial-energy change:   -0.000657  1 .order   -0.000795   -0.000965   -0.000625
 step:   0.5309(harm=  0.5309)  dis= 0.00163  next Energy=  -305.711099 (dE=-0.137E-02)
 bond charge predicted
       N       E                     dE             d eps       ncg     rms          rms(c)
DAV:   1    -0.305712321703E+03   -0.18833E-02   -0.87082E-02 57276   0.142E+00    0.382E-01
DAV:   2    -0.305712819825E+03   -0.49812E-03   -0.23842E-02 75588   0.653E-01    0.333E-01
DAV:   3    -0.305712486505E+03    0.33332E-03   -0.26154E-02 71160   0.622E-01    0.382E-01
DAV:   4    -0.305711818951E+03    0.66755E-03   -0.14758E-02 62340   0.543E-01    0.290E-01
DAV:   5    -0.305711134650E+03    0.68430E-03   -0.75805E-03 68004   0.352E-01    0.157E-01
DAV:   6    -0.305710902842E+03    0.23181E-03   -0.34870E-03 69180   0.255E-01    0.104E-01
DAV:   7    -0.305710832741E+03    0.70101E-04   -0.13644E-03 60672   0.171E-01    0.664E-02
DAV:   8    -0.305710799348E+03    0.33393E-04   -0.37528E-04 38820   0.103E-01
  24 F= -.30571080E+03 E0= -.30570764E+03  d E =-.107010E-02
 curvature:  -0.28 expect dE=-0.420E-03 dE for cont linesearch -0.438E-04
 trial: gam= 0.00000 g(F)=  0.582E-03 g(S)=  0.895E-03 ort =-0.922E-03 (trialstep = 0.256E+00)
 search vector abs. value=  0.148E-02
 reached required accuracy - stopping structural energy minimisation
 writing wavefunctions
VASP is done!
