<?xml version="1.0" encoding="ISO-8859-1"?>
<modeling>
 <generator>
  <i name="program" type="string">vasp </i>
  <i name="version" type="string">5.4.4.18Apr17-6-g9f103f2a35  </i>
  <i name="subversion" type="string">(build Aug 09 2018 16:20:53) complex            parallel </i>
  <i name="platform" type="string">LinuxIFC </i>
  <i name="date" type="string">2020 05 01 </i>
  <i name="time" type="string">15:47:58 </i>
 </generator>
 <incar>
  <i type="string" name="SYSTEM"> Nb - Mo - Ta - Ti - V SQS</i>
  <i type="string" name="PREC">normal</i>
  <i type="int" name="ICHARG">     0</i>
  <i type="int" name="IBRION">     2</i>
  <i type="int" name="NSW">    50</i>
  <i type="int" name="ISIF">     3</i>
  <i name="ENCUT">    600.00000000</i>
  <i type="string" name="LREAL"> Auto</i>
  <i type="int" name="ISMEAR">     1</i>
  <i name="SIGMA">      0.20000000</i>
  <v type="int" name="KPOINT_BSE">    -1     0     0     0</v>
  <i type="string" name="GGA"> PS</i>
 </incar>
 <structure name="primitive_cell" >
  <crystal>
   <varray name="basis" >
    <v>      -3.16000000      -3.16000000      -3.16000000 </v>
    <v>       1.58000000       1.58000000      -7.90000000 </v>
    <v>       7.90000000      -7.90000000      -1.58000000 </v>
   </varray>
   <i name="volume">    473.31744000 </i>
   <varray name="rec_basis" >
    <v>      -0.13713080      -0.12658228      -0.05274262 </v>
    <v>       0.04219409       0.06329114      -0.10548523 </v>
    <v>       0.06329114      -0.06329114       0.00000000 </v>
   </varray>
  </crystal>
  <varray name="positions" >
   <v>      -0.03333333      -0.06666667       0.40000000 </v>
   <v>       0.30000000      -0.40000000       0.40000000 </v>
   <v>      -0.10000000      -0.20000000       0.20000000 </v>
   <v>       0.06666667       0.13333333       0.20000000 </v>
   <v>       0.46666667      -0.06666667       0.40000000 </v>
   <v>      -0.13333333      -0.26666667      -0.40000000 </v>
   <v>       0.03333333       0.06666667      -0.40000000 </v>
   <v>       0.40000000      -0.20000000       0.20000000 </v>
   <v>      -0.20000000      -0.40000000       0.40000000 </v>
   <v>      -0.43333333       0.13333333       0.20000000 </v>
   <v>       0.36666667      -0.26666667      -0.40000000 </v>
   <v>       0.13333333       0.26666667       0.40000000 </v>
   <v>      -0.46666667       0.06666667      -0.40000000 </v>
   <v>       0.23333333       0.46666667       0.20000000 </v>
   <v>       0.20000000       0.40000000      -0.40000000 </v>
   <v>       0.00000000       0.00000000       0.00000000 </v>
   <v>      -0.06666667      -0.13333333      -0.20000000 </v>
   <v>      -0.30000000       0.40000000      -0.40000000 </v>
   <v>      -0.26666667       0.46666667       0.20000000 </v>
   <v>       0.33333333      -0.33333333       0.00000000 </v>
   <v>       0.43333333      -0.13333333      -0.20000000 </v>
   <v>      -0.50000000       0.00000000       0.00000000 </v>
   <v>       0.26666667      -0.46666667      -0.20000000 </v>
   <v>      -0.33333333       0.33333333       0.00000000 </v>
   <v>      -0.40000000       0.20000000      -0.20000000 </v>
   <v>      -0.16666667      -0.33333333       0.00000000 </v>
   <v>      -0.23333333      -0.46666667      -0.20000000 </v>
   <v>       0.16666667       0.33333333       0.00000000 </v>
   <v>       0.10000000       0.20000000      -0.20000000 </v>
  </varray>
 </structure>
 <varray name="primitive_index" >
  <v type="int" >        1 </v>
  <v type="int" >       17 </v>
  <v type="int" >        6 </v>
  <v type="int" >       23 </v>
  <v type="int" >       19 </v>
  <v type="int" >       18 </v>
  <v type="int" >        5 </v>
  <v type="int" >       15 </v>
  <v type="int" >        7 </v>
  <v type="int" >       14 </v>
  <v type="int" >       10 </v>
  <v type="int" >       11 </v>
  <v type="int" >       27 </v>
  <v type="int" >       29 </v>
  <v type="int" >       22 </v>
  <v type="int" >        3 </v>
  <v type="int" >       13 </v>
  <v type="int" >       25 </v>
  <v type="int" >        8 </v>
  <v type="int" >       28 </v>
  <v type="int" >       16 </v>
  <v type="int" >        2 </v>
  <v type="int" >       21 </v>
  <v type="int" >        9 </v>
  <v type="int" >       26 </v>
  <v type="int" >       12 </v>
  <v type="int" >       24 </v>
  <v type="int" >       20 </v>
  <v type="int" >        4 </v>
 </varray>
 <kpoints>
  <generation param="Gamma">
   <v type="int" name="divisions">       7        7        7 </v>
   <v name="usershift">      0.00000000       0.00000000       0.00000000 </v>
   <v name="genvec1">      0.14285714       0.00000000       0.00000000 </v>
   <v name="genvec2">     -0.00000000       0.14285714       0.00000000 </v>
   <v name="genvec3">      0.00000000       0.00000000       0.14285714 </v>
   <v name="shift">      0.00000000       0.00000000       0.00000000 </v>
  </generation>
  <varray name="kpointlist" >
   <v>       0.00000000       0.00000000       0.00000000 </v>
   <v>       0.14285714       0.00000000      -0.00000000 </v>
   <v>       0.28571429       0.00000000       0.00000000 </v>
   <v>       0.42857143       0.00000000      -0.00000000 </v>
   <v>      -0.00000000       0.14285714       0.00000000 </v>
   <v>       0.14285714       0.14285714      -0.00000000 </v>
   <v>       0.28571429       0.14285714       0.00000000 </v>
   <v>       0.42857143       0.14285714      -0.00000000 </v>
   <v>      -0.42857143       0.14285714       0.00000000 </v>
   <v>      -0.28571429       0.14285714       0.00000000 </v>
   <v>      -0.14285714       0.14285714       0.00000000 </v>
   <v>       0.00000000       0.28571429      -0.00000000 </v>
   <v>       0.14285714       0.28571429      -0.00000000 </v>
   <v>       0.28571429       0.28571429      -0.00000000 </v>
   <v>       0.42857143       0.28571429      -0.00000000 </v>
   <v>      -0.42857143       0.28571429      -0.00000000 </v>
   <v>      -0.28571429       0.28571429      -0.00000000 </v>
   <v>      -0.14285714       0.28571429      -0.00000000 </v>
   <v>      -0.00000000       0.42857143      -0.00000000 </v>
   <v>       0.14285714       0.42857143       0.00000000 </v>
   <v>       0.28571429       0.42857143       0.00000000 </v>
   <v>       0.42857143       0.42857143      -0.00000000 </v>
   <v>      -0.42857143       0.42857143       0.00000000 </v>
   <v>      -0.28571429       0.42857143      -0.00000000 </v>
   <v>      -0.14285714       0.42857143      -0.00000000 </v>
   <v>       0.00000000       0.00000000       0.14285714 </v>
   <v>       0.14285714       0.00000000       0.14285714 </v>
   <v>       0.28571429       0.00000000       0.14285714 </v>
   <v>       0.42857143       0.00000000       0.14285714 </v>
   <v>      -0.42857143       0.00000000       0.14285714 </v>
   <v>      -0.28571429       0.00000000       0.14285714 </v>
   <v>      -0.14285714      -0.00000000       0.14285714 </v>
   <v>      -0.00000000       0.14285714       0.14285714 </v>
   <v>       0.14285714       0.14285714       0.14285714 </v>
   <v>       0.28571429       0.14285714       0.14285714 </v>
   <v>       0.42857143       0.14285714       0.14285714 </v>
   <v>      -0.42857143       0.14285714       0.14285714 </v>
   <v>      -0.28571429       0.14285714       0.14285714 </v>
   <v>      -0.14285714       0.14285714       0.14285714 </v>
   <v>      -0.00000000       0.28571429       0.14285714 </v>
   <v>       0.14285714       0.28571429       0.14285714 </v>
   <v>       0.28571429       0.28571429       0.14285714 </v>
   <v>       0.42857143       0.28571429       0.14285714 </v>
   <v>      -0.42857143       0.28571429       0.14285714 </v>
   <v>      -0.28571429       0.28571429       0.14285714 </v>
   <v>      -0.14285714       0.28571429       0.14285714 </v>
   <v>       0.00000000       0.42857143       0.14285714 </v>
   <v>       0.14285714       0.42857143       0.14285714 </v>
   <v>       0.28571429       0.42857143       0.14285714 </v>
   <v>       0.42857143       0.42857143       0.14285714 </v>
   <v>      -0.42857143       0.42857143       0.14285714 </v>
   <v>      -0.28571429       0.42857143       0.14285714 </v>
   <v>      -0.14285714       0.42857143       0.14285714 </v>
   <v>       0.00000000      -0.42857143       0.14285714 </v>
   <v>       0.14285714      -0.42857143       0.14285714 </v>
   <v>       0.28571429      -0.42857143       0.14285714 </v>
   <v>       0.42857143      -0.42857143       0.14285714 </v>
   <v>      -0.42857143      -0.42857143       0.14285714 </v>
   <v>      -0.28571429      -0.42857143       0.14285714 </v>
   <v>      -0.14285714      -0.42857143       0.14285714 </v>
   <v>       0.00000000      -0.28571429       0.14285714 </v>
   <v>       0.14285714      -0.28571429       0.14285714 </v>
   <v>       0.28571429      -0.28571429       0.14285714 </v>
   <v>       0.42857143      -0.28571429       0.14285714 </v>
   <v>      -0.42857143      -0.28571429       0.14285714 </v>
   <v>      -0.28571429      -0.28571429       0.14285714 </v>
   <v>      -0.14285714      -0.28571429       0.14285714 </v>
   <v>       0.00000000      -0.14285714       0.14285714 </v>
   <v>       0.14285714      -0.14285714       0.14285714 </v>
   <v>       0.28571429      -0.14285714       0.14285714 </v>
   <v>       0.42857143      -0.14285714       0.14285714 </v>
   <v>      -0.42857143      -0.14285714       0.14285714 </v>
   <v>      -0.28571429      -0.14285714       0.14285714 </v>
   <v>      -0.14285714      -0.14285714       0.14285714 </v>
   <v>       0.00000000       0.00000000       0.28571429 </v>
   <v>       0.14285714       0.00000000       0.28571429 </v>
   <v>       0.28571429       0.00000000       0.28571429 </v>
   <v>       0.42857143       0.00000000       0.28571429 </v>
   <v>      -0.42857143      -0.00000000       0.28571429 </v>
   <v>      -0.28571429      -0.00000000       0.28571429 </v>
   <v>      -0.14285714      -0.00000000       0.28571429 </v>
   <v>      -0.00000000       0.14285714       0.28571429 </v>
   <v>       0.14285714       0.14285714       0.28571429 </v>
   <v>       0.28571429       0.14285714       0.28571429 </v>
   <v>       0.42857143       0.14285714       0.28571429 </v>
   <v>      -0.42857143       0.14285714       0.28571429 </v>
   <v>      -0.28571429       0.14285714       0.28571429 </v>
   <v>      -0.14285714       0.14285714       0.28571429 </v>
   <v>      -0.00000000       0.28571429       0.28571429 </v>
   <v>       0.14285714       0.28571429       0.28571429 </v>
   <v>       0.28571429       0.28571429       0.28571429 </v>
   <v>       0.42857143       0.28571429       0.28571429 </v>
   <v>      -0.42857143       0.28571429       0.28571429 </v>
   <v>      -0.28571429       0.28571429       0.28571429 </v>
   <v>      -0.14285714       0.28571429       0.28571429 </v>
   <v>       0.00000000       0.42857143       0.28571429 </v>
   <v>       0.14285714       0.42857143       0.28571429 </v>
   <v>       0.28571429       0.42857143       0.28571429 </v>
   <v>       0.42857143       0.42857143       0.28571429 </v>
   <v>      -0.42857143       0.42857143       0.28571429 </v>
   <v>      -0.28571429       0.42857143       0.28571429 </v>
   <v>      -0.14285714       0.42857143       0.28571429 </v>
   <v>      -0.00000000      -0.42857143       0.28571429 </v>
   <v>       0.14285714      -0.42857143       0.28571429 </v>
   <v>       0.28571429      -0.42857143       0.28571429 </v>
   <v>       0.42857143      -0.42857143       0.28571429 </v>
   <v>      -0.42857143      -0.42857143       0.28571429 </v>
   <v>      -0.28571429      -0.42857143       0.28571429 </v>
   <v>      -0.14285714      -0.42857143       0.28571429 </v>
   <v>       0.00000000      -0.28571429       0.28571429 </v>
   <v>       0.14285714      -0.28571429       0.28571429 </v>
   <v>       0.28571429      -0.28571429       0.28571429 </v>
   <v>       0.42857143      -0.28571429       0.28571429 </v>
   <v>      -0.42857143      -0.28571429       0.28571429 </v>
   <v>      -0.28571429      -0.28571429       0.28571429 </v>
   <v>      -0.14285714      -0.28571429       0.28571429 </v>
   <v>       0.00000000      -0.14285714       0.28571429 </v>
   <v>       0.14285714      -0.14285714       0.28571429 </v>
   <v>       0.28571429      -0.14285714       0.28571429 </v>
   <v>       0.42857143      -0.14285714       0.28571429 </v>
   <v>      -0.42857143      -0.14285714       0.28571429 </v>
   <v>      -0.28571429      -0.14285714       0.28571429 </v>
   <v>      -0.14285714      -0.14285714       0.28571429 </v>
   <v>       0.00000000       0.00000000       0.42857143 </v>
   <v>       0.14285714       0.00000000       0.42857143 </v>
   <v>       0.28571429       0.00000000       0.42857143 </v>
   <v>       0.42857143      -0.00000000       0.42857143 </v>
   <v>      -0.42857143      -0.00000000       0.42857143 </v>
   <v>      -0.28571429       0.00000000       0.42857143 </v>
   <v>      -0.14285714      -0.00000000       0.42857143 </v>
   <v>      -0.00000000       0.14285714       0.42857143 </v>
   <v>       0.14285714       0.14285714       0.42857143 </v>
   <v>       0.28571429       0.14285714       0.42857143 </v>
   <v>       0.42857143       0.14285714       0.42857143 </v>
   <v>      -0.42857143       0.14285714       0.42857143 </v>
   <v>      -0.28571429       0.14285714       0.42857143 </v>
   <v>      -0.14285714       0.14285714       0.42857143 </v>
   <v>       0.00000000       0.28571429       0.42857143 </v>
   <v>       0.14285714       0.28571429       0.42857143 </v>
   <v>       0.28571429       0.28571429       0.42857143 </v>
   <v>       0.42857143       0.28571429       0.42857143 </v>
   <v>      -0.42857143       0.28571429       0.42857143 </v>
   <v>      -0.28571429       0.28571429       0.42857143 </v>
   <v>      -0.14285714       0.28571429       0.42857143 </v>
   <v>       0.00000000       0.42857143       0.42857143 </v>
   <v>       0.14285714       0.42857143       0.42857143 </v>
   <v>       0.28571429       0.42857143       0.42857143 </v>
   <v>       0.42857143       0.42857143       0.42857143 </v>
   <v>      -0.42857143       0.42857143       0.42857143 </v>
   <v>      -0.28571429       0.42857143       0.42857143 </v>
   <v>      -0.14285714       0.42857143       0.42857143 </v>
   <v>       0.00000000      -0.42857143       0.42857143 </v>
   <v>       0.14285714      -0.42857143       0.42857143 </v>
   <v>       0.28571429      -0.42857143       0.42857143 </v>
   <v>       0.42857143      -0.42857143       0.42857143 </v>
   <v>      -0.42857143      -0.42857143       0.42857143 </v>
   <v>      -0.28571429      -0.42857143       0.42857143 </v>
   <v>      -0.14285714      -0.42857143       0.42857143 </v>
   <v>      -0.00000000      -0.28571429       0.42857143 </v>
   <v>       0.14285714      -0.28571429       0.42857143 </v>
   <v>       0.28571429      -0.28571429       0.42857143 </v>
   <v>       0.42857143      -0.28571429       0.42857143 </v>
   <v>      -0.42857143      -0.28571429       0.42857143 </v>
   <v>      -0.28571429      -0.28571429       0.42857143 </v>
   <v>      -0.14285714      -0.28571429       0.42857143 </v>
   <v>       0.00000000      -0.14285714       0.42857143 </v>
   <v>       0.14285714      -0.14285714       0.42857143 </v>
   <v>       0.28571429      -0.14285714       0.42857143 </v>
   <v>       0.42857143      -0.14285714       0.42857143 </v>
   <v>      -0.42857143      -0.14285714       0.42857143 </v>
   <v>      -0.28571429      -0.14285714       0.42857143 </v>
   <v>      -0.14285714      -0.14285714       0.42857143 </v>
  </varray>
  <varray name="weights" >
   <v>       0.00291545 </v>
   <v>       0.00583090 </v>
   <v>       0.00583090 </v>
   <v>       0.00583090 </v>
   <v>       0.00583090 </v>
   <v>       0.00583090 </v>
   <v>       0.00583090 </v>
   <v>       0.00583090 </v>
   <v>       0.00583090 </v>
   <v>       0.00583090 </v>
   <v>       0.00583090 </v>
   <v>       0.00583090 </v>
   <v>       0.00583090 </v>
   <v>       0.00583090 </v>
   <v>       0.00583090 </v>
   <v>       0.00583090 </v>
   <v>       0.00583090 </v>
   <v>       0.00583090 </v>
   <v>       0.00583090 </v>
   <v>       0.00583090 </v>
   <v>       0.00583090 </v>
   <v>       0.00583090 </v>
   <v>       0.00583090 </v>
   <v>       0.00583090 </v>
   <v>       0.00583090 </v>
   <v>       0.00583090 </v>
   <v>       0.00583090 </v>
   <v>       0.00583090 </v>
   <v>       0.00583090 </v>
   <v>       0.00583090 </v>
   <v>       0.00583090 </v>
   <v>       0.00583090 </v>
   <v>       0.00583090 </v>
   <v>       0.00583090 </v>
   <v>       0.00583090 </v>
   <v>       0.00583090 </v>
   <v>       0.00583090 </v>
   <v>       0.00583090 </v>
   <v>       0.00583090 </v>
   <v>       0.00583090 </v>
   <v>       0.00583090 </v>
   <v>       0.00583090 </v>
   <v>       0.00583090 </v>
   <v>       0.00583090 </v>
   <v>       0.00583090 </v>
   <v>       0.00583090 </v>
   <v>       0.00583090 </v>
   <v>       0.00583090 </v>
   <v>       0.00583090 </v>
   <v>       0.00583090 </v>
   <v>       0.00583090 </v>
   <v>       0.00583090 </v>
   <v>       0.00583090 </v>
   <v>       0.00583090 </v>
   <v>       0.00583090 </v>
   <v>       0.00583090 </v>
   <v>       0.00583090 </v>
   <v>       0.00583090 </v>
   <v>       0.00583090 </v>
   <v>       0.00583090 </v>
   <v>       0.00583090 </v>
   <v>       0.00583090 </v>
   <v>       0.00583090 </v>
   <v>       0.00583090 </v>
   <v>       0.00583090 </v>
   <v>       0.00583090 </v>
   <v>       0.00583090 </v>
   <v>       0.00583090 </v>
   <v>       0.00583090 </v>
   <v>       0.00583090 </v>
   <v>       0.00583090 </v>
   <v>       0.00583090 </v>
   <v>       0.00583090 </v>
   <v>       0.00583090 </v>
   <v>       0.00583090 </v>
   <v>       0.00583090 </v>
   <v>       0.00583090 </v>
   <v>       0.00583090 </v>
   <v>       0.00583090 </v>
   <v>       0.00583090 </v>
   <v>       0.00583090 </v>
   <v>       0.00583090 </v>
   <v>       0.00583090 </v>
   <v>       0.00583090 </v>
   <v>       0.00583090 </v>
   <v>       0.00583090 </v>
   <v>       0.00583090 </v>
   <v>       0.00583090 </v>
   <v>       0.00583090 </v>
   <v>       0.00583090 </v>
   <v>       0.00583090 </v>
   <v>       0.00583090 </v>
   <v>       0.00583090 </v>
   <v>       0.00583090 </v>
   <v>       0.00583090 </v>
   <v>       0.00583090 </v>
   <v>       0.00583090 </v>
   <v>       0.00583090 </v>
   <v>       0.00583090 </v>
   <v>       0.00583090 </v>
   <v>       0.00583090 </v>
   <v>       0.00583090 </v>
   <v>       0.00583090 </v>
   <v>       0.00583090 </v>
   <v>       0.00583090 </v>
   <v>       0.00583090 </v>
   <v>       0.00583090 </v>
   <v>       0.00583090 </v>
   <v>       0.00583090 </v>
   <v>       0.00583090 </v>
   <v>       0.00583090 </v>
   <v>       0.00583090 </v>
   <v>       0.00583090 </v>
   <v>       0.00583090 </v>
   <v>       0.00583090 </v>
   <v>       0.00583090 </v>
   <v>       0.00583090 </v>
   <v>       0.00583090 </v>
   <v>       0.00583090 </v>
   <v>       0.00583090 </v>
   <v>       0.00583090 </v>
   <v>       0.00583090 </v>
   <v>       0.00583090 </v>
   <v>       0.00583090 </v>
   <v>       0.00583090 </v>
   <v>       0.00583090 </v>
   <v>       0.00583090 </v>
   <v>       0.00583090 </v>
   <v>       0.00583090 </v>
   <v>       0.00583090 </v>
   <v>       0.00583090 </v>
   <v>       0.00583090 </v>
   <v>       0.00583090 </v>
   <v>       0.00583090 </v>
   <v>       0.00583090 </v>
   <v>       0.00583090 </v>
   <v>       0.00583090 </v>
   <v>       0.00583090 </v>
   <v>       0.00583090 </v>
   <v>       0.00583090 </v>
   <v>       0.00583090 </v>
   <v>       0.00583090 </v>
   <v>       0.00583090 </v>
   <v>       0.00583090 </v>
   <v>       0.00583090 </v>
   <v>       0.00583090 </v>
   <v>       0.00583090 </v>
   <v>       0.00583090 </v>
   <v>       0.00583090 </v>
   <v>       0.00583090 </v>
   <v>       0.00583090 </v>
   <v>       0.00583090 </v>
   <v>       0.00583090 </v>
   <v>       0.00583090 </v>
   <v>       0.00583090 </v>
   <v>       0.00583090 </v>
   <v>       0.00583090 </v>
   <v>       0.00583090 </v>
   <v>       0.00583090 </v>
   <v>       0.00583090 </v>
   <v>       0.00583090 </v>
   <v>       0.00583090 </v>
   <v>       0.00583090 </v>
   <v>       0.00583090 </v>
   <v>       0.00583090 </v>
   <v>       0.00583090 </v>
   <v>       0.00583090 </v>
   <v>       0.00583090 </v>
   <v>       0.00583090 </v>
   <v>       0.00583090 </v>
   <v>       0.00583090 </v>
   <v>       0.00583090 </v>
  </varray>
 </kpoints>
 <parameters>
  <separator name="general" >
   <i type="string" name="SYSTEM">Nb - Mo - Ta - Ti - V SQS</i>
   <i type="logical" name="LCOMPAT"> F  </i>
  </separator>
  <separator name="electronic" >
   <i type="string" name="PREC">normal</i>
   <i name="ENMAX">    600.00000000</i>
   <i name="ENAUG">    455.65900000</i>
   <i name="EDIFF">      0.00010000</i>
   <i type="int" name="IALGO">    38</i>
   <i type="int" name="IWAVPR">    11</i>
   <i type="int" name="NBANDS">   120</i>
   <i name="NELECT">    185.00000000</i>
   <i type="int" name="TURBO">     0</i>
   <i type="int" name="IRESTART">     0</i>
   <i type="int" name="NREBOOT">     0</i>
   <i type="int" name="NMIN">     0</i>
   <i name="EREF">      0.00000000</i>
   <separator name="electronic smearing" >
    <i type="int" name="ISMEAR">     1</i>
    <i name="SIGMA">      0.20000000</i>
    <i name="KSPACING">      0.50000000</i>
    <i type="logical" name="KGAMMA"> T  </i>
   </separator>
   <separator name="electronic projectors" >
    <i type="logical" name="LREAL"> T  </i>
    <v name="ROPT">     -0.00050000     -0.00050000     -0.00050000     -0.00050000     -0.00050000</v>
    <i type="int" name="LMAXPAW">  -100</i>
    <i type="int" name="LMAXMIX">     2</i>
    <i type="logical" name="NLSPLINE"> F  </i>
   </separator>
   <separator name="electronic startup" >
    <i type="int" name="ISTART">     0</i>
    <i type="int" name="ICHARG">     2</i>
    <i type="int" name="INIWAV">     1</i>
   </separator>
   <separator name="electronic spin" >
    <i type="int" name="ISPIN">     1</i>
    <i type="logical" name="LNONCOLLINEAR"> F  </i>
    <v name="MAGMOM">      1.00000000      1.00000000      1.00000000      1.00000000      1.00000000      1.00000000      1.00000000      1.00000000      1.00000000      1.00000000      1.00000000      1.00000000      1.00000000      1.00000000      1.00000000      1.00000000      1.00000000      1.00000000      1.00000000      1.00000000
      1.00000000      1.00000000      1.00000000      1.00000000      1.00000000      1.00000000      1.00000000      1.00000000      1.00000000</v>
    <i name="NUPDOWN">     -1.00000000</i>
    <i type="logical" name="LSORBIT"> F  </i>
    <v name="SAXIS">      0.00000000      0.00000000      1.00000000</v>
    <i type="logical" name="LSPIRAL"> F  </i>
    <v name="QSPIRAL">      0.00000000      0.00000000      0.00000000</v>
    <i type="logical" name="LZEROZ"> F  </i>
   </separator>
   <separator name="electronic exchange-correlation" >
    <i type="logical" name="LASPH"> F  </i>
    <i type="logical" name="LMETAGGA"> F  </i>
   </separator>
   <separator name="electronic convergence" >
    <i type="int" name="NELM">    60</i>
    <i type="int" name="NELMDL">     0</i>
    <i type="int" name="NELMIN">     2</i>
    <i name="ENINI">    600.00000000</i>
    <separator name="electronic convergence detail" >
     <i type="logical" name="LDIAG"> T  </i>
     <i type="logical" name="LSUBROT"> F  </i>
     <i name="WEIMIN">      0.00100000</i>
     <i name="EBREAK">      0.00000021</i>
     <i name="DEPER">      0.30000000</i>
     <i type="int" name="NRMM">     4</i>
     <i name="TIME">      0.40000000</i>
    </separator>
   </separator>
   <separator name="electronic mixer" >
    <i name="AMIX">      0.40000000</i>
    <i name="BMIX">      1.00000000</i>
    <i name="AMIN">      0.10000000</i>
    <i name="AMIX_MAG">      1.60000000</i>
    <i name="BMIX_MAG">      1.00000000</i>
    <separator name="electronic mixer details" >
     <i type="int" name="IMIX">     4</i>
     <i type="logical" name="MIXFIRST"> F  </i>
     <i type="int" name="MAXMIX">   -45</i>
     <i name="WC">    100.00000000</i>
     <i type="int" name="INIMIX">     1</i>
     <i type="int" name="MIXPRE">     1</i>
     <i type="int" name="MREMOVE">     5</i>
    </separator>
   </separator>
   <separator name="electronic dipolcorrection" >
    <i type="logical" name="LDIPOL"> F  </i>
    <i type="logical" name="LMONO"> F  </i>
    <i type="int" name="IDIPOL">     0</i>
    <i name="EPSILON">      1.00000000</i>
    <v name="DIPOL">   -100.00000000   -100.00000000   -100.00000000</v>
    <i name="EFIELD">      0.00000000</i>
   </separator>
  </separator>
  <separator name="grids" >
   <i type="int" name="NGX">    36</i>
   <i type="int" name="NGY">    50</i>
   <i type="int" name="NGZ">    70</i>
   <i type="int" name="NGXF">    72</i>
   <i type="int" name="NGYF">   100</i>
   <i type="int" name="NGZF">   140</i>
   <i type="logical" name="ADDGRID"> F  </i>
  </separator>
  <separator name="ionic" >
   <i type="int" name="NSW">    50</i>
   <i type="int" name="IBRION">     2</i>
   <i type="int" name="MDALGO">     0</i>
   <i type="int" name="ISIF">     3</i>
   <i name="PSTRESS">      0.00000000</i>
   <i name="EDIFFG">      0.00100000</i>
   <i type="int" name="NFREE">     1</i>
   <i name="POTIM">      0.50000000</i>
   <i name="SMASS">     -3.00000000</i>
   <i name="SCALEE">      1.00000000</i>
  </separator>
  <separator name="ionic md" >
   <i name="TEBEG">      0.00010000</i>
   <i name="TEEND">      0.00010000</i>
   <i type="int" name="NBLOCK">     1</i>
   <i type="int" name="KBLOCK">    50</i>
   <i type="int" name="NPACO">   256</i>
   <i name="APACO">     16.00000000</i>
  </separator>
  <separator name="symmetry" >
   <i type="int" name="ISYM">     2</i>
   <i name="SYMPREC">      0.00001000</i>
  </separator>
  <separator name="dos" >
   <i type="int" name="LORBIT">     0</i>
   <v name="RWIGS">     -1.00000000     -1.00000000     -1.00000000     -1.00000000     -1.00000000</v>
   <i type="int" name="NEDOS">   301</i>
   <i name="EMIN">     10.00000000</i>
   <i name="EMAX">    -10.00000000</i>
   <i name="EFERMI">      0.00000000</i>
  </separator>
  <separator name="writing" >
   <i type="int" name="NWRITE">     2</i>
   <i type="logical" name="LWAVE"> T  </i>
   <i type="logical" name="LDOWNSAMPLE"> F  </i>
   <i type="logical" name="LCHARG"> T  </i>
   <i type="logical" name="LPARD"> F  </i>
   <i type="logical" name="LVTOT"> F  </i>
   <i type="logical" name="LVHAR"> F  </i>
   <i type="logical" name="LELF"> F  </i>
   <i type="logical" name="LOPTICS"> F  </i>
   <v name="STM">      0.00000000      0.00000000      0.00000000      0.00000000      0.00000000      0.00000000      0.00000000</v>
  </separator>
  <separator name="performance" >
   <i type="int" name="NPAR">    12</i>
   <i type="int" name="NSIM">     4</i>
   <i type="int" name="NBLK">    -1</i>
   <i type="logical" name="LPLANE"> T  </i>
   <i type="logical" name="LSCALAPACK"> T  </i>
   <i type="logical" name="LSCAAWARE"> F  </i>
   <i type="logical" name="LSCALU"> F  </i>
   <i type="logical" name="LASYNC"> F  </i>
   <i type="logical" name="LORBITALREAL"> F  </i>
  </separator>
  <separator name="miscellaneous" >
   <i type="int" name="IDIOT">     3</i>
   <i type="int" name="ISPECIAL">     0</i>
   <i type="logical" name="LMUSIC"> F  </i>
   <v name="POMASS">     92.91000000     95.94000000    180.94800000     47.88000000     50.94100000</v>
   <v name="DARWINR">      0.00000000      0.00000000      0.00000000      0.00000000      0.00000000</v>
   <v name="DARWINV">      1.00000000      1.00000000      1.00000000      1.00000000      1.00000000</v>
   <i type="logical" name="LCORR"> T  </i>
  </separator>
  <i type="logical" name="GGA_COMPAT"> T  </i>
  <i type="logical" name="LBERRY"> F  </i>
  <i type="int" name="ICORELEVEL">     0</i>
  <i type="logical" name="LDAU"> F  </i>
  <i type="int" name="I_CONSTRAINED_M">     0</i>
  <separator name="electronic exchange-correlation" >
   <i type="string" name="GGA">PS</i>
   <i type="int" name="VOSKOWN">     0</i>
   <i type="logical" name="LHFCALC"> F  </i>
   <i type="string" name="PRECFOCK"></i>
   <i type="logical" name="LSYMGRAD"> F  </i>
   <i type="logical" name="LHFONE"> F  </i>
   <i type="logical" name="LRHFCALC"> F  </i>
   <i type="logical" name="LTHOMAS"> F  </i>
   <i type="logical" name="LMODELHF"> F  </i>
   <i name="ENCUT4O">     -1.00000000</i>
   <i type="int" name="EXXOEP">     0</i>
   <i type="int" name="FOURORBIT">     0</i>
   <i name="AEXX">      0.00000000</i>
   <i name="HFALPHA">      0.00000000</i>
   <i name="MCALPHA">      0.00000000</i>
   <i name="ALDAX">      1.00000000</i>
   <i name="AGGAX">      1.00000000</i>
   <i name="ALDAC">      1.00000000</i>
   <i name="AGGAC">      1.00000000</i>
   <i type="int" name="NKREDX">     1</i>
   <i type="int" name="NKREDY">     1</i>
   <i type="int" name="NKREDZ">     1</i>
   <i type="logical" name="SHIFTRED"> F  </i>
   <i type="logical" name="ODDONLY"> F  </i>
   <i type="logical" name="EVENONLY"> F  </i>
   <i type="int" name="LMAXFOCK">     0</i>
   <i type="int" name="NMAXFOCKAE">     0</i>
   <i type="logical" name="LFOCKAEDFT"> F  </i>
   <i name="HFSCREEN">      0.00000000</i>
   <i name="HFSCREENC">      0.00000000</i>
   <i type="int" name="NBANDSGWLOW">     0</i>
  </separator>
  <separator name="vdW DFT" >
   <i type="logical" name="LUSE_VDW"> F  </i>
   <i name="Zab_VDW">     -0.84910000</i>
   <i name="PARAM1">      0.12340000</i>
   <i name="PARAM2">      1.00000000</i>
   <i name="PARAM3">      0.00000000</i>
  </separator>
  <separator name="model GW" >
   <i type="int" name="MODEL_GW">     0</i>
   <i name="MODEL_EPS0">      9.79277462</i>
   <i name="MODEL_ALPHA">      1.00000000</i>
  </separator>
  <separator name="linear response parameters" >
   <i type="logical" name="LEPSILON"> F  </i>
   <i type="logical" name="LRPA"> F  </i>
   <i type="logical" name="LNABLA"> F  </i>
   <i type="logical" name="LVEL"> F  </i>
   <i type="int" name="KINTER">     0</i>
   <i name="CSHIFT">      0.10000000</i>
   <i name="OMEGAMAX">     -1.00000000</i>
   <i name="DEG_THRESHOLD">      0.00200000</i>
   <i name="RTIME">     -0.10000000</i>
   <i name="WPLASMAI">      0.00000000</i>
   <v name="DFIELD">      0.00000000      0.00000000      0.00000000</v>
   <v name="WPLASMA">      0.00000000      0.00000000      0.00000000      0.00000000      0.00000000      0.00000000      0.00000000      0.00000000      0.00000000</v>
  </separator>
  <separator name="orbital magnetization" >
   <i type="logical" name="NUCIND"> F  </i>
   <v name="MAGPOS">      0.00000000      0.00000000      0.00000000</v>
   <i type="logical" name="LNICSALL"> T  </i>
   <i type="logical" name="ORBITALMAG"> F  </i>
   <i type="logical" name="LMAGBLOCH"> F  </i>
   <i type="logical" name="LCHIMAG"> F  </i>
   <i type="logical" name="LGAUGE"> T  </i>
   <i type="int" name="MAGATOM">     0</i>
   <v name="MAGDIPOL">      0.00000000      0.00000000      0.00000000</v>
   <v name="AVECCONST">      0.00000000      0.00000000      0.00000000</v>
  </separator>
  <separator name="response functions" >
   <i type="logical" name="LADDER"> F  </i>
   <i type="logical" name="LRPAFORCE"> F  </i>
   <i type="logical" name="LFXC"> F  </i>
   <i type="logical" name="LHARTREE"> T  </i>
   <i type="int" name="IBSE">     0</i>
   <v type="int" name="KPOINT">    -1     0     0     0</v>
   <i type="logical" name="LTCTE"> F  </i>
   <i type="logical" name="LTETE"> F  </i>
   <i type="logical" name="LTRIPLET"> F  </i>
   <i type="logical" name="LFXCEPS"> F  </i>
   <i type="logical" name="LFXHEG"> F  </i>
   <i type="int" name="NATURALO">     2</i>
   <i type="logical" name="L2ORDER"> F  </i>
   <i type="logical" name="LMP2LT"> F  </i>
   <i type="logical" name="LUSEW"> F  </i>
   <i name="ENCUTGW">     -2.00000000</i>
   <i name="ENCUTGWSOFT">     -2.00000000</i>
   <i name="ENCUTLF">     -1.00000000</i>
   <i type="int" name="LMAXMP2">    -1</i>
   <i name="SCISSOR">      0.00000000</i>
   <i type="int" name="NOMEGA">     0</i>
   <i type="int" name="NOMEGAR">     0</i>
   <i type="int" name="NBANDSGW">    -1</i>
   <i type="int" name="NBANDSO">    -1</i>
   <i type="int" name="NBANDSV">    -1</i>
   <i type="int" name="NELM">     1</i>
   <i type="int" name="NELMHF">     1</i>
   <i type="int" name="DIM">     3</i>
   <i type="int" name="ANTIRES">     0</i>
   <i name="OMEGAMAX">    -30.00000000</i>
   <i name="OMEGAMIN">    -30.00000000</i>
   <i name="OMEGATL">   -200.00000000</i>
   <i type="int" name="OMEGAGRID">   140</i>
   <i name="CSHIFT">     -0.10000000</i>
   <i type="logical" name="SELFENERGY"> F  </i>
   <i type="logical" name="LSPECTRAL"> F  </i>
   <i type="logical" name="LSPECTRALGW"> F  </i>
   <i type="logical" name="LSINGLES"> F  </i>
   <i type="logical" name="LFERMIGW"> F  </i>
   <i type="logical" name="ODDONLYGW"> F  </i>
   <i type="logical" name="EVENONLYGW"> F  </i>
   <i type="int" name="NKREDLFX">     1</i>
   <i type="int" name="NKREDLFY">     1</i>
   <i type="int" name="NKREDLFZ">     1</i>
   <i type="int" name="MAXMEM">  2800</i>
   <i type="int" name="TELESCOPE">     0</i>
   <i type="int" name="TAUPAR">     1</i>
   <i type="int" name="OMEGAPAR">    -1</i>
   <i name="LAMBDA">      1.00000000</i>
  </separator>
  <separator name="External order field" >
   <i name="OFIELD_KAPPA">      0.00000000</i>
   <v name="OFIELD_K">      0.00000000      0.00000000      0.00000000</v>
   <i name="OFIELD_Q6_NEAR">      0.00000000</i>
   <i name="OFIELD_Q6_FAR">      0.00000000</i>
   <i name="OFIELD_A">      0.00000000</i>
  </separator>
  <separator name="solvation model" >
   <i type="logical" name="LSOL"> F  </i>
  </separator>
 </parameters>
 <atominfo>
  <atoms>      29 </atoms>
  <types>       5 </types>
  <array name="atoms" >
   <dimension dim="1">ion</dimension>
   <field type="string">element</field>
   <field type="int">atomtype</field>
   <set>
    <rc><c>Nb</c><c>   1</c></rc>
    <rc><c>Nb</c><c>   1</c></rc>
    <rc><c>Nb</c><c>   1</c></rc>
    <rc><c>Nb</c><c>   1</c></rc>
    <rc><c>Nb</c><c>   1</c></rc>
    <rc><c>Mo</c><c>   2</c></rc>
    <rc><c>Mo</c><c>   2</c></rc>
    <rc><c>Mo</c><c>   2</c></rc>
    <rc><c>Mo</c><c>   2</c></rc>
    <rc><c>Mo</c><c>   2</c></rc>
    <rc><c>Mo</c><c>   2</c></rc>
    <rc><c>Ta</c><c>   3</c></rc>
    <rc><c>Ta</c><c>   3</c></rc>
    <rc><c>Ta</c><c>   3</c></rc>
    <rc><c>Ta</c><c>   3</c></rc>
    <rc><c>Ta</c><c>   3</c></rc>
    <rc><c>Ta</c><c>   3</c></rc>
    <rc><c>Ti</c><c>   4</c></rc>
    <rc><c>Ti</c><c>   4</c></rc>
    <rc><c>Ti</c><c>   4</c></rc>
    <rc><c>Ti</c><c>   4</c></rc>
    <rc><c>Ti</c><c>   4</c></rc>
    <rc><c>Ti</c><c>   4</c></rc>
    <rc><c>V </c><c>   5</c></rc>
    <rc><c>V </c><c>   5</c></rc>
    <rc><c>V </c><c>   5</c></rc>
    <rc><c>V </c><c>   5</c></rc>
    <rc><c>V </c><c>   5</c></rc>
    <rc><c>V </c><c>   5</c></rc>
   </set>
  </array>
  <array name="atomtypes" >
   <dimension dim="1">type</dimension>
   <field type="int">atomspertype</field>
   <field type="string">element</field>
   <field>mass</field>
   <field>valence</field>
   <field type="string">pseudopotential</field>
   <set>
    <rc><c>   5</c><c>Nb</c><c>     92.91000000</c><c>     13.00000000</c><c>  PAW_PBE Nb_sv 25May2007               </c></rc>
    <rc><c>   6</c><c>Mo</c><c>     95.94000000</c><c>      6.00000000</c><c>  PAW_PBE Mo 08Apr2002                  </c></rc>
    <rc><c>   6</c><c>Ta</c><c>    180.94800000</c><c>      5.00000000</c><c>  PAW_PBE Ta 17Jan2003                  </c></rc>
    <rc><c>   6</c><c>Ti</c><c>     47.88000000</c><c>      4.00000000</c><c>  PAW_PBE Ti 08Apr2002                  </c></rc>
    <rc><c>   6</c><c>V </c><c>     50.94100000</c><c>      5.00000000</c><c>  PAW_PBE V 08Apr2002                   </c></rc>
   </set>
  </array>
 </atominfo>
 <structure name="initialpos" >
  <crystal>
   <varray name="basis" >
    <v>      -3.16000000      -3.16000000      -3.16000000 </v>
    <v>       1.58000000       1.58000000      -7.90000000 </v>
    <v>       7.90000000      -7.90000000      -1.58000000 </v>
   </varray>
   <i name="volume">    473.31744000 </i>
   <varray name="rec_basis" >
    <v>      -0.13713080      -0.12658228      -0.05274262 </v>
    <v>       0.04219409       0.06329114      -0.10548523 </v>
    <v>       0.06329114      -0.06329114       0.00000000 </v>
   </varray>
  </crystal>
  <varray name="positions" >
   <v>       0.96666667       0.93333333       0.40000000 </v>
   <v>       0.50000000       0.00000000       0.00000000 </v>
   <v>       0.00000000       0.00000000       0.00000000 </v>
   <v>       0.10000000       0.20000000       0.80000000 </v>
   <v>       0.03333333       0.06666667       0.60000000 </v>
   <v>       0.90000000       0.80000000       0.20000000 </v>
   <v>       0.80000000       0.60000000       0.40000000 </v>
   <v>       0.73333333       0.46666667       0.20000000 </v>
   <v>       0.66666667       0.33333333       0.00000000 </v>
   <v>       0.36666667       0.73333333       0.60000000 </v>
   <v>       0.13333333       0.26666667       0.40000000 </v>
   <v>       0.83333333       0.66666667       0.00000000 </v>
   <v>       0.93333333       0.86666667       0.80000000 </v>
   <v>       0.56666667       0.13333333       0.20000000 </v>
   <v>       0.40000000       0.80000000       0.20000000 </v>
   <v>       0.43333333       0.86666667       0.80000000 </v>
   <v>       0.30000000       0.60000000       0.40000000 </v>
   <v>       0.86666667       0.73333333       0.60000000 </v>
   <v>       0.46666667       0.93333333       0.40000000 </v>
   <v>       0.16666667       0.33333333       0.00000000 </v>
   <v>       0.26666667       0.53333333       0.80000000 </v>
   <v>       0.20000000       0.40000000       0.60000000 </v>
   <v>       0.06666667       0.13333333       0.20000000 </v>
   <v>       0.76666667       0.53333333       0.80000000 </v>
   <v>       0.70000000       0.40000000       0.60000000 </v>
   <v>       0.60000000       0.20000000       0.80000000 </v>
   <v>       0.53333333       0.06666667       0.60000000 </v>
   <v>       0.33333333       0.66666667       0.00000000 </v>
   <v>       0.23333333       0.46666667       0.20000000 </v>
  </varray>
 </structure>
 <calculation>
  <scstep>
   <time name="dav">   33.01   33.07</time>
   <time name="total">   33.13   33.30</time>
   <energy>
    <i name="alphaZ">   1104.47950323 </i>
    <i name="ewald"> -10043.50058016 </i>
    <i name="hartreedc">  -2938.70463840 </i>
    <i name="XCdc">   -950.04901508 </i>
    <i name="pawpsdc">  10856.58693382 </i>
    <i name="pawaedc">  -9371.53303474 </i>
    <i name="eentropy">     -0.00314921 </i>
    <i name="bandstr">   2123.81813948 </i>
    <i name="atom">  11451.57642151 </i>
    <i name="e_fr_energy">   2232.67058043 </i>
    <i name="e_wo_entrp">   2232.67372964 </i>
    <i name="e_0_energy">   2232.67163017 </i>
   </energy>
  </scstep>
  <scstep>
   <time name="dav">   35.54   35.60</time>
   <time name="total">   35.55   35.61</time>
   <energy>
    <i name="e_fr_energy">    170.73724592 </i>
    <i name="e_wo_entrp">    170.73979710 </i>
    <i name="e_0_energy">    170.73809631 </i>
   </energy>
  </scstep>
  <scstep>
   <time name="dav">   49.19   49.25</time>
   <time name="total">   49.20   49.26</time>
   <energy>
    <i name="e_fr_energy">   -263.42104915 </i>
    <i name="e_wo_entrp">   -263.42111146 </i>
    <i name="e_0_energy">   -263.42106992 </i>
   </energy>
  </scstep>
  <scstep>
   <time name="dav">   50.64   50.71</time>
   <time name="total">   50.65   50.71</time>
   <energy>
    <i name="e_fr_energy">   -327.86302103 </i>
    <i name="e_wo_entrp">   -327.86493847 </i>
    <i name="e_0_energy">   -327.86366018 </i>
   </energy>
  </scstep>
  <scstep>
   <time name="dav">   53.64   53.71</time>
   <time name="total">   54.25   54.32</time>
   <energy>
    <i name="e_fr_energy">   -335.55911823 </i>
    <i name="e_wo_entrp">   -335.55859147 </i>
    <i name="e_0_energy">   -335.55894264 </i>
   </energy>
  </scstep>
  <scstep>
   <time name="dav">   52.99   53.05</time>
   <time name="total">   53.68   53.74</time>
   <energy>
    <i name="e_fr_energy">   -374.07654546 </i>
    <i name="e_wo_entrp">   -374.07096584 </i>
    <i name="e_0_energy">   -374.07468558 </i>
   </energy>
  </scstep>
  <scstep>
   <time name="dav">   54.44   54.51</time>
   <time name="total">   55.12   55.20</time>
   <energy>
    <i name="e_fr_energy">   -320.76068840 </i>
    <i name="e_wo_entrp">   -320.75869305 </i>
    <i name="e_0_energy">   -320.76002328 </i>
   </energy>
  </scstep>
  <scstep>
   <time name="dav">   46.62   46.67</time>
   <time name="total">   47.30   47.36</time>
   <energy>
    <i name="e_fr_energy">   -327.91407444 </i>
    <i name="e_wo_entrp">   -327.92277985 </i>
    <i name="e_0_energy">   -327.91697624 </i>
   </energy>
  </scstep>
  <scstep>
   <time name="dav">   49.25   49.30</time>
   <time name="total">   49.93   49.99</time>
   <energy>
    <i name="e_fr_energy">   -315.53732569 </i>
    <i name="e_wo_entrp">   -315.53197192 </i>
    <i name="e_0_energy">   -315.53554110 </i>
   </energy>
  </scstep>
  <scstep>
   <time name="dav">   47.30   47.35</time>
   <time name="total">   47.98   48.04</time>
   <energy>
    <i name="e_fr_energy">   -308.55950963 </i>
    <i name="e_wo_entrp">   -308.54882572 </i>
    <i name="e_0_energy">   -308.55594833 </i>
   </energy>
  </scstep>
  <scstep>
   <time name="dav">   47.17   47.22</time>
   <time name="total">   47.84   47.89</time>
   <energy>
    <i name="e_fr_energy">   -306.61504761 </i>
    <i name="e_wo_entrp">   -306.59802805 </i>
    <i name="e_0_energy">   -306.60937443 </i>
   </energy>
  </scstep>
  <scstep>
   <time name="dav">   49.50   49.56</time>
   <time name="total">   50.18   50.25</time>
   <energy>
    <i name="e_fr_energy">   -305.52772434 </i>
    <i name="e_wo_entrp">   -305.50679308 </i>
    <i name="e_0_energy">   -305.52074726 </i>
   </energy>
  </scstep>
  <scstep>
   <time name="dav">   48.57   48.62</time>
   <time name="total">   49.25   49.31</time>
   <energy>
    <i name="e_fr_energy">   -305.07684741 </i>
    <i name="e_wo_entrp">   -305.05657130 </i>
    <i name="e_0_energy">   -305.07008871 </i>
   </energy>
  </scstep>
  <scstep>
   <time name="dav">   48.15   48.20</time>
   <time name="total">   48.82   48.88</time>
   <energy>
    <i name="e_fr_energy">   -304.97786117 </i>
    <i name="e_wo_entrp">   -304.95739310 </i>
    <i name="e_0_energy">   -304.97103848 </i>
   </energy>
  </scstep>
  <scstep>
   <time name="dav">   47.67   47.72</time>
   <time name="total">   48.35   48.40</time>
   <energy>
    <i name="e_fr_energy">   -304.88759600 </i>
    <i name="e_wo_entrp">   -304.86458420 </i>
    <i name="e_0_energy">   -304.87992540 </i>
   </energy>
  </scstep>
  <scstep>
   <time name="dav">   48.95   49.02</time>
   <time name="total">   49.63   49.71</time>
   <energy>
    <i name="e_fr_energy">   -304.65130305 </i>
    <i name="e_wo_entrp">   -304.63811526 </i>
    <i name="e_0_energy">   -304.64690712 </i>
   </energy>
  </scstep>
  <scstep>
   <time name="dav">   47.63   47.69</time>
   <time name="total">   48.30   48.37</time>
   <energy>
    <i name="e_fr_energy">   -304.60808337 </i>
    <i name="e_wo_entrp">   -304.58217666 </i>
    <i name="e_0_energy">   -304.59944780 </i>
   </energy>
  </scstep>
  <scstep>
   <time name="dav">   48.29   48.36</time>
   <time name="total">   48.98   49.05</time>
   <energy>
    <i name="e_fr_energy">   -304.38711737 </i>
    <i name="e_wo_entrp">   -304.36672033 </i>
    <i name="e_0_energy">   -304.38031836 </i>
   </energy>
  </scstep>
  <scstep>
   <time name="dav">   50.42   50.49</time>
   <time name="total">   51.11   51.18</time>
   <energy>
    <i name="e_fr_energy">   -304.34856560 </i>
    <i name="e_wo_entrp">   -304.32499308 </i>
    <i name="e_0_energy">   -304.34070809 </i>
   </energy>
  </scstep>
  <scstep>
   <time name="dav">   50.47   50.54</time>
   <time name="total">   51.15   51.23</time>
   <energy>
    <i name="e_fr_energy">   -304.33077826 </i>
    <i name="e_wo_entrp">   -304.30737132 </i>
    <i name="e_0_energy">   -304.32297595 </i>
   </energy>
  </scstep>
  <scstep>
   <time name="dav">   50.22   50.29</time>
   <time name="total">   50.91   50.98</time>
   <energy>
    <i name="e_fr_energy">   -304.31714860 </i>
    <i name="e_wo_entrp">   -304.29446454 </i>
    <i name="e_0_energy">   -304.30958725 </i>
   </energy>
  </scstep>
  <scstep>
   <time name="dav">   49.73   49.83</time>
   <time name="total">   50.41   50.52</time>
   <energy>
    <i name="e_fr_energy">   -304.31257459 </i>
    <i name="e_wo_entrp">   -304.29017401 </i>
    <i name="e_0_energy">   -304.30510773 </i>
   </energy>
  </scstep>
  <scstep>
   <time name="dav">   49.14   49.23</time>
   <time name="total">   49.84   49.93</time>
   <energy>
    <i name="e_fr_energy">   -304.31058328 </i>
    <i name="e_wo_entrp">   -304.28814180 </i>
    <i name="e_0_energy">   -304.30310278 </i>
   </energy>
  </scstep>
  <scstep>
   <time name="dav">   48.31   48.37</time>
   <time name="total">   48.99   49.07</time>
   <energy>
    <i name="e_fr_energy">   -304.31063338 </i>
    <i name="e_wo_entrp">   -304.28815125 </i>
    <i name="e_0_energy">   -304.30313934 </i>
   </energy>
  </scstep>
  <scstep>
   <time name="dav">   46.95   47.01</time>
   <time name="total">   47.64   47.71</time>
   <energy>
    <i name="e_fr_energy">   -304.30980962 </i>
    <i name="e_wo_entrp">   -304.28722748 </i>
    <i name="e_0_energy">   -304.30228224 </i>
   </energy>
  </scstep>
  <scstep>
   <time name="dav">   44.44   44.50</time>
   <time name="total">   45.13   45.20</time>
   <energy>
    <i name="e_fr_energy">   -304.30978317 </i>
    <i name="e_wo_entrp">   -304.28727590 </i>
    <i name="e_0_energy">   -304.30228075 </i>
   </energy>
  </scstep>
  <scstep>
   <time name="dav">   36.45   36.54</time>
   <time name="total">   36.52   36.63</time>
   <energy>
    <i name="alphaZ">   1104.47950323 </i>
    <i name="ewald"> -10043.50058016 </i>
    <i name="hartreedc">  -2785.99054169 </i>
    <i name="XCdc">   -945.32397458 </i>
    <i name="pawpsdc">  17477.27789110 </i>
    <i name="pawaedc"> -15990.19089226 </i>
    <i name="eentropy">     -0.02261064 </i>
    <i name="bandstr">   -572.61495165 </i>
    <i name="atom">  11451.57642151 </i>
    <i name="e_fr_energy">   -304.30973516 </i>
    <i name="e_wo_entrp">   -304.28712451 </i>
    <i name="e_0_energy">   -304.30219828 </i>
   </energy>
  </scstep>
  <structure>
   <crystal>
    <varray name="basis" >
     <v>      -3.16000000      -3.16000000      -3.16000000 </v>
     <v>       1.58000000       1.58000000      -7.90000000 </v>
     <v>       7.90000000      -7.90000000      -1.58000000 </v>
    </varray>
    <i name="volume">    473.31744000 </i>
    <varray name="rec_basis" >
     <v>      -0.13713080      -0.12658228      -0.05274262 </v>
     <v>       0.04219409       0.06329114      -0.10548523 </v>
     <v>       0.06329114      -0.06329114       0.00000000 </v>
    </varray>
   </crystal>
   <varray name="positions" >
    <v>       0.96666667       0.93333333       0.40000000 </v>
    <v>       0.50000000       0.00000000       0.00000000 </v>
    <v>       0.00000000       0.00000000       0.00000000 </v>
    <v>       0.10000000       0.20000000       0.80000000 </v>
    <v>       0.03333333       0.06666667       0.60000000 </v>
    <v>       0.90000000       0.80000000       0.20000000 </v>
    <v>       0.80000000       0.60000000       0.40000000 </v>
    <v>       0.73333333       0.46666667       0.20000000 </v>
    <v>       0.66666667       0.33333333       0.00000000 </v>
    <v>       0.36666667       0.73333333       0.60000000 </v>
    <v>       0.13333333       0.26666667       0.40000000 </v>
    <v>       0.83333333       0.66666667       0.00000000 </v>
    <v>       0.93333333       0.86666667       0.80000000 </v>
    <v>       0.56666667       0.13333333       0.20000000 </v>
    <v>       0.40000000       0.80000000       0.20000000 </v>
    <v>       0.43333333       0.86666667       0.80000000 </v>
    <v>       0.30000000       0.60000000       0.40000000 </v>
    <v>       0.86666667       0.73333333       0.60000000 </v>
    <v>       0.46666667       0.93333333       0.40000000 </v>
    <v>       0.16666667       0.33333333       0.00000000 </v>
    <v>       0.26666667       0.53333333       0.80000000 </v>
    <v>       0.20000000       0.40000000       0.60000000 </v>
    <v>       0.06666667       0.13333333       0.20000000 </v>
    <v>       0.76666667       0.53333333       0.80000000 </v>
    <v>       0.70000000       0.40000000       0.60000000 </v>
    <v>       0.60000000       0.20000000       0.80000000 </v>
    <v>       0.53333333       0.06666667       0.60000000 </v>
    <v>       0.33333333       0.66666667       0.00000000 </v>
    <v>       0.23333333       0.46666667       0.20000000 </v>
   </varray>
  </structure>
  <varray name="forces" >
   <v>       0.56534678       0.92911162      -0.70174984 </v>
   <v>      -0.19639465       0.46560974      -0.23058311 </v>
   <v>       0.38246208       0.00665054      -0.09254146 </v>
   <v>      -0.11335308       0.88474476      -0.63804836 </v>
   <v>      -0.34088453       0.33417994      -0.40489720 </v>
   <v>       0.10822250      -0.68461380       0.17893341 </v>
   <v>      -0.75997519      -0.34930528       0.59359095 </v>
   <v>       0.18988577      -0.08664592       0.25051497 </v>
   <v>       0.24359958       0.49710333      -0.57482442 </v>
   <v>      -0.31198958      -0.26553440       0.32433023 </v>
   <v>       0.02921058       0.33405100      -0.64076384 </v>
   <v>      -0.00567624      -0.41889716       0.46177421 </v>
   <v>       0.21890652       0.41804178      -0.02904927 </v>
   <v>       0.62669600       0.02414735      -0.69841298 </v>
   <v>      -0.55594685      -0.19118959       0.75607631 </v>
   <v>      -0.86313754      -0.25176531       0.61468948 </v>
   <v>      -0.37400789      -0.87284558       0.73079905 </v>
   <v>      -0.05660904       0.33274248       0.48359577 </v>
   <v>       0.68223007      -0.52887615       0.52833154 </v>
   <v>       0.06831927      -0.31162253      -0.38267308 </v>
   <v>      -0.45037729      -0.05358125      -0.20025604 </v>
   <v>      -0.05445389      -0.03906007       0.69359652 </v>
   <v>       0.47215958      -0.18536294      -0.88593862 </v>
   <v>       0.04804117      -0.31560227       0.65641475 </v>
   <v>       0.36350487       0.05579739      -0.48535593 </v>
   <v>      -0.06603090       0.34849956      -0.21672419 </v>
   <v>       0.08535438      -0.11314900      -0.48844769 </v>
   <v>      -0.25355768      -0.35814636       0.62183872 </v>
   <v>       0.31845520       0.39551813      -0.22421990 </v>
  </varray>
  <varray name="stress" >
   <v>     -26.63801005      -0.53168172       5.96892638 </v>
   <v>      -0.53168162     -24.86058875      -1.64494207 </v>
   <v>       5.96892637      -1.64494212     -24.85957690 </v>
  </varray>
  <energy>
   <i name="e_fr_energy">   -304.30973516 </i>
   <i name="e_wo_entrp">   -304.30219828 </i>
   <i name="e_0_energy">     -0.02261064 </i>
  </energy>
  <time name="totalsc"> 1320.49 1322.78</time>
 </calculation>
 <calculation>
  <scstep>
   <time name="dav">   33.46   33.53</time>
   <time name="total">   34.14   34.21</time>
   <energy>
    <i name="alphaZ">   1146.99622564 </i>
    <i name="ewald"> -10240.59147250 </i>
    <i name="hartreedc">  -2755.12986130 </i>
    <i name="XCdc">   -941.19705083 </i>
    <i name="pawpsdc">  17476.36381838 </i>
    <i name="pawaedc"> -15989.29417486 </i>
    <i name="eentropy">     -0.01519736 </i>
    <i name="bandstr">   -454.13242840 </i>
    <i name="atom">  11451.57642151 </i>
    <i name="e_fr_energy">   -305.42371973 </i>
    <i name="e_wo_entrp">   -305.40852236 </i>
    <i name="e_0_energy">   -305.41865394 </i>
   </energy>
  </scstep>
  <scstep>
   <time name="dav">   51.69   51.75</time>
   <time name="total">   52.37   52.43</time>
   <energy>
    <i name="e_fr_energy">   -307.43147708 </i>
    <i name="e_wo_entrp">   -307.43198450 </i>
    <i name="e_0_energy">   -307.43164622 </i>
   </energy>
  </scstep>
  <scstep>
   <time name="dav">   50.76   50.81</time>
   <time name="total">   51.44   51.51</time>
   <energy>
    <i name="e_fr_energy">   -306.06548907 </i>
    <i name="e_wo_entrp">   -306.05053488 </i>
    <i name="e_0_energy">   -306.06050434 </i>
   </energy>
  </scstep>
  <scstep>
   <time name="dav">   49.30   49.40</time>
   <time name="total">   49.95   50.10</time>
   <energy>
    <i name="e_fr_energy">   -305.61034705 </i>
    <i name="e_wo_entrp">   -305.59515260 </i>
    <i name="e_0_energy">   -305.60528223 </i>
   </energy>
  </scstep>
  <scstep>
   <time name="dav">   51.92   51.98</time>
   <time name="total">   52.60   52.67</time>
   <energy>
    <i name="e_fr_energy">   -305.23330898 </i>
    <i name="e_wo_entrp">   -305.21386793 </i>
    <i name="e_0_energy">   -305.22682863 </i>
   </energy>
  </scstep>
  <scstep>
   <time name="dav">   51.98   52.04</time>
   <time name="total">   52.66   52.74</time>
   <energy>
    <i name="e_fr_energy">   -305.02575278 </i>
    <i name="e_wo_entrp">   -305.01228443 </i>
    <i name="e_0_energy">   -305.02126333 </i>
   </energy>
  </scstep>
  <scstep>
   <time name="dav">   53.25   53.31</time>
   <time name="total">   53.93   54.00</time>
   <energy>
    <i name="e_fr_energy">   -304.99385562 </i>
    <i name="e_wo_entrp">   -304.97819130 </i>
    <i name="e_0_energy">   -304.98863418 </i>
   </energy>
  </scstep>
  <scstep>
   <time name="dav">   49.49   49.55</time>
   <time name="total">   50.17   50.23</time>
   <energy>
    <i name="e_fr_energy">   -304.97664766 </i>
    <i name="e_wo_entrp">   -304.95802481 </i>
    <i name="e_0_energy">   -304.97044004 </i>
   </energy>
  </scstep>
  <scstep>
   <time name="dav">   51.12   51.18</time>
   <time name="total">   51.81   51.87</time>
   <energy>
    <i name="e_fr_energy">   -304.94637264 </i>
    <i name="e_wo_entrp">   -304.92760250 </i>
    <i name="e_0_energy">   -304.94011593 </i>
   </energy>
  </scstep>
  <scstep>
   <time name="dav">   51.12   51.18</time>
   <time name="total">   51.80   51.86</time>
   <energy>
    <i name="e_fr_energy">   -304.94016580 </i>
    <i name="e_wo_entrp">   -304.92323615 </i>
    <i name="e_0_energy">   -304.93452258 </i>
   </energy>
  </scstep>
  <scstep>
   <time name="dav">   49.50   49.56</time>
   <time name="total">   50.18   50.25</time>
   <energy>
    <i name="e_fr_energy">   -304.94151085 </i>
    <i name="e_wo_entrp">   -304.92274642 </i>
    <i name="e_0_energy">   -304.93525604 </i>
   </energy>
  </scstep>
  <scstep>
   <time name="dav">   52.19   52.25</time>
   <time name="total">   52.87   52.93</time>
   <energy>
    <i name="e_fr_energy">   -304.94349325 </i>
    <i name="e_wo_entrp">   -304.92534370 </i>
    <i name="e_0_energy">   -304.93744340 </i>
   </energy>
  </scstep>
  <scstep>
   <time name="dav">   53.36   53.42</time>
   <time name="total">   54.05   54.12</time>
   <energy>
    <i name="e_fr_energy">   -304.94455819 </i>
    <i name="e_wo_entrp">   -304.92675421 </i>
    <i name="e_0_energy">   -304.93862353 </i>
   </energy>
  </scstep>
  <scstep>
   <time name="dav">   48.82   48.87</time>
   <time name="total">   49.50   49.55</time>
   <energy>
    <i name="e_fr_energy">   -304.94373464 </i>
    <i name="e_wo_entrp">   -304.92552121 </i>
    <i name="e_0_energy">   -304.93766349 </i>
   </energy>
  </scstep>
  <scstep>
   <time name="dav">   50.08   50.18</time>
   <time name="total">   50.75   50.88</time>
   <energy>
    <i name="e_fr_energy">   -304.94279934 </i>
    <i name="e_wo_entrp">   -304.92469663 </i>
    <i name="e_0_energy">   -304.93676510 </i>
   </energy>
  </scstep>
  <scstep>
   <time name="dav">   49.00   49.06</time>
   <time name="total">   49.69   49.74</time>
   <energy>
    <i name="e_fr_energy">   -304.94276462 </i>
    <i name="e_wo_entrp">   -304.92470708 </i>
    <i name="e_0_energy">   -304.93674544 </i>
   </energy>
  </scstep>
  <scstep>
   <time name="dav">   42.08   42.13</time>
   <time name="total">   42.77   42.82</time>
   <energy>
    <i name="e_fr_energy">   -304.94267214 </i>
    <i name="e_wo_entrp">   -304.92468437 </i>
    <i name="e_0_energy">   -304.93667622 </i>
   </energy>
  </scstep>
  <scstep>
   <time name="dav">   31.06   31.10</time>
   <time name="total">   31.15   31.19</time>
   <energy>
    <i name="alphaZ">   1146.99622564 </i>
    <i name="ewald"> -10240.59147250 </i>
    <i name="hartreedc">  -2691.83114029 </i>
    <i name="XCdc">   -942.97313533 </i>
    <i name="pawpsdc">  18281.57821032 </i>
    <i name="pawaedc"> -16795.92451264 </i>
    <i name="eentropy">     -0.01812108 </i>
    <i name="bandstr">   -513.75509608 </i>
    <i name="atom">  11451.57642151 </i>
    <i name="e_fr_energy">   -304.94262045 </i>
    <i name="e_wo_entrp">   -304.92449937 </i>
    <i name="e_0_energy">   -304.93658009 </i>
   </energy>
  </scstep>
  <structure>
   <crystal>
    <varray name="basis" >
     <v>      -3.12707591      -3.11801210      -3.12810890 </v>
     <v>       1.53572932       1.56666967      -7.80012725 </v>
     <v>       7.79400957      -7.80426776      -1.53113674 </v>
    </varray>
    <i name="volume">    455.77256430 </i>
    <varray name="rec_basis" >
     <v>      -0.13882597      -0.12822811      -0.05308762 </v>
     <v>       0.04308837       0.06399791      -0.10686548 </v>
     <v>       0.06411444      -0.06405721      -0.00024282 </v>
    </varray>
   </crystal>
   <varray name="positions" >
    <v>       0.95903838       0.94089214       0.39888930 </v>
    <v>       0.49904264       0.00219530      -0.00202132 </v>
    <v>      -0.00233534       0.00126976       0.00114748 </v>
    <v>       0.09697053       0.20571764       0.79695248 </v>
    <v>       0.03457798       0.06905362       0.59793880 </v>
    <v>       0.90300947       0.79721937       0.20242079 </v>
    <v>       0.80565039       0.59436577       0.39874609 </v>
    <v>       0.73196883       0.46551379       0.20084434 </v>
    <v>       0.66348209       0.33827223      -0.00077403 </v>
    <v>       0.36952694       0.73023701       0.59985816 </v>
    <v>       0.13273054       0.27100687       0.39906922 </v>
    <v>       0.83475399       0.66302617       0.00126170 </v>
    <v>       0.92940622       0.86853652       0.79939197 </v>
    <v>       0.56415034       0.13823688       0.20183978 </v>
    <v>       0.40292163       0.79443699       0.19888627 </v>
    <v>       0.43901687       0.86101290       0.79813328 </v>
    <v>       0.30594497       0.59285464       0.40152312 </v>
    <v>       0.86377874       0.73177311       0.59881118 </v>
    <v>       0.46403870       0.93041859       0.40369791 </v>
    <v>       0.16909136       0.33446829       0.00116009 </v>
    <v>       0.27048291       0.53327204       0.79878845 </v>
    <v>       0.19883395       0.39624026       0.59995300 </v>
    <v>       0.06692924       0.13823690       0.20200763 </v>
    <v>       0.76660592       0.52912706       0.80111032 </v>
    <v>       0.69848944       0.40338022       0.60093953 </v>
    <v>       0.59886010       0.20203256       0.79873430 </v>
    <v>       0.53470245       0.06898059       0.60060610 </v>
    <v>       0.33561560       0.66189253       0.00031934 </v>
    <v>       0.22938179       0.46966358       0.19976470 </v>
   </varray>
  </structure>
  <varray name="forces" >
   <v>       0.60170639       0.77019281      -0.46878134 </v>
   <v>      -0.07776350       0.20312050      -0.04974896 </v>
   <v>       0.19325699       0.04057273      -0.17284291 </v>
   <v>      -0.09344492       0.43284380      -0.29827172 </v>
   <v>      -0.09928925       0.26346873      -0.25500024 </v>
   <v>       0.07834095      -0.35052294       0.07713099 </v>
   <v>      -0.29306577      -0.29754072       0.30139991 </v>
   <v>       0.23751022      -0.21669172       0.37555177 </v>
   <v>       0.11341097       0.44321559      -0.30624192 </v>
   <v>      -0.29707751      -0.11253477       0.33731011 </v>
   <v>      -0.14361146       0.07722262      -0.40541373 </v>
   <v>      -0.10415353      -0.14412844       0.02308738 </v>
   <v>      -0.02131515       0.25650478      -0.06875702 </v>
   <v>       0.68362851      -0.21384246      -0.54821226 </v>
   <v>      -0.15702519      -0.11873853       0.26138053 </v>
   <v>      -0.26933545       0.03514545       0.42705014 </v>
   <v>      -0.35574595      -0.73071275       0.62085189 </v>
   <v>      -0.11771620       0.24674217       0.31584770 </v>
   <v>       0.36985979      -0.31740964       0.40450198 </v>
   <v>      -0.06005804      -0.23568879      -0.31100843 </v>
   <v>      -0.34593759      -0.05925267      -0.08470198 </v>
   <v>      -0.10983367      -0.02827095       0.44471791 </v>
   <v>       0.32542567      -0.13516265      -0.57709832 </v>
   <v>      -0.01990844      -0.19985985       0.48950194 </v>
   <v>       0.31259084       0.10196877      -0.21724410 </v>
   <v>      -0.10961877       0.36596658      -0.21504272 </v>
   <v>      -0.09651570      -0.09075516      -0.44805726 </v>
   <v>      -0.24847334      -0.26523580       0.54335939 </v>
   <v>       0.10415907       0.27938333      -0.19526874 </v>
  </varray>
  <varray name="stress" >
   <v>      41.64367474      -1.38201542       4.88063632 </v>
   <v>      -1.38201534      40.53491931       0.46878986 </v>
   <v>       4.88063633       0.46878978      41.93333198 </v>
  </varray>
  <energy>
   <i name="e_fr_energy">   -304.94262045 </i>
   <i name="e_wo_entrp">   -304.93658009 </i>
   <i name="e_0_energy">     -0.01812108 </i>
  </energy>
  <time name="totalsc">  901.49  902.80</time>
 </calculation>
 <calculation>
  <scstep>
   <time name="dav">   35.94   35.98</time>
   <time name="total">   36.62   36.67</time>
   <energy>
    <i name="alphaZ">   1151.25254242 </i>
    <i name="ewald"> -10259.53169085 </i>
    <i name="hartreedc">  -2689.29895450 </i>
    <i name="XCdc">   -942.56504227 </i>
    <i name="pawpsdc">  18280.61000271 </i>
    <i name="pawaedc"> -16794.83302770 </i>
    <i name="eentropy">     -0.01763708 </i>
    <i name="bandstr">   -502.14343232 </i>
    <i name="atom">  11451.57642151 </i>
    <i name="e_fr_energy">   -304.95081809 </i>
    <i name="e_wo_entrp">   -304.93318102 </i>
    <i name="e_0_energy">   -304.94493907 </i>
   </energy>
  </scstep>
  <scstep>
   <time name="dav">   51.23   51.34</time>
   <time name="total">   51.90   52.03</time>
   <energy>
    <i name="e_fr_energy">   -304.96979270 </i>
    <i name="e_wo_entrp">   -304.95337582 </i>
    <i name="e_0_energy">   -304.96432041 </i>
   </energy>
  </scstep>
  <scstep>
   <time name="dav">   50.92   50.98</time>
   <time name="total">   51.61   51.67</time>
   <energy>
    <i name="e_fr_energy">   -304.95735116 </i>
    <i name="e_wo_entrp">   -304.93987529 </i>
    <i name="e_0_energy">   -304.95152587 </i>
   </energy>
  </scstep>
  <scstep>
   <time name="dav">   49.48   49.59</time>
   <time name="total">   50.15   50.28</time>
   <energy>
    <i name="e_fr_energy">   -304.95388775 </i>
    <i name="e_wo_entrp">   -304.93630679 </i>
    <i name="e_0_energy">   -304.94802743 </i>
   </energy>
  </scstep>
  <scstep>
   <time name="dav">   50.29   50.39</time>
   <time name="total">   50.95   51.07</time>
   <energy>
    <i name="e_fr_energy">   -304.95002218 </i>
    <i name="e_wo_entrp">   -304.93235599 </i>
    <i name="e_0_energy">   -304.94413345 </i>
   </energy>
  </scstep>
  <scstep>
   <time name="dav">   50.74   50.86</time>
   <time name="total">   51.42   51.54</time>
   <energy>
    <i name="e_fr_energy">   -304.94769243 </i>
    <i name="e_wo_entrp">   -304.93051039 </i>
    <i name="e_0_energy">   -304.94196508 </i>
   </energy>
  </scstep>
  <scstep>
   <time name="dav">   51.72   51.78</time>
   <time name="total">   52.38   52.47</time>
   <energy>
    <i name="e_fr_energy">   -304.94738895 </i>
    <i name="e_wo_entrp">   -304.93016085 </i>
    <i name="e_0_energy">   -304.94164625 </i>
   </energy>
  </scstep>
  <scstep>
   <time name="dav">   47.38   47.43</time>
   <time name="total">   48.05   48.10</time>
   <energy>
    <i name="e_fr_energy">   -304.94727005 </i>
    <i name="e_wo_entrp">   -304.92970888 </i>
    <i name="e_0_energy">   -304.94141632 </i>
   </energy>
  </scstep>
  <scstep>
   <time name="dav">   45.27   45.32</time>
   <time name="total">   45.95   46.00</time>
   <energy>
    <i name="e_fr_energy">   -304.94703747 </i>
    <i name="e_wo_entrp">   -304.92953587 </i>
    <i name="e_0_energy">   -304.94120360 </i>
   </energy>
  </scstep>
  <scstep>
   <time name="dav">   38.61   38.65</time>
   <time name="total">   38.68   38.73</time>
   <energy>
    <i name="alphaZ">   1151.25254242 </i>
    <i name="ewald"> -10259.53169085 </i>
    <i name="hartreedc">  -2682.97609099 </i>
    <i name="XCdc">   -942.74706933 </i>
    <i name="pawpsdc">  18368.74461834 </i>
    <i name="pawaedc"> -16883.36890907 </i>
    <i name="eentropy">     -0.01728725 </i>
    <i name="bandstr">   -507.87948535 </i>
    <i name="atom">  11451.57642151 </i>
    <i name="e_fr_energy">   -304.94695058 </i>
    <i name="e_wo_entrp">   -304.92966333 </i>
    <i name="e_0_energy">   -304.94118816 </i>
   </energy>
  </scstep>
  <structure>
   <crystal>
    <varray name="basis" >
     <v>      -3.12387055      -3.11392432      -3.12500411 </v>
     <v>       1.53141930       1.56537188      -7.79040402 </v>
     <v>       7.78369075      -7.79494764      -1.52637960 </v>
    </varray>
    <i name="volume">    454.08751923 </i>
    <varray name="rec_basis" >
     <v>      -0.13899334      -0.12839060      -0.05312127 </v>
     <v>       0.04317717       0.06406756      -0.10700191 </v>
     <v>       0.06419582      -0.06413280      -0.00026712 </v>
    </varray>
   </crystal>
   <varray name="positions" >
    <v>       0.95828517       0.94163804       0.39878082 </v>
    <v>       0.49894778       0.00241124      -0.00222028 </v>
    <v>      -0.00256565       0.00139561       0.00126075 </v>
    <v>       0.09667069       0.20628088       0.79665289 </v>
    <v>       0.03469994       0.06928831       0.59773607 </v>
    <v>       0.90330660       0.79694568       0.20265915 </v>
    <v>       0.80620828       0.59380904       0.39862165 </v>
    <v>       0.73183474       0.46540044       0.20092731 </v>
    <v>       0.66316720       0.33875946      -0.00084958 </v>
    <v>       0.36980942       0.72993127       0.59984373 </v>
    <v>       0.13267007       0.27143480       0.39897825 </v>
    <v>       0.83489483       0.66266733       0.00138549 </v>
    <v>       0.92901896       0.86872105       0.79933215 </v>
    <v>       0.56390132       0.13872151       0.20202203 </v>
    <v>       0.40321075       0.79388752       0.19877552 </v>
    <v>       0.43957802       0.86045402       0.79794841 </v>
    <v>       0.30653229       0.59214979       0.40167226 </v>
    <v>       0.86349468       0.73161894       0.59869347 </v>
    <v>       0.46378065       0.93013251       0.40406186 </v>
    <v>       0.16932991       0.33458052       0.00127485 </v>
    <v>       0.27085877       0.53326530       0.79866918 </v>
    <v>       0.19872004       0.39586937       0.59994756 </v>
    <v>       0.06695392       0.13872141       0.20220659 </v>
    <v>       0.76660100       0.52871245       0.80121899 </v>
    <v>       0.69833984       0.40371417       0.60103276 </v>
    <v>       0.59874731       0.20223273       0.79860981 </v>
    <v>       0.53483673       0.06920901       0.60066640 </v>
    <v>       0.33584157       0.66142146       0.00035003 </v>
    <v>       0.22899185       0.46995945       0.19974186 </v>
   </varray>
  </structure>
  <varray name="forces" >
   <v>       0.60444604       0.75420626      -0.44350294 </v>
   <v>      -0.06595613       0.17485444      -0.03046643 </v>
   <v>       0.17182486       0.04397722      -0.17973652 </v>
   <v>      -0.09342101       0.38262881      -0.25892194 </v>
   <v>      -0.07256331       0.25873732      -0.24133969 </v>
   <v>       0.07500785      -0.31517532       0.06567451 </v>
   <v>      -0.23537636      -0.28913849       0.26642011 </v>
   <v>       0.24250004      -0.22896420       0.38506739 </v>
   <v>       0.10190422       0.43212379      -0.27078966 </v>
   <v>      -0.29564395      -0.09624396       0.33802433 </v>
   <v>      -0.16351348       0.04357190      -0.37631513 </v>
   <v>      -0.10949523      -0.11640811      -0.03002571 </v>
   <v>      -0.05176162       0.23405851      -0.07400601 </v>
   <v>       0.69011207      -0.23434982      -0.52294004 </v>
   <v>      -0.11326204      -0.09832383       0.21482110 </v>
   <v>      -0.19779874       0.07342371       0.40826645 </v>
   <v>      -0.35530912      -0.72405302       0.60973418 </v>
   <v>      -0.12710687       0.23467944       0.29303555 </v>
   <v>       0.33202028      -0.29513232       0.39362036 </v>
   <v>      -0.07477633      -0.22877217      -0.30048729 </v>
   <v>      -0.33530981      -0.05630870      -0.07229236 </v>
   <v>      -0.11190514      -0.02663298       0.41179403 </v>
   <v>       0.30757898      -0.13339856      -0.54167379 </v>
   <v>      -0.03176936      -0.18388361       0.46795816 </v>
   <v>       0.30343147       0.10592779      -0.18262677 </v>
   <v>      -0.11614746       0.36614827      -0.21878094 </v>
   <v>      -0.11449466      -0.08996093      -0.44660413 </v>
   <v>      -0.24227500      -0.25450463       0.53119533 </v>
   <v>       0.07905983       0.26691321      -0.19510214 </v>
  </varray>
  <varray name="stress" >
   <v>      48.95889490      -1.49761621       4.66650570 </v>
   <v>      -1.49761631      47.62555323       0.76319324 </v>
   <v>       4.66650574       0.76319322      49.24408569 </v>
  </varray>
  <energy>
   <i name="e_fr_energy">   -304.94695058 </i>
   <i name="e_wo_entrp">   -304.94118816 </i>
   <i name="e_0_energy">     -0.01728725 </i>
  </energy>
  <time name="totalsc">  497.93  498.81</time>
 </calculation>
 <calculation>
  <scstep>
   <time name="dav">   33.59   33.66</time>
   <time name="total">   34.25   34.34</time>
   <energy>
    <i name="alphaZ">   1139.76573157 </i>
    <i name="ewald"> -10269.19392912 </i>
    <i name="hartreedc">  -2632.03794756 </i>
    <i name="XCdc">   -944.02991654 </i>
    <i name="pawpsdc">  18367.74152250 </i>
    <i name="pawaedc"> -16882.32330017 </i>
    <i name="eentropy">     -0.01551805 </i>
    <i name="bandstr">   -536.61795681 </i>
    <i name="atom">  11451.57642151 </i>
    <i name="e_fr_energy">   -305.13489267 </i>
    <i name="e_wo_entrp">   -305.11937462 </i>
    <i name="e_0_energy">   -305.12971999 </i>
   </energy>
  </scstep>
  <scstep>
   <time name="dav">   50.06   50.14</time>
   <time name="total">   50.73   50.82</time>
   <energy>
    <i name="e_fr_energy">   -305.92766973 </i>
    <i name="e_wo_entrp">   -305.91168981 </i>
    <i name="e_0_energy">   -305.92234309 </i>
   </energy>
  </scstep>
  <scstep>
   <time name="dav">   50.45   50.53</time>
   <time name="total">   51.14   51.23</time>
   <energy>
    <i name="e_fr_energy">   -305.43476039 </i>
    <i name="e_wo_entrp">   -305.42009884 </i>
    <i name="e_0_energy">   -305.42987321 </i>
   </energy>
  </scstep>
  <scstep>
   <time name="dav">   49.07   49.14</time>
   <time name="total">   49.72   49.83</time>
   <energy>
    <i name="e_fr_energy">   -305.43792874 </i>
    <i name="e_wo_entrp">   -305.42263899 </i>
    <i name="e_0_energy">   -305.43283216 </i>
   </energy>
  </scstep>
  <scstep>
   <time name="dav">   48.59   48.67</time>
   <time name="total">   49.28   49.36</time>
   <energy>
    <i name="e_fr_energy">   -305.36537158 </i>
    <i name="e_wo_entrp">   -305.35007849 </i>
    <i name="e_0_energy">   -305.36027388 </i>
   </energy>
  </scstep>
  <scstep>
   <time name="dav">   51.67   51.74</time>
   <time name="total">   52.35   52.42</time>
   <energy>
    <i name="e_fr_energy">   -305.35957714 </i>
    <i name="e_wo_entrp">   -305.34499633 </i>
    <i name="e_0_energy">   -305.35471687 </i>
   </energy>
  </scstep>
  <scstep>
   <time name="dav">   49.19   49.24</time>
   <time name="total">   49.86   49.92</time>
   <energy>
    <i name="e_fr_energy">   -305.36510481 </i>
    <i name="e_wo_entrp">   -305.35097421 </i>
    <i name="e_0_energy">   -305.36039461 </i>
   </energy>
  </scstep>
  <scstep>
   <time name="dav">   49.37   49.42</time>
   <time name="total">   50.01   50.09</time>
   <energy>
    <i name="e_fr_energy">   -305.34841433 </i>
    <i name="e_wo_entrp">   -305.33340472 </i>
    <i name="e_0_energy">   -305.34341113 </i>
   </energy>
  </scstep>
  <scstep>
   <time name="dav">   50.14   50.19</time>
   <time name="total">   50.80   50.86</time>
   <energy>
    <i name="e_fr_energy">   -305.34469330 </i>
    <i name="e_wo_entrp">   -305.32932949 </i>
    <i name="e_0_energy">   -305.33957203 </i>
   </energy>
  </scstep>
  <scstep>
   <time name="dav">   45.75   45.80</time>
   <time name="total">   46.42   46.47</time>
   <energy>
    <i name="e_fr_energy">   -305.34396660 </i>
    <i name="e_wo_entrp">   -305.32915289 </i>
    <i name="e_0_energy">   -305.33902870 </i>
   </energy>
  </scstep>
  <scstep>
   <time name="dav">   47.57   47.62</time>
   <time name="total">   48.23   48.29</time>
   <energy>
    <i name="e_fr_energy">   -305.34361040 </i>
    <i name="e_wo_entrp">   -305.32834849 </i>
    <i name="e_0_energy">   -305.33852309 </i>
   </energy>
  </scstep>
  <scstep>
   <time name="dav">   47.30   47.35</time>
   <time name="total">   47.97   48.03</time>
   <energy>
    <i name="e_fr_energy">   -305.34370599 </i>
    <i name="e_wo_entrp">   -305.32859222 </i>
    <i name="e_0_energy">   -305.33866807 </i>
   </energy>
  </scstep>
  <scstep>
   <time name="dav">   46.19   46.24</time>
   <time name="total">   46.87   46.93</time>
   <energy>
    <i name="e_fr_energy">   -305.34387589 </i>
    <i name="e_wo_entrp">   -305.32893824 </i>
    <i name="e_0_energy">   -305.33889667 </i>
   </energy>
  </scstep>
  <scstep>
   <time name="dav">   45.08   45.13</time>
   <time name="total">   45.74   45.79</time>
   <energy>
    <i name="e_fr_energy">   -305.34373987 </i>
    <i name="e_wo_entrp">   -305.32855175 </i>
    <i name="e_0_energy">   -305.33867716 </i>
   </energy>
  </scstep>
  <scstep>
   <time name="dav">   43.68   43.73</time>
   <time name="total">   44.35   44.41</time>
   <energy>
    <i name="e_fr_energy">   -305.34363452 </i>
    <i name="e_wo_entrp">   -305.32847502 </i>
    <i name="e_0_energy">   -305.33858136 </i>
   </energy>
  </scstep>
  <scstep>
   <time name="dav">   26.12   26.14</time>
   <time name="total">   26.19   26.22</time>
   <energy>
    <i name="alphaZ">   1139.76573157 </i>
    <i name="ewald"> -10269.19392912 </i>
    <i name="hartreedc">  -2645.62119679 </i>
    <i name="XCdc">   -943.55005805 </i>
    <i name="pawpsdc">  18016.96258399 </i>
    <i name="pawaedc"> -16531.50968231 </i>
    <i name="eentropy">     -0.01511592 </i>
    <i name="bandstr">   -523.75835570 </i>
    <i name="atom">  11451.57642151 </i>
    <i name="e_fr_energy">   -305.34360082 </i>
    <i name="e_wo_entrp">   -305.32848490 </i>
    <i name="e_0_energy">   -305.33856218 </i>
   </energy>
  </scstep>
  <structure>
   <crystal>
    <varray name="basis" >
     <v>      -3.13951629      -3.12218578      -3.14264603 </v>
     <v>       1.51788102       1.57175312      -7.81540369 </v>
     <v>       7.80785769      -7.82349005      -1.51235075 </v>
    </varray>
    <i name="volume">    458.66391358 </i>
    <varray name="rec_basis" >
     <v>      -0.13849089      -0.12803709      -0.05264672 </v>
     <v>       0.04330975       0.06384933      -0.10670026 </v>
     <v>       0.06396973      -0.06389591      -0.00042610 </v>
    </varray>
   </crystal>
   <varray name="positions" >
    <v>       0.95156357       0.94763405       0.39807052 </v>
    <v>       0.49825974       0.00368568      -0.00348687 </v>
    <v>      -0.00407309       0.00258102       0.00197165 </v>
    <v>       0.09477828       0.20995396       0.79460524 </v>
    <v>       0.03509079       0.07119240       0.59633929 </v>
    <v>       0.90526664       0.79514994       0.20430348 </v>
    <v>       0.81000208       0.58999128       0.39808263 </v>
    <v>       0.73070148       0.46396575       0.20191730 </v>
    <v>       0.66056141       0.34231467      -0.00162704 </v>
    <v>       0.37187254       0.72737323       0.59952220 </v>
    <v>       0.13309926       0.27421373       0.39827996 </v>
    <v>       0.83619774       0.66075043       0.00199488 </v>
    <v>       0.92677010       0.87001994       0.79868500 </v>
    <v>       0.56195050       0.14245307       0.20406586 </v>
    <v>       0.40494525       0.79055358       0.19821744 </v>
    <v>       0.44223222       0.85681417       0.79670923 </v>
    <v>       0.31152646       0.58625392       0.40285298 </v>
    <v>       0.86156980       0.73044544       0.59766807 </v>
    <v>       0.46196012       0.92783457       0.40661049 </v>
    <v>       0.17157347       0.33540350       0.00202609 </v>
    <v>       0.27380700       0.53303062       0.79774157 </v>
    <v>       0.19811098       0.39308281       0.59981196 </v>
    <v>       0.06713449       0.14229557       0.20372719 </v>
    <v>       0.76663930       0.52546784       0.80193378 </v>
    <v>       0.69671560       0.40610395       0.60173376 </v>
    <v>       0.59782459       0.20401980       0.79740399 </v>
    <v>       0.53648556       0.07104054       0.60093095 </v>
    <v>       0.33768203       0.65750541       0.00051087 </v>
    <v>       0.22641875       0.47220246       0.19939753 </v>
   </varray>
  </structure>
  <varray name="forces" >
   <v>       0.43505073       0.51162240      -0.12756156 </v>
   <v>      -0.00545041      -0.05757758       0.09523205 </v>
   <v>       0.07913651       0.06340467      -0.14987822 </v>
   <v>      -0.06228171       0.01604634       0.04516307 </v>
   <v>       0.03085266       0.05378727      -0.10766265 </v>
   <v>       0.08449766      -0.05505107      -0.02656584 </v>
   <v>       0.02393598      -0.15480350      -0.00719531 </v>
   <v>       0.20036647      -0.14369679       0.23580254 </v>
   <v>       0.02521467       0.22149287      -0.06528541 </v>
   <v>      -0.18124929       0.04764206       0.30529191 </v>
   <v>      -0.24715078      -0.13689682      -0.15889144 </v>
   <v>      -0.04497214       0.09492011      -0.28550293 </v>
   <v>      -0.10697402       0.09776871      -0.12145127 </v>
   <v>       0.45637392      -0.28320314      -0.26880207 </v>
   <v>       0.08318754      -0.07746515      -0.04077541 </v>
   <v>       0.08764193       0.19776840       0.19871637 </v>
   <v>      -0.25864226      -0.39139439       0.31352076 </v>
   <v>      -0.13694829       0.15902839       0.10737857 </v>
   <v>       0.10934303      -0.10493304       0.35601828 </v>
[...]
       <r>    4.7607    1.0000 </r>
       <r>    4.8276    1.0000 </r>
       <r>    4.8964    1.0000 </r>
       <r>    4.9365    1.0000 </r>
       <r>    4.9730    1.0000 </r>
       <r>    5.0148    1.0000 </r>
       <r>    5.0829    1.0000 </r>
       <r>    5.1374    1.0000 </r>
       <r>    5.1800    1.0000 </r>
       <r>    5.1959    1.0000 </r>
       <r>    5.3420    1.0000 </r>
       <r>    5.3837    1.0000 </r>
       <r>    5.4534    1.0000 </r>
       <r>    5.4860    1.0000 </r>
       <r>    5.4975    1.0000 </r>
       <r>    5.5968    1.0000 </r>
       <r>    5.6948    1.0000 </r>
       <r>    5.7524    1.0000 </r>
       <r>    5.8145    1.0000 </r>
       <r>    5.8386    1.0001 </r>
       <r>    5.8813    1.0002 </r>
       <r>    5.9481    1.0012 </r>
       <r>    5.9775    1.0023 </r>
       <r>    6.0218    1.0054 </r>
       <r>    6.0848    1.0144 </r>
       <r>    6.1426    1.0271 </r>
       <r>    6.1908    1.0351 </r>
       <r>    6.2268    1.0322 </r>
       <r>    6.2775    0.9991 </r>
       <r>    6.3307    0.9070 </r>
       <r>    6.3736    0.7819 </r>
       <r>    6.4298    0.5645 </r>
       <r>    6.4835    0.3407 </r>
       <r>    6.5171    0.2158 </r>
       <r>    6.5976    0.0201 </r>
       <r>    6.6742   -0.0344 </r>
       <r>    6.7403   -0.0287 </r>
       <r>    6.8173   -0.0122 </r>
       <r>    6.8960   -0.0032 </r>
       <r>    7.0130   -0.0002 </r>
       <r>    7.0797   -0.0000 </r>
       <r>    7.1279   -0.0000 </r>
       <r>    7.2481   -0.0000 </r>
       <r>    7.3134   -0.0000 </r>
       <r>    7.3780   -0.0000 </r>
       <r>    7.5918   -0.0000 </r>
       <r>    7.6608   -0.0000 </r>
       <r>    7.8056   -0.0000 </r>
       <r>    7.8501   -0.0000 </r>
       <r>    8.0035   -0.0000 </r>
       <r>    8.0967   -0.0000 </r>
       <r>    8.2275   -0.0000 </r>
       <r>    8.3975   -0.0000 </r>
       <r>    8.4278   -0.0000 </r>
       <r>    8.4925   -0.0000 </r>
       <r>    8.5378   -0.0000 </r>
       <r>    8.5938   -0.0000 </r>
       <r>    8.6350   -0.0000 </r>
       <r>    8.6928   -0.0000 </r>
       <r>    8.7303   -0.0000 </r>
       <r>    8.8109   -0.0000 </r>
      </set>
     </set>
    </set>
   </array>
  </eigenvalues>
  <separator name="orbital magnetization" >
   <v name="MAGDIPOLOUT">      0.00000000      0.00000000      0.00000000</v>
  </separator>
  <dos>
   <i name="efermi">      6.44504903 </i>
   <total>
    <array>
     <dimension dim="1">gridpoints</dimension>
     <dimension dim="2">spin</dimension>
     <field>energy</field>
     <field>total</field>
     <field>integrated</field>
     <set>
      <set comment="spin 1">
       <r>   -50.6354     0.0000     0.0000 </r>
       <r>   -50.4277     0.0000     0.0000 </r>
       <r>   -50.2200     0.0000     0.0000 </r>
       <r>   -50.0123     0.0000     0.0000 </r>
       <r>   -49.8046     0.0000     0.0000 </r>
       <r>   -49.5968    -0.0000    -0.0000 </r>
       <r>   -49.3891    -0.0000    -0.0000 </r>
       <r>   -49.1814    -0.0000    -0.0000 </r>
       <r>   -48.9737    -0.0000    -0.0000 </r>
       <r>   -48.7660    -0.0000    -0.0000 </r>
       <r>   -48.5583    -0.0000    -0.0000 </r>
       <r>   -48.3506    -0.0036    -0.0007 </r>
       <r>   -48.1429    -0.1785    -0.0378 </r>
       <r>   -47.9352     0.4647     0.0587 </r>
       <r>   -47.7274     7.2808     1.5710 </r>
       <r>   -47.5197    15.2841     4.7457 </r>
       <r>   -47.3120    20.4007     8.9832 </r>
       <r>   -47.1043     5.5984    10.1460 </r>
       <r>   -46.8966    -0.6545    10.0101 </r>
       <r>   -46.6889    -0.0482    10.0000 </r>
       <r>   -46.4812    -0.0002    10.0000 </r>
       <r>   -46.2735    -0.0000    10.0000 </r>
       <r>   -46.0657    -0.0000    10.0000 </r>
       <r>   -45.8580     0.0000    10.0000 </r>
       <r>   -45.6503     0.0000    10.0000 </r>
       <r>   -45.4426     0.0000    10.0000 </r>
       <r>   -45.2349     0.0000    10.0000 </r>
       <r>   -45.0272     0.0000    10.0000 </r>
       <r>   -44.8195     0.0000    10.0000 </r>
       <r>   -44.6118     0.0000    10.0000 </r>
       <r>   -44.4041     0.0000    10.0000 </r>
       <r>   -44.1963     0.0000    10.0000 </r>
       <r>   -43.9886     0.0000    10.0000 </r>
       <r>   -43.7809     0.0000    10.0000 </r>
       <r>   -43.5732     0.0000    10.0000 </r>
       <r>   -43.3655     0.0000    10.0000 </r>
       <r>   -43.1578     0.0000    10.0000 </r>
       <r>   -42.9501     0.0000    10.0000 </r>
       <r>   -42.7424     0.0000    10.0000 </r>
       <r>   -42.5346     0.0000    10.0000 </r>
       <r>   -42.3269     0.0000    10.0000 </r>
       <r>   -42.1192     0.0000    10.0000 </r>
       <r>   -41.9115     0.0000    10.0000 </r>
       <r>   -41.7038     0.0000    10.0000 </r>
       <r>   -41.4961     0.0000    10.0000 </r>
       <r>   -41.2884     0.0000    10.0000 </r>
       <r>   -41.0807     0.0000    10.0000 </r>
       <r>   -40.8729     0.0000    10.0000 </r>
       <r>   -40.6652     0.0000    10.0000 </r>
       <r>   -40.4575     0.0000    10.0000 </r>
       <r>   -40.2498     0.0000    10.0000 </r>
       <r>   -40.0421     0.0000    10.0000 </r>
       <r>   -39.8344     0.0000    10.0000 </r>
       <r>   -39.6267     0.0000    10.0000 </r>
       <r>   -39.4190     0.0000    10.0000 </r>
       <r>   -39.2113     0.0000    10.0000 </r>
       <r>   -39.0035     0.0000    10.0000 </r>
       <r>   -38.7958     0.0000    10.0000 </r>
       <r>   -38.5881     0.0000    10.0000 </r>
       <r>   -38.3804     0.0000    10.0000 </r>
       <r>   -38.1727     0.0000    10.0000 </r>
       <r>   -37.9650     0.0000    10.0000 </r>
       <r>   -37.7573     0.0000    10.0000 </r>
       <r>   -37.5496     0.0000    10.0000 </r>
       <r>   -37.3418     0.0000    10.0000 </r>
       <r>   -37.1341     0.0000    10.0000 </r>
       <r>   -36.9264     0.0000    10.0000 </r>
       <r>   -36.7187     0.0000    10.0000 </r>
       <r>   -36.5110     0.0000    10.0000 </r>
       <r>   -36.3033     0.0000    10.0000 </r>
       <r>   -36.0956     0.0000    10.0000 </r>
       <r>   -35.8879     0.0000    10.0000 </r>
       <r>   -35.6802     0.0000    10.0000 </r>
       <r>   -35.4724     0.0000    10.0000 </r>
       <r>   -35.2647     0.0000    10.0000 </r>
       <r>   -35.0570     0.0000    10.0000 </r>
       <r>   -34.8493     0.0000    10.0000 </r>
       <r>   -34.6416     0.0000    10.0000 </r>
       <r>   -34.4339     0.0000    10.0000 </r>
       <r>   -34.2262     0.0000    10.0000 </r>
       <r>   -34.0185     0.0000    10.0000 </r>
       <r>   -33.8107     0.0000    10.0000 </r>
       <r>   -33.6030     0.0000    10.0000 </r>
       <r>   -33.3953     0.0000    10.0000 </r>
       <r>   -33.1876     0.0000    10.0000 </r>
       <r>   -32.9799     0.0000    10.0000 </r>
       <r>   -32.7722     0.0000    10.0000 </r>
       <r>   -32.5645     0.0000    10.0000 </r>
       <r>   -32.3568     0.0000    10.0000 </r>
       <r>   -32.1491     0.0000    10.0000 </r>
       <r>   -31.9413     0.0000    10.0000 </r>
       <r>   -31.7336     0.0000    10.0000 </r>
       <r>   -31.5259     0.0000    10.0000 </r>
       <r>   -31.3182     0.0000    10.0000 </r>
       <r>   -31.1105     0.0000    10.0000 </r>
       <r>   -30.9028     0.0000    10.0000 </r>
       <r>   -30.6951     0.0000    10.0000 </r>
       <r>   -30.4874     0.0000    10.0000 </r>
       <r>   -30.2796     0.0000    10.0000 </r>
       <r>   -30.0719     0.0000    10.0000 </r>
       <r>   -29.8642     0.0000    10.0000 </r>
       <r>   -29.6565     0.0000    10.0000 </r>
       <r>   -29.4488     0.0000    10.0000 </r>
       <r>   -29.2411     0.0000    10.0000 </r>
       <r>   -29.0334     0.0000    10.0000 </r>
       <r>   -28.8257     0.0000    10.0000 </r>
       <r>   -28.6180     0.0000    10.0000 </r>
       <r>   -28.4102     0.0000    10.0000 </r>
       <r>   -28.2025     0.0000    10.0000 </r>
       <r>   -27.9948     0.0000    10.0000 </r>
       <r>   -27.7871     0.0000    10.0000 </r>
       <r>   -27.5794     0.0000    10.0000 </r>
       <r>   -27.3717     0.0000    10.0000 </r>
       <r>   -27.1640     0.0000    10.0000 </r>
       <r>   -26.9563     0.0000    10.0000 </r>
       <r>   -26.7485     0.0000    10.0000 </r>
       <r>   -26.5408     0.0000    10.0000 </r>
       <r>   -26.3331     0.0000    10.0000 </r>
       <r>   -26.1254    -0.0000    10.0000 </r>
       <r>   -25.9177    -0.0000    10.0000 </r>
       <r>   -25.7100    -0.0000    10.0000 </r>
       <r>   -25.5023    -0.0000    10.0000 </r>
       <r>   -25.2946    -0.0000    10.0000 </r>
       <r>   -25.0869    -0.0000    10.0000 </r>
       <r>   -24.8791    -0.0027     9.9994 </r>
       <r>   -24.6714    -0.1736     9.9634 </r>
       <r>   -24.4637     0.2711    10.0197 </r>
       <r>   -24.2560     8.4362    11.7720 </r>
       <r>   -24.0483    10.5448    13.9623 </r>
       <r>   -23.8406    27.9996    19.7781 </r>
       <r>   -23.6329    38.6914    27.8148 </r>
       <r>   -23.4252    33.6413    34.8025 </r>
       <r>   -23.2174    14.7427    37.8647 </r>
       <r>   -23.0097     8.9053    39.7144 </r>
       <r>   -22.8020     1.6036    40.0475 </r>
       <r>   -22.5943    -0.2085    40.0042 </r>
       <r>   -22.3866    -0.0202    40.0000 </r>
       <r>   -22.1789    -0.0002    40.0000 </r>
       <r>   -21.9712    -0.0000    40.0000 </r>
       <r>   -21.7635    -0.0000    40.0000 </r>
       <r>   -21.5558     0.0000    40.0000 </r>
       <r>   -21.3480     0.0000    40.0000 </r>
       <r>   -21.1403     0.0000    40.0000 </r>
       <r>   -20.9326     0.0000    40.0000 </r>
       <r>   -20.7249     0.0000    40.0000 </r>
       <r>   -20.5172     0.0000    40.0000 </r>
       <r>   -20.3095     0.0000    40.0000 </r>
       <r>   -20.1018     0.0000    40.0000 </r>
       <r>   -19.8941     0.0000    40.0000 </r>
       <r>   -19.6863     0.0000    40.0000 </r>
       <r>   -19.4786     0.0000    40.0000 </r>
       <r>   -19.2709     0.0000    40.0000 </r>
       <r>   -19.0632     0.0000    40.0000 </r>
       <r>   -18.8555     0.0000    40.0000 </r>
       <r>   -18.6478     0.0000    40.0000 </r>
       <r>   -18.4401     0.0000    40.0000 </r>
       <r>   -18.2324     0.0000    40.0000 </r>
       <r>   -18.0247     0.0000    40.0000 </r>
       <r>   -17.8169     0.0000    40.0000 </r>
       <r>   -17.6092     0.0000    40.0000 </r>
       <r>   -17.4015     0.0000    40.0000 </r>
       <r>   -17.1938     0.0000    40.0000 </r>
       <r>   -16.9861     0.0000    40.0000 </r>
       <r>   -16.7784     0.0000    40.0000 </r>
       <r>   -16.5707     0.0000    40.0000 </r>
       <r>   -16.3630     0.0000    40.0000 </r>
       <r>   -16.1552     0.0000    40.0000 </r>
       <r>   -15.9475     0.0000    40.0000 </r>
       <r>   -15.7398     0.0000    40.0000 </r>
       <r>   -15.5321     0.0000    40.0000 </r>
       <r>   -15.3244     0.0000    40.0000 </r>
       <r>   -15.1167     0.0000    40.0000 </r>
       <r>   -14.9090     0.0000    40.0000 </r>
       <r>   -14.7013     0.0000    40.0000 </r>
       <r>   -14.4936     0.0000    40.0000 </r>
       <r>   -14.2858     0.0000    40.0000 </r>
       <r>   -14.0781     0.0000    40.0000 </r>
       <r>   -13.8704     0.0000    40.0000 </r>
       <r>   -13.6627     0.0000    40.0000 </r>
       <r>   -13.4550     0.0000    40.0000 </r>
       <r>   -13.2473     0.0000    40.0000 </r>
       <r>   -13.0396     0.0000    40.0000 </r>
       <r>   -12.8319     0.0000    40.0000 </r>
       <r>   -12.6241     0.0000    40.0000 </r>
       <r>   -12.4164     0.0000    40.0000 </r>
       <r>   -12.2087     0.0000    40.0000 </r>
       <r>   -12.0010     0.0000    40.0000 </r>
       <r>   -11.7933     0.0000    40.0000 </r>
       <r>   -11.5856     0.0000    40.0000 </r>
       <r>   -11.3779     0.0000    40.0000 </r>
       <r>   -11.1702     0.0000    40.0000 </r>
       <r>   -10.9625     0.0000    40.0000 </r>
       <r>   -10.7547     0.0000    40.0000 </r>
       <r>   -10.5470     0.0000    40.0000 </r>
       <r>   -10.3393     0.0000    40.0000 </r>
       <r>   -10.1316     0.0000    40.0000 </r>
       <r>    -9.9239     0.0000    40.0000 </r>
       <r>    -9.7162     0.0000    40.0000 </r>
       <r>    -9.5085     0.0000    40.0000 </r>
       <r>    -9.3008     0.0000    40.0000 </r>
       <r>    -9.0930     0.0000    40.0000 </r>
       <r>    -8.8853     0.0000    40.0000 </r>
       <r>    -8.6776     0.0000    40.0000 </r>
       <r>    -8.4699     0.0000    40.0000 </r>
       <r>    -8.2622     0.0000    40.0000 </r>
       <r>    -8.0545     0.0000    40.0000 </r>
       <r>    -7.8468     0.0000    40.0000 </r>
       <r>    -7.6391     0.0000    40.0000 </r>
       <r>    -7.4314     0.0000    40.0000 </r>
       <r>    -7.2236     0.0000    40.0000 </r>
       <r>    -7.0159     0.0000    40.0000 </r>
       <r>    -6.8082     0.0000    40.0000 </r>
       <r>    -6.6005     0.0000    40.0000 </r>
       <r>    -6.3928     0.0000    40.0000 </r>
       <r>    -6.1851     0.0000    40.0000 </r>
       <r>    -5.9774     0.0000    40.0000 </r>
       <r>    -5.7697     0.0000    40.0000 </r>
       <r>    -5.5619     0.0000    40.0000 </r>
       <r>    -5.3542     0.0000    40.0000 </r>
       <r>    -5.1465     0.0000    40.0000 </r>
       <r>    -4.9388     0.0000    40.0000 </r>
       <r>    -4.7311     0.0000    40.0000 </r>
       <r>    -4.5234     0.0000    40.0000 </r>
       <r>    -4.3157     0.0000    40.0000 </r>
       <r>    -4.1080     0.0000    40.0000 </r>
       <r>    -3.9003     0.0000    40.0000 </r>
       <r>    -3.6925     0.0000    40.0000 </r>
       <r>    -3.4848     0.0000    40.0000 </r>
       <r>    -3.2771     0.0000    40.0000 </r>
       <r>    -3.0694     0.0000    40.0000 </r>
       <r>    -2.8617     0.0000    40.0000 </r>
       <r>    -2.6540     0.0000    40.0000 </r>
       <r>    -2.4463     0.0000    40.0000 </r>
       <r>    -2.2386     0.0000    40.0000 </r>
       <r>    -2.0308    -0.0000    40.0000 </r>
       <r>    -1.8231    -0.0000    40.0000 </r>
       <r>    -1.6154    -0.0000    40.0000 </r>
       <r>    -1.4077    -0.0000    40.0000 </r>
       <r>    -1.2000    -0.0000    40.0000 </r>
       <r>    -0.9923    -0.0000    40.0000 </r>
       <r>    -0.7846    -0.0010    39.9998 </r>
       <r>    -0.5769    -0.0154    39.9966 </r>
       <r>    -0.3692     0.0754    40.0123 </r>
       <r>    -0.1614     0.7149    40.1608 </r>
       <r>     0.0463     1.2379    40.4179 </r>
       <r>     0.2540     1.6012    40.7505 </r>
       <r>     0.4617     2.1551    41.1981 </r>
       <r>     0.6694     1.8111    41.5743 </r>
       <r>     0.8771     2.5394    42.1017 </r>
       <r>     1.0848     3.1499    42.7560 </r>
       <r>     1.2925     3.0542    43.3904 </r>
       <r>     1.5003     3.6582    44.1502 </r>
       <r>     1.7080     4.3308    45.0498 </r>
       <r>     1.9157     5.2478    46.1398 </r>
       <r>     2.1234     5.9804    47.3820 </r>
       <r>     2.3311     9.1513    49.2829 </r>
       <r>     2.5388    14.9295    52.3839 </r>
       <r>     2.7465    19.5448    56.4436 </r>
       <r>     2.9542    24.2036    61.4710 </r>
       <r>     3.1619    27.8924    67.2646 </r>
       <r>     3.3697    30.0145    73.4989 </r>
       <r>     3.5774    31.2539    79.9907 </r>
       <r>     3.7851    30.9437    86.4181 </r>
       <r>     3.9928    30.4779    92.7487 </r>
       <r>     4.2005    29.0384    98.7803 </r>
       <r>     4.4082    26.3799   104.2597 </r>
       <r>     4.6159    30.9473   110.6879 </r>
       <r>     4.8236    37.8910   118.5583 </r>
       <r>     5.0314    40.3873   126.9472 </r>
       <r>     5.2391    40.4933   135.3581 </r>
       <r>     5.4468    40.0317   143.6732 </r>
       <r>     5.6545    39.2793   151.8319 </r>
       <r>     5.8622    41.8990   160.5349 </r>
       <r>     6.0699    43.3192   169.5328 </r>
       <r>     6.2776    42.3358   178.3264 </r>
       <r>     6.4853    39.3993   186.5101 </r>
       <r>     6.6930    33.8893   193.5493 </r>
       <r>     6.9008    27.8413   199.3323 </r>
       <r>     7.1085    21.9632   203.8943 </r>
       <r>     7.3162    20.6136   208.1760 </r>
       <r>     7.5239    18.8562   212.0926 </r>
       <r>     7.7316    19.5572   216.1549 </r>
       <r>     7.9393    22.4368   220.8153 </r>
       <r>     8.1470    26.7168   226.3646 </r>
       <r>     8.3547    29.6509   232.5235 </r>
       <r>     8.5625    24.3290   237.5769 </r>
       <r>     8.7702    10.9725   239.8560 </r>
       <r>     8.9779     0.9391   240.0511 </r>
       <r>     9.1856    -0.2325   240.0028 </r>
       <r>     9.3933    -0.0135   240.0000 </r>
       <r>     9.6010    -0.0001   240.0000 </r>
       <r>     9.8087    -0.0000   240.0000 </r>
       <r>    10.0164    -0.0000   240.0000 </r>
       <r>    10.2242    -0.0000   240.0000 </r>
       <r>    10.4319     0.0000   240.0000 </r>
       <r>    10.6396     0.0000   240.0000 </r>
       <r>    10.8473     0.0000   240.0000 </r>
       <r>    11.0550     0.0000   240.0000 </r>
       <r>    11.2627     0.0000   240.0000 </r>
       <r>    11.4704     0.0000   240.0000 </r>
       <r>    11.6781     0.0000   240.0000 </r>
      </set>
     </set>
    </array>
   </total>
  </dos>
 </calculation>
 <structure name="finalpos" >
  <crystal>
   <varray name="basis" >
    <v>      -3.15516354      -3.13960415      -3.22111773 </v>
    <v>       1.43856696       1.48474744      -7.82852051 </v>
    <v>       7.87750825      -7.91959036      -1.52843146 </v>
   </varray>
   <i name="volume">    463.86215569 </i>
   <varray name="rec_basis" >
    <v>      -0.13854980      -0.12820723      -0.04977550 </v>
    <v>       0.04464961       0.06509872      -0.10718671 </v>
    <v>       0.06329683      -0.06323874      -0.00036237 </v>
   </varray>
  </crystal>
  <varray name="positions" >
   <v>       0.91893206       0.96583674       0.39900843 </v>
   <v>       0.49729373       0.00381533      -0.00162420 </v>
   <v>      -0.00783897       0.00781131       0.00361699 </v>
   <v>       0.09645189       0.20780422       0.79524545 </v>
   <v>       0.03936947       0.07117384       0.59681205 </v>
   <v>       0.90348334       0.79813023       0.20595643 </v>
   <v>       0.81656789       0.58707891       0.39841802 </v>
   <v>       0.73179802       0.46516700       0.20432427 </v>
   <v>       0.66015983       0.34686118      -0.00276596 </v>
   <v>       0.36999893       0.71861915       0.59766786 </v>
   <v>       0.15358204       0.26884584       0.39890339 </v>
   <v>       0.83581882       0.66699554       0.00062113 </v>
   <v>       0.92123987       0.87367566       0.79531669 </v>
   <v>       0.56052044       0.14829834       0.21116630 </v>
   <v>       0.40506929       0.78990498       0.20004160 </v>
   <v>       0.43797848       0.85375905       0.79530808 </v>
   <v>       0.32229650       0.57521783       0.40182589 </v>
   <v>       0.85632744       0.72988404       0.59384930 </v>
   <v>       0.45288874       0.91665066       0.40894402 </v>
   <v>       0.17718912       0.33744715       0.00222726 </v>
   <v>       0.27561194       0.53096749       0.79428126 </v>
   <v>       0.19843823       0.38619737       0.59917569 </v>
   <v>       0.06851756       0.14764349       0.20911645 </v>
   <v>       0.76574574       0.52285507       0.80259136 </v>
   <v>       0.68991138       0.40638512       0.60222007 </v>
   <v>       0.60021747       0.20524406       0.79133668 </v>
   <v>       0.54985905       0.07000659       0.60005169 </v>
   <v>       0.34280145       0.65174137      -0.00003480 </v>
   <v>       0.22643691       0.47931575       0.19639859 </v>
  </varray>
 </structure>
</modeling>
