Nb - Mo - Ta - Ti - V SQS               
           1
    -3.160000   -3.160000   -3.160000
     1.580000    1.580000   -7.900000
     7.900000   -7.900000   -1.580000
   Nb   Mo   Ta   Ti   V 
   5   6   6   6   6
Direct configuration=     1
   0.96666667  0.93333333  0.40000000
   0.50000000  0.00000000  0.00000000
   0.00000000  0.00000000  0.00000000
   0.10000000  0.20000000  0.80000000
   0.03333333  0.06666667  0.60000000
   0.90000000  0.80000000  0.20000000
   0.80000000  0.60000000  0.40000000
   0.73333333  0.46666667  0.20000000
   0.66666667  0.33333333  0.00000000
   0.36666667  0.73333333  0.60000000
   0.13333333  0.26666667  0.40000000
   0.83333333  0.66666667  0.00000000
   0.93333333  0.86666667  0.80000000
   0.56666667  0.13333333  0.20000000
   0.40000000  0.80000000  0.20000000
   0.43333333  0.86666667  0.80000000
   0.30000000  0.60000000  0.40000000
   0.86666667  0.73333333  0.60000000
   0.46666667  0.93333333  0.40000000
   0.16666667  0.33333333  0.00000000
   0.26666667  0.53333333  0.80000000
   0.20000000  0.40000000  0.60000000
   0.06666667  0.13333333  0.20000000
   0.76666667  0.53333333  0.80000000
   0.70000000  0.40000000  0.60000000
   0.60000000  0.20000000  0.80000000
   0.53333333  0.06666667  0.60000000
   0.33333333  0.66666667  0.00000000
   0.23333333  0.46666667  0.20000000
Nb - Mo - Ta - Ti - V SQS               
           1
    -3.127076   -3.118012   -3.128109
     1.535729    1.566670   -7.800127
     7.794010   -7.804268   -1.531137
   Nb   Mo   Ta   Ti   V 
   5   6   6   6   6
Direct configuration=     2
   0.95903838  0.94089214  0.39888930
   0.49904264  0.00219530 -0.00202132
  -0.00233534  0.00126976  0.00114748
   0.09697053  0.20571764  0.79695248
   0.03457798  0.06905362  0.59793880
   0.90300947  0.79721937  0.20242079
   0.80565039  0.59436577  0.39874609
   0.73196883  0.46551379  0.20084434
   0.66348209  0.33827223 -0.00077403
   0.36952694  0.73023701  0.59985816
   0.13273054  0.27100687  0.39906922
   0.83475399  0.66302617  0.00126170
   0.92940622  0.86853652  0.79939197
   0.56415034  0.13823688  0.20183978
   0.40292163  0.79443699  0.19888627
   0.43901687  0.86101290  0.79813328
   0.30594497  0.59285464  0.40152312
   0.86377874  0.73177311  0.59881118
   0.46403870  0.93041859  0.40369791
   0.16909136  0.33446829  0.00116009
   0.27048291  0.53327204  0.79878845
   0.19883395  0.39624026  0.59995300
   0.06692924  0.13823690  0.20200763
   0.76660592  0.52912706  0.80111032
   0.69848944  0.40338022  0.60093953
   0.59886010  0.20203256  0.79873430
   0.53470245  0.06898059  0.60060610
   0.33561560  0.66189253  0.00031934
   0.22938179  0.46966358  0.19976470
Nb - Mo - Ta - Ti - V SQS               
           1
    -3.123871   -3.113924   -3.125004
     1.531419    1.565372   -7.790404
     7.783691   -7.794948   -1.526380
   Nb   Mo   Ta   Ti   V 
   5   6   6   6   6
Direct configuration=     3
   0.95828517  0.94163804  0.39878082
   0.49894778  0.00241124 -0.00222028
  -0.00256565  0.00139561  0.00126075
   0.09667069  0.20628088  0.79665289
   0.03469994  0.06928831  0.59773607
   0.90330660  0.79694568  0.20265915
   0.80620828  0.59380904  0.39862165
   0.73183474  0.46540044  0.20092731
   0.66316720  0.33875946 -0.00084958
   0.36980942  0.72993127  0.59984373
   0.13267007  0.27143480  0.39897825
   0.83489483  0.66266733  0.00138549
   0.92901896  0.86872105  0.79933215
   0.56390132  0.13872151  0.20202203
   0.40321075  0.79388752  0.19877552
   0.43957802  0.86045402  0.79794841
   0.30653229  0.59214979  0.40167226
   0.86349468  0.73161894  0.59869347
   0.46378065  0.93013251  0.40406186
   0.16932991  0.33458052  0.00127485
   0.27085877  0.53326530  0.79866918
   0.19872004  0.39586937  0.59994756
   0.06695392  0.13872141  0.20220659
   0.76660100  0.52871245  0.80121899
   0.69833984  0.40371417  0.60103276
   0.59874731  0.20223273  0.79860981
   0.53483673  0.06920901  0.60066640
   0.33584157  0.66142146  0.00035003
   0.22899185  0.46995945  0.19974186
Nb - Mo - Ta - Ti - V SQS               
           1
    -3.139516   -3.122186   -3.142646
     1.517881    1.571753   -7.815404
     7.807858   -7.823490   -1.512351
   Nb   Mo   Ta   Ti   V 
   5   6   6   6   6
Direct configuration=     4
   0.95156357  0.94763405  0.39807052
   0.49825974  0.00368568 -0.00348687
  -0.00407309  0.00258102  0.00197165
   0.09477828  0.20995396  0.79460524
   0.03509079  0.07119240  0.59633929
   0.90526664  0.79514994  0.20430348
   0.81000208  0.58999128  0.39808263
   0.73070148  0.46396575  0.20191730
   0.66056141  0.34231467 -0.00162704
   0.37187254  0.72737323  0.59952220
   0.13309926  0.27421373  0.39827996
   0.83619774  0.66075043  0.00199488
   0.92677010  0.87001994  0.79868500
   0.56195050  0.14245307  0.20406586
   0.40494525  0.79055358  0.19821744
   0.44223222  0.85681417  0.79670923
   0.31152646  0.58625392  0.40285298
   0.86156980  0.73044544  0.59766807
   0.46196012  0.92783457  0.40661049
   0.17157347  0.33540350  0.00202609
   0.27380700  0.53303062  0.79774157
   0.19811098  0.39308281  0.59981196
   0.06713449  0.14229557  0.20372719
   0.76663930  0.52546784  0.80193378
   0.69671560  0.40610395  0.60173376
   0.59782459  0.20401980  0.79740399
   0.53648556  0.07104054  0.60093095
   0.33768203  0.65750541  0.00051087
   0.22641875  0.47220246  0.19939753
Nb - Mo - Ta - Ti - V SQS               
           1
    -3.155227   -3.130482   -3.160362
     1.504286    1.578161   -7.840508
     7.832126   -7.852152   -1.498263
   Nb   Mo   Ta   Ti   V 
   5   6   6   6   6
Direct configuration=     5
   0.94482733  0.95364308  0.39736413
   0.49756811  0.00495983 -0.00475318
  -0.00558305  0.00377106  0.00268392
   0.09287621  0.21362981  0.79255974
   0.03547649  0.07309623  0.59494399
   0.90723168  0.79335360  0.20594775
   0.81380477  0.58616330  0.39754010
   0.72957207  0.46253168  0.20290574
   0.65794680  0.34587585 -0.00240184
   0.37394163  0.72480875  0.59919813
   0.13352153  0.27699543  0.39758484
   0.83750550  0.65883081  0.00260293
   0.92451785  0.87132105  0.79803793
   0.55999167  0.14619688  0.20611515
   0.40668746  0.78721159  0.19765550
   0.44489459  0.85316358  0.79546568
   0.31653523  0.58034745  0.40402950
   0.85964726  0.72926895  0.59663945
   0.46014616  0.92553983  0.40915739
   0.17381541  0.33622805  0.00278003
   0.27675541  0.53279143  0.79681430
   0.19750851  0.39029168  0.59967243
   0.06730720  0.14587908  0.20525362
   0.76668564  0.52221939  0.80264505
   0.69508596  0.40850044  0.60243758
   0.59689708  0.20580776  0.79619903
   0.53813014  0.07287462  0.60119882
   0.33953190  0.65358192  0.00066772
   0.22384014  0.47445020  0.19905456
Nb - Mo - Ta - Ti - V SQS               
           1
    -3.160711   -3.134951   -3.170123
     1.501379    1.571430   -7.850312
     7.847916   -7.864928   -1.503516
   Nb   Mo   Ta   Ti   V 
   5   6   6   6   6
Direct configuration=     6
   0.94282574  0.95397233  0.39738340
   0.49797510  0.00405202 -0.00427472
  -0.00564484  0.00417160  0.00255049
   0.09359633  0.21217422  0.79305615
   0.03541206  0.07300176  0.59533094
   0.90652036  0.79398379  0.20575781
   0.81308063  0.58721424  0.39801259
   0.72923346  0.46241680  0.20320327
   0.65790833  0.34541909 -0.00248226
   0.37329628  0.72436072  0.59885721
   0.13545313  0.27592341  0.39757484
   0.83710091  0.66068292  0.00224204
   0.92529663  0.87151840  0.79782903
   0.56021391  0.14607226  0.20694653
   0.40643853  0.78805760  0.19810742
   0.44284779  0.85397016  0.79555920
   0.31742393  0.57988622  0.40390288
   0.85993729  0.72945586  0.59633111
   0.45991591  0.92482216  0.40888027
   0.17451488  0.33614140  0.00260539
   0.27664142  0.53271470  0.79670295
   0.19771150  0.39026000  0.59941647
   0.06756675  0.14578774  0.20532387
   0.76664635  0.52233826  0.80260405
   0.69407648  0.40860338  0.60248453
   0.59695280  0.20600705  0.79557936
   0.53957611  0.07261001  0.60118689
   0.33985623  0.65302416  0.00056528
   0.22429270  0.47469107  0.19876302
Nb - Mo - Ta - Ti - V SQS               
           1
    -3.170090   -3.142596   -3.186820
     1.496405    1.559916   -7.867083
     7.874926   -7.886781   -1.512499
   Nb   Mo   Ta   Ti   V 
   5   6   6   6   6
Direct configuration=     7
   0.93940733  0.95453698  0.39741598
   0.49867293  0.00249928 -0.00345739
  -0.00575163  0.00485654  0.00232249
   0.09483045  0.20968467  0.79390441
   0.03530251  0.07284002  0.59599164
   0.90530389  0.79506196  0.20543316
   0.81184132  0.58901127  0.39881878
   0.72865581  0.46222048  0.20371129
   0.65784400  0.34463829 -0.00261938
   0.37219563  0.72359555  0.59827525
   0.13875429  0.27408893  0.39755841
   0.83640435  0.66385000  0.00162503
   0.92662559  0.87185525  0.79747235
   0.56059413  0.14585840  0.20836610
   0.40601117  0.78950389  0.19887863
   0.43935078  0.85535086  0.79571831
   0.31894259  0.57909699  0.40368697
   0.86043176  0.72977539  0.59580460
   0.45952483  0.92359559  0.40840740
   0.17570930  0.33599278  0.00230732
   0.27644700  0.53258370  0.79651287
   0.19805806  0.39020586  0.59897949
   0.06801021  0.14563130  0.20544387
   0.76657888  0.52254155  0.80253401
   0.69235264  0.40878022  0.60256454
   0.59704704  0.20634818  0.79452127
   0.54204568  0.07215634  0.60116678
   0.34041161  0.65207037  0.00039065
   0.22506452  0.47510269  0.19826518
Nb - Mo - Ta - Ti - V SQS               
           1
    -3.165695   -3.137592   -3.187595
     1.487154    1.547682   -7.852244
     7.866070   -7.876817   -1.512360
   Nb   Mo   Ta   Ti   V 
   5   6   6   6   6
Direct configuration=     8
   0.93705016  0.95515629  0.39742962
   0.49889445  0.00188563 -0.00297219
  -0.00590908  0.00528126  0.00227715
   0.09542706  0.20847577  0.79430693
   0.03546474  0.07274870  0.59628904
   0.90475041  0.79560130  0.20533473
   0.81181192  0.58965426  0.39911198
   0.72831446  0.46244505  0.20396081
   0.65803822  0.34444910 -0.00269296
   0.37158924  0.72308397  0.59803571
   0.14072364  0.27321142  0.39753773
   0.83601175  0.66522727  0.00132459
   0.92656069  0.87219302  0.79719610
   0.56085061  0.14585268  0.20923605
   0.40579993  0.78997391  0.19934512
   0.43812494  0.85586056  0.79567268
   0.31975637  0.57864089  0.40339888
   0.86043791  0.72998920  0.59545939
   0.45900202  0.92270784  0.40826936
   0.17626964  0.33604501  0.00214848
   0.27641289  0.53249239  0.79629462
   0.19815818  0.38987331  0.59879393
   0.06827193  0.14565822  0.20566175
   0.76647428  0.52256280  0.80258107
   0.69130703  0.40902433  0.60264473
   0.59722496  0.20643648  0.79386157
   0.54361966  0.07189663  0.60114401
   0.34087898  0.65148068  0.00031615
   0.22534969  0.47542537  0.19803297
Nb - Mo - Ta - Ti - V SQS               
           1
    -3.160112   -3.131234   -3.188580
     1.475402    1.532140   -7.833392
     7.854821   -7.864159   -1.512183
   Nb   Mo   Ta   Ti   V 
   5   6   6   6   6
Direct configuration=     9
   0.93405040  0.95594701  0.39744671
   0.49917786  0.00110359 -0.00235491
  -0.00611047  0.00582244  0.00221936
   0.09618912  0.20693519  0.79481921
   0.03567134  0.07263214  0.59666734
   0.90404500  0.79628880  0.20520938
   0.81177286  0.59047331  0.39948475
   0.72787973  0.46273133  0.20427811
   0.65828574  0.34420797 -0.00278649
   0.37081930  0.72243280  0.59773113
   0.14323079  0.27209208  0.39751172
   0.83550873  0.66698216  0.00094211
   0.92647723  0.87262344  0.79684465
   0.56117691  0.14584494  0.21034254
   0.40553004  0.79057269  0.19993832
   0.43656443  0.85651081  0.79561447
   0.32079262  0.57805935  0.40303261
   0.86044514  0.73026167  0.59502027
   0.45833939  0.92157736  0.40809397
   0.17698219  0.33611117  0.00194647
   0.27636973  0.53237615  0.79601706
   0.19828640  0.38944965  0.59855801
   0.06860476  0.14569226  0.20593888
   0.76634119  0.52258993  0.80264092
   0.68997646  0.40933606  0.60274661
   0.59745099  0.20654903  0.79302248
   0.54562230  0.07156461  0.60111518
   0.34147498  0.65072913  0.00022155
   0.22571152  0.47583628  0.19773757
Nb - Mo - Ta - Ti - V SQS               
           1
    -3.160536   -3.132218   -3.194197
     1.468634    1.525136   -7.832935
     7.858031   -7.870675   -1.513009
   Nb   Mo   Ta   Ti   V 
   5   6   6   6   6
Direct configuration=    10
   0.93194122  0.95697141  0.39751448
   0.49883943  0.00138867 -0.00204191
  -0.00630979  0.00612228  0.00237294
   0.09638694  0.20672669  0.79493444
   0.03602114  0.07262047  0.59665245
   0.90393957  0.79652917  0.20525657
   0.81265560  0.59026086  0.39946391
   0.72789549  0.46318699  0.20440541
   0.65875885  0.34443816 -0.00284354
   0.37046492  0.72202484  0.59772894
   0.14467791  0.27165647  0.39752972
   0.83552473  0.66694912  0.00083616
   0.92528103  0.87298790  0.79649026
   0.56135592  0.14604056  0.21097838
   0.40536419  0.79051112  0.20017680
   0.43699284  0.85631085  0.79548273
   0.32118213  0.57760602  0.40268632
   0.86007297  0.73036526  0.59480950
   0.45752161  0.92082117  0.40823256
   0.17707915  0.33630480  0.00185695
   0.27636396  0.53222644  0.79568042
   0.19827302  0.38883688  0.59857284
   0.06869011  0.14590979  0.20628733
   0.76624712  0.52251578  0.80272456
   0.68933843  0.40951188  0.60282796
   0.59772869  0.20644172  0.79254952
   0.54673120  0.07150750  0.60099193
   0.34190329  0.65045977  0.00019726
   0.22574501  0.47610075  0.19764512
Nb - Mo - Ta - Ti - V SQS               
           1
    -3.161810   -3.135167   -3.211046
     1.448328    1.504124   -7.831566
     7.867660   -7.890222   -1.515487
   Nb   Mo   Ta   Ti   V 
   5   6   6   6   6
Direct configuration=    11
   0.92561100  0.96005039  0.39771785
   0.49782268  0.00224528 -0.00110347
  -0.00690927  0.00702292  0.00283339
   0.09698110  0.20610046  0.79527990
   0.03707011  0.07258489  0.59660775
   0.90362204  0.79725106  0.20539804
   0.81530375  0.58962164  0.39940132
   0.72794011  0.46455514  0.20478705
   0.66017635  0.34512850 -0.00301465
   0.36940449  0.72080052  0.59772244
   0.14901956  0.27034639  0.39758354
   0.83557303  0.66684984  0.00051850
   0.92169259  0.87408379  0.79542787
   0.56189082  0.14662797  0.21288469
   0.40486690  0.79032664  0.20089182
   0.43827871  0.85570976  0.79508770
   0.32235302  0.57624412  0.40164808
   0.85895670  0.73067676  0.59417761
   0.45507334  0.91855214  0.40864817
   0.17736898  0.33688595  0.00158856
   0.27634790  0.53177677  0.79467116
   0.19823620  0.38699714  0.59861732
   0.06894443  0.14656298  0.20733201
   0.76596532  0.52229336  0.80297534
   0.68742419  0.41004079  0.60307192
   0.59856260  0.20611883  0.79113150
   0.55005681  0.07133427  0.60062228
   0.34318909  0.64965035  0.00012437
   0.22584412  0.47689468  0.19736795
Nb - Mo - Ta - Ti - V SQS               
           1
    -3.162167   -3.135995   -3.215776
     1.442629    1.498226   -7.831181
     7.870363   -7.895709   -1.516183
   Nb   Mo   Ta   Ti   V 
   5   6   6   6   6
Direct configuration=    12
   0.92383192  0.96091950  0.39777499
   0.49753604  0.00248690 -0.00084053
  -0.00707885  0.00727666  0.00296240
   0.09714847  0.20592405  0.79537668
   0.03736420  0.07257442  0.59659519
   0.90353189  0.79745433  0.20543768
   0.81604701  0.58944062  0.39938371
   0.72795039  0.46494013  0.20489395
   0.66057268  0.34532209 -0.00306264
   0.36910912  0.72045651  0.59772066
   0.15023847  0.26997589  0.39759849
   0.83558684  0.66682183  0.00042951
   0.92068550  0.87439353  0.79513032
   0.56203915  0.14679332  0.21341875
   0.40472754  0.79027507  0.20109217
   0.43864020  0.85554001  0.79497699
   0.32268366  0.57586026  0.40135718
   0.85864358  0.73076479  0.59400060
   0.45439042  0.91791486  0.40876472
   0.17744943  0.33704929  0.00151335
   0.27634445  0.53165010  0.79438840
   0.19822867  0.38647953  0.59862981
   0.06901433  0.14674682  0.20762468
   0.76588658  0.52223094  0.80304561
   0.68688675  0.41019048  0.60314032
   0.59879735  0.20602739  0.79073420
   0.55098935  0.07128401  0.60051861
   0.34355075  0.64942204  0.00010392
   0.22587078  0.47711797  0.19729029
Nb - Mo - Ta - Ti - V SQS               
           1
    -3.163072   -3.139862   -3.219592
     1.443712    1.498150   -7.839257
     7.877923   -7.908716   -1.520008
   Nb   Mo   Ta   Ti   V 
   5   6   6   6   6
Direct configuration=    13
   0.92347676  0.96175336  0.39795605
   0.49748964  0.00303006 -0.00098731
  -0.00738459  0.00712047  0.00314410
   0.09695233  0.20660258  0.79520275
   0.03788614  0.07258345  0.59636870
   0.90373065  0.79721675  0.20556569
   0.81627477  0.58870055  0.39905554
   0.72896223  0.46503146  0.20473721
   0.66041615  0.34568095 -0.00289643
   0.36946736  0.72025410  0.59773346
   0.15033956  0.26997203  0.39781519
   0.83564091  0.66639546  0.00057456
   0.92098643  0.87436205  0.79513997
   0.56164922  0.14733183  0.21305399
   0.40476073  0.79008610  0.20066721
   0.43847648  0.85495047  0.79508731
   0.32273701  0.57557083  0.40159591
   0.85799526  0.73055282  0.59402169
   0.45381835  0.91773414  0.40908550
   0.17733833  0.33711969  0.00166239
   0.27610861  0.53161484  0.79425395
   0.19812923  0.38629383  0.59871632
   0.06898162  0.14697479  0.20791740
   0.76590830  0.52234186  0.80293639
   0.68740527  0.40974037  0.60310257
   0.59898580  0.20586587  0.79081721
   0.55069824  0.07128792  0.60038365
   0.34355931  0.64979901  0.00013884
   0.22587658  0.47736569  0.19715020
Nb - Mo - Ta - Ti - V SQS               
           1
    -3.163581   -3.142035   -3.221737
     1.444321    1.498106   -7.843796
     7.882172   -7.916028   -1.522159
   Nb   Mo   Ta   Ti   V 
   5   6   6   6   6
Direct configuration=    14
   0.92327707  0.96222172  0.39805770
   0.49746356  0.00333510 -0.00106973
  -0.00755637  0.00703278  0.00324614
   0.09684214  0.20698367  0.79510510
   0.03817941  0.07258847  0.59624149
   0.90384228  0.79708331  0.20563754
   0.81640296  0.58828487  0.39887131
   0.72953061  0.46508267  0.20464910
   0.66032809  0.34588252 -0.00280313
   0.36966861  0.72014039  0.59774062
   0.15039624  0.26996987  0.39793683
   0.83567128  0.66615601  0.00065600
   0.92115545  0.87434435  0.79514536
   0.56143029  0.14763428  0.21284924
   0.40477960  0.78997995  0.20042865
   0.43838456  0.85461939  0.79514928
   0.32276691  0.57540829  0.40172995
   0.85763113  0.73043382  0.59403360
   0.45349692  0.91763270  0.40926565
   0.17727585  0.33715925  0.00174608
   0.27597620  0.53159505  0.79417849
   0.19807337  0.38618954  0.59876491
   0.06896307  0.14710285  0.20808173
   0.76592053  0.52240414  0.80287507
   0.68769660  0.40948755  0.60308134
   0.59909164  0.20577515  0.79086381
   0.55053478  0.07129013  0.60030791
   0.34356404  0.65001072  0.00015842
   0.22587986  0.47750481  0.19707154
Nb - Mo - Ta - Ti - V SQS               
           1
    -3.159843   -3.140685   -3.220306
     1.443392    1.495515   -7.839177
     7.877506   -7.915105   -1.523628
   Nb   Mo   Ta   Ti   V 
   5   6   6   6   6
Direct configuration=    15
   0.92287537  0.96287793  0.39819927
   0.49743978  0.00367028 -0.00122587
  -0.00775866  0.00696373  0.00338685
   0.09668413  0.20747014  0.79498670
   0.03860445  0.07254329  0.59613708
   0.90394951  0.79695610  0.20575513
   0.81651631  0.58772920  0.39860884
   0.73032637  0.46515233  0.20450203
   0.66019059  0.34616181 -0.00266942
   0.36995703  0.71991490  0.59774989
   0.15052139  0.26996231  0.39812367
   0.83567537  0.66594696  0.00075825
   0.92130449  0.87428102  0.79520196
   0.56116117  0.14800466  0.21249083
   0.40487072  0.78980125  0.20012472
   0.43829272  0.85419008  0.79523862
   0.32276533  0.57525494  0.40191490
   0.85711683  0.73028352  0.59404342
   0.45314734  0.91748071  0.40945598
   0.17720337  0.33721517  0.00187958
   0.27579375  0.53155418  0.79409694
   0.19802016  0.38608855  0.59882838
   0.06893813  0.14728544  0.20831165
   0.76590191  0.52250918  0.80279153
   0.68816593  0.40905867  0.60302844
   0.59928808  0.20563799  0.79094083
   0.55028519  0.07123027  0.60022238
   0.34352114  0.65033323  0.00016645
   0.22590878  0.47777547  0.19695096
Nb - Mo - Ta - Ti - V SQS               
           1
    -3.156824   -3.139594   -3.219150
     1.442643    1.493422   -7.835445
     7.873736   -7.914360   -1.524815
   Nb   Mo   Ta   Ti   V 
   5   6   6   6   6
Direct configuration=    16
   0.92255036  0.96340854  0.39831370
   0.49742057  0.00394130 -0.00135209
  -0.00792229  0.00690792  0.00350060
   0.09655633  0.20786349  0.79489097
   0.03894819  0.07250673  0.59605265
   0.90403619  0.79685324  0.20585018
   0.81660819  0.58727990  0.39839673
   0.73096987  0.46520859  0.20438306
   0.66007929  0.34638765 -0.00256136
   0.37019029  0.71973256  0.59775736
   0.15062250  0.26995617  0.39827467
   0.83567866  0.66577792  0.00084090
   0.92142498  0.87422981  0.79524769
   0.56094367  0.14830415  0.21220115
   0.40494459  0.78965676  0.19987906
   0.43821849  0.85384297  0.79531088
   0.32276400  0.57513096  0.40206440
   0.85670099  0.73016204  0.59405143
   0.45286460  0.91735785  0.40960988
   0.17714468  0.33726038  0.00198749
   0.27564627  0.53152115  0.79403106
   0.19797712  0.38600689  0.59887970
   0.06891781  0.14743307  0.20849748
   0.76588687  0.52259411  0.80272400
   0.68854554  0.40871187  0.60298566
   0.59944691  0.20552708  0.79100307
   0.55008342  0.07118190  0.60015328
   0.34348639  0.65059400  0.00017292
   0.22593217  0.47799432  0.19685348
Nb - Mo - Ta - Ti - V SQS               
           1
    -3.156365   -3.139271   -3.219093
     1.442539    1.492499   -7.834660
     7.873864   -7.914168   -1.525429
   Nb   Mo   Ta   Ti   V 
   5   6   6   6   6
Direct configuration=    17
   0.92216023  0.96360695  0.39837438
   0.49736783  0.00388306 -0.00141795
  -0.00786437  0.00701071  0.00352412
   0.09656111  0.20782915  0.79492819
   0.03898656  0.07239423  0.59615274
   0.90397770  0.79698731  0.20588257
   0.81651288  0.58729905  0.39840056
   0.73110894  0.46514748  0.20435729
   0.66006475  0.34641154 -0.00256159
   0.37014692  0.71962471  0.59775565
   0.15087431  0.26984178  0.39833693
   0.83569912  0.66595887  0.00079527
   0.92129431  0.87416319  0.79526463
   0.56093119  0.14830210  0.21208250
   0.40497726  0.78966799  0.19992450
   0.43828042  0.85389724  0.79533601
   0.32272088  0.57512110  0.40203918
   0.85665396  0.73015951  0.59403612
   0.45293930  0.91728415  0.40952425
   0.17717727  0.33725456  0.00202486
   0.27560451  0.53146357  0.79405645
   0.19802469  0.38606650  0.59890608
   0.06888719  0.14744819  0.20854727
   0.76585795  0.52264113  0.80269916
   0.68872819  0.40845351  0.60291847
   0.59954421  0.20549501  0.79103803
   0.55006612  0.07105862  0.60013129
   0.34336472  0.65071069  0.00014275
   0.22601850  0.47815141  0.19680028
Nb - Mo - Ta - Ti - V SQS               
           1
    -3.154987   -3.138303   -3.218922
     1.442227    1.489732   -7.832306
     7.874247   -7.913591   -1.527273
   Nb   Mo   Ta   Ti   V 
   5   6   6   6   6
Direct configuration=    18
   0.92098964  0.96420229  0.39855640
   0.49720961  0.00370835 -0.00161553
  -0.00769061  0.00731911  0.00359466
   0.09657547  0.20772608  0.79503985
   0.03910171  0.07205665  0.59645304
   0.90380220  0.79738955  0.20597974
   0.81622688  0.58735654  0.39841206
   0.73152620  0.46496412  0.20428000
   0.66002112  0.34648325 -0.00256228
   0.37001684  0.71930113  0.59775052
   0.15162986  0.26949850  0.39852372
   0.83576044  0.66650181  0.00065834
   0.92090227  0.87396331  0.79531547
   0.56089374  0.14829599  0.21172656
   0.40507529  0.78970168  0.20006081
   0.43846624  0.85406006  0.79541140
   0.32259153  0.57509155  0.40196354
   0.85651285  0.73015193  0.59399019
   0.45316344  0.91706302  0.40926739
   0.17727506  0.33723708  0.00213697
   0.27547925  0.53129079  0.79413263
   0.19816739  0.38624535  0.59898521
   0.06879530  0.14749354  0.20869663
   0.76577119  0.52278222  0.80262461
   0.68927627  0.40767832  0.60271693
   0.59983617  0.20539877  0.79114290
   0.55001425  0.07068874  0.60006534
   0.34299963  0.65106083  0.00005225
   0.22627745  0.47862275  0.19664066
Nb - Mo - Ta - Ti - V SQS               
           1
    -3.156340   -3.139825   -3.220626
     1.442203    1.489465   -7.834858
     7.878232   -7.918003   -1.528120
   Nb   Mo   Ta   Ti   V 
   5   6   6   6   6
Direct configuration=    19
   0.92052439  0.96455281  0.39866465
   0.49721853  0.00372751 -0.00162124
  -0.00772010  0.00745425  0.00360176
   0.09655051  0.20773492  0.79509329
   0.03914047  0.07185037  0.59654978
   0.90372227  0.79758471  0.20597276
   0.81627051  0.58732480  0.39843226
   0.73161008  0.46497458  0.20428401
   0.66007449  0.34654187 -0.00261744
   0.36998310  0.71915939  0.59774185
   0.15207562  0.26933379  0.39861540
   0.83580977  0.66662640  0.00064069
   0.92104373  0.87388973  0.79530713
   0.56081787  0.14827911  0.21159072
   0.40505450  0.78977347  0.20008958
   0.43827385  0.85401095  0.79538482
   0.32251017  0.57510647  0.40192715
   0.85648615  0.73010254  0.59396316
   0.45312706  0.91696444  0.40917309
   0.17726080  0.33727357  0.00215782
   0.27548895  0.53120222  0.79416520
   0.19825117  0.38626146  0.59902942
   0.06873264  0.14751292  0.20878823
   0.76576119  0.52281300  0.80260840
   0.68943676  0.40736174  0.60260496
   0.59992513  0.20536863  0.79119148
   0.54997693  0.07054151  0.60005000
   0.34292044  0.65122652  0.00002598
   0.22633968  0.47877965  0.19658508
Nb - Mo - Ta - Ti - V SQS               
           1
    -3.157347   -3.140959   -3.221895
     1.442184    1.489267   -7.836759
     7.881198   -7.921288   -1.528751
   Nb   Mo   Ta   Ti   V 
   5   6   6   6   6
Direct configuration=    20
   0.92017816  0.96481368  0.39874519
   0.49722517  0.00374177 -0.00162549
  -0.00774206  0.00755483  0.00360704
   0.09653193  0.20774150  0.79513306
   0.03916933  0.07169685  0.59662176
   0.90366278  0.79772996  0.20596757
   0.81630298  0.58730118  0.39844729
   0.73167249  0.46498236  0.20428699
   0.66011420  0.34658550 -0.00265849
   0.36995801  0.71905390  0.59773541
   0.15240732  0.26921119  0.39868361
   0.83584646  0.66671912  0.00062755
   0.92114900  0.87383497  0.79530093
   0.56076142  0.14826654  0.21148965
   0.40503903  0.78982689  0.20011099
   0.43813071  0.85397441  0.79536505
   0.32244963  0.57511758  0.40190007
   0.85646629  0.73006579  0.59394306
   0.45310000  0.91689107  0.40910293
   0.17725019  0.33730072  0.00217334
   0.27549617  0.53113631  0.79418943
   0.19831352  0.38627345  0.59906232
   0.06868601  0.14752734  0.20885639
   0.76575374  0.52283590  0.80259634
   0.68955622  0.40712612  0.60252165
   0.59999132  0.20534619  0.79122762
   0.54994918  0.07043193  0.60003858
   0.34286151  0.65134984  0.00000644
   0.22638597  0.47889642  0.19654372
Nb - Mo - Ta - Ti - V SQS               
           1
    -3.157388   -3.141119   -3.222123
     1.441804    1.488791   -7.836384
     7.881619   -7.922032   -1.528841
   Nb   Mo   Ta   Ti   V 
   5   6   6   6   6
Direct configuration=    21
   0.91993859  0.96500250  0.39880043
   0.49723586  0.00375481 -0.00162491
  -0.00776239  0.00761729  0.00360971
   0.09652070  0.20774830  0.79515809
   0.03919777  0.07159231  0.59666652
   0.90362268  0.79782228  0.20596374
   0.81634221  0.58727223  0.39845127
   0.73170600  0.46500404  0.20429183
   0.66013703  0.34662293 -0.00268353
   0.36995221  0.71897553  0.59772763
   0.15263900  0.26913160  0.39872967
   0.83585775  0.66677557  0.00062402
   0.92120743  0.87380096  0.79529894
   0.56071798  0.14825957  0.21142038
   0.40503577  0.78985589  0.20011241
   0.43805236  0.85394583  0.79534777
   0.32241207  0.57513269  0.40188453
   0.85644418  0.73003874  0.59392672
   0.45306707  0.91684227  0.40906136
   0.17723990  0.33732426  0.00218277
   0.27550871  0.53109499  0.79420765
   0.19835118  0.38626886  0.59908447
   0.06865455  0.14754369  0.20890539
   0.76575017  0.52284580  0.80259258
   0.68963050  0.40697241  0.60246336
   0.60003439  0.20532881  0.79124991
   0.54993076  0.07035350  0.60003601
   0.34283552  0.65143003 -0.00000505
   0.22640671  0.47897564  0.19651632
Nb - Mo - Ta - Ti - V SQS               
           1
    -3.157511   -3.141601   -3.222807
     1.440665    1.487363   -7.835262
     7.882882   -7.924262   -1.529111
   Nb   Mo   Ta   Ti   V 
   5   6   6   6   6
Direct configuration=    22
   0.91921985  0.96556900  0.39896613
   0.49726793  0.00379395 -0.00162319
  -0.00782338  0.00780466  0.00361771
   0.09648702  0.20776871  0.79523319
   0.03928312  0.07127865  0.59680082
   0.90350235  0.79809929  0.20595228
   0.81645988  0.58718536  0.39846322
   0.73180652  0.46506908  0.20430635
   0.66020550  0.34673526 -0.00275863
   0.36993484  0.71874039  0.59770429
   0.15333404  0.26889278  0.39886782
   0.83589161  0.66694493  0.00061342
   0.92138274  0.87369894  0.79529295
   0.56058766  0.14823863  0.21121260
   0.40502599  0.78994289  0.20011666
   0.43781733  0.85386008  0.79529594
   0.32229939  0.57517802  0.40183791
   0.85637787  0.72995761  0.59387769
   0.45296832  0.91669586  0.40893665
   0.17720904  0.33739489  0.00221108
   0.27554632  0.53097099  0.79426233
   0.19846416  0.38625508  0.59915092
   0.06856017  0.14759276  0.20905236
   0.76573945  0.52287552  0.80258129
   0.68985340  0.40651121  0.60228851
   0.60016359  0.20527666  0.79131677
   0.54987552  0.07011817  0.60002830
   0.34275756  0.65167063 -0.00003951
   0.22646890  0.47921332  0.19643411
Nb - Mo - Ta - Ti - V SQS               
           1
    -3.156684   -3.140898   -3.222212
     1.439926    1.486441   -7.832887
     7.880989   -7.922616   -1.528872
   Nb   Mo   Ta   Ti   V 
   5   6   6   6   6
Direct configuration=    23
   0.91911851  0.96566328  0.39898103
   0.49727702  0.00380148 -0.00162354
  -0.00782887  0.00780700  0.00361746
   0.09647465  0.20778121  0.79523750