  29  29   0   0
  0.1632129E+02  0.5473281E-09  0.8209921E-09  0.1128346E-08  0.5000000E-15
  1.000000000000000E-004
  CAR 
 Nb - Mo - Ta - Ti - V SQS               
     11.66116192    -50.27986833  301      6.58163395      1.00000000
    -50.280  0.0000E+00  0.0000E+00
    -50.073  0.0000E+00  0.0000E+00
    -49.867  0.0000E+00  0.0000E+00
    -49.660  0.0000E+00  0.0000E+00
    -49.454  0.0000E+00  0.0000E+00
    -49.248 -0.7926E-35 -0.1637E-35
    -49.041 -0.2709E-27 -0.5593E-28
    -48.835 -0.1041E-20 -0.2148E-21
    -48.628 -0.4578E-15 -0.9453E-16
    -48.422 -0.2385E-10 -0.4925E-11
    -48.215 -0.1433E-06 -0.2959E-07
    -48.009 -0.9612E-04 -0.1988E-04
    -47.802 -0.6454E-02 -0.1352E-02
    -47.596 -0.5909E-02 -0.2572E-02
    -47.389  0.4082E+00  0.8172E-01
    -47.183  0.6746E+00  0.2210E+00
    -46.976  0.1117E+00  0.2441E+00
    -46.770 -0.1881E-01  0.2402E+00
    -46.563 -0.8687E-03  0.2400E+00
    -46.357 -0.3289E-05  0.2400E+00
    -46.150 -0.1334E-08  0.2400E+00
    -45.944 -0.6099E-13  0.2400E+00
    -45.738  0.0000E+00  0.2400E+00
    -45.531  0.0000E+00  0.2400E+00
    -45.325  0.0000E+00  0.2400E+00
    -45.118  0.0000E+00  0.2400E+00
    -44.912  0.0000E+00  0.2400E+00
    -44.705  0.0000E+00  0.2400E+00
    -44.499  0.0000E+00  0.2400E+00
    -44.292  0.0000E+00  0.2400E+00
    -44.086  0.0000E+00  0.2400E+00
    -43.879  0.0000E+00  0.2400E+00
    -43.673  0.0000E+00  0.2400E+00
    -43.466  0.0000E+00  0.2400E+00
    -43.260  0.0000E+00  0.2400E+00
    -43.053  0.0000E+00  0.2400E+00
    -42.847  0.0000E+00  0.2400E+00
    -42.640  0.0000E+00  0.2400E+00
    -42.434  0.0000E+00  0.2400E+00
    -42.228  0.0000E+00  0.2400E+00
    -42.021  0.0000E+00  0.2400E+00
    -41.815  0.0000E+00  0.2400E+00
    -41.608  0.0000E+00  0.2400E+00
    -41.402  0.0000E+00  0.2400E+00
    -41.195  0.0000E+00  0.2400E+00
    -40.989  0.0000E+00  0.2400E+00
    -40.782  0.0000E+00  0.2400E+00
    -40.576  0.0000E+00  0.2400E+00
    -40.369  0.0000E+00  0.2400E+00
    -40.163  0.0000E+00  0.2400E+00
    -39.956  0.0000E+00  0.2400E+00
    -39.750  0.0000E+00  0.2400E+00
    -39.543  0.0000E+00  0.2400E+00
    -39.337  0.0000E+00  0.2400E+00
    -39.130  0.0000E+00  0.2400E+00
    -38.924  0.0000E+00  0.2400E+00
    -38.718  0.0000E+00  0.2400E+00
    -38.511  0.0000E+00  0.2400E+00
    -38.305  0.0000E+00  0.2400E+00
    -38.098  0.0000E+00  0.2400E+00
    -37.892  0.0000E+00  0.2400E+00
    -37.685  0.0000E+00  0.2400E+00
    -37.479  0.0000E+00  0.2400E+00
    -37.272  0.0000E+00  0.2400E+00
    -37.066  0.0000E+00  0.2400E+00
    -36.859  0.0000E+00  0.2400E+00
    -36.653  0.0000E+00  0.2400E+00
    -36.446  0.0000E+00  0.2400E+00
    -36.240  0.0000E+00  0.2400E+00
    -36.033  0.0000E+00  0.2400E+00
    -35.827  0.0000E+00  0.2400E+00
    -35.620  0.0000E+00  0.2400E+00
    -35.414  0.0000E+00  0.2400E+00
    -35.208  0.0000E+00  0.2400E+00
    -35.001  0.0000E+00  0.2400E+00
    -34.795  0.0000E+00  0.2400E+00
    -34.588  0.0000E+00  0.2400E+00
    -34.382  0.0000E+00  0.2400E+00
    -34.175  0.0000E+00  0.2400E+00
    -33.969  0.0000E+00  0.2400E+00
    -33.762  0.0000E+00  0.2400E+00
    -33.556  0.0000E+00  0.2400E+00
    -33.349  0.0000E+00  0.2400E+00
    -33.143  0.0000E+00  0.2400E+00
    -32.936  0.0000E+00  0.2400E+00
    -32.730  0.0000E+00  0.2400E+00
    -32.523  0.0000E+00  0.2400E+00
    -32.317  0.0000E+00  0.2400E+00
    -32.110  0.0000E+00  0.2400E+00
    -31.904  0.0000E+00  0.2400E+00
    -31.698  0.0000E+00  0.2400E+00
    -31.491  0.0000E+00  0.2400E+00
    -31.285  0.0000E+00  0.2400E+00
    -31.078  0.0000E+00  0.2400E+00
    -30.872  0.0000E+00  0.2400E+00
    -30.665  0.0000E+00  0.2400E+00
    -30.459  0.0000E+00  0.2400E+00
    -30.252  0.0000E+00  0.2400E+00
    -30.046  0.0000E+00  0.2400E+00
    -29.839  0.0000E+00  0.2400E+00
    -29.633  0.0000E+00  0.2400E+00
    -29.426  0.0000E+00  0.2400E+00
    -29.220  0.0000E+00  0.2400E+00
    -29.013  0.0000E+00  0.2400E+00
    -28.807  0.0000E+00  0.2400E+00
    -28.601  0.0000E+00  0.2400E+00
    -28.394  0.0000E+00  0.2400E+00
    -28.188  0.0000E+00  0.2400E+00
    -27.981  0.0000E+00  0.2400E+00
    -27.775  0.0000E+00  0.2400E+00
    -27.568  0.0000E+00  0.2400E+00
    -27.362  0.0000E+00  0.2400E+00
    -27.155  0.0000E+00  0.2400E+00
    -26.949  0.0000E+00  0.2400E+00
    -26.742  0.0000E+00  0.2400E+00
    -26.536  0.0000E+00  0.2400E+00
    -26.329  0.0000E+00  0.2400E+00
    -26.123  0.0000E+00  0.2400E+00
    -25.916 -0.2981E-34  0.2400E+00
    -25.710 -0.6738E-27  0.2400E+00
    -25.503 -0.1799E-20  0.2400E+00
    -25.297 -0.5537E-15  0.2400E+00
    -25.091 -0.2092E-10  0.2400E+00
    -24.884 -0.9534E-07  0.2400E+00
    -24.678 -0.5229E-04  0.2400E+00
    -24.471 -0.3073E-02  0.2394E+00
    -24.265  0.3327E-03  0.2394E+00
    -24.058  0.1651E+00  0.2735E+00
    -23.852  0.3019E+00  0.3358E+00
    -23.645  0.5178E+00  0.4427E+00
    -23.439  0.1203E+01  0.6911E+00
    -23.232  0.8163E+00  0.8597E+00
    -23.026  0.3410E+00  0.9301E+00
    -22.819  0.1484E+00  0.9607E+00
    -22.613 -0.7971E-03  0.9606E+00
    -22.406 -0.2680E-02  0.9600E+00
    -22.200 -0.6910E-04  0.9600E+00
    -21.993 -0.1974E-06  0.9600E+00
    -21.787 -0.6528E-10  0.9600E+00
    -21.581 -0.2507E-14  0.9600E+00
    -21.374  0.0000E+00  0.9600E+00
    -21.168  0.0000E+00  0.9600E+00
    -20.961  0.0000E+00  0.9600E+00
    -20.755  0.0000E+00  0.9600E+00
    -20.548  0.0000E+00  0.9600E+00
    -20.342  0.0000E+00  0.9600E+00
    -20.135  0.0000E+00  0.9600E+00
    -19.929  0.0000E+00  0.9600E+00
    -19.722  0.0000E+00  0.9600E+00
    -19.516  0.0000E+00  0.9600E+00
    -19.309  0.0000E+00  0.9600E+00
    -19.103  0.0000E+00  0.9600E+00
    -18.896  0.0000E+00  0.9600E+00
    -18.690  0.0000E+00  0.9600E+00
    -18.483  0.0000E+00  0.9600E+00
    -18.277  0.0000E+00  0.9600E+00
    -18.071  0.0000E+00  0.9600E+00
    -17.864  0.0000E+00  0.9600E+00
    -17.658  0.0000E+00  0.9600E+00
    -17.451  0.0000E+00  0.9600E+00
    -17.245  0.0000E+00  0.9600E+00
    -17.038  0.0000E+00  0.9600E+00
    -16.832  0.0000E+00  0.9600E+00
    -16.625  0.0000E+00  0.9600E+00
    -16.419  0.0000E+00  0.9600E+00
    -16.212  0.0000E+00  0.9600E+00
    -16.006  0.0000E+00  0.9600E+00
    -15.799  0.0000E+00  0.9600E+00
    -15.593  0.0000E+00  0.9600E+00
    -15.386  0.0000E+00  0.9600E+00
    -15.180  0.0000E+00  0.9600E+00
    -14.973  0.0000E+00  0.9600E+00
    -14.767  0.0000E+00  0.9600E+00
    -14.561  0.0000E+00  0.9600E+00
    -14.354  0.0000E+00  0.9600E+00
    -14.148  0.0000E+00  0.9600E+00
    -13.941  0.0000E+00  0.9600E+00
    -13.735  0.0000E+00  0.9600E+00
    -13.528  0.0000E+00  0.9600E+00
    -13.322  0.0000E+00  0.9600E+00
    -13.115  0.0000E+00  0.9600E+00
    -12.909  0.0000E+00  0.9600E+00
    -12.702  0.0000E+00  0.9600E+00
    -12.496  0.0000E+00  0.9600E+00
    -12.289  0.0000E+00  0.9600E+00
    -12.083  0.0000E+00  0.9600E+00
    -11.876  0.0000E+00  0.9600E+00
    -11.670  0.0000E+00  0.9600E+00
    -11.463  0.0000E+00  0.9600E+00
    -11.257  0.0000E+00  0.9600E+00
    -11.051  0.0000E+00  0.9600E+00
    -10.844  0.0000E+00  0.9600E+00
    -10.638  0.0000E+00  0.9600E+00
    -10.431  0.0000E+00  0.9600E+00
    -10.225  0.0000E+00  0.9600E+00
    -10.018  0.0000E+00  0.9600E+00
     -9.812  0.0000E+00  0.9600E+00
     -9.605  0.0000E+00  0.9600E+00
     -9.399  0.0000E+00  0.9600E+00
     -9.192  0.0000E+00  0.9600E+00
     -8.986  0.0000E+00  0.9600E+00
     -8.779  0.0000E+00  0.9600E+00
     -8.573  0.0000E+00  0.9600E+00
     -8.366  0.0000E+00  0.9600E+00
     -8.160  0.0000E+00  0.9600E+00
     -7.953  0.0000E+00  0.9600E+00
     -7.747  0.0000E+00  0.9600E+00
     -7.541  0.0000E+00  0.9600E+00
     -7.334  0.0000E+00  0.9600E+00
     -7.128  0.0000E+00  0.9600E+00
     -6.921  0.0000E+00  0.9600E+00
     -6.715  0.0000E+00  0.9600E+00
     -6.508  0.0000E+00  0.9600E+00
     -6.302  0.0000E+00  0.9600E+00
     -6.095  0.0000E+00  0.9600E+00
     -5.889  0.0000E+00  0.9600E+00
     -5.682  0.0000E+00  0.9600E+00
     -5.476  0.0000E+00  0.9600E+00
     -5.269  0.0000E+00  0.9600E+00
     -5.063  0.0000E+00  0.9600E+00
     -4.856  0.0000E+00  0.9600E+00
     -4.650  0.0000E+00  0.9600E+00
     -4.444  0.0000E+00  0.9600E+00
     -4.237  0.0000E+00  0.9600E+00
     -4.031  0.0000E+00  0.9600E+00
     -3.824  0.0000E+00  0.9600E+00
     -3.618  0.0000E+00  0.9600E+00
     -3.411  0.0000E+00  0.9600E+00
     -3.205  0.0000E+00  0.9600E+00
     -2.998  0.0000E+00  0.9600E+00
     -2.792  0.0000E+00  0.9600E+00
     -2.585  0.0000E+00  0.9600E+00
     -2.379  0.0000E+00  0.9600E+00
     -2.172  0.0000E+00  0.9600E+00
     -1.966 -0.8093E-37  0.9600E+00
     -1.759 -0.2594E-29  0.9600E+00
     -1.553 -0.8954E-23  0.9600E+00
     -1.346 -0.3586E-17  0.9600E+00
     -1.140 -0.1733E-12  0.9600E+00
     -0.934 -0.1004E-08  0.9600E+00
     -0.727 -0.6966E-06  0.9600E+00
     -0.521 -0.5667E-04  0.9600E+00
     -0.314 -0.3522E-03  0.9599E+00
     -0.108  0.3823E-02  0.9607E+00
      0.099  0.1826E-01  0.9645E+00
      0.305  0.2585E-01  0.9698E+00
      0.512  0.3741E-01  0.9775E+00
      0.718  0.4165E-01  0.9861E+00
      0.925  0.3729E-01  0.9938E+00
      1.131  0.5729E-01  0.1006E+01
      1.338  0.6301E-01  0.1019E+01
      1.544  0.6878E-01  0.1033E+01
      1.751  0.7259E-01  0.1048E+01
      1.957  0.9371E-01  0.1067E+01
      2.164  0.1107E+00  0.1090E+01
      2.370  0.1424E+00  0.1119E+01
      2.576  0.2206E+00  0.1165E+01
      2.783  0.3284E+00  0.1233E+01
      2.989  0.4209E+00  0.1320E+01
      3.196  0.5327E+00  0.1430E+01
      3.402  0.6086E+00  0.1555E+01
      3.609  0.6197E+00  0.1683E+01
      3.815  0.6449E+00  0.1816E+01
      4.022  0.6547E+00  0.1952E+01
      4.228  0.6096E+00  0.2078E+01
      4.435  0.5306E+00  0.2187E+01
      4.641  0.5206E+00  0.2295E+01
      4.848  0.6238E+00  0.2423E+01
      5.054  0.7608E+00  0.2580E+01
      5.261  0.8306E+00  0.2752E+01
      5.467  0.8281E+00  0.2923E+01
      5.674  0.8299E+00  0.3094E+01
      5.880  0.8242E+00  0.3264E+01
      6.086  0.8363E+00  0.3437E+01
      6.293  0.8679E+00  0.3616E+01
      6.499  0.8561E+00  0.3793E+01
      6.706  0.7753E+00  0.3953E+01
      6.912  0.6232E+00  0.4082E+01
      7.119  0.5047E+00  0.4186E+01
      7.325  0.4136E+00  0.4271E+01
      7.532  0.3792E+00  0.4350E+01
      7.738  0.3571E+00  0.4423E+01
      7.945  0.3816E+00  0.4502E+01
      8.151  0.4520E+00  0.4596E+01
      8.358  0.4651E+00  0.4692E+01
      8.564  0.3520E+00  0.4764E+01
      8.771  0.1580E+00  0.4797E+01
      8.977  0.1860E-01  0.4801E+01
      9.184 -0.3379E-02  0.4800E+01
      9.390 -0.2828E-03  0.4800E+01
      9.596 -0.2390E-05  0.4800E+01
      9.803 -0.2541E-08  0.4800E+01
     10.009 -0.3446E-12  0.4800E+01
     10.216 -0.5518E-17  0.4800E+01
     10.422  0.0000E+00  0.4800E+01
     10.629  0.0000E+00  0.4800E+01
     10.835  0.0000E+00  0.4800E+01
     11.042  0.0000E+00  0.4800E+01
     11.248  0.0000E+00  0.4800E+01
     11.455  0.0000E+00  0.4800E+01
     11.661  0.0000E+00  0.4800E+01
