   29   29   50    1
  0.1632129E+02  0.5473281E-09  0.8209921E-09  0.1128346E-08  0.5000000E-15
  1.000000000000000E-004
  CAR 
 Nb - Mo - Ta - Ti - V SQS               
    193    172    120
 
  0.0000000E+00  0.0000000E+00  0.0000000E+00  0.2915452E-02
    1      -47.464367   1.000000
    2      -47.429294   1.000000
    3      -47.353766   1.000000
    4      -47.319394   1.000000
    5      -47.241106   1.000000
    6      -47.234373   1.000000
    7      -24.163463   1.000000
    8      -24.063529   1.000000
    9      -23.863612   1.000000
   10      -23.812771   1.000000
   11      -23.625708   1.000000
   12      -23.624373   1.000000
   13      -23.583309   1.000000
   14      -23.536623   1.000000
   15      -23.526911   1.000000
   16      -23.494244   1.000000
   17      -23.433746   1.000000
   18      -23.418911   1.000000
   19      -23.402344   1.000000
   20      -23.398390   1.000000
   21      -23.312833   1.000000
   22      -23.148179   1.000000
   23      -23.054330   1.000000
   24      -22.891471   1.000000
   25       -0.189954   1.000000
   26        1.148569   1.000000
   27        1.465518   1.000000
   28        2.233490   1.000000
   29        2.364716   1.000000
   30        2.459500   1.000000
   31        2.547261   1.000000
   32        2.644582   1.000000
   33        2.764579   1.000000
   34        2.852402   1.000000
   35        2.886206   1.000000
   36        2.934160   1.000000
   37        3.034781   1.000000
   38        3.131445   1.000000
   39        3.141993   1.000000
   40        3.177694   1.000000
   41        3.269872   1.000000
   42        3.410230   1.000000
   43        3.468141   1.000000
   44        3.546859   1.000000
   45        3.590946   1.000000
   46        3.661862   1.000000
   47        3.696241   1.000000
   48        3.789211   1.000000
   49        3.844009   1.000000
   50        3.920395   1.000000
   51        3.950435   1.000000
   52        4.059396   1.000000
   53        4.141553   1.000000
   54        4.204257   1.000000
   55        4.275795   1.000000
   56        4.361977   1.000000
   57        4.489843   1.000000
   58        4.532047   1.000000
   59        4.599264   1.000000
   60        4.666626   1.000000
   61        4.710585   1.000000
   62        4.792809   1.000000
   63        4.856145   1.000000
   64        4.912433   1.000000
   65        4.975144   1.000000
   66        5.011376   1.000000
   67        5.071519   1.000000
   68        5.148889   1.000000
   69        5.216869   1.000000
   70        5.290165   1.000000
   71        5.321560   1.000000
   72        5.380750   1.000000
   73        5.386940   1.000000
   74        5.421904   1.000000
   75        5.459683   1.000000
   76        5.489431   1.000000
   77        5.609196   1.000000
   78        5.663734   1.000000
   79        5.727590   1.000000
   80        5.798103   1.000000
   81        5.913860   1.000012
   82        5.928830   1.000020
   83        5.985814   1.000105
   84        5.993725   1.000130
   85        6.115552   1.002388
   86        6.143400   1.004109
   87        6.154862   1.005066
   88        6.223826   1.014856
   89        6.284238   1.028228
   90        6.310801   1.033307
   91        6.419740   0.992430
   92        6.537835   0.680494
   93        6.624286   0.323997
   94        6.697721   0.088958
   95        6.733131   0.021644
   96        6.769166  -0.017389
   97        6.825729  -0.035455
   98        6.897135  -0.024107
   99        6.939272  -0.014890
  100        6.986609  -0.007371
  101        7.057789  -0.001940
  102        7.106000  -0.000660
  103        7.269077  -0.000007
  104        7.403735  -0.000000
  105        7.469469  -0.000000
  106        7.697067  -0.000000
  107        7.709093  -0.000000
  108        7.855455  -0.000000
  109        7.884488  -0.000000
  110        7.955934  -0.000000
  111        8.172586  -0.000000
  112        8.305466  -0.000000
  113        8.409206  -0.000000
  114        8.479183  -0.000000
  115        8.578916  -0.000000
  116        8.600439  -0.000000
  117        8.622365  -0.000000
  118        8.669384  -0.000000
  119        8.721917  -0.000000
  120        8.776248  -0.000000
 
  0.1428571E+00  0.0000000E+00 -0.1561251E-16  0.5830904E-02
    1      -47.460947   1.000000
    2      -47.427510   1.000000
    3      -47.353320   1.000000
    4      -47.319208   1.000000
    5      -47.241536   1.000000
    6      -47.239484   1.000000
    7      -24.117581   1.000000
    8      -24.055211   1.000000
    9      -23.860279   1.000000
   10      -23.809518   1.000000
   11      -23.626259   1.000000
   12      -23.619920   1.000000
   13      -23.584610   1.000000
   14      -23.536948   1.000000
   15      -23.529227   1.000000
   16      -23.496797   1.000000
   17      -23.439138   1.000000
   18      -23.420233   1.000000
   19      -23.404956   1.000000
   20      -23.398469   1.000000
   21      -23.314219   1.000000
   22      -23.152072   1.000000
   23      -23.055316   1.000000
   24      -22.954977   1.000000
   25       -0.029183   1.000000
   26        1.293065   1.000000
   27        1.600884   1.000000
   28        2.259264   1.000000
   29        2.498098   1.000000
   30        2.561414   1.000000
   31        2.650192   1.000000
   32        2.749058   1.000000
   33        2.803960   1.000000
   34        2.952719   1.000000
   35        2.995433   1.000000
   36        3.032162   1.000000
   37        3.121720   1.000000
   38        3.174834   1.000000
   39        3.234443   1.000000
   40        3.274313   1.000000
   41        3.356720   1.000000
   42        3.460537   1.000000
   43        3.507800   1.000000
   44        3.557606   1.000000
   45        3.610999   1.000000
   46        3.712823   1.000000
   47        3.771038   1.000000
   48        3.847566   1.000000
   49        3.891725   1.000000
   50        3.967648   1.000000
   51        4.047000   1.000000
   52        4.138604   1.000000
   53        4.163440   1.000000
   54        4.229616   1.000000
   55        4.251650   1.000000
   56        4.345937   1.000000
   57        4.477377   1.000000
   58        4.536729   1.000000
   59        4.644695   1.000000
   60        4.704845   1.000000
   61        4.747841   1.000000
   62        4.850884   1.000000
   63        4.910788   1.000000
   64        4.983921   1.000000
   65        5.019191   1.000000
   66        5.079601   1.000000
   67        5.096906   1.000000
   68        5.198285   1.000000
   69        5.236863   1.000000
   70        5.296906   1.000000
   71        5.330970   1.000000
   72        5.400939   1.000000
   73        5.434692   1.000000
   74        5.453029   1.000000
   75        5.494353   1.000000
   76        5.567445   1.000000
   77        5.612765   1.000000
   78        5.660060   1.000000
   79        5.704469   1.000000
   80        5.745744   1.000000
   81        5.809173   1.000000
   82        5.880400   1.000004
   83        5.906764   1.000010
   84        6.011306   1.000209
   85        6.020634   1.000266
   86        6.126496   1.002973
   87        6.199384   1.010536
   88        6.256681   1.021924
   89        6.294344   1.030367
   90        6.349111   1.034811
   91        6.424171   0.986730
   92        6.464160   0.914266
   93        6.501601   0.810457
   94        6.553581   0.617417
   95        6.573051   0.536283
   96        6.649523   0.230263
   97        6.734215   0.020061
   98        6.797020  -0.031379
   99        6.872378  -0.029657
  100        6.957967  -0.011496
  101        7.007282  -0.005169
  102        7.101001  -0.000743
  103        7.176910  -0.000107
  104        7.205220  -0.000048
  105        7.329127  -0.000001
  106        7.426732  -0.000000
  107        7.487414  -0.000000
  108        7.618412  -0.000000
  109        7.743293  -0.000000
  110        7.835952  -0.000000
  111        7.978836  -0.000000
  112        8.041844  -0.000000
  113        8.189433  -0.000000
  114        8.246809  -0.000000
  115        8.329748  -0.000000
  116        8.355482  -0.000000
  117        8.425318  -0.000000
  118        8.454049  -0.000000
  119        8.547665  -0.000000
  120        8.606641  -0.000000
 
  0.2857143E+00  0.1387779E-16  0.3469447E-17  0.5830904E-02
    1      -47.454040   1.000000
    2      -47.421716   1.000000
    3      -47.352183   1.000000
    4      -47.318762   1.000000
    5      -47.253382   1.000000
    6      -47.241261   1.000000
    7      -24.077633   1.000000
    8      -23.952210   1.000000
    9      -23.849102   1.000000
   10      -23.795228   1.000000
   11      -23.629873   1.000000
   12      -23.606242   1.000000
   13      -23.587417   1.000000
   14      -23.539061   1.000000
   15      -23.532762   1.000000
   16      -23.502434   1.000000
   17      -23.453812   1.000000
   18      -23.422745   1.000000
   19      -23.409789   1.000000
   20      -23.399954   1.000000
   21      -23.318679   1.000000
   22      -23.162016   1.000000
   23      -23.130672   1.000000
   24      -23.053227   1.000000
   25        0.427515   1.000000
   26        1.678865   1.000000
   27        1.964545   1.000000
   28        2.390238   1.000000
   29        2.626461   1.000000
   30        2.754127   1.000000
   31        2.806968   1.000000
   32        2.985938   1.000000
   33        3.043687   1.000000
   34        3.049393   1.000000
   35        3.229325   1.000000
   36        3.257238   1.000000
   37        3.305899   1.000000
   38        3.395502   1.000000
   39        3.429483   1.000000
   40        3.452653   1.000000
   41        3.503910   1.000000
   42        3.539237   1.000000
   43        3.600500   1.000000
   44        3.691634   1.000000
   45        3.754004   1.000000
   46        3.801506   1.000000
   47        3.872769   1.000000
   48        3.915005   1.000000
   49        4.024336   1.000000
   50        4.116089   1.000000
   51        4.200141   1.000000
   52        4.236827   1.000000
   53        4.310942   1.000000
   54        4.351557   1.000000
   55        4.405501   1.000000
   56        4.487501   1.000000
   57        4.532849   1.000000
   58        4.633034   1.000000
   59        4.739923   1.000000
   60        4.773826   1.000000
   61        4.805095   1.000000
   62        4.909149   1.000000
   63        4.955428   1.000000
   64        4.995983   1.000000
   65        5.057974   1.000000
   66        5.115012   1.000000
   67        5.153616   1.000000
   68        5.214258   1.000000
   69        5.241012   1.000000
   70        5.305781   1.000000
   71        5.334010   1.000000
   72        5.411787   1.000000
   73        5.471432   1.000000
   74        5.516178   1.000000
   75        5.567461   1.000000
   76        5.589135   1.000000
   77        5.625465   1.000000
   78        5.699055   1.000000
   79        5.745761   1.000000
   80        5.771181   1.000000
   81        5.815534   1.000000
   82        5.852017   1.000002
   83        5.898672   1.000008
   84        5.954854   1.000043
   85        5.991400   1.000122
   86        6.024523   1.000294
   87        6.086405   1.001287
   88        6.139870   1.003846
   89        6.241136   1.018439
   90        6.265694   1.024005
   91        6.297168   1.030927
   92        6.334738   1.035443
   93        6.416359   0.996491
   94        6.474193   0.889844
   95        6.531756   0.703948
   96        6.551548   0.625722
   97        6.603820   0.406759
   98        6.634286   0.285541
   99        6.709200   0.063731
  100        6.739868   0.012246
  101        6.826060  -0.035457
  102        6.869551  -0.030240
  103        6.935790  -0.015580
  104        6.961958  -0.010842
  105        7.058642  -0.001906
  106        7.078791  -0.001234
  107        7.199963  -0.000055
  108        7.250116  -0.000012
  109        7.343092  -0.000001
  110        7.497370  -0.000000
  111        7.549033  -0.000000
  112        7.664121  -0.000000
  113        7.749789  -0.000000
  114        7.870086  -0.000000
  115        7.917613  -0.000000
  116        8.019169  -0.000000
  117        8.107409  -0.000000
  118        8.164459  -0.000000
  119        8.294923  -0.000000
  120        8.381394  -0.000000
 
  0.4285714E+00  0.5551115E-16 -0.4163336E-16  0.5830904E-02
    1      -47.449654   1.000000
    2      -47.414579   1.000000
    3      -47.351012   1.000000
    4      -47.318349   1.000000
    5      -47.265743   1.000000
    6      -47.241473   1.000000
    7      -24.074068   1.000000
    8      -23.867474   1.000000
    9      -23.822808   1.000000
   10      -23.680346   1.000000
   11      -23.631561   1.000000
   12      -23.593384   1.000000
   13      -23.589362   1.000000
   14      -23.544766   1.000000
   15      -23.532674   1.000000
   16      -23.506946   1.000000
   17      -23.468801   1.000000
   18      -23.425235   1.000000
   19      -23.412944   1.000000
   20      -23.406587   1.000000
   21      -23.381700   1.000000
   22      -23.298943   1.000000
   23      -23.167820   1.000000
   24      -23.055117   1.000000
   25        1.090404   1.000000
   26        1.862542   1.000000
   27        2.294453   1.000000
   28        2.491838   1.000000
   29        2.586394   1.000000
   30        2.863390   1.000000
   31        2.954082   1.000000
   32        3.063386   1.000000
   33        3.200510   1.000000
   34        3.257578   1.000000
   35        3.299134   1.000000
   36        3.347979   1.000000
   37        3.428138   1.000000
   38        3.527605   1.000000
   39        3.539234   1.000000
   40        3.640946   1.000000
   41        3.690572   1.000000
   42        3.747141   1.000000
   43        3.769554   1.000000
   44        3.822649   1.000000
   45        3.917322   1.000000
   46        3.960984   1.000000
   47        4.053661   1.000000
   48        4.072683   1.000000
   49        4.130458   1.000000
   50        4.182529   1.000000
   51        4.297418   1.000000
   52        4.326604   1.000000
   53        4.441739   1.000000
   54        4.463023   1.000000
   55        4.560869   1.000000
   56        4.637084   1.000000
   57        4.681487   1.000000
   58        4.746465   1.000000
   59        4.773998   1.000000
   60        4.814286   1.000000
   61        4.877784   1.000000
   62        4.905850   1.000000
   63        4.934078   1.000000
   64        5.009798   1.000000
   65        5.058909   1.000000
   66        5.101781   1.000000
   67        5.165341   1.000000
   68        5.211336   1.000000
   69        5.267892   1.000000
   70        5.295265   1.000000
   71        5.366069   1.000000
   72        5.389905   1.000000
   73        5.442763   1.000000
   74        5.491526   1.000000
   75        5.526564   1.000000
   76        5.555192   1.000000
   77        5.631487   1.000000
   78        5.643895   1.000000
   79        5.709389   1.000000
   80        5.757120   1.000000
   81        5.812857   1.000000
   82        5.857394   1.000002
   83        5.909367   1.000011
   84        5.974914   1.000077
   85        5.994401   1.000133
   86        6.052217   1.000585
   87        6.073818   1.000971
   88        6.120909   1.002661
   89        6.156061   1.005176
   90        6.199864   1.010612
   91        6.220229   1.014163
   92        6.275013   1.026154
   93        6.314118   1.033783
   94        6.355491   1.033915
   95        6.399415   1.013271
   96        6.440242   0.962280
   97        6.500509   0.813959
   98        6.540667   0.669380
   99        6.588830   0.469574
  100        6.638112   0.271261
  101        6.654883   0.211900
  102        6.736031   0.017471
  103        6.831560  -0.035366
  104        6.898970  -0.023682
  105        6.937260  -0.015286
  106        6.973099  -0.009154
  107        7.005160  -0.005368
  108        7.072670  -0.001411
  109        7.130414  -0.000364
  110        7.280336  -0.000005
  111        7.433156  -0.000000
  112        7.523872  -0.000000
  113        7.587933  -0.000000
  114        7.661402  -0.000000
  115        7.761333  -0.000000
  116        7.794020  -0.000000
  117        7.916575  -0.000000
  118        8.062380  -0.000000
  119        8.129364  -0.000000
  120        8.201222  -0.000000
 
 -0.6938894E-17  0.1428571E+00  0.1040834E-16  0.5830904E-02
    1      -47.464360   1.000000
    2      -47.429266   1.000000
    3      -47.353610   1.000000
    4      -47.319357   1.000000
    5      -47.241331   1.000000
    6      -47.234373   1.000000
    7      -24.163448   1.000000
    8      -24.062917   1.000000
    9      -23.861127   1.000000
   10      -23.812368   1.000000
   11      -23.625782   1.000000
   12      -23.624367   1.000000
   13      -23.583335   1.000000
   14      -23.536694   1.000000
   15      -23.526961   1.000000
   16      -23.494346   1.000000
   17      -23.433763   1.000000
   18      -23.418843   1.000000
   19      -23.402143   1.000000
   20      -23.398412   1.000000
   21      -23.312838   1.000000
   22      -23.151852   1.000000
   23      -23.054848   1.000000
   24      -22.891478   1.000000
   25       -0.120588   1.000000
   26        1.186634   1.000000
   27        1.529745   1.000000
   28        1.982851   1.000000
   29        2.405231   1.000000
   30        2.437391   1.000000
   31        2.540791   1.000000
   32        2.666825   1.000000
   33        2.751707   1.000000
   34        2.856015   1.000000
   35        2.913858   1.000000
   36        2.930105   1.000000
   37        2.994701   1.000000
   38        3.082880   1.000000
   39        3.134463   1.000000
   40        3.252730   1.000000
   41        3.319652   1.000000
   42        3.406054   1.000000
   43        3.442295   1.000000
   44        3.494954   1.000000
   45        3.589237   1.000000
   46        3.645450   1.000000
   47        3.745484   1.000000
   48        3.792457   1.000000
   49        3.835495   1.000000
   50        3.912504   1.000000
   51        4.045876   1.000000
   52        4.098699   1.000000
   53        4.170992   1.000000
   54        4.219272   1.000000
   55        4.278072   1.000000
   56        4.339316   1.000000
   57        4.420798   1.000000
   58        4.504938   1.000000
   59        4.600813   1.000000
   60        4.671465   1.000000
   61        4.745825   1.000000
   62        4.846861   1.000000
   63        4.896131   1.000000
   64        4.979624   1.000000
   65        5.017403   1.000000
   66        5.061210   1.000000
   67        5.070036   1.000000
   68        5.162397   1.000000
   69        5.220010   1.000000
   70        5.276789   1.000000
   71        5.315613   1.000000
   72        5.374999   1.000000
   73        5.392378   1.000000
   74        5.434295   1.000000
   75        5.490616   1.000000
   76        5.526273   1.000000
   77        5.629642   1.000000
   78        5.681401   1.000000
   79        5.757705   1.000000
   80        5.812490   1.000000
   81        5.882824   1.000005
   82        5.940625   1.000028
   83        5.986171   1.000106
   84        6.019422   1.000258
   85        6.101242   1.001774
   86        6.122785   1.002762
   87        6.186690   1.008668
   88        6.210621   1.012406
   89        6.243938   1.019052
   90        6.272426   1.025561
   91        6.355394   1.033931
   92        6.426854   0.983066
   93        6.480509   0.873171
   94        6.532542   0.700947
   95        6.656756   0.205627
   96        6.704116   0.074494
   97        6.790051  -0.028962
   98        6.897005  -0.024137
   99        6.970859  -0.009478
  100        7.064676  -0.001677
  101        7.177845  -0.000104
  102        7.256676  -0.000010
  103        7.347070  -0.000000
  104        7.473145  -0.000000
  105        7.546133  -0.000000
  106        7.630646  -0.000000
  107        7.675580  -0.000000
  108        7.736008  -0.000000
  109        7.842747  -0.000000
  110        7.973710  -0.000000
  111        8.015393  -0.000000
  112        8.181710  -0.000000
  113        8.262351  -0.000000
  114        8.337552  -0.000000
  115        8.479065  -0.000000
  116        8.543194  -0.000000
  117        8.575087  -0.000000
  118        8.613279  -0.000000
  119        8.651070  -0.000000
  120        8.726131  -0.000000
 
  0.1428571E+00  0.1428571E+00 -0.1387779E-16  0.5830904E-02
    1      -47.460953   1.000000
    2      -47.427536   1.000000
    3      -47.353468   1.000000
    4      -47.319244   1.000000
    5      -47.241366   1.000000
    6      -47.239440   1.000000
    7      -24.117663   1.000000
    8      -24.055728   1.000000
    9      -23.862762   1.000000
   10      -23.809833   1.000000
   11      -23.626260   1.000000
   12      -23.619878   1.000000
   13      -23.584608   1.000000
   14      -23.536880   1.000000
   15      -23.529255   1.000000
   16      -23.496821   1.000000
   17      -23.439110   1.000000
   18      -23.420311   1.000000
   19      -23.404931   1.000000
   20      -23.398431   1.000000
   21      -23.314211   1.000000
   22      -23.148530   1.000000
   23      -23.054851   1.000000
   24      -22.954972   1.000000
   25       -0.026731   1.000000
   26        1.273026   1.000000
   27        1.617293   1.000000
   28        2.261555   1.000000
   29        2.480381   1.000000
   30        2.561078   1.000000
   31        2.629140   1.000000
   32        2.728793   1.000000
   33        2.762670   1.000000
   34        2.874782   1.000000
   35        2.951729   1.000000
   36        3.001728   1.000000
   37        3.095052   1.000000
   38        3.170894   1.000000
   39        3.228690   1.000000
   40        3.281776   1.000000
   41        3.426554   1.000000
   42        3.471115   1.000000
   43        3.506020   1.000000
   44        3.535867   1.000000
   45        3.624909   1.000000
   46        3.686035   1.000000
   47        3.770113   1.000000
   48        3.849858   1.000000
   49        3.914531   1.000000
   50        3.982279   1.000000
   51        4.040634   1.000000
   52        4.096071   1.000000
   53        4.168739   1.000000
   54        4.242152   1.000000
   55        4.281835   1.000000
   56        4.353423   1.000000
   57        4.521979   1.000000
   58        4.616975   1.000000
   59        4.651151   1.000000
   60        4.739733   1.000000
   61        4.771733   1.000000
   62        4.843728   1.000000
   63        4.903615   1.000000
   64        4.972624   1.000000
   65        5.005333   1.000000
   66        5.035255   1.000000
   67        5.085340   1.000000
   68        5.178747   1.000000
   69        5.219792   1.000000
   70        5.265457   1.000000
   71        5.320269   1.000000
   72        5.366360   1.000000
   73        5.393502   1.000000
   74        5.424252   1.000000
   75        5.478858   1.000000
   76        5.553529   1.000000
   77        5.597122   1.000000
   78        5.625277   1.000000
   79        5.670324   1.000000
   80        5.756760   1.000000
   81        5.849029   1.000001
   82        5.888900   1.000006
   83        5.929883   1.000020
   84        5.962185   1.000054
   85        6.018507   1.000252
   86        6.135988   1.003573
   87        6.158130   1.005370
   88        6.249630   1.020320
   89        6.297634   1.031018
   90        6.358082   1.033427
   91        6.407331   1.006150
   92        6.440348   0.962099
   93        6.568414   0.555803
   94        6.583559   0.491856
   95        6.634045   0.286450
   96        6.678720   0.138010
   97        6.790931  -0.029303
   98        6.854045  -0.033065
   99        6.907874  -0.021630
  100        6.942055  -0.014351
  101        6.963373  -0.010617
  102        7.052268  -0.002176
  103        7.164730  -0.000149
  104        7.261487  -0.000008
  105        7.407173  -0.000000
  106        7.474437  -0.000000
  107        7.530490  -0.000000
  108        7.664605  -0.000000
  109        7.729936  -0.000000
  110        7.778478  -0.000000
  111        7.880991  -0.000000
  112        8.016261  -0.000000
  113        8.263224  -0.000000
  114        8.371264  -0.000000
  115        8.470795  -0.000000
  116        8.532337  -0.000000
  117        8.571163  -0.000000
  118        8.652999  -0.000000
  119        8.714077  -0.000000
  120        8.751153  -0.000000
 
  0.2857143E+00  0.1428571E+00  0.2775558E-16  0.5830904E-02
    1      -47.454063   1.000000
    2      -47.421768   1.000000
    3      -47.352520   1.000000
    4      -47.318845   1.000000
    5      -47.253382   1.000000
    6      -47.240768   1.000000
    7      -24.078752   1.000000
    8      -23.952725   1.000000
    9      -23.854993   1.000000
   10      -23.795518   1.000000
   11      -23.629896   1.000000
   12      -23.606134   1.000000
   13      -23.587399   1.000000
   14      -23.538965   1.000000
   15      -23.532705   1.000000
   16      -23.502406   1.000000
   17      -23.453719   1.000000
   18      -23.422943   1.000000
   19      -23.409830   1.000000
   20      -23.399945   1.000000
   21      -23.318657   1.000000
   22      -23.154282   1.000000
   23      -23.130008   1.000000
   24      -23.052351   1.000000
   25        0.368902   1.000000
   26        1.595509   1.000000
   27        1.933398   1.000000
   28        2.491492   1.000000
   29        2.599652   1.000000
   30        2.716655   1.000000
   31        2.849325   1.000000
   32        2.914010   1.000000
   33        2.966538   1.000000
   34        3.044466   1.000000
   35        3.149531   1.000000
   36        3.252491   1.000000
   37        3.270916   1.000000
   38        3.339220   1.000000
   39        3.438676   1.000000
   40        3.499202   1.000000
   41        3.560457   1.000000
   42        3.606906   1.000000
   43        3.627866   1.000000
   44        3.698469   1.000000
   45        3.771212   1.000000
   46        3.801608   1.000000
   47        3.889069   1.000000
   48        3.928769   1.000000
   49        4.064555   1.000000
   50        4.100220   1.000000
   51        4.132338   1.000000
   52        4.166285   1.000000
   53        4.245069   1.000000
   54        4.315821   1.000000
   55        4.379370   1.000000
   56        4.437303   1.000000
   57        4.588243   1.000000
   58        4.712278   1.000000
   59        4.726115   1.000000
   60        4.820216   1.000000
   61        4.860735   1.000000
   62        4.893365   1.000000
   63        4.938867   1.000000
   64        5.005797   1.000000
   65        5.051959   1.000000
   66        5.100216   1.000000
   67        5.146073   1.000000
   68        5.186797   1.000000
   69        5.217902   1.000000
   70        5.311996   1.000000
   71        5.349049   1.000000
   72        5.382346   1.000000
   73        5.394702   1.000000
   74        5.463486   1.000000
   75        5.512900   1.000000
   76        5.541710   1.000000
   77        5.600077   1.000000
   78        5.644470   1.000000
   79        5.659991   1.000000
   80        5.762102   1.000000
   81        5.827581   1.000001
   82        5.853744   1.000002
   83        5.931265   1.000021
   84        5.980714   1.000091
   85        6.006258   1.000183
   86        6.071087   1.000912
   87        6.142827   1.004065
   88        6.176542   1.007357
   89        6.247422   1.019825
   90        6.277552   1.026733
   91        6.329449   1.035266
   92        6.379131   1.026378
   93        6.405288   1.008104
   94        6.452407   0.939643
   95        6.494570   0.832534
   96        6.514613   0.766709
   97        6.604137   0.405446
   98        6.618939   0.345154
   99        6.663190   0.184666
  100        6.726276   0.032284
  101        6.768442  -0.016859
  102        6.839109  -0.034903
  103        6.929445  -0.016879
  104        6.962179  -0.010807
  105        7.051119  -0.002228
  106        7.110424  -0.000594
  107        7.258299  -0.000009
  108        7.345523  -0.000000
  109        7.479160  -0.000000
  110        7.550605  -0.000000
  111        7.576712  -0.000000
  112        7.812656  -0.000000
  113        8.017380  -0.000000
  114        8.045979  -0.000000
  115        8.196531  -0.000000
  116        8.230107  -0.000000
  117        8.311187  -0.000000
  118        8.380890  -0.000000
  119        8.439227  -0.000000
  120        8.506649  -0.000000
 
  0.4285714E+00  0.1428571E+00 -0.2081668E-16  0.5830904E-02
    1      -47.449679   1.000000
    2      -47.414617   1.000000
    3      -47.351283   1.000000
    4      -47.318417   1.000000
    5      -47.265745   1.000000
    6      -47.241074   1.000000
    7      -24.075003   1.000000
    8      -23.870608   1.000000
    9      -23.825135   1.000000
   10      -23.680319   1.000000
   11      -23.631592   1.000000
   12      -23.593298   1.000000
   13      -23.589357   1.000000
   14      -23.544727   1.000000
   15      -23.532595   1.000000
   16      -23.506933   1.000000
   17      -23.468715   1.000000
   18      -23.425385   1.000000
   19      -23.412962   1.000000
   20      -23.406611   1.000000
   21      -23.381687   1.000000
   22      -23.298915   1.000000
   23      -23.160921   1.000000
   24      -23.054469   1.000000
   25        1.000225   1.000000
   26        1.889994   1.000000
   27        2.239562   1.000000
   28        2.407720   1.000000
   29        2.600109   1.000000
   30        2.680247   1.000000
   31        2.989027   1.000000
   32        3.134239   1.000000
   33        3.223834   1.000000
   34        3.282077   1.000000
   35        3.307745   1.000000
   36        3.401096   1.000000
   37        3.441986   1.000000
   38        3.543363   1.000000
   39        3.597619   1.000000
   40        3.638636   1.000000
   41        3.670722   1.000000
   42        3.738969   1.000000
   43        3.811032   1.000000
   44        3.845562   1.000000
   45        3.887985   1.000000
   46        3.962361   1.000000
   47        4.018491   1.000000