       N       E                     dE             d eps       ncg     rms          rms(c)
DAV:   1    -0.457300195745E+04   -0.45730E+04   -0.17041E+05 61896   0.199E+03
DAV:   2    -0.989757190188E+04   -0.53246E+04   -0.50050E+04 66144   0.117E+03
DAV:   3    -0.107999820530E+05   -0.90241E+03   -0.87547E+03 82560   0.522E+02
DAV:   4    -0.110490404723E+05   -0.24906E+03   -0.22870E+03 82560   0.215E+02
DAV:   5    -0.112132263561E+05   -0.16419E+03   -0.14613E+03 82560   0.164E+02    0.574E+03
DAV:   6    -0.100187260487E+04    0.10211E+05   -0.23870E+04 62820   0.612E+02    0.265E+03
DAV:   7    -0.661440447262E+03    0.34043E+03   -0.16053E+04 69504   0.604E+02    0.203E+03
DAV:   8    -0.600724846011E+03    0.60716E+02   -0.52973E+03 72012   0.341E+02    0.181E+03
DAV:   9    -0.521349975519E+03    0.79375E+02   -0.81912E+02 70716   0.966E+01    0.172E+03
DAV:  10    -0.549338987293E+03   -0.27989E+02   -0.16657E+02 82368   0.378E+01    0.174E+03
DAV:  11    -0.600437223202E+03   -0.51098E+02   -0.24898E+02 74196   0.648E+01    0.168E+03
DAV:  12    -0.817688913129E+03   -0.21725E+03   -0.12949E+03 76212   0.114E+02    0.123E+03
DAV:  13    -0.988226382408E+03   -0.17054E+03   -0.24939E+03 77952   0.313E+02    0.828E+02
DAV:  14    -0.257399040923E+04   -0.15858E+04   -0.11011E+04 73800   0.307E+02    0.863E+03
DAV:  15    -0.128198517414E+04    0.12920E+04   -0.82400E+03 69288   0.349E+02    0.886E+02
DAV:  16    -0.112920992474E+04    0.15278E+03   -0.34428E+03 61560   0.271E+02    0.323E+02
DAV:  17    -0.854437817995E+03    0.27477E+03   -0.13566E+03 73248   0.182E+02    0.222E+02
DAV:  18    -0.681888114472E+03    0.17255E+03   -0.74689E+02 77544   0.961E+01    0.197E+02
DAV:  19    -0.570296151933E+03    0.11159E+03   -0.41355E+02 74028   0.110E+02    0.172E+02
DAV:  20    -0.465088842941E+03    0.10521E+03   -0.25629E+02 72288   0.860E+01    0.150E+02
DAV:  21    -0.380300318984E+03    0.84789E+02   -0.20232E+02 79020   0.602E+01    0.138E+02
DAV:  22    -0.346758217043E+03    0.33542E+02   -0.11991E+02 75240   0.407E+01    0.131E+02
DAV:  23    -0.327473235890E+03    0.19285E+02   -0.20578E+02 77532   0.372E+01    0.108E+02
DAV:  24    -0.314666087988E+03    0.12807E+02   -0.98820E+01 72552   0.453E+01    0.739E+01
DAV:  25    -0.311822640599E+03    0.28434E+01   -0.24657E+01 76224   0.150E+01    0.686E+01
DAV:  26    -0.348906431447E+03   -0.37084E+02   -0.26212E+02 66084   0.920E+01    0.820E+01
DAV:  27    -0.345401251972E+03    0.35052E+01   -0.45162E+01 75324   0.233E+01    0.748E+01
DAV:  28    -0.330084849807E+03    0.15316E+02   -0.12166E+01 73140   0.125E+01    0.608E+01
DAV:  29    -0.308114409483E+03    0.21970E+02   -0.53944E+01 71484   0.234E+01    0.337E+01
DAV:  30    -0.307723893192E+03    0.39052E+00   -0.27433E+01 75480   0.174E+01    0.314E+01
DAV:  31    -0.306658130788E+03    0.10658E+01   -0.91399E+00 69684   0.143E+01    0.302E+01
DAV:  32    -0.306380645239E+03    0.27749E+00   -0.35819E+00 73344   0.656E+00    0.216E+01
DAV:  33    -0.306167643402E+03    0.21300E+00   -0.16662E+00 72888   0.432E+00    0.201E+01
DAV:  34    -0.306268374730E+03   -0.10073E+00   -0.11499E+00 69156   0.443E+00    0.191E+01
DAV:  35    -0.306247609770E+03    0.20765E-01   -0.68354E-01 72084   0.299E+00    0.190E+01
DAV:  36    -0.306265256072E+03   -0.17646E-01   -0.16121E+00 65220   0.533E+00    0.184E+01
DAV:  37    -0.306315449264E+03   -0.50193E-01   -0.76903E-01 73644   0.352E+00    0.178E+01
DAV:  38    -0.306214876751E+03    0.10057E+00   -0.16911E-01 73572   0.143E+00    0.179E+01
DAV:  39    -0.306122909250E+03    0.91968E-01   -0.19746E-01 66456   0.158E+00    0.177E+01
DAV:  40    -0.306140434895E+03   -0.17526E-01   -0.85584E-02 72720   0.105E+00    0.173E+01
DAV:  41    -0.306143397098E+03   -0.29622E-02   -0.74988E-02 75984   0.851E-01    0.168E+01
DAV:  42    -0.306082658858E+03    0.60738E-01   -0.90152E-02 67584   0.117E+00    0.163E+01
DAV:  43    -0.306044225675E+03    0.38433E-01   -0.95375E-02 69540   0.115E+00    0.162E+01
DAV:  44    -0.306047348483E+03   -0.31228E-02   -0.23795E-02 66192   0.563E-01    0.158E+01
DAV:  45    -0.306037738821E+03    0.96097E-02   -0.90610E-03 69276   0.383E-01    0.155E+01
DAV:  46    -0.306029079658E+03    0.86592E-02   -0.78931E-03 60060   0.410E-01    0.152E+01
DAV:  47    -0.306026723212E+03    0.23564E-02   -0.18312E-03 60972   0.179E-01    0.151E+01
DAV:  48    -0.306025140025E+03    0.15832E-02   -0.16454E-03 65808   0.138E-01    0.148E+01
DAV:  49    -0.306020336723E+03    0.48033E-02   -0.14198E-02 60708   0.565E-01    0.139E+01
DAV:  50    -0.306019104588E+03    0.12321E-02   -0.27547E-03 71508   0.181E-01    0.136E+01
DAV:  51    -0.306018458629E+03    0.64596E-03   -0.83640E-03 66996   0.393E-01    0.133E+01
DAV:  52    -0.306017752969E+03    0.70566E-03   -0.28529E-03 72060   0.177E-01    0.130E+01
DAV:  53    -0.306017052841E+03    0.70013E-03   -0.23380E-03 67584   0.191E-01    0.126E+01
DAV:  54    -0.306016778247E+03    0.27459E-03   -0.80837E-04 50484   0.121E-01    0.124E+01
DAV:  55    -0.306016765259E+03    0.12988E-04   -0.16337E-03 62496   0.158E-01    0.121E+01
DAV:  56    -0.308714762049E+03   -0.26980E+01   -0.12473E+01 61524   0.162E+01    0.854E+01
DAV:  57    -0.307011764448E+03    0.17030E+01   -0.26997E+00 61320   0.649E+00    0.681E+01
DAV:  58    -0.306513078625E+03    0.49869E+00   -0.24986E+00 64992   0.542E+00    0.732E+01
DAV:  59    -0.306368150607E+03    0.14493E+00   -0.47212E-01 72960   0.195E+00    0.730E+01
DAV:  60    -0.306315960334E+03    0.52190E-01   -0.28545E-01 74052   0.183E+00
   1 F= -.30631596E+03 E0= -.30630714E+03  d E =-.306316E+03
       N       E                     dE             d eps       ncg     rms          rms(c)
DAV:   1    -0.308593263869E+03   -0.22251E+01   -0.16728E+02 55608   0.563E+01    0.214E+01
DAV:   2    -0.310764048153E+03   -0.21708E+01   -0.57704E+01 74088   0.330E+01    0.220E+01
DAV:   3    -0.309487238496E+03    0.12768E+01   -0.81577E+01 74388   0.329E+01    0.208E+01
DAV:   4    -0.309103377615E+03    0.38386E+00   -0.50078E+01 68784   0.368E+01    0.151E+01
DAV:   5    -0.307035901668E+03    0.20675E+01   -0.17967E+01 72360   0.165E+01    0.944E+00
DAV:   6    -0.306377678876E+03    0.65822E+00   -0.11537E+01 73740   0.136E+01    0.880E+00
DAV:   7    -0.306102744144E+03    0.27493E+00   -0.86100E+00 70044   0.126E+01    0.654E+00
DAV:   8    -0.305870896661E+03    0.23185E+00   -0.39388E+00 70668   0.798E+00    0.399E+00
DAV:   9    -0.305782383764E+03    0.88513E-01   -0.12729E+00 69000   0.476E+00    0.294E+00
DAV:  10    -0.305743847984E+03    0.38536E-01   -0.91717E-01 66624   0.396E+00    0.239E+00
DAV:  11    -0.305726820422E+03    0.17028E-01   -0.57396E-01 69288   0.285E+00    0.146E+00
DAV:  12    -0.305730788444E+03   -0.39680E-02   -0.37324E-01 67728   0.230E+00    0.155E+00
DAV:  13    -0.305711772403E+03    0.19016E-01   -0.20402E-01 70548   0.197E+00    0.874E-01
DAV:  14    -0.305706032286E+03    0.57401E-02   -0.73241E-02 73428   0.101E+00    0.516E-01
DAV:  15    -0.305705681494E+03    0.35079E-03   -0.31672E-02 72516   0.587E-01    0.424E-01
DAV:  16    -0.305705237494E+03    0.44400E-03   -0.20225E-02 64428   0.625E-01    0.370E-01
DAV:  17    -0.305704018382E+03    0.12191E-02   -0.78201E-03 65460   0.381E-01    0.119E-01
DAV:  18    -0.305703941628E+03    0.76754E-04   -0.22385E-03 65988   0.164E-01    0.918E-02
DAV:  19    -0.305703869084E+03    0.72544E-04   -0.15003E-03 60564   0.124E-01    0.520E-02
DAV:  20    -0.305703825005E+03    0.44079E-04   -0.26912E-04 32988   0.752E-02
   2 F= -.30570383E+03 E0= -.30569412E+03  d E =0.612135E+00
       N       E                     dE             d eps       ncg     rms          rms(c)
DAV:   1    -0.306509823782E+03   -0.80595E+00   -0.35460E+01 55128   0.257E+01    0.643E+00
DAV:   2    -0.307215216732E+03   -0.70539E+00   -0.11773E+01 73356   0.155E+01    0.960E+00
DAV:   3    -0.306682342098E+03    0.53287E+00   -0.11952E+01 70200   0.161E+01    0.718E+00
DAV:   4    -0.306312167070E+03    0.37018E+00   -0.39411E+00 68940   0.861E+00    0.438E+00
DAV:   5    -0.306236321391E+03    0.75846E-01   -0.26529E+00 71172   0.623E+00    0.414E+00
DAV:   6    -0.306106208833E+03    0.13011E+00   -0.14559E+00 73428   0.538E+00    0.202E+00
DAV:   7    -0.306074121952E+03    0.32087E-01   -0.53935E-01 74352   0.273E+00    0.157E+00
DAV:   8    -0.306059738340E+03    0.14384E-01   -0.27230E-01 75168   0.207E+00    0.115E+00
DAV:   9    -0.306058118322E+03    0.16200E-02   -0.12769E-01 70860   0.157E+00    0.910E-01
DAV:  10    -0.306052228930E+03    0.58894E-02   -0.39625E-02 69576   0.828E-01    0.476E-01
DAV:  11    -0.306053355499E+03   -0.11266E-02   -0.13938E-02 70560   0.475E-01    0.454E-01
DAV:  12    -0.306055085918E+03   -0.17304E-02   -0.16188E-02 70716   0.535E-01    0.366E-01
DAV:  13    -0.306055725611E+03   -0.63969E-03   -0.14118E-02 70596   0.435E-01    0.237E-01
DAV:  14    -0.306055374563E+03    0.35105E-03   -0.94095E-03 74220   0.335E-01    0.132E-01
DAV:  15    -0.306055281088E+03    0.93475E-04   -0.27624E-03 69972   0.187E-01    0.868E-02
DAV:  16    -0.306055240311E+03    0.40777E-04   -0.11306E-03 56352   0.139E-01    0.694E-02
DAV:  17    -0.306055226791E+03    0.13520E-04   -0.45625E-04 40596   0.119E-01
   3 F= -.30605523E+03 E0= -.30604633E+03  d E =0.260734E+00
       N       E                     dE             d eps       ncg     rms          rms(c)
DAV:   1    -0.306122403780E+03   -0.67163E-01   -0.25879E+00 55788   0.698E+00    0.172E+00
DAV:   2    -0.306175422515E+03   -0.53019E-01   -0.84866E-01 73548   0.419E+00    0.263E+00
DAV:   3    -0.306133686236E+03    0.41736E-01   -0.85090E-01 71556   0.403E+00    0.196E+00
DAV:   4    -0.306109152682E+03    0.24534E-01   -0.29705E-01 71136   0.235E+00    0.119E+00
DAV:   5    -0.306105038651E+03    0.41140E-02   -0.19878E-01 70896   0.179E+00    0.116E+00
DAV:   6    -0.306093250223E+03    0.11788E-01   -0.10100E-01 73200   0.140E+00    0.471E-01
DAV:   7    -0.306091723198E+03    0.15270E-02   -0.34965E-02 74736   0.703E-01    0.427E-01
DAV:   8    -0.306090675080E+03    0.10481E-02   -0.19933E-02 69444   0.565E-01    0.304E-01
DAV:   9    -0.306090535308E+03    0.13977E-03   -0.83008E-03 61188   0.409E-01    0.239E-01
DAV:  10    -0.306090159941E+03    0.37537E-03   -0.25991E-03 62472   0.218E-01    0.130E-01
DAV:  11    -0.306090249822E+03   -0.89881E-04   -0.75865E-04 47688   0.122E-01
   4 F= -.30609025E+03 E0= -.30608163E+03  d E =0.225711E+00
       N       E                     dE             d eps       ncg     rms          rms(c)
DAV:   1    -0.306365753366E+03   -0.27559E+00   -0.53763E+01 41280   0.235E+01    0.308E+00
DAV:   2    -0.307461765320E+03   -0.10960E+01   -0.89382E+00 70764   0.167E+01    0.865E+00
DAV:   3    -0.306575907008E+03    0.88586E+00   -0.54749E+00 71124   0.103E+01    0.295E+00
DAV:   4    -0.306530752739E+03    0.45154E-01   -0.11086E+00 70524   0.429E+00    0.254E+00
DAV:   5    -0.306505799542E+03    0.24953E-01   -0.65845E-01 67116   0.347E+00    0.182E+00
DAV:   6    -0.306483409458E+03    0.22390E-01   -0.27290E-01 67716   0.226E+00    0.117E+00
DAV:   7    -0.306470507398E+03    0.12902E-01   -0.15583E-01 75372   0.171E+00    0.803E-01
DAV:   8    -0.306478479909E+03   -0.79725E-02   -0.13816E-01 74508   0.166E+00    0.113E+00
DAV:   9    -0.306465758151E+03    0.12722E-01   -0.82350E-02 71472   0.123E+00    0.379E-01
DAV:  10    -0.306464297685E+03    0.14605E-02   -0.13521E-02 69420   0.472E-01    0.242E-01
DAV:  11    -0.306464111971E+03    0.18571E-03   -0.62026E-03 62148   0.311E-01    0.193E-01
DAV:  12    -0.306464129204E+03   -0.17233E-04   -0.37847E-03 62760   0.246E-01    0.155E-01
DAV:  13    -0.306463991924E+03    0.13728E-03   -0.25512E-03 62640   0.193E-01    0.837E-02
DAV:  14    -0.306464084331E+03   -0.92407E-04   -0.15815E-03 56472   0.186E-01    0.124E-01
DAV:  15    -0.306463958224E+03    0.12611E-03   -0.11807E-03 52248   0.173E-01    0.502E-02
DAV:  16    -0.306463918584E+03    0.39639E-04   -0.13761E-04 26832   0.792E-02
   5 F= -.30646392E+03 E0= -.30645469E+03  d E =-.373669E+00
       N       E                     dE             d eps       ncg     rms          rms(c)
DAV:   1    -0.306500392167E+03   -0.36434E-01   -0.53078E+01 41280   0.233E+01    0.310E+00
DAV:   2    -0.307552573142E+03   -0.10522E+01   -0.88418E+00 70368   0.168E+01    0.837E+00
DAV:   3    -0.306702452579E+03    0.85012E+00   -0.51822E+00 71004   0.101E+01    0.279E+00
DAV:   4    -0.306671980586E+03    0.30472E-01   -0.10567E+00 68580   0.422E+00    0.260E+00
DAV:   5    -0.306639514044E+03    0.32467E-01   -0.62921E-01 66984   0.344E+00    0.170E+00
DAV:   6    -0.306620618840E+03    0.18895E-01   -0.25406E-01 68124   0.214E+00    0.113E+00
DAV:   7    -0.306608882353E+03    0.11736E-01   -0.15491E-01 75600   0.168E+00    0.774E-01
DAV:   8    -0.306616300447E+03   -0.74181E-02   -0.13030E-01 75288   0.161E+00    0.109E+00
DAV:   9    -0.306603767172E+03    0.12533E-01   -0.77695E-02 71244   0.122E+00    0.355E-01
DAV:  10    -0.306602591186E+03    0.11760E-02   -0.11785E-02 67284   0.432E-01    0.223E-01
DAV:  11    -0.306602519834E+03    0.71352E-04   -0.58649E-03 62244   0.302E-01    0.191E-01
DAV:  12    -0.306602513920E+03    0.59148E-05   -0.38178E-03 60324   0.264E-01    0.155E-01
DAV:  13    -0.306602341419E+03    0.17250E-03   -0.23952E-03 61980   0.194E-01    0.759E-02
DAV:  14    -0.306602446769E+03   -0.10535E-03   -0.14496E-03 55392   0.184E-01    0.121E-01
DAV:  15    -0.306602308015E+03    0.13875E-03   -0.94741E-04 50088   0.161E-01    0.352E-02
DAV:  16    -0.306602290617E+03    0.17397E-04   -0.11799E-04 26832   0.696E-02
   6 F= -.30660229E+03 E0= -.30659369E+03  d E =-.512041E+00
       N       E                     dE             d eps       ncg     rms          rms(c)
DAV:   1    -0.307108503808E+03   -0.50620E+00   -0.19777E+01 57540   0.212E+01    0.567E+00
DAV:   2    -0.307242856391E+03   -0.13435E+00   -0.60086E+00 77808   0.106E+01    0.569E+00
DAV:   3    -0.307122381690E+03    0.12047E+00   -0.64174E+00 69876   0.104E+01    0.562E+00
DAV:   4    -0.306882746401E+03    0.23964E+00   -0.26444E+00 69168   0.743E+00    0.350E+00
DAV:   5    -0.306817771277E+03    0.64975E-01   -0.16698E+00 72216   0.520E+00    0.301E+00
DAV:   6    -0.306761914911E+03    0.55856E-01   -0.95842E-01 69696   0.443E+00    0.185E+00
DAV:   7    -0.306727936452E+03    0.33978E-01   -0.33962E-01 75060   0.234E+00    0.936E-01
DAV:   8    -0.306723948012E+03    0.39884E-02   -0.13344E-01 76824   0.131E+00    0.685E-01
DAV:   9    -0.306721998401E+03    0.19496E-02   -0.34727E-02 68688   0.817E-01    0.481E-01
DAV:  10    -0.306721516142E+03    0.48226E-03   -0.78849E-03 67548   0.399E-01    0.364E-01
DAV:  11    -0.306722866140E+03   -0.13500E-02   -0.57902E-03 69264   0.284E-01    0.302E-01
DAV:  12    -0.306725077993E+03   -0.22119E-02   -0.11588E-02 71112   0.455E-01    0.334E-01
DAV:  13    -0.306724681590E+03    0.39640E-03   -0.11281E-02 66240   0.480E-01    0.180E-01
DAV:  14    -0.306724490568E+03    0.19102E-03   -0.43932E-03 69192   0.288E-01    0.108E-01
DAV:  15    -0.306724377382E+03    0.11319E-03   -0.12802E-03 58908   0.148E-01    0.466E-02
DAV:  16    -0.306724351676E+03    0.25707E-04   -0.19756E-04 29904   0.925E-02
   7 F= -.30672435E+03 E0= -.30671610E+03  d E =-.122061E+00
       N       E                     dE             d eps       ncg     rms          rms(c)
DAV:   1    -0.306724491380E+03   -0.11400E-03   -0.37162E-03 59856   0.289E-01    0.794E-02
DAV:   2    -0.306724561786E+03   -0.70405E-04   -0.15631E-03 66444   0.172E-01    0.105E-01
DAV:   3    -0.306724481045E+03    0.80741E-04   -0.14323E-03 55872   0.165E-01    0.752E-02
DAV:   4    -0.306724438217E+03    0.42828E-04   -0.44510E-04 39660   0.114E-01
   8 F= -.30672444E+03 E0= -.30671618E+03  d E =-.122148E+00
       N       E                     dE             d eps       ncg     rms          rms(c)
DAV:   1    -0.306776740939E+03   -0.52260E-01   -0.54689E+00 41760   0.691E+00    0.894E-01
DAV:   2    -0.306873154418E+03   -0.96413E-01   -0.70524E-01 68100   0.466E+00    0.274E+00
DAV:   3    -0.306793409178E+03    0.79745E-01   -0.47133E-01 66912   0.331E+00    0.709E-01
DAV:   4    -0.306794727905E+03   -0.13187E-02   -0.79514E-02 66792   0.123E+00    0.813E-01
DAV:   5    -0.306789972810E+03    0.47551E-02   -0.50976E-02 62868   0.101E+00    0.404E-01
DAV:   6    -0.306788257033E+03    0.17158E-02   -0.13482E-02 67320   0.478E-01    0.230E-01
DAV:   7    -0.306788508446E+03   -0.25141E-03   -0.11465E-02 72492   0.367E-01    0.261E-01
DAV:   8    -0.306788220617E+03    0.28783E-03   -0.80227E-03 60468   0.382E-01    0.216E-01
DAV:   9    -0.306787760997E+03    0.45962E-03   -0.35788E-03 60624   0.274E-01    0.917E-02
DAV:  10    -0.306787691277E+03    0.69720E-04   -0.91254E-04 51324   0.133E-01
   9 F= -.30678769E+03 E0= -.30677946E+03  d E =-.632531E-01
       N       E                     dE             d eps       ncg     rms          rms(c)
DAV:   1    -0.306798182746E+03   -0.10422E-01   -0.16279E+01 41700   0.119E+01    0.153E+00
DAV:   2    -0.307078311064E+03   -0.28013E+00   -0.20738E+00 68100   0.804E+00    0.461E+00
DAV:   3    -0.306850363680E+03    0.22795E+00   -0.13567E+00 67116   0.562E+00    0.127E+00
DAV:   4    -0.306852452165E+03   -0.20885E-02   -0.24450E-01 68988   0.216E+00    0.137E+00
DAV:   5    -0.306838548259E+03    0.13904E-01   -0.14698E-01 65844   0.172E+00    0.677E-01
DAV:   6    -0.306833841774E+03    0.47065E-02   -0.39577E-02 70812   0.829E-01    0.409E-01
DAV:   7    -0.306834807383E+03   -0.96561E-03   -0.36888E-02 74304   0.725E-01    0.499E-01
DAV:   8    -0.306833641899E+03    0.11655E-02   -0.26564E-02 66288   0.703E-01    0.348E-01
DAV:   9    -0.306832218830E+03    0.14231E-02   -0.94006E-03 63468   0.405E-01    0.135E-01
DAV:  10    -0.306832061616E+03    0.15721E-03   -0.24779E-03 61980   0.187E-01    0.938E-02
DAV:  11    -0.306832030679E+03    0.30937E-04   -0.13623E-03 56664   0.142E-01    0.743E-02
DAV:  12    -0.306831999673E+03    0.31006E-04   -0.43090E-04 41352   0.120E-01
  10 F= -.30683200E+03 E0= -.30682413E+03  d E =-.107561E+00
       N       E                     dE             d eps       ncg     rms          rms(c)
DAV:   1    -0.306853183057E+03   -0.21152E-01   -0.24918E+00 41280   0.506E+00    0.670E-01
DAV:   2    -0.306879691012E+03   -0.26508E-01   -0.28171E-01 70656   0.251E+00    0.125E+00
DAV:   3    -0.306862499943E+03    0.17191E-01   -0.15386E-01 70440   0.180E+00    0.525E-01
DAV:   4    -0.306861136679E+03    0.13633E-02   -0.30862E-02 68112   0.753E-01    0.390E-01
DAV:   5    -0.306860191446E+03    0.94523E-03   -0.21360E-02 65832   0.613E-01    0.338E-01
DAV:   6    -0.306859573949E+03    0.61750E-03   -0.13213E-02 67656   0.520E-01    0.242E-01
DAV:   7    -0.306859182409E+03    0.39154E-03   -0.56818E-03 64536   0.305E-01    0.155E-01
DAV:   8    -0.306859098099E+03    0.84311E-04   -0.37927E-03 67872   0.262E-01    0.153E-01
DAV:   9    -0.306858937806E+03    0.16029E-03   -0.18821E-03 57120   0.203E-01    0.874E-02
DAV:  10    -0.306858859775E+03    0.78032E-04   -0.36663E-04 36744   0.101E-01
  11 F= -.30685886E+03 E0= -.30685116E+03  d E =-.268601E-01
       N       E                     dE             d eps       ncg     rms          rms(c)
DAV:   1    -0.306858757538E+03    0.18027E-03   -0.10162E+01 41280   0.103E+01    0.135E+00
DAV:   2    -0.306971461641E+03   -0.11270E+00   -0.11764E+00 70932   0.520E+00    0.256E+00
DAV:   3    -0.306895222804E+03    0.76239E-01   -0.63681E-01 70788   0.360E+00    0.100E+00
DAV:   4    -0.306890741137E+03    0.44817E-02   -0.11989E-01 72540   0.148E+00    0.767E-01
DAV:   5    -0.306887072820E+03    0.36683E-02   -0.84446E-02 68952   0.122E+00    0.669E-01
DAV:   6    -0.306884651222E+03    0.24216E-02   -0.52091E-02 70656   0.103E+00    0.481E-01
DAV:   7    -0.306883071739E+03    0.15795E-02   -0.22827E-02 76812   0.611E-01    0.299E-01
DAV:   8    -0.306882746433E+03    0.32531E-03   -0.13719E-02 73080   0.491E-01    0.293E-01
DAV:   9    -0.306882131320E+03    0.61511E-03   -0.68694E-03 58884   0.378E-01    0.169E-01
DAV:  10    -0.306881922873E+03    0.20845E-03   -0.19342E-03 60840   0.190E-01    0.100E-01
DAV:  11    -0.306881937731E+03   -0.14858E-04   -0.70303E-04 47376   0.126E-01
  12 F= -.30688194E+03 E0= -.30687469E+03  d E =-.499381E-01
       N       E                     dE             d eps       ncg     rms          rms(c)
DAV:   1    -0.306911602374E+03   -0.29680E-01   -0.27395E+00 41352   0.669E+00    0.165E+00
DAV:   2    -0.306922168988E+03   -0.10567E-01   -0.39824E-01 73344   0.332E+00    0.132E+00
DAV:   3    -0.306923016104E+03   -0.84712E-03   -0.35841E-01 73080   0.270E+00    0.134E+00
DAV:   4    -0.306907987250E+03    0.15029E-01   -0.21327E-01 71496   0.210E+00    0.952E-01
DAV:   5    -0.306900760128E+03    0.72271E-02   -0.11433E-01 69288   0.144E+00    0.690E-01
DAV:   6    -0.306897582491E+03    0.31776E-02   -0.51308E-02 71004   0.105E+00    0.458E-01
DAV:   7    -0.306896462115E+03    0.11204E-02   -0.27670E-02 75924   0.672E-01    0.343E-01
DAV:   8    -0.306895756044E+03    0.70607E-03   -0.10293E-02 66900   0.442E-01    0.229E-01
DAV:   9    -0.306895512212E+03    0.24383E-03   -0.42185E-03 60744   0.288E-01    0.168E-01
DAV:  10    -0.306895451402E+03    0.60810E-04   -0.18959E-03 59952   0.186E-01    0.119E-01
DAV:  11    -0.306895514862E+03   -0.63461E-04   -0.78375E-04 49884   0.113E-01
  13 F= -.30689551E+03 E0= -.30688858E+03  d E =-.135771E-01
       N       E                     dE             d eps       ncg     rms          rms(c)
DAV:   1    -0.306896639232E+03   -0.11878E-02   -0.19096E-01 42456   0.176E+00    0.443E-01
DAV:   2    -0.306898185176E+03   -0.15459E-02   -0.33036E-02 68832   0.103E+00    0.489E-01
DAV:   3    -0.306897566122E+03    0.61905E-03   -0.37325E-02 67368   0.944E-01    0.445E-01
DAV:   4    -0.306896335925E+03    0.12302E-02   -0.19551E-02 59052   0.633E-01    0.281E-01
DAV:   5    -0.306895762425E+03    0.57350E-03   -0.92414E-03 63816   0.442E-01    0.206E-01
DAV:   6    -0.306895423824E+03    0.33860E-03   -0.40668E-03 60984   0.307E-01    0.113E-01
DAV:   7    -0.306895340912E+03    0.82912E-04   -0.12886E-03 58224   0.163E-01    0.799E-02
DAV:   8    -0.306895315743E+03    0.25169E-04   -0.44675E-04 39156   0.113E-01
  14 F= -.30689532E+03 E0= -.30688847E+03  d E =-.133780E-01
       N       E                     dE             d eps       ncg     rms          rms(c)
DAV:   1    -0.306898599253E+03   -0.32583E-02   -0.10837E+00 41544   0.319E+00    0.277E-01
DAV:   2    -0.306903970306E+03   -0.53711E-02   -0.60855E-02 68316   0.129E+00    0.368E-01
DAV:   3    -0.306903572411E+03    0.39789E-03   -0.20791E-02 67800   0.705E-01    0.289E-01
DAV:   4    -0.306903064792E+03    0.50762E-03   -0.65145E-03 58536   0.388E-01    0.184E-01
DAV:   5    -0.306902776176E+03    0.28862E-03   -0.30443E-03 60396   0.259E-01    0.117E-01
DAV:   6    -0.306902708561E+03    0.67615E-04   -0.11181E-03 51672   0.169E-01    0.878E-02
DAV:   7    -0.306902683115E+03    0.25447E-04   -0.11995E-03 55512   0.147E-01    0.850E-02
DAV:   8    -0.306902632875E+03    0.50240E-04   -0.78451E-04 48828   0.145E-01
  15 F= -.30690263E+03 E0= -.30689585E+03  d E =-.731713E-02
       N       E                     dE             d eps       ncg     rms          rms(c)
DAV:   1    -0.306876754327E+03    0.25929E-01   -0.97664E+00 41976   0.956E+00    0.753E-01
DAV:   2    -0.306922662042E+03   -0.45908E-01   -0.52458E-01 68400   0.373E+00    0.105E+00
DAV:   3    -0.306918064235E+03    0.45978E-02   -0.16422E-01 68712   0.199E+00    0.761E-01
DAV:   4    -0.306914231583E+03    0.38327E-02   -0.48139E-02 67536   0.105E+00    0.493E-01
DAV:   5    -0.306912450958E+03    0.17806E-02   -0.23096E-02 64788   0.712E-01    0.341E-01
DAV:   6    -0.306911714103E+03    0.73685E-03   -0.88750E-03 65928   0.450E-01    0.243E-01
DAV:   7    -0.306911507640E+03    0.20646E-03   -0.95720E-03 71088   0.375E-01    0.241E-01
DAV:   8    -0.306911159396E+03    0.34824E-03   -0.69591E-03 62316   0.389E-01    0.191E-01
DAV:   9    -0.306910753968E+03    0.40543E-03   -0.27339E-03 61716   0.245E-01    0.618E-02
DAV:  10    -0.306910727070E+03    0.26898E-04   -0.65114E-04 47880   0.985E-02
  16 F= -.30691073E+03 E0= -.30690429E+03  d E =-.154113E-01
       N       E                     dE             d eps       ncg     rms          rms(c)
DAV:   1    -0.306940415349E+03   -0.29661E-01   -0.23469E+00 55740   0.680E+00    0.166E+00
DAV:   2    -0.306946372692E+03   -0.59573E-02   -0.43949E-01 75144   0.290E+00    0.132E+00
DAV:   3    -0.306934623669E+03    0.11749E-01   -0.39205E-01 69228   0.210E+00    0.114E+00
DAV:   4    -0.306927520209E+03    0.71035E-02   -0.19377E-01 71352   0.184E+00    0.105E+00
DAV:   5    -0.306918254140E+03    0.92661E-02   -0.12499E-01 66852   0.163E+00    0.630E-01
DAV:   6    -0.306915321767E+03    0.29324E-02   -0.54712E-02 70416   0.102E+00    0.435E-01
DAV:   7    -0.306914472961E+03    0.84881E-03   -0.28452E-02 72024   0.699E-01    0.356E-01
DAV:   8    -0.306913774542E+03    0.69842E-03   -0.11411E-02 59316   0.485E-01    0.212E-01
DAV:   9    -0.306913445529E+03    0.32901E-03   -0.26390E-03 59964   0.241E-01    0.134E-01
DAV:  10    -0.306913409312E+03    0.36217E-04   -0.43013E-04 38736   0.122E-01
  17 F= -.30691341E+03 E0= -.30690687E+03  d E =-.268224E-02
       N       E                     dE             d eps       ncg     rms          rms(c)
DAV:   1    -0.306920458946E+03   -0.70134E-02   -0.37861E-01 55548   0.273E+00    0.717E-01
DAV:   2    -0.306921844871E+03   -0.13859E-02   -0.82815E-02 75528   0.122E+00    0.568E-01
DAV:   3    -0.306919390557E+03    0.24543E-02   -0.71586E-02 69504   0.890E-01    0.499E-01
DAV:   4    -0.306918184375E+03    0.12062E-02   -0.36901E-02 67008   0.798E-01    0.461E-01
DAV:   5    -0.306916485864E+03    0.16985E-02   -0.23536E-02 65376   0.700E-01    0.282E-01
DAV:   6    -0.306915856158E+03    0.62971E-03   -0.10528E-02 69384   0.448E-01    0.181E-01
DAV:   7    -0.306915667788E+03    0.18837E-03   -0.54050E-03 64524   0.299E-01    0.142E-01
DAV:   8    -0.306915597031E+03    0.70757E-04   -0.25441E-03 58608   0.233E-01    0.105E-01
DAV:   9    -0.306915475978E+03    0.12105E-03   -0.65699E-04 43740   0.132E-01    0.477E-02
DAV:  10    -0.306915462848E+03    0.13130E-04   -0.12195E-04 26676   0.762E-02
  18 F= -.30691546E+03 E0= -.30690895E+03  d E =-.473578E-02
       N       E                     dE             d eps       ncg     rms          rms(c)
DAV:   1    -0.306917815672E+03   -0.23397E-02   -0.73611E-01 41544   0.286E+00    0.330E-01
DAV:   2    -0.306924923188E+03   -0.71075E-02   -0.77999E-02 69792   0.130E+00    0.562E-01
DAV:   3    -0.306921416273E+03    0.35069E-02   -0.36207E-02 70716   0.866E-01    0.264E-01
DAV:   4    -0.306920910409E+03    0.50586E-03   -0.71968E-03 61704   0.387E-01    0.158E-01
DAV:   5    -0.306920691245E+03    0.21916E-03   -0.37226E-03 64668   0.255E-01    0.134E-01
DAV:   6    -0.306920666436E+03    0.24809E-04   -0.27891E-03 60804   0.249E-01    0.131E-01
DAV:   7    -0.306920535746E+03    0.13069E-03   -0.14942E-03 57072   0.183E-01    0.689E-02
DAV:   8    -0.306920521752E+03    0.13994E-04   -0.77817E-04 48600   0.135E-01
  19 F= -.30692052E+03 E0= -.30691398E+03  d E =-.505890E-02
       N       E                     dE             d eps       ncg     rms          rms(c)
DAV:   1    -0.306915723757E+03    0.48120E-02   -0.21193E+00 41484   0.485E+00    0.560E-01
DAV:   2    -0.306936245341E+03   -0.20522E-01   -0.22738E-01 69696   0.222E+00    0.962E-01
DAV:   3    -0.306926160515E+03    0.10085E-01   -0.10634E-01 70548   0.149E+00    0.464E-01
DAV:   4    -0.306924543964E+03    0.16166E-02   -0.21040E-02 66048   0.660E-01    0.279E-01
DAV:   5    -0.306924144190E+03    0.39977E-03   -0.11706E-02 67308   0.459E-01    0.277E-01
DAV:   6    -0.306923703803E+03    0.44039E-03   -0.79546E-03 64956   0.413E-01    0.189E-01
DAV:   7    -0.306923520137E+03    0.18367E-03   -0.39553E-03 67476   0.278E-01    0.153E-01
DAV:   8    -0.306923414342E+03    0.10580E-03   -0.29885E-03 58584   0.256E-01    0.120E-01
DAV:   9    -0.306923291808E+03    0.12253E-03   -0.97192E-04 52248   0.153E-01    0.552E-02
DAV:  10    -0.306923269999E+03    0.21809E-04   -0.15694E-04 28956   0.719E-02
  20 F= -.30692327E+03 E0= -.30691663E+03  d E =-.780715E-02
       N       E                     dE             d eps       ncg     rms          rms(c)
DAV:   1    -0.306923129038E+03    0.16277E-03   -0.11201E+00 41280   0.338E+00    0.424E-01
DAV:   2    -0.306932695404E+03   -0.95664E-02   -0.10725E-01 69756   0.172E+00    0.717E-01
DAV:   3    -0.306927328079E+03    0.53673E-02   -0.46575E-02 70884   0.102E+00    0.288E-01
DAV:   4    -0.306926922189E+03    0.40589E-03   -0.11223E-02 63684   0.427E-01    0.250E-01
DAV:   5    -0.306926385676E+03    0.53651E-03   -0.78361E-03 67644   0.353E-01    0.177E-01
DAV:   6    -0.306926324925E+03    0.60750E-04   -0.52466E-03 60252   0.332E-01    0.182E-01
DAV:   7    -0.306926170877E+03    0.15405E-03   -0.40566E-03 65628   0.291E-01    0.138E-01
DAV:   8    -0.306926033109E+03    0.13777E-03   -0.17992E-03 58200   0.196E-01    0.859E-02
DAV:   9    -0.306925958357E+03    0.74752E-04   -0.41950E-04 37524   0.115E-01
  21 F= -.30692596E+03 E0= -.30691930E+03  d E =-.268836E-02
       N       E                     dE             d eps       ncg     rms          rms(c)
DAV:   1    -0.306925820040E+03    0.21307E-03   -0.11392E-01 41316   0.108E+00    0.127E-01
DAV:   2    -0.306926688162E+03   -0.86812E-03   -0.97229E-03 69168   0.508E-01    0.201E-01
DAV:   3    -0.306926262594E+03    0.42557E-03   -0.37227E-03 63828   0.287E-01    0.828E-02
DAV:   4    -0.306926251316E+03    0.11278E-04   -0.10620E-03 52956   0.147E-01    0.851E-02
DAV:   5    -0.306926184495E+03    0.66821E-04   -0.74962E-04 48876   0.130E-01
  22 F= -.30692618E+03 E0= -.30691950E+03  d E =-.291450E-02
       N       E                     dE             d eps       ncg     rms          rms(c)
DAV:   1    -0.306928000643E+03   -0.17493E-02   -0.87221E-01 41280   0.326E+00    0.582E-01
DAV:   2    -0.306932284133E+03   -0.42835E-02   -0.84419E-02 70152   0.136E+00    0.521E-01
DAV:   3    -0.306933526394E+03   -0.12423E-02   -0.65008E-02 69504   0.121E+00    0.666E-01
DAV:   4    -0.306930361622E+03    0.31648E-02   -0.35165E-02 61476   0.895E-01    0.360E-01
DAV:   5    -0.306929279029E+03    0.10826E-02   -0.14906E-02 66180   0.522E-01    0.275E-01
DAV:   6    -0.306928742643E+03    0.53639E-03   -0.94526E-03 64536   0.434E-01    0.167E-01
DAV:   7    -0.306928510219E+03    0.23242E-03   -0.33274E-03 61932   0.239E-01    0.936E-02
DAV:   8    -0.306928475048E+03    0.35171E-04   -0.10968E-03 56808   0.143E-01    0.781E-02
DAV:   9    -0.306928435953E+03    0.39095E-04   -0.42199E-04 39120   0.114E-01
  23 F= -.30692844E+03 E0= -.30692191E+03  d E =-.225146E-02
       N       E                     dE             d eps       ncg     rms          rms(c)
DAV:   1    -0.306928432398E+03    0.42650E-04   -0.46299E-03 47556   0.249E-01    0.500E-02
DAV:   2    -0.306928499881E+03   -0.67483E-04   -0.64809E-04 48000   0.137E-01
  24 F= -.30692850E+03 E0= -.30692200E+03  d E =-.231539E-02
       N       E                     dE             d eps       ncg     rms          rms(c)
DAV:   1    -0.306929588955E+03   -0.11566E-02   -0.57211E-01 41280   0.252E+00    0.379E-01
DAV:   2    -0.306933469346E+03   -0.38804E-02   -0.59856E-02 70836   0.112E+00    0.532E-01
DAV:   3    -0.306931830951E+03    0.16384E-02   -0.37916E-02 69516   0.897E-01    0.404E-01
DAV:   4    -0.306930885174E+03    0.94578E-03   -0.12818E-02 61272   0.536E-01    0.261E-01
DAV:   5    -0.306930322802E+03    0.56237E-03   -0.81318E-03 63192   0.383E-01    0.188E-01
DAV:   6    -0.306930003957E+03    0.31884E-03   -0.39615E-03 63804   0.293E-01    0.114E-01
DAV:   7    -0.306929890087E+03    0.11387E-03   -0.18446E-03 61656   0.186E-01    0.750E-02
DAV:   8    -0.306929861344E+03    0.28743E-04   -0.10515E-03 54036   0.147E-01    0.649E-02
DAV:   9    -0.306929817383E+03    0.43961E-04   -0.25654E-04 30744   0.117E-01
  25 F= -.30692982E+03 E0= -.30692338E+03  d E =-.131750E-02
       N       E                     dE             d eps       ncg     rms          rms(c)
DAV:   1    -0.306929775437E+03    0.85907E-04   -0.93413E-02 41292   0.102E+00    0.149E-01
DAV:   2    -0.306930349577E+03   -0.57414E-03   -0.90642E-03 69840   0.442E-01    0.196E-01
DAV:   3    -0.306930170211E+03    0.17937E-03   -0.56593E-03 63384   0.348E-01    0.161E-01
DAV:   4    -0.306930024691E+03    0.14552E-03   -0.20931E-03 56604   0.223E-01    0.105E-01
DAV:   5    -0.306929913770E+03    0.11092E-03   -0.11625E-03 52704   0.153E-01    0.657E-02
DAV:   6    -0.306929860352E+03    0.53418E-04   -0.35990E-04 35364   0.114E-01
  26 F= -.30692986E+03 E0= -.30692346E+03  d E =-.136047E-02
       N       E                     dE             d eps       ncg     rms          rms(c)
DAV:   1    -0.306928990593E+03    0.92318E-03   -0.49072E-01 41280   0.233E+00    0.233E-01
DAV:   2    -0.306932989192E+03   -0.39986E-02   -0.44328E-02 68004   0.116E+00    0.428E-01
DAV:   3    -0.306931514617E+03    0.14746E-02   -0.16325E-02 67944   0.660E-01    0.200E-01
DAV:   4    -0.306931487034E+03    0.27583E-04   -0.47691E-03 59628   0.334E-01    0.196E-01
DAV:   5    -0.306931075580E+03    0.41145E-03   -0.28368E-03 59016   0.268E-01    0.910E-02
DAV:   6    -0.306931066067E+03    0.95136E-05   -0.12830E-03 55092   0.130E-01    0.787E-02
DAV:   7    -0.306931005885E+03    0.60182E-04   -0.77325E-04 48444   0.113E-01
  27 F= -.30693101E+03 E0= -.30692466E+03  d E =-.114553E-02
       N       E                     dE             d eps       ncg     rms          rms(c)
DAV:   1    -0.306930012126E+03    0.10539E-02   -0.23560E-01 41280   0.162E+00    0.162E-01
DAV:   2    -0.306931869074E+03   -0.18569E-02   -0.20799E-02 68256   0.771E-01    0.273E-01
DAV:   3    -0.306931324800E+03    0.54427E-03   -0.74264E-03 64536   0.445E-01    0.152E-01
DAV:   4    -0.306931257438E+03    0.67362E-04   -0.22272E-03 56880   0.234E-01    0.125E-01
DAV:   5    -0.306931084328E+03    0.17311E-03   -0.11530E-03 51156   0.170E-01    0.645E-02
DAV:   6    -0.306931096236E+03   -0.11909E-04   -0.65814E-04 46068   0.109E-01
  28 F= -.30693110E+03 E0= -.30692477E+03  d E =-.123588E-02
       N       E                     dE             d eps       ncg     rms          rms(c)
DAV:   1    -0.306929834066E+03    0.12503E-02   -0.46617E-01 41280   0.248E+00    0.358E-01
DAV:   2    -0.306933121576E+03   -0.32875E-02   -0.53324E-02 68772   0.118E+00    0.368E-01
DAV:   3    -0.306933020082E+03    0.10149E-03   -0.22530E-02 68760   0.760E-01    0.328E-01
DAV:   4    -0.306932116622E+03    0.90346E-03   -0.10557E-02 62016   0.471E-01    0.217E-01
DAV:   5    -0.306931834993E+03    0.28163E-03   -0.59733E-03 63636   0.353E-01    0.179E-01
DAV:   6    -0.306931616661E+03    0.21833E-03   -0.32664E-03 62556   0.255E-01    0.102E-01
DAV:   7    -0.306931513169E+03    0.10349E-03   -0.13644E-03 58584   0.146E-01    0.605E-02
DAV:   8    -0.306931501240E+03    0.11928E-04   -0.52843E-04 43680   0.111E-01
  29 F= -.30693150E+03 E0= -.30692521E+03  d E =-.405004E-03
       N       E                     dE             d eps       ncg     rms          rms(c)
DAV:   1    -0.306931505267E+03    0.79019E-05   -0.19728E-03 60276   0.174E-01    0.441E-02
DAV:   2    -0.306931612731E+03   -0.10746E-03   -0.83764E-04 50880   0.154E-01    0.992E-02
DAV:   3    -0.306931517885E+03    0.94846E-04   -0.71127E-04 46188   0.144E-01
  30 F= -.30693152E+03 E0= -.30692524E+03  d E =-.421648E-03
