<?xml version="1.0" encoding="ISO-8859-1"?>
<modeling>
 <generator>
  <i name="program" type="string">vasp </i>
  <i name="version" type="string">5.4.4.18Apr17-6-g9f103f2a35  </i>
  <i name="subversion" type="string">(build Aug 09 2018 16:20:53) complex            parallel </i>
  <i name="platform" type="string">LinuxIFC </i>
  <i name="date" type="string">2020 04 30 </i>
  <i name="time" type="string">22:44:48 </i>
 </generator>
 <incar>
  <i type="string" name="SYSTEM"> Nb - Mo - Ta - Ti - V SQS</i>
  <i type="string" name="PREC">normal</i>
  <i type="int" name="ICHARG">     0</i>
  <i type="int" name="IBRION">     2</i>
  <i type="int" name="NSW">    50</i>
  <i type="int" name="ISIF">     3</i>
  <i name="ENCUT">    600.00000000</i>
  <i type="string" name="LREAL"> Auto</i>
  <i type="int" name="ISMEAR">     1</i>
  <i name="SIGMA">      0.20000000</i>
  <v type="int" name="KPOINT_BSE">    -1     0     0     0</v>
  <i type="string" name="GGA"> PS</i>
 </incar>
 <structure name="primitive_cell" >
  <crystal>
   <varray name="basis" >
    <v>      -3.16000000      -3.16000000      -3.16000000 </v>
    <v>       1.58000000       1.58000000      -7.90000000 </v>
    <v>       7.90000000      -7.90000000      -1.58000000 </v>
   </varray>
   <i name="volume">    473.31744000 </i>
   <varray name="rec_basis" >
    <v>      -0.13713080      -0.12658228      -0.05274262 </v>
    <v>       0.04219409       0.06329114      -0.10548523 </v>
    <v>       0.06329114      -0.06329114       0.00000000 </v>
   </varray>
  </crystal>
  <varray name="positions" >
   <v>      -0.03333333      -0.06666667       0.40000000 </v>
   <v>       0.30000000      -0.40000000       0.40000000 </v>
   <v>      -0.10000000      -0.20000000       0.20000000 </v>
   <v>       0.06666667       0.13333333       0.20000000 </v>
   <v>       0.46666667      -0.06666667       0.40000000 </v>
   <v>      -0.13333333      -0.26666667      -0.40000000 </v>
   <v>       0.03333333       0.06666667      -0.40000000 </v>
   <v>      -0.36666667       0.26666667       0.40000000 </v>
   <v>       0.40000000      -0.20000000       0.20000000 </v>
   <v>      -0.20000000      -0.40000000       0.40000000 </v>
   <v>      -0.43333333       0.13333333       0.20000000 </v>
   <v>       0.36666667      -0.26666667      -0.40000000 </v>
   <v>       0.13333333       0.26666667       0.40000000 </v>
   <v>      -0.46666667       0.06666667      -0.40000000 </v>
   <v>       0.20000000       0.40000000      -0.40000000 </v>
   <v>       0.00000000       0.00000000       0.00000000 </v>
   <v>      -0.06666667      -0.13333333      -0.20000000 </v>
   <v>      -0.30000000       0.40000000      -0.40000000 </v>
   <v>      -0.26666667       0.46666667       0.20000000 </v>
   <v>       0.33333333      -0.33333333       0.00000000 </v>
   <v>       0.43333333      -0.13333333      -0.20000000 </v>
   <v>      -0.50000000       0.00000000       0.00000000 </v>
   <v>       0.26666667      -0.46666667      -0.20000000 </v>
   <v>      -0.33333333       0.33333333       0.00000000 </v>
   <v>      -0.40000000       0.20000000      -0.20000000 </v>
   <v>      -0.16666667      -0.33333333       0.00000000 </v>
   <v>      -0.23333333      -0.46666667      -0.20000000 </v>
   <v>       0.16666667       0.33333333       0.00000000 </v>
   <v>       0.10000000       0.20000000      -0.20000000 </v>
  </varray>
 </structure>
 <varray name="primitive_index" >
  <v type="int" >        1 </v>
  <v type="int" >       18 </v>
  <v type="int" >        7 </v>
  <v type="int" >       24 </v>
  <v type="int" >       20 </v>
  <v type="int" >       19 </v>
  <v type="int" >        6 </v>
  <v type="int" >        2 </v>
  <v type="int" >       16 </v>
  <v type="int" >        8 </v>
  <v type="int" >       15 </v>
  <v type="int" >       11 </v>
  <v type="int" >       12 </v>
  <v type="int" >       28 </v>
  <v type="int" >       23 </v>
  <v type="int" >        4 </v>
  <v type="int" >       14 </v>
  <v type="int" >       26 </v>
  <v type="int" >        9 </v>
  <v type="int" >       29 </v>
  <v type="int" >       17 </v>
  <v type="int" >        3 </v>
  <v type="int" >       22 </v>
  <v type="int" >       10 </v>
  <v type="int" >       27 </v>
  <v type="int" >       13 </v>
  <v type="int" >       25 </v>
  <v type="int" >       21 </v>
  <v type="int" >        5 </v>
 </varray>
 <kpoints>
  <generation param="Gamma">
   <v type="int" name="divisions">       7        7        7 </v>
   <v name="usershift">      0.00000000       0.00000000       0.00000000 </v>
   <v name="genvec1">      0.14285714       0.00000000       0.00000000 </v>
   <v name="genvec2">     -0.00000000       0.14285714       0.00000000 </v>
   <v name="genvec3">      0.00000000       0.00000000       0.14285714 </v>
   <v name="shift">      0.00000000       0.00000000       0.00000000 </v>
  </generation>
  <varray name="kpointlist" >
   <v>       0.00000000       0.00000000       0.00000000 </v>
   <v>       0.14285714       0.00000000      -0.00000000 </v>
   <v>       0.28571429       0.00000000       0.00000000 </v>
   <v>       0.42857143       0.00000000      -0.00000000 </v>
   <v>      -0.00000000       0.14285714       0.00000000 </v>
   <v>       0.14285714       0.14285714      -0.00000000 </v>
   <v>       0.28571429       0.14285714       0.00000000 </v>
   <v>       0.42857143       0.14285714      -0.00000000 </v>
   <v>      -0.42857143       0.14285714       0.00000000 </v>
   <v>      -0.28571429       0.14285714       0.00000000 </v>
   <v>      -0.14285714       0.14285714       0.00000000 </v>
   <v>       0.00000000       0.28571429      -0.00000000 </v>
   <v>       0.14285714       0.28571429      -0.00000000 </v>
   <v>       0.28571429       0.28571429      -0.00000000 </v>
   <v>       0.42857143       0.28571429      -0.00000000 </v>
   <v>      -0.42857143       0.28571429      -0.00000000 </v>
   <v>      -0.28571429       0.28571429      -0.00000000 </v>
   <v>      -0.14285714       0.28571429      -0.00000000 </v>
   <v>      -0.00000000       0.42857143      -0.00000000 </v>
   <v>       0.14285714       0.42857143       0.00000000 </v>
   <v>       0.28571429       0.42857143       0.00000000 </v>
   <v>       0.42857143       0.42857143      -0.00000000 </v>
   <v>      -0.42857143       0.42857143       0.00000000 </v>
   <v>      -0.28571429       0.42857143      -0.00000000 </v>
   <v>      -0.14285714       0.42857143      -0.00000000 </v>
   <v>       0.00000000       0.00000000       0.14285714 </v>
   <v>       0.14285714       0.00000000       0.14285714 </v>
   <v>       0.28571429       0.00000000       0.14285714 </v>
   <v>       0.42857143       0.00000000       0.14285714 </v>
   <v>      -0.42857143       0.00000000       0.14285714 </v>
   <v>      -0.28571429       0.00000000       0.14285714 </v>
   <v>      -0.14285714      -0.00000000       0.14285714 </v>
   <v>      -0.00000000       0.14285714       0.14285714 </v>
   <v>       0.14285714       0.14285714       0.14285714 </v>
   <v>       0.28571429       0.14285714       0.14285714 </v>
   <v>       0.42857143       0.14285714       0.14285714 </v>
   <v>      -0.42857143       0.14285714       0.14285714 </v>
   <v>      -0.28571429       0.14285714       0.14285714 </v>
   <v>      -0.14285714       0.14285714       0.14285714 </v>
   <v>      -0.00000000       0.28571429       0.14285714 </v>
   <v>       0.14285714       0.28571429       0.14285714 </v>
   <v>       0.28571429       0.28571429       0.14285714 </v>
   <v>       0.42857143       0.28571429       0.14285714 </v>
   <v>      -0.42857143       0.28571429       0.14285714 </v>
   <v>      -0.28571429       0.28571429       0.14285714 </v>
   <v>      -0.14285714       0.28571429       0.14285714 </v>
   <v>       0.00000000       0.42857143       0.14285714 </v>
   <v>       0.14285714       0.42857143       0.14285714 </v>
   <v>       0.28571429       0.42857143       0.14285714 </v>
   <v>       0.42857143       0.42857143       0.14285714 </v>
   <v>      -0.42857143       0.42857143       0.14285714 </v>
   <v>      -0.28571429       0.42857143       0.14285714 </v>
   <v>      -0.14285714       0.42857143       0.14285714 </v>
   <v>       0.00000000      -0.42857143       0.14285714 </v>
   <v>       0.14285714      -0.42857143       0.14285714 </v>
   <v>       0.28571429      -0.42857143       0.14285714 </v>
   <v>       0.42857143      -0.42857143       0.14285714 </v>
   <v>      -0.42857143      -0.42857143       0.14285714 </v>
   <v>      -0.28571429      -0.42857143       0.14285714 </v>
   <v>      -0.14285714      -0.42857143       0.14285714 </v>
   <v>       0.00000000      -0.28571429       0.14285714 </v>
   <v>       0.14285714      -0.28571429       0.14285714 </v>
   <v>       0.28571429      -0.28571429       0.14285714 </v>
   <v>       0.42857143      -0.28571429       0.14285714 </v>
   <v>      -0.42857143      -0.28571429       0.14285714 </v>
   <v>      -0.28571429      -0.28571429       0.14285714 </v>
   <v>      -0.14285714      -0.28571429       0.14285714 </v>
   <v>       0.00000000      -0.14285714       0.14285714 </v>
   <v>       0.14285714      -0.14285714       0.14285714 </v>
   <v>       0.28571429      -0.14285714       0.14285714 </v>
   <v>       0.42857143      -0.14285714       0.14285714 </v>
   <v>      -0.42857143      -0.14285714       0.14285714 </v>
   <v>      -0.28571429      -0.14285714       0.14285714 </v>
   <v>      -0.14285714      -0.14285714       0.14285714 </v>
   <v>       0.00000000       0.00000000       0.28571429 </v>
   <v>       0.14285714       0.00000000       0.28571429 </v>
   <v>       0.28571429       0.00000000       0.28571429 </v>
   <v>       0.42857143       0.00000000       0.28571429 </v>
   <v>      -0.42857143      -0.00000000       0.28571429 </v>
   <v>      -0.28571429      -0.00000000       0.28571429 </v>
   <v>      -0.14285714      -0.00000000       0.28571429 </v>
   <v>      -0.00000000       0.14285714       0.28571429 </v>
   <v>       0.14285714       0.14285714       0.28571429 </v>
   <v>       0.28571429       0.14285714       0.28571429 </v>
   <v>       0.42857143       0.14285714       0.28571429 </v>
   <v>      -0.42857143       0.14285714       0.28571429 </v>
   <v>      -0.28571429       0.14285714       0.28571429 </v>
   <v>      -0.14285714       0.14285714       0.28571429 </v>
   <v>      -0.00000000       0.28571429       0.28571429 </v>
   <v>       0.14285714       0.28571429       0.28571429 </v>
   <v>       0.28571429       0.28571429       0.28571429 </v>
   <v>       0.42857143       0.28571429       0.28571429 </v>
   <v>      -0.42857143       0.28571429       0.28571429 </v>
   <v>      -0.28571429       0.28571429       0.28571429 </v>
   <v>      -0.14285714       0.28571429       0.28571429 </v>
   <v>       0.00000000       0.42857143       0.28571429 </v>
   <v>       0.14285714       0.42857143       0.28571429 </v>
   <v>       0.28571429       0.42857143       0.28571429 </v>
   <v>       0.42857143       0.42857143       0.28571429 </v>
   <v>      -0.42857143       0.42857143       0.28571429 </v>
   <v>      -0.28571429       0.42857143       0.28571429 </v>
   <v>      -0.14285714       0.42857143       0.28571429 </v>
   <v>      -0.00000000      -0.42857143       0.28571429 </v>
   <v>       0.14285714      -0.42857143       0.28571429 </v>
   <v>       0.28571429      -0.42857143       0.28571429 </v>
   <v>       0.42857143      -0.42857143       0.28571429 </v>
   <v>      -0.42857143      -0.42857143       0.28571429 </v>
   <v>      -0.28571429      -0.42857143       0.28571429 </v>
   <v>      -0.14285714      -0.42857143       0.28571429 </v>
   <v>       0.00000000      -0.28571429       0.28571429 </v>
   <v>       0.14285714      -0.28571429       0.28571429 </v>
   <v>       0.28571429      -0.28571429       0.28571429 </v>
   <v>       0.42857143      -0.28571429       0.28571429 </v>
   <v>      -0.42857143      -0.28571429       0.28571429 </v>
   <v>      -0.28571429      -0.28571429       0.28571429 </v>
   <v>      -0.14285714      -0.28571429       0.28571429 </v>
   <v>       0.00000000      -0.14285714       0.28571429 </v>
   <v>       0.14285714      -0.14285714       0.28571429 </v>
   <v>       0.28571429      -0.14285714       0.28571429 </v>
   <v>       0.42857143      -0.14285714       0.28571429 </v>
   <v>      -0.42857143      -0.14285714       0.28571429 </v>
   <v>      -0.28571429      -0.14285714       0.28571429 </v>
   <v>      -0.14285714      -0.14285714       0.28571429 </v>
   <v>       0.00000000       0.00000000       0.42857143 </v>
   <v>       0.14285714       0.00000000       0.42857143 </v>
   <v>       0.28571429       0.00000000       0.42857143 </v>
   <v>       0.42857143      -0.00000000       0.42857143 </v>
   <v>      -0.42857143      -0.00000000       0.42857143 </v>
   <v>      -0.28571429       0.00000000       0.42857143 </v>
   <v>      -0.14285714      -0.00000000       0.42857143 </v>
   <v>      -0.00000000       0.14285714       0.42857143 </v>
   <v>       0.14285714       0.14285714       0.42857143 </v>
   <v>       0.28571429       0.14285714       0.42857143 </v>
   <v>       0.42857143       0.14285714       0.42857143 </v>
   <v>      -0.42857143       0.14285714       0.42857143 </v>
   <v>      -0.28571429       0.14285714       0.42857143 </v>
   <v>      -0.14285714       0.14285714       0.42857143 </v>
   <v>       0.00000000       0.28571429       0.42857143 </v>
   <v>       0.14285714       0.28571429       0.42857143 </v>
   <v>       0.28571429       0.28571429       0.42857143 </v>
   <v>       0.42857143       0.28571429       0.42857143 </v>
   <v>      -0.42857143       0.28571429       0.42857143 </v>
   <v>      -0.28571429       0.28571429       0.42857143 </v>
   <v>      -0.14285714       0.28571429       0.42857143 </v>
   <v>       0.00000000       0.42857143       0.42857143 </v>
   <v>       0.14285714       0.42857143       0.42857143 </v>
   <v>       0.28571429       0.42857143       0.42857143 </v>
   <v>       0.42857143       0.42857143       0.42857143 </v>
   <v>      -0.42857143       0.42857143       0.42857143 </v>
   <v>      -0.28571429       0.42857143       0.42857143 </v>
   <v>      -0.14285714       0.42857143       0.42857143 </v>
   <v>       0.00000000      -0.42857143       0.42857143 </v>
   <v>       0.14285714      -0.42857143       0.42857143 </v>
   <v>       0.28571429      -0.42857143       0.42857143 </v>
   <v>       0.42857143      -0.42857143       0.42857143 </v>
   <v>      -0.42857143      -0.42857143       0.42857143 </v>
   <v>      -0.28571429      -0.42857143       0.42857143 </v>
   <v>      -0.14285714      -0.42857143       0.42857143 </v>
   <v>      -0.00000000      -0.28571429       0.42857143 </v>
   <v>       0.14285714      -0.28571429       0.42857143 </v>
   <v>       0.28571429      -0.28571429       0.42857143 </v>
   <v>       0.42857143      -0.28571429       0.42857143 </v>
   <v>      -0.42857143      -0.28571429       0.42857143 </v>
   <v>      -0.28571429      -0.28571429       0.42857143 </v>
   <v>      -0.14285714      -0.28571429       0.42857143 </v>
   <v>       0.00000000      -0.14285714       0.42857143 </v>
   <v>       0.14285714      -0.14285714       0.42857143 </v>
   <v>       0.28571429      -0.14285714       0.42857143 </v>
   <v>       0.42857143      -0.14285714       0.42857143 </v>
   <v>      -0.42857143      -0.14285714       0.42857143 </v>
   <v>      -0.28571429      -0.14285714       0.42857143 </v>
   <v>      -0.14285714      -0.14285714       0.42857143 </v>
  </varray>
  <varray name="weights" >
   <v>       0.00291545 </v>
   <v>       0.00583090 </v>
   <v>       0.00583090 </v>
   <v>       0.00583090 </v>
   <v>       0.00583090 </v>
   <v>       0.00583090 </v>
   <v>       0.00583090 </v>
   <v>       0.00583090 </v>
   <v>       0.00583090 </v>
   <v>       0.00583090 </v>
   <v>       0.00583090 </v>
   <v>       0.00583090 </v>
   <v>       0.00583090 </v>
   <v>       0.00583090 </v>
   <v>       0.00583090 </v>
   <v>       0.00583090 </v>
   <v>       0.00583090 </v>
   <v>       0.00583090 </v>
   <v>       0.00583090 </v>
   <v>       0.00583090 </v>
   <v>       0.00583090 </v>
   <v>       0.00583090 </v>
   <v>       0.00583090 </v>
   <v>       0.00583090 </v>
   <v>       0.00583090 </v>
   <v>       0.00583090 </v>
   <v>       0.00583090 </v>
   <v>       0.00583090 </v>
   <v>       0.00583090 </v>
   <v>       0.00583090 </v>
   <v>       0.00583090 </v>
   <v>       0.00583090 </v>
   <v>       0.00583090 </v>
   <v>       0.00583090 </v>
   <v>       0.00583090 </v>
   <v>       0.00583090 </v>
   <v>       0.00583090 </v>
   <v>       0.00583090 </v>
   <v>       0.00583090 </v>
   <v>       0.00583090 </v>
   <v>       0.00583090 </v>
   <v>       0.00583090 </v>
   <v>       0.00583090 </v>
   <v>       0.00583090 </v>
   <v>       0.00583090 </v>
   <v>       0.00583090 </v>
   <v>       0.00583090 </v>
   <v>       0.00583090 </v>
   <v>       0.00583090 </v>
   <v>       0.00583090 </v>
   <v>       0.00583090 </v>
   <v>       0.00583090 </v>
   <v>       0.00583090 </v>
   <v>       0.00583090 </v>
   <v>       0.00583090 </v>
   <v>       0.00583090 </v>
   <v>       0.00583090 </v>
   <v>       0.00583090 </v>
   <v>       0.00583090 </v>
   <v>       0.00583090 </v>
   <v>       0.00583090 </v>
   <v>       0.00583090 </v>
   <v>       0.00583090 </v>
   <v>       0.00583090 </v>
   <v>       0.00583090 </v>
   <v>       0.00583090 </v>
   <v>       0.00583090 </v>
   <v>       0.00583090 </v>
   <v>       0.00583090 </v>
   <v>       0.00583090 </v>
   <v>       0.00583090 </v>
   <v>       0.00583090 </v>
   <v>       0.00583090 </v>
   <v>       0.00583090 </v>
   <v>       0.00583090 </v>
   <v>       0.00583090 </v>
   <v>       0.00583090 </v>
   <v>       0.00583090 </v>
   <v>       0.00583090 </v>
   <v>       0.00583090 </v>
   <v>       0.00583090 </v>
   <v>       0.00583090 </v>
   <v>       0.00583090 </v>
   <v>       0.00583090 </v>
   <v>       0.00583090 </v>
   <v>       0.00583090 </v>
   <v>       0.00583090 </v>
   <v>       0.00583090 </v>
   <v>       0.00583090 </v>
   <v>       0.00583090 </v>
   <v>       0.00583090 </v>
   <v>       0.00583090 </v>
   <v>       0.00583090 </v>
   <v>       0.00583090 </v>
   <v>       0.00583090 </v>
   <v>       0.00583090 </v>
   <v>       0.00583090 </v>
   <v>       0.00583090 </v>
   <v>       0.00583090 </v>
   <v>       0.00583090 </v>
   <v>       0.00583090 </v>
   <v>       0.00583090 </v>
   <v>       0.00583090 </v>
   <v>       0.00583090 </v>
   <v>       0.00583090 </v>
   <v>       0.00583090 </v>
   <v>       0.00583090 </v>
   <v>       0.00583090 </v>
   <v>       0.00583090 </v>
   <v>       0.00583090 </v>
   <v>       0.00583090 </v>
   <v>       0.00583090 </v>
   <v>       0.00583090 </v>
   <v>       0.00583090 </v>
   <v>       0.00583090 </v>
   <v>       0.00583090 </v>
   <v>       0.00583090 </v>
   <v>       0.00583090 </v>
   <v>       0.00583090 </v>
   <v>       0.00583090 </v>
   <v>       0.00583090 </v>
   <v>       0.00583090 </v>
   <v>       0.00583090 </v>
   <v>       0.00583090 </v>
   <v>       0.00583090 </v>
   <v>       0.00583090 </v>
   <v>       0.00583090 </v>
   <v>       0.00583090 </v>
   <v>       0.00583090 </v>
   <v>       0.00583090 </v>
   <v>       0.00583090 </v>
   <v>       0.00583090 </v>
   <v>       0.00583090 </v>
   <v>       0.00583090 </v>
   <v>       0.00583090 </v>
   <v>       0.00583090 </v>
   <v>       0.00583090 </v>
   <v>       0.00583090 </v>
   <v>       0.00583090 </v>
   <v>       0.00583090 </v>
   <v>       0.00583090 </v>
   <v>       0.00583090 </v>
   <v>       0.00583090 </v>
   <v>       0.00583090 </v>
   <v>       0.00583090 </v>
   <v>       0.00583090 </v>
   <v>       0.00583090 </v>
   <v>       0.00583090 </v>
   <v>       0.00583090 </v>
   <v>       0.00583090 </v>
   <v>       0.00583090 </v>
   <v>       0.00583090 </v>
   <v>       0.00583090 </v>
   <v>       0.00583090 </v>
   <v>       0.00583090 </v>
   <v>       0.00583090 </v>
   <v>       0.00583090 </v>
   <v>       0.00583090 </v>
   <v>       0.00583090 </v>
   <v>       0.00583090 </v>
   <v>       0.00583090 </v>
   <v>       0.00583090 </v>
   <v>       0.00583090 </v>
   <v>       0.00583090 </v>
   <v>       0.00583090 </v>
   <v>       0.00583090 </v>
   <v>       0.00583090 </v>
   <v>       0.00583090 </v>
   <v>       0.00583090 </v>
   <v>       0.00583090 </v>
   <v>       0.00583090 </v>
   <v>       0.00583090 </v>
  </varray>
 </kpoints>
 <parameters>
  <separator name="general" >
   <i type="string" name="SYSTEM">Nb - Mo - Ta - Ti - V SQS</i>
   <i type="logical" name="LCOMPAT"> F  </i>
  </separator>
  <separator name="electronic" >
   <i type="string" name="PREC">normal</i>
   <i name="ENMAX">    600.00000000</i>
   <i name="ENAUG">    455.65900000</i>
   <i name="EDIFF">      0.00010000</i>
   <i type="int" name="IALGO">    38</i>
   <i type="int" name="IWAVPR">    11</i>
   <i type="int" name="NBANDS">   120</i>
   <i name="NELECT">    193.00000000</i>
   <i type="int" name="TURBO">     0</i>
   <i type="int" name="IRESTART">     0</i>
   <i type="int" name="NREBOOT">     0</i>
   <i type="int" name="NMIN">     0</i>
   <i name="EREF">      0.00000000</i>
   <separator name="electronic smearing" >
    <i type="int" name="ISMEAR">     1</i>
    <i name="SIGMA">      0.20000000</i>
    <i name="KSPACING">      0.50000000</i>
    <i type="logical" name="KGAMMA"> T  </i>
   </separator>
   <separator name="electronic projectors" >
    <i type="logical" name="LREAL"> T  </i>
    <v name="ROPT">     -0.00050000     -0.00050000     -0.00050000     -0.00050000     -0.00050000</v>
    <i type="int" name="LMAXPAW">  -100</i>
    <i type="int" name="LMAXMIX">     2</i>
    <i type="logical" name="NLSPLINE"> F  </i>
   </separator>
   <separator name="electronic startup" >
    <i type="int" name="ISTART">     0</i>
    <i type="int" name="ICHARG">     0</i>
    <i type="int" name="INIWAV">     1</i>
   </separator>
   <separator name="electronic spin" >
    <i type="int" name="ISPIN">     1</i>
    <i type="logical" name="LNONCOLLINEAR"> F  </i>
    <v name="MAGMOM">      1.00000000      1.00000000      1.00000000      1.00000000      1.00000000      1.00000000      1.00000000      1.00000000      1.00000000      1.00000000      1.00000000      1.00000000      1.00000000      1.00000000      1.00000000      1.00000000      1.00000000      1.00000000      1.00000000      1.00000000
      1.00000000      1.00000000      1.00000000      1.00000000      1.00000000      1.00000000      1.00000000      1.00000000      1.00000000</v>
    <i name="NUPDOWN">     -1.00000000</i>
    <i type="logical" name="LSORBIT"> F  </i>
    <v name="SAXIS">      0.00000000      0.00000000      1.00000000</v>
    <i type="logical" name="LSPIRAL"> F  </i>
    <v name="QSPIRAL">      0.00000000      0.00000000      0.00000000</v>
    <i type="logical" name="LZEROZ"> F  </i>
   </separator>
   <separator name="electronic exchange-correlation" >
    <i type="logical" name="LASPH"> F  </i>
    <i type="logical" name="LMETAGGA"> F  </i>
   </separator>
   <separator name="electronic convergence" >
    <i type="int" name="NELM">    60</i>
    <i type="int" name="NELMDL">    -5</i>
    <i type="int" name="NELMIN">     2</i>
    <i name="ENINI">    600.00000000</i>
    <separator name="electronic convergence detail" >
     <i type="logical" name="LDIAG"> T  </i>
     <i type="logical" name="LSUBROT"> F  </i>
     <i name="WEIMIN">      0.00100000</i>
     <i name="EBREAK">      0.00000021</i>
     <i name="DEPER">      0.30000000</i>
     <i type="int" name="NRMM">     4</i>
     <i name="TIME">      0.40000000</i>
    </separator>
   </separator>
   <separator name="electronic mixer" >
    <i name="AMIX">      0.40000000</i>
    <i name="BMIX">      1.00000000</i>
    <i name="AMIN">      0.10000000</i>
    <i name="AMIX_MAG">      1.60000000</i>
    <i name="BMIX_MAG">      1.00000000</i>
    <separator name="electronic mixer details" >
     <i type="int" name="IMIX">     4</i>
     <i type="logical" name="MIXFIRST"> F  </i>
     <i type="int" name="MAXMIX">   -45</i>
     <i name="WC">    100.00000000</i>
     <i type="int" name="INIMIX">     1</i>
     <i type="int" name="MIXPRE">     1</i>
     <i type="int" name="MREMOVE">     5</i>
    </separator>
   </separator>
   <separator name="electronic dipolcorrection" >
    <i type="logical" name="LDIPOL"> F  </i>
    <i type="logical" name="LMONO"> F  </i>
    <i type="int" name="IDIPOL">     0</i>
    <i name="EPSILON">      1.00000000</i>
    <v name="DIPOL">   -100.00000000   -100.00000000   -100.00000000</v>
    <i name="EFIELD">      0.00000000</i>
   </separator>
  </separator>
  <separator name="grids" >
   <i type="int" name="NGX">    36</i>
   <i type="int" name="NGY">    50</i>
   <i type="int" name="NGZ">    70</i>
   <i type="int" name="NGXF">    72</i>
   <i type="int" name="NGYF">   100</i>
   <i type="int" name="NGZF">   140</i>
   <i type="logical" name="ADDGRID"> F  </i>
  </separator>
  <separator name="ionic" >
   <i type="int" name="NSW">    50</i>
   <i type="int" name="IBRION">     2</i>
   <i type="int" name="MDALGO">     0</i>
   <i type="int" name="ISIF">     3</i>
   <i name="PSTRESS">      0.00000000</i>
   <i name="EDIFFG">      0.00100000</i>
   <i type="int" name="NFREE">     1</i>
   <i name="POTIM">      0.50000000</i>
   <i name="SMASS">     -3.00000000</i>
   <i name="SCALEE">      1.00000000</i>
  </separator>
  <separator name="ionic md" >
   <i name="TEBEG">      0.00010000</i>
   <i name="TEEND">      0.00010000</i>
   <i type="int" name="NBLOCK">     1</i>
   <i type="int" name="KBLOCK">    50</i>
   <i type="int" name="NPACO">   256</i>
   <i name="APACO">     16.00000000</i>
  </separator>
  <separator name="symmetry" >
   <i type="int" name="ISYM">     2</i>
   <i name="SYMPREC">      0.00001000</i>
  </separator>
  <separator name="dos" >
   <i type="int" name="LORBIT">     0</i>
   <v name="RWIGS">     -1.00000000     -1.00000000     -1.00000000     -1.00000000     -1.00000000</v>
   <i type="int" name="NEDOS">   301</i>
   <i name="EMIN">     10.00000000</i>
   <i name="EMAX">    -10.00000000</i>
   <i name="EFERMI">      0.00000000</i>
  </separator>
  <separator name="writing" >
   <i type="int" name="NWRITE">     2</i>
   <i type="logical" name="LWAVE"> T  </i>
   <i type="logical" name="LDOWNSAMPLE"> F  </i>
   <i type="logical" name="LCHARG"> T  </i>
   <i type="logical" name="LPARD"> F  </i>
   <i type="logical" name="LVTOT"> F  </i>
   <i type="logical" name="LVHAR"> F  </i>
   <i type="logical" name="LELF"> F  </i>
   <i type="logical" name="LOPTICS"> F  </i>
   <v name="STM">      0.00000000      0.00000000      0.00000000      0.00000000      0.00000000      0.00000000      0.00000000</v>
  </separator>
  <separator name="performance" >
   <i type="int" name="NPAR">    12</i>
   <i type="int" name="NSIM">     4</i>
   <i type="int" name="NBLK">    -1</i>
   <i type="logical" name="LPLANE"> T  </i>
   <i type="logical" name="LSCALAPACK"> T  </i>
   <i type="logical" name="LSCAAWARE"> F  </i>
   <i type="logical" name="LSCALU"> F  </i>
   <i type="logical" name="LASYNC"> F  </i>
   <i type="logical" name="LORBITALREAL"> F  </i>
  </separator>
  <separator name="miscellaneous" >
   <i type="int" name="IDIOT">     3</i>
   <i type="int" name="ISPECIAL">     0</i>
   <i type="logical" name="LMUSIC"> F  </i>
   <v name="POMASS">     92.91000000     95.94000000    180.94800000     47.88000000     50.94100000</v>
   <v name="DARWINR">      0.00000000      0.00000000      0.00000000      0.00000000      0.00000000</v>
   <v name="DARWINV">      1.00000000      1.00000000      1.00000000      1.00000000      1.00000000</v>
   <i type="logical" name="LCORR"> T  </i>
  </separator>
  <i type="logical" name="GGA_COMPAT"> T  </i>
  <i type="logical" name="LBERRY"> F  </i>
  <i type="int" name="ICORELEVEL">     0</i>
  <i type="logical" name="LDAU"> F  </i>
  <i type="int" name="I_CONSTRAINED_M">     0</i>
  <separator name="electronic exchange-correlation" >
   <i type="string" name="GGA">PS</i>
   <i type="int" name="VOSKOWN">     0</i>
   <i type="logical" name="LHFCALC"> F  </i>
   <i type="string" name="PRECFOCK"></i>
   <i type="logical" name="LSYMGRAD"> F  </i>
   <i type="logical" name="LHFONE"> F  </i>
   <i type="logical" name="LRHFCALC"> F  </i>
   <i type="logical" name="LTHOMAS"> F  </i>
   <i type="logical" name="LMODELHF"> F  </i>
   <i name="ENCUT4O">     -1.00000000</i>
   <i type="int" name="EXXOEP">     0</i>
   <i type="int" name="FOURORBIT">     0</i>
   <i name="AEXX">      0.00000000</i>
   <i name="HFALPHA">      0.00000000</i>
   <i name="MCALPHA">      0.00000000</i>
   <i name="ALDAX">      1.00000000</i>
   <i name="AGGAX">      1.00000000</i>
   <i name="ALDAC">      1.00000000</i>
   <i name="AGGAC">      1.00000000</i>
   <i type="int" name="NKREDX">     1</i>
   <i type="int" name="NKREDY">     1</i>
   <i type="int" name="NKREDZ">     1</i>
   <i type="logical" name="SHIFTRED"> F  </i>
   <i type="logical" name="ODDONLY"> F  </i>
   <i type="logical" name="EVENONLY"> F  </i>
   <i type="int" name="LMAXFOCK">     0</i>
   <i type="int" name="NMAXFOCKAE">     0</i>
   <i type="logical" name="LFOCKAEDFT"> F  </i>
   <i name="HFSCREEN">      0.00000000</i>
   <i name="HFSCREENC">      0.00000000</i>
   <i type="int" name="NBANDSGWLOW">     0</i>
  </separator>
  <separator name="vdW DFT" >
   <i type="logical" name="LUSE_VDW"> F  </i>
   <i name="Zab_VDW">     -0.84910000</i>
   <i name="PARAM1">      0.12340000</i>
   <i name="PARAM2">      1.00000000</i>
   <i name="PARAM3">      0.00000000</i>
  </separator>
  <separator name="model GW" >
   <i type="int" name="MODEL_GW">     0</i>
   <i name="MODEL_EPS0">      9.79277462</i>
   <i name="MODEL_ALPHA">      1.00000000</i>
  </separator>
  <separator name="linear response parameters" >
   <i type="logical" name="LEPSILON"> F  </i>
   <i type="logical" name="LRPA"> F  </i>
   <i type="logical" name="LNABLA"> F  </i>
   <i type="logical" name="LVEL"> F  </i>
   <i type="int" name="KINTER">     0</i>
   <i name="CSHIFT">      0.10000000</i>
   <i name="OMEGAMAX">     -1.00000000</i>
   <i name="DEG_THRESHOLD">      0.00200000</i>
   <i name="RTIME">     -0.10000000</i>
   <i name="WPLASMAI">      0.00000000</i>
   <v name="DFIELD">      0.00000000      0.00000000      0.00000000</v>
   <v name="WPLASMA">      0.00000000      0.00000000      0.00000000      0.00000000      0.00000000      0.00000000      0.00000000      0.00000000      0.00000000</v>
  </separator>
  <separator name="orbital magnetization" >
   <i type="logical" name="NUCIND"> F  </i>
   <v name="MAGPOS">      0.00000000      0.00000000      0.00000000</v>
   <i type="logical" name="LNICSALL"> T  </i>
   <i type="logical" name="ORBITALMAG"> F  </i>
   <i type="logical" name="LMAGBLOCH"> F  </i>
   <i type="logical" name="LCHIMAG"> F  </i>
   <i type="logical" name="LGAUGE"> T  </i>
   <i type="int" name="MAGATOM">     0</i>
   <v name="MAGDIPOL">      0.00000000      0.00000000      0.00000000</v>
   <v name="AVECCONST">      0.00000000      0.00000000      0.00000000</v>
  </separator>
  <separator name="response functions" >
   <i type="logical" name="LADDER"> F  </i>
   <i type="logical" name="LRPAFORCE"> F  </i>
   <i type="logical" name="LFXC"> F  </i>
   <i type="logical" name="LHARTREE"> T  </i>
   <i type="int" name="IBSE">     0</i>
   <v type="int" name="KPOINT">    -1     0     0     0</v>
   <i type="logical" name="LTCTE"> F  </i>
   <i type="logical" name="LTETE"> F  </i>
   <i type="logical" name="LTRIPLET"> F  </i>
   <i type="logical" name="LFXCEPS"> F  </i>
   <i type="logical" name="LFXHEG"> F  </i>
   <i type="int" name="NATURALO">     2</i>
   <i type="logical" name="L2ORDER"> F  </i>
   <i type="logical" name="LMP2LT"> F  </i>
   <i type="logical" name="LUSEW"> F  </i>
   <i name="ENCUTGW">     -2.00000000</i>
   <i name="ENCUTGWSOFT">     -2.00000000</i>
   <i name="ENCUTLF">     -1.00000000</i>
   <i type="int" name="LMAXMP2">    -1</i>
   <i name="SCISSOR">      0.00000000</i>
   <i type="int" name="NOMEGA">     0</i>
   <i type="int" name="NOMEGAR">     0</i>
   <i type="int" name="NBANDSGW">    -1</i>
   <i type="int" name="NBANDSO">    -1</i>
   <i type="int" name="NBANDSV">    -1</i>
   <i type="int" name="NELM">     1</i>
   <i type="int" name="NELMHF">     1</i>
   <i type="int" name="DIM">     3</i>
   <i type="int" name="ANTIRES">     0</i>
   <i name="OMEGAMAX">    -30.00000000</i>
   <i name="OMEGAMIN">    -30.00000000</i>
   <i name="OMEGATL">   -200.00000000</i>
   <i type="int" name="OMEGAGRID">   140</i>
   <i name="CSHIFT">     -0.10000000</i>
   <i type="logical" name="SELFENERGY"> F  </i>
   <i type="logical" name="LSPECTRAL"> F  </i>
   <i type="logical" name="LSPECTRALGW"> F  </i>
   <i type="logical" name="LSINGLES"> F  </i>
   <i type="logical" name="LFERMIGW"> F  </i>
   <i type="logical" name="ODDONLYGW"> F  </i>
   <i type="logical" name="EVENONLYGW"> F  </i>
   <i type="int" name="NKREDLFX">     1</i>
   <i type="int" name="NKREDLFY">     1</i>
   <i type="int" name="NKREDLFZ">     1</i>
   <i type="int" name="MAXMEM">  2800</i>
   <i type="int" name="TELESCOPE">     0</i>
   <i type="int" name="TAUPAR">     1</i>
   <i type="int" name="OMEGAPAR">    -1</i>
   <i name="LAMBDA">      1.00000000</i>
  </separator>
  <separator name="External order field" >
   <i name="OFIELD_KAPPA">      0.00000000</i>
   <v name="OFIELD_K">      0.00000000      0.00000000      0.00000000</v>
   <i name="OFIELD_Q6_NEAR">      0.00000000</i>
   <i name="OFIELD_Q6_FAR">      0.00000000</i>
   <i name="OFIELD_A">      0.00000000</i>
  </separator>
  <separator name="solvation model" >
   <i type="logical" name="LSOL"> F  </i>
  </separator>
 </parameters>
 <atominfo>
  <atoms>      29 </atoms>
  <types>       5 </types>
  <array name="atoms" >
   <dimension dim="1">ion</dimension>
   <field type="string">element</field>
   <field type="int">atomtype</field>
   <set>
    <rc><c>Nb</c><c>   1</c></rc>
    <rc><c>Nb</c><c>   1</c></rc>
    <rc><c>Nb</c><c>   1</c></rc>
    <rc><c>Nb</c><c>   1</c></rc>
    <rc><c>Nb</c><c>   1</c></rc>
    <rc><c>Nb</c><c>   1</c></rc>
    <rc><c>Mo</c><c>   2</c></rc>
    <rc><c>Mo</c><c>   2</c></rc>
    <rc><c>Mo</c><c>   2</c></rc>
    <rc><c>Mo</c><c>   2</c></rc>
    <rc><c>Mo</c><c>   2</c></rc>
    <rc><c>Mo</c><c>   2</c></rc>
    <rc><c>Ta</c><c>   3</c></rc>
    <rc><c>Ta</c><c>   3</c></rc>
    <rc><c>Ta</c><c>   3</c></rc>
    <rc><c>Ta</c><c>   3</c></rc>
    <rc><c>Ta</c><c>   3</c></rc>
    <rc><c>Ta</c><c>   3</c></rc>
    <rc><c>Ti</c><c>   4</c></rc>
    <rc><c>Ti</c><c>   4</c></rc>
    <rc><c>Ti</c><c>   4</c></rc>
    <rc><c>Ti</c><c>   4</c></rc>
    <rc><c>Ti</c><c>   4</c></rc>
    <rc><c>Ti</c><c>   4</c></rc>
    <rc><c>V </c><c>   5</c></rc>
    <rc><c>V </c><c>   5</c></rc>
    <rc><c>V </c><c>   5</c></rc>
    <rc><c>V </c><c>   5</c></rc>
    <rc><c>V </c><c>   5</c></rc>
   </set>
  </array>
  <array name="atomtypes" >
   <dimension dim="1">type</dimension>
   <field type="int">atomspertype</field>
   <field type="string">element</field>
   <field>mass</field>
   <field>valence</field>
   <field type="string">pseudopotential</field>
   <set>
    <rc><c>   6</c><c>Nb</c><c>     92.91000000</c><c>     13.00000000</c><c>  PAW_PBE Nb_sv 25May2007               </c></rc>
    <rc><c>   6</c><c>Mo</c><c>     95.94000000</c><c>      6.00000000</c><c>  PAW_PBE Mo 08Apr2002                  </c></rc>
    <rc><c>   6</c><c>Ta</c><c>    180.94800000</c><c>      5.00000000</c><c>  PAW_PBE Ta 17Jan2003                  </c></rc>
    <rc><c>   6</c><c>Ti</c><c>     47.88000000</c><c>      4.00000000</c><c>  PAW_PBE Ti 08Apr2002                  </c></rc>
    <rc><c>   5</c><c>V </c><c>     50.94100000</c><c>      5.00000000</c><c>  PAW_PBE V 08Apr2002                   </c></rc>
   </set>
  </array>
 </atominfo>
 <structure name="initialpos" >
  <crystal>
   <varray name="basis" >
    <v>      -3.16000000      -3.16000000      -3.16000000 </v>
    <v>       1.58000000       1.58000000      -7.90000000 </v>
    <v>       7.90000000      -7.90000000      -1.58000000 </v>
   </varray>
   <i name="volume">    473.31744000 </i>
   <varray name="rec_basis" >
    <v>      -0.13713080      -0.12658228      -0.05274262 </v>
    <v>       0.04219409       0.06329114      -0.10548523 </v>
    <v>       0.06329114      -0.06329114       0.00000000 </v>
   </varray>
  </crystal>
  <varray name="positions" >
   <v>       0.96666667       0.93333333       0.40000000 </v>
   <v>       0.63333333       0.26666667       0.40000000 </v>
   <v>       0.50000000       0.00000000       0.00000000 </v>
   <v>       0.00000000       0.00000000       0.00000000 </v>
   <v>       0.10000000       0.20000000       0.80000000 </v>
   <v>       0.03333333       0.06666667       0.60000000 </v>
   <v>       0.90000000       0.80000000       0.20000000 </v>
   <v>       0.80000000       0.60000000       0.40000000 </v>
   <v>       0.73333333       0.46666667       0.20000000 </v>
   <v>       0.66666667       0.33333333       0.00000000 </v>
   <v>       0.36666667       0.73333333       0.60000000 </v>
   <v>       0.13333333       0.26666667       0.40000000 </v>
   <v>       0.83333333       0.66666667       0.00000000 </v>
   <v>       0.93333333       0.86666667       0.80000000 </v>
   <v>       0.56666667       0.13333333       0.20000000 </v>
   <v>       0.40000000       0.80000000       0.20000000 </v>
   <v>       0.43333333       0.86666667       0.80000000 </v>
   <v>       0.30000000       0.60000000       0.40000000 </v>
   <v>       0.86666667       0.73333333       0.60000000 </v>
   <v>       0.46666667       0.93333333       0.40000000 </v>
   <v>       0.16666667       0.33333333       0.00000000 </v>
   <v>       0.26666667       0.53333333       0.80000000 </v>
   <v>       0.20000000       0.40000000       0.60000000 </v>
   <v>       0.06666667       0.13333333       0.20000000 </v>
   <v>       0.76666667       0.53333333       0.80000000 </v>
   <v>       0.70000000       0.40000000       0.60000000 </v>
   <v>       0.60000000       0.20000000       0.80000000 </v>
   <v>       0.53333333       0.06666667       0.60000000 </v>
   <v>       0.33333333       0.66666667       0.00000000 </v>
  </varray>
 </structure>
 <calculation>
  <scstep>
   <time name="dav">   44.73   44.78</time>
   <time name="total">   44.85   44.92</time>
   <energy>
    <i name="alphaZ">   1173.71499705 </i>
    <i name="ewald"> -11004.87382273 </i>
    <i name="hartreedc">   -114.75907029 </i>
    <i name="XCdc">   -935.88543807 </i>
    <i name="pawpsdc"> 577069.11226150 </i>
    <i name="pawaedc">-575808.23833100 </i>
    <i name="eentropy">      0.00183543 </i>
    <i name="bandstr">  -7787.38915425 </i>
    <i name="atom">  12835.31476492 </i>
    <i name="e_fr_energy">  -4573.00195745 </i>
    <i name="e_wo_entrp">  -4573.00379287 </i>
    <i name="e_0_energy">  -4573.00256926 </i>
   </energy>
  </scstep>
  <scstep>
   <time name="dav">   46.56   46.64</time>
   <time name="total">   46.57   46.65</time>
   <energy>
    <i name="e_fr_energy">  -9897.57190188 </i>
    <i name="e_wo_entrp">  -9897.57248900 </i>
    <i name="e_0_energy">  -9897.57209759 </i>
   </energy>
  </scstep>
  <scstep>
   <time name="dav">   56.23   56.31</time>
   <time name="total">   56.24   56.32</time>
   <energy>
    <i name="e_fr_energy"> -10799.98205296 </i>
    <i name="e_wo_entrp"> -10799.97984523 </i>
    <i name="e_0_energy"> -10799.98131705 </i>
   </energy>
  </scstep>
  <scstep>
   <time name="dav">   56.15   56.21</time>
   <time name="total">   56.16   56.22</time>
   <energy>
    <i name="e_fr_energy"> -11049.04047228 </i>
    <i name="e_wo_entrp"> -11049.04051528 </i>
    <i name="e_0_energy"> -11049.04048662 </i>
   </energy>
  </scstep>
  <scstep>
   <time name="dav">   56.21   56.29</time>
   <time name="total">   56.86   56.94</time>
   <energy>
    <i name="e_fr_energy"> -11213.22635611 </i>
    <i name="e_wo_entrp"> -11213.22706105 </i>
    <i name="e_0_energy"> -11213.22659109 </i>
   </energy>
  </scstep>
  <scstep>
   <time name="dav">   44.93   44.98</time>
   <time name="total">   45.65   45.71</time>
   <energy>
    <i name="e_fr_energy">  -1001.87260487 </i>
    <i name="e_wo_entrp">  -1001.87612176 </i>
    <i name="e_0_energy">  -1001.87377717 </i>
   </energy>
  </scstep>
  <scstep>
   <time name="dav">   48.73   48.78</time>
   <time name="total">   49.41   49.47</time>
   <energy>
    <i name="e_fr_energy">   -661.44044726 </i>
    <i name="e_wo_entrp">   -661.44145483 </i>
    <i name="e_0_energy">   -661.44078312 </i>
   </energy>
  </scstep>
  <scstep>
   <time name="dav">   50.01   50.06</time>
   <time name="total">   50.68   50.74</time>
   <energy>
    <i name="e_fr_energy">   -600.72484601 </i>
    <i name="e_wo_entrp">   -600.72341403 </i>
    <i name="e_0_energy">   -600.72436868 </i>
   </energy>
  </scstep>
  <scstep>
   <time name="dav">   49.31   49.36</time>
   <time name="total">   49.97   50.02</time>
   <energy>
    <i name="e_fr_energy">   -521.34997552 </i>
    <i name="e_wo_entrp">   -521.35145646 </i>
    <i name="e_0_energy">   -521.35046916 </i>
   </energy>
  </scstep>
  <scstep>
   <time name="dav">   56.24   56.30</time>
   <time name="total">   56.91   56.98</time>
   <energy>
    <i name="e_fr_energy">   -549.33898729 </i>
    <i name="e_wo_entrp">   -549.33756475 </i>
    <i name="e_0_energy">   -549.33851311 </i>
   </energy>
  </scstep>
  <scstep>
   <time name="dav">   51.47   51.55</time>
   <time name="total">   52.12   52.20</time>
   <energy>
    <i name="e_fr_energy">   -600.43722320 </i>
    <i name="e_wo_entrp">   -600.44166947 </i>
    <i name="e_0_energy">   -600.43870529 </i>
   </energy>
  </scstep>
  <scstep>
   <time name="dav">   52.66   52.72</time>
   <time name="total">   53.35   53.42</time>
   <energy>
    <i name="e_fr_energy">   -817.68891313 </i>
    <i name="e_wo_entrp">   -817.69009373 </i>
    <i name="e_0_energy">   -817.68930666 </i>
   </energy>
  </scstep>
  <scstep>
   <time name="dav">   53.64   53.78</time>
   <time name="total">   54.27   54.45</time>
   <energy>
    <i name="e_fr_energy">   -988.22638241 </i>
    <i name="e_wo_entrp">   -988.21814733 </i>
    <i name="e_0_energy">   -988.22363738 </i>
   </energy>
  </scstep>
  <scstep>
   <time name="dav">   51.29   51.34</time>
   <time name="total">   51.94   52.01</time>
   <energy>
    <i name="e_fr_energy">  -2573.99040923 </i>
    <i name="e_wo_entrp">  -2573.98948136 </i>
    <i name="e_0_energy">  -2573.99009994 </i>
   </energy>
  </scstep>
  <scstep>
   <time name="dav">   48.72   48.79</time>
   <time name="total">   49.37   49.46</time>
   <energy>
    <i name="e_fr_energy">  -1281.98517414 </i>
    <i name="e_wo_entrp">  -1281.98297565 </i>
    <i name="e_0_energy">  -1281.98444131 </i>
   </energy>
  </scstep>
  <scstep>
   <time name="dav">   44.17   44.22</time>
   <time name="total">   44.84   44.90</time>
   <energy>
    <i name="e_fr_energy">  -1129.20992474 </i>
    <i name="e_wo_entrp">  -1129.20833509 </i>
    <i name="e_0_energy">  -1129.20939486 </i>
   </energy>
  </scstep>
  <scstep>
   <time name="dav">   50.92   51.01</time>
   <time name="total">   51.57   51.66</time>
   <energy>
    <i name="e_fr_energy">   -854.43781800 </i>
    <i name="e_wo_entrp">   -854.43553387 </i>
    <i name="e_0_energy">   -854.43705662 </i>
   </energy>
  </scstep>
  <scstep>
   <time name="dav">   53.47   53.56</time>
   <time name="total">   54.11   54.23</time>
   <energy>
    <i name="e_fr_energy">   -681.88811447 </i>
    <i name="e_wo_entrp">   -681.89371814 </i>
    <i name="e_0_energy">   -681.88998236 </i>
   </energy>
  </scstep>
  <scstep>
   <time name="dav">   51.32   51.40</time>
   <time name="total">   51.98   52.05</time>
   <energy>
    <i name="e_fr_energy">   -570.29615193 </i>
    <i name="e_wo_entrp">   -570.29825804 </i>
    <i name="e_0_energy">   -570.29685397 </i>
   </energy>
  </scstep>
  <scstep>
   <time name="dav">   50.38   50.44</time>
   <time name="total">   51.04   51.11</time>
   <energy>
    <i name="e_fr_energy">   -465.08884294 </i>
    <i name="e_wo_entrp">   -465.08098033 </i>
    <i name="e_0_energy">   -465.08622207 </i>
   </energy>
  </scstep>
  <scstep>
   <time name="dav">   54.29   54.35</time>
   <time name="total">   54.94   55.00</time>
   <energy>
    <i name="e_fr_energy">   -380.30031898 </i>
    <i name="e_wo_entrp">   -380.30996091 </i>
    <i name="e_0_energy">   -380.30353296 </i>
   </energy>
  </scstep>
  <scstep>
   <time name="dav">   52.12   52.20</time>
   <time name="total">   52.77   52.87</time>
   <energy>
    <i name="e_fr_energy">   -346.75821704 </i>
    <i name="e_wo_entrp">   -346.75301413 </i>
    <i name="e_0_energy">   -346.75648274 </i>
   </energy>
  </scstep>
  <scstep>
   <time name="dav">   53.43   53.48</time>
   <time name="total">   54.08   54.15</time>
   <energy>
    <i name="e_fr_energy">   -327.47323589 </i>
    <i name="e_wo_entrp">   -327.46326939 </i>
    <i name="e_0_energy">   -327.46991372 </i>
   </energy>
  </scstep>
  <scstep>
   <time name="dav">   50.72   50.77</time>
   <time name="total">   51.38   51.44</time>
   <energy>
    <i name="e_fr_energy">   -314.66608799 </i>
    <i name="e_wo_entrp">   -314.64680866 </i>
    <i name="e_0_energy">   -314.65966155 </i>
   </energy>
  </scstep>
  <scstep>
   <time name="dav">   52.71   52.85</time>
   <time name="total">   53.36   53.50</time>
   <energy>
    <i name="e_fr_energy">   -311.82264060 </i>
    <i name="e_wo_entrp">   -311.80607561 </i>
    <i name="e_0_energy">   -311.81711894 </i>
   </energy>
  </scstep>
  <scstep>
   <time name="dav">   46.91   46.96</time>
   <time name="total">   47.59   47.66</time>
   <energy>
    <i name="e_fr_energy">   -348.90643145 </i>
    <i name="e_wo_entrp">   -348.89672479 </i>
    <i name="e_0_energy">   -348.90319590 </i>
   </energy>
  </scstep>
  <scstep>
   <time name="dav">   52.28   52.33</time>
   <time name="total">   52.93   52.99</time>
   <energy>
    <i name="e_fr_energy">   -345.40125197 </i>
    <i name="e_wo_entrp">   -345.38836296 </i>
    <i name="e_0_energy">   -345.39695563 </i>
   </energy>
  </scstep>
  <scstep>
   <time name="dav">   50.95   51.00</time>
   <time name="total">   51.60   51.66</time>
   <energy>
    <i name="e_fr_energy">   -330.08484981 </i>
    <i name="e_wo_entrp">   -330.08285899 </i>
    <i name="e_0_energy">   -330.08418620 </i>
   </energy>
  </scstep>
  <scstep>
   <time name="dav">   50.07   50.12</time>
   <time name="total">   50.72   50.78</time>
   <energy>
    <i name="e_fr_energy">   -308.11440948 </i>
    <i name="e_wo_entrp">   -308.09224483 </i>
    <i name="e_0_energy">   -308.10702126 </i>
   </energy>
  </scstep>
  <scstep>
   <time name="dav">   52.33   52.39</time>
   <time name="total">   52.98   53.05</time>
   <energy>
    <i name="e_fr_energy">   -307.72389319 </i>
    <i name="e_wo_entrp">   -307.70840487 </i>
    <i name="e_0_energy">   -307.71873042 </i>
   </energy>
  </scstep>
  <scstep>
   <time name="dav">   48.62   48.75</time>
   <time name="total">   49.26   49.40</time>
   <energy>
    <i name="e_fr_energy">   -306.65813079 </i>
    <i name="e_wo_entrp">   -306.63378738 </i>
    <i name="e_0_energy">   -306.65001632 </i>
   </energy>
  </scstep>
  <scstep>
   <time name="dav">   50.93   51.07</time>
   <time name="total">   51.60   51.74</time>
   <energy>
    <i name="e_fr_energy">   -306.38064524 </i>
    <i name="e_wo_entrp">   -306.35952364 </i>
    <i name="e_0_energy">   -306.37360471 </i>
   </energy>
  </scstep>
  <scstep>
   <time name="dav">   50.96   51.08</time>
   <time name="total">   51.60   51.73</time>
   <energy>
    <i name="e_fr_energy">   -306.16764340 </i>
    <i name="e_wo_entrp">   -306.14378434 </i>
    <i name="e_0_energy">   -306.15969038 </i>
   </energy>
  </scstep>
  <scstep>
   <time name="dav">   48.37   48.43</time>
   <time name="total">   49.03   49.10</time>
   <energy>
    <i name="e_fr_energy">   -306.26837473 </i>
    <i name="e_wo_entrp">   -306.24298469 </i>
    <i name="e_0_energy">   -306.25991138 </i>
   </energy>
  </scstep>
  <scstep>
   <time name="dav">   50.12   50.25</time>
   <time name="total">   50.76   50.90</time>
   <energy>
    <i name="e_fr_energy">   -306.24760977 </i>
    <i name="e_wo_entrp">   -306.22001992 </i>
    <i name="e_0_energy">   -306.23841315 </i>
   </energy>
  </scstep>
  <scstep>
   <time name="dav">   46.12   46.23</time>
   <time name="total">   46.78   46.91</time>
   <energy>
    <i name="e_fr_energy">   -306.26525607 </i>
    <i name="e_wo_entrp">   -306.24211601 </i>
    <i name="e_0_energy">   -306.25754272 </i>
   </energy>
  </scstep>
  <scstep>
   <time name="dav">   51.10   51.16</time>
   <time name="total">   51.76   51.82</time>
   <energy>
    <i name="e_fr_energy">   -306.31544926 </i>
    <i name="e_wo_entrp">   -306.29911354 </i>
    <i name="e_0_energy">   -306.31000402 </i>
   </energy>
  </scstep>
  <scstep>
   <time name="dav">   51.18   51.23</time>
   <time name="total">   51.84   51.91</time>
   <energy>
    <i name="e_fr_energy">   -306.21487675 </i>
    <i name="e_wo_entrp">   -306.19692606 </i>
    <i name="e_0_energy">   -306.20889319 </i>
   </energy>
  </scstep>
  <scstep>
   <time name="dav">   46.92   46.97</time>
   <time name="total">   47.58   47.63</time>
   <energy>
    <i name="e_fr_energy">   -306.12290925 </i>
    <i name="e_wo_entrp">   -306.10084421 </i>
    <i name="e_0_energy">   -306.11555424 </i>
   </energy>
  </scstep>
  <scstep>
   <time name="dav">   50.60   50.74</time>
   <time name="total">   51.26   51.41</time>
   <energy>
    <i name="e_fr_energy">   -306.14043490 </i>
    <i name="e_wo_entrp">   -306.12046911 </i>
    <i name="e_0_energy">   -306.13377963 </i>
   </energy>
  </scstep>
  <scstep>
   <time name="dav">   52.72   52.77</time>
   <time name="total">   53.37   53.43</time>
   <energy>
    <i name="e_fr_energy">   -306.14339710 </i>
    <i name="e_wo_entrp">   -306.12400262 </i>
    <i name="e_0_energy">   -306.13693227 </i>
   </energy>
  </scstep>
  <scstep>
   <time name="dav">   47.95   48.00</time>
   <time name="total">   48.62   48.71</time>
   <energy>
    <i name="e_fr_energy">   -306.08265886 </i>
    <i name="e_wo_entrp">   -306.06120554 </i>
    <i name="e_0_energy">   -306.07550775 </i>
   </energy>
  </scstep>
  <scstep>
   <time name="dav">   48.65   48.70</time>
   <time name="total">   49.29   49.35</time>
   <energy>
    <i name="e_fr_energy">   -306.04422567 </i>
    <i name="e_wo_entrp">   -306.02097578 </i>
    <i name="e_0_energy">   -306.03647571 </i>
   </energy>
  </scstep>
  <scstep>
   <time name="dav">   47.01   47.06</time>
   <time name="total">   47.66   47.72</time>
   <energy>
    <i name="e_fr_energy">   -306.04734848 </i>
    <i name="e_wo_entrp">   -306.02514799 </i>
    <i name="e_0_energy">   -306.03994832 </i>
   </energy>
  </scstep>
  <scstep>
   <time name="dav">   48.67   48.72</time>
   <time name="total">   49.32   49.38</time>
   <energy>
    <i name="e_fr_energy">   -306.03773882 </i>
    <i name="e_wo_entrp">   -306.01530033 </i>
    <i name="e_0_energy">   -306.03025932 </i>
   </energy>
  </scstep>
  <scstep>
   <time name="dav">   43.43   43.48</time>
   <time name="total">   44.09   44.14</time>
   <energy>
    <i name="e_fr_energy">   -306.02907966 </i>
    <i name="e_wo_entrp">   -306.00635787 </i>
    <i name="e_0_energy">   -306.02150573 </i>
   </energy>
  </scstep>
  <scstep>
   <time name="dav">   44.24   44.29</time>
   <time name="total">   44.90   44.95</time>
   <energy>
    <i name="e_fr_energy">   -306.02672321 </i>
    <i name="e_wo_entrp">   -306.00391351 </i>
    <i name="e_0_energy">   -306.01911998 </i>
   </energy>
  </scstep>
  <scstep>
   <time name="dav">   46.95   47.00</time>
   <time name="total">   47.62   47.67</time>
   <energy>
    <i name="e_fr_energy">   -306.02514003 </i>
    <i name="e_wo_entrp">   -306.00241193 </i>
    <i name="e_0_energy">   -306.01756399 </i>
   </energy>
  </scstep>
  <scstep>
   <time name="dav">   43.56   43.60</time>
   <time name="total">   44.22   44.26</time>
   <energy>
    <i name="e_fr_energy">   -306.02033672 </i>
    <i name="e_wo_entrp">   -305.99727671 </i>
    <i name="e_0_energy">   -306.01265005 </i>
   </energy>
  </scstep>
  <scstep>
   <time name="dav">   49.98   50.03</time>
   <time name="total">   50.64   50.70</time>
   <energy>
    <i name="e_fr_energy">   -306.01910459 </i>
    <i name="e_wo_entrp">   -305.99615675 </i>
    <i name="e_0_energy">   -306.01145531 </i>
   </energy>
  </scstep>
  <scstep>
   <time name="dav">   47.40   47.45</time>
   <time name="total">   48.05   48.10</time>
   <energy>
    <i name="e_fr_energy">   -306.01845863 </i>
    <i name="e_wo_entrp">   -305.99530637 </i>
    <i name="e_0_energy">   -306.01074121 </i>
   </energy>
  </scstep>
  <scstep>
   <time name="dav">   50.23   50.29</time>
   <time name="total">   50.90   50.96</time>
   <energy>
    <i name="e_fr_energy">   -306.01775297 </i>
    <i name="e_wo_entrp">   -305.99456974 </i>
    <i name="e_0_energy">   -306.01002523 </i>
   </energy>
  </scstep>
  <scstep>
   <time name="dav">   47.59   47.64</time>
   <time name="total">   48.25   48.30</time>
   <energy>
    <i name="e_fr_energy">   -306.01705284 </i>
    <i name="e_wo_entrp">   -305.99367423 </i>
    <i name="e_0_energy">   -306.00925997 </i>
   </energy>
  </scstep>
  <scstep>
   <time name="dav">   38.25   38.29</time>
   <time name="total">   38.91   38.95</time>
   <energy>
    <i name="e_fr_energy">   -306.01677825 </i>
    <i name="e_wo_entrp">   -305.99327532 </i>
    <i name="e_0_energy">   -306.00894394 </i>
   </energy>
  </scstep>
  <scstep>
   <time name="dav">   44.79   44.88</time>
   <time name="total">   45.44   45.54</time>
   <energy>
    <i name="e_fr_energy">   -306.01676526 </i>
    <i name="e_wo_entrp">   -305.99314983 </i>
    <i name="e_0_energy">   -306.00889345 </i>
   </energy>
  </scstep>
  <scstep>
   <time name="dav">   44.04   44.09</time>
   <time name="total">   44.70   44.75</time>
   <energy>
    <i name="e_fr_energy">   -308.71476205 </i>
    <i name="e_wo_entrp">   -308.70790980 </i>
    <i name="e_0_energy">   -308.71247796 </i>
   </energy>
  </scstep>
  <scstep>
   <time name="dav">   44.20   44.25</time>
   <time name="total">   44.86   44.91</time>
   <energy>
    <i name="e_fr_energy">   -307.01176445 </i>
    <i name="e_wo_entrp">   -306.99564063 </i>
    <i name="e_0_energy">   -307.00638984 </i>
   </energy>
  </scstep>
  <scstep>
   <time name="dav">   46.55   46.63</time>
   <time name="total">   47.22   47.30</time>
   <energy>
    <i name="e_fr_energy">   -306.51307862 </i>
    <i name="e_wo_entrp">   -306.48621220 </i>
    <i name="e_0_energy">   -306.50412315 </i>
   </energy>
  </scstep>
  <scstep>
   <time name="dav">   50.81   50.89</time>
   <time name="total">   51.47   51.55</time>
   <energy>
    <i name="e_fr_energy">   -306.36815061 </i>
    <i name="e_wo_entrp">   -306.34128969 </i>
    <i name="e_0_energy">   -306.35919697 </i>
   </energy>
  </scstep>
  <scstep>
   <time name="dav">   51.48   51.53</time>
   <time name="total">   51.56   51.62</time>
   <energy>
    <i name="alphaZ">   1173.71499705 </i>
    <i name="ewald"> -11004.87382273 </i>
    <i name="hartreedc">  -3164.88879570 </i>
    <i name="XCdc">   -842.71567652 </i>
    <i name="pawpsdc">  21270.38332934 </i>
    <i name="pawaedc"> -19806.24566939 </i>
    <i name="eentropy">     -0.02646601 </i>
    <i name="bandstr">   -766.97862129 </i>
    <i name="atom">  12835.31476492 </i>
    <i name="e_fr_energy">   -306.31596033 </i>
    <i name="e_wo_entrp">   -306.28949432 </i>
    <i name="e_0_energy">   -306.30713833 </i>
   </energy>
  </scstep>
  <structure>
   <crystal>
    <varray name="basis" >
     <v>      -3.16000000      -3.16000000      -3.16000000 </v>
     <v>       1.58000000       1.58000000      -7.90000000 </v>
     <v>       7.90000000      -7.90000000      -1.58000000 </v>
    </varray>
    <i name="volume">    473.31744000 </i>
    <varray name="rec_basis" >
     <v>      -0.13713080      -0.12658228      -0.05274262 </v>
     <v>       0.04219409       0.06329114      -0.10548523 </v>
     <v>       0.06329114      -0.06329114       0.00000000 </v>
    </varray>
   </crystal>
   <varray name="positions" >
    <v>       0.96666667       0.93333333       0.40000000 </v>
    <v>       0.63333333       0.26666667       0.40000000 </v>
    <v>       0.50000000       0.00000000       0.00000000 </v>
    <v>       0.00000000       0.00000000       0.00000000 </v>
    <v>       0.10000000       0.20000000       0.80000000 </v>
    <v>       0.03333333       0.06666667       0.60000000 </v>
    <v>       0.90000000       0.80000000       0.20000000 </v>
    <v>       0.80000000       0.60000000       0.40000000 </v>
    <v>       0.73333333       0.46666667       0.20000000 </v>
    <v>       0.66666667       0.33333333       0.00000000 </v>
    <v>       0.36666667       0.73333333       0.60000000 </v>
    <v>       0.13333333       0.26666667       0.40000000 </v>
    <v>       0.83333333       0.66666667       0.00000000 </v>
    <v>       0.93333333       0.86666667       0.80000000 </v>
    <v>       0.56666667       0.13333333       0.20000000 </v>
    <v>       0.40000000       0.80000000       0.20000000 </v>
    <v>       0.43333333       0.86666667       0.80000000 </v>
    <v>       0.30000000       0.60000000       0.40000000 </v>
    <v>       0.86666667       0.73333333       0.60000000 </v>
    <v>       0.46666667       0.93333333       0.40000000 </v>
    <v>       0.16666667       0.33333333       0.00000000 </v>
    <v>       0.26666667       0.53333333       0.80000000 </v>
    <v>       0.20000000       0.40000000       0.60000000 </v>
    <v>       0.06666667       0.13333333       0.20000000 </v>
    <v>       0.76666667       0.53333333       0.80000000 </v>
    <v>       0.70000000       0.40000000       0.60000000 </v>
    <v>       0.60000000       0.20000000       0.80000000 </v>
    <v>       0.53333333       0.06666667       0.60000000 </v>
    <v>       0.33333333       0.66666667       0.00000000 </v>
   </varray>
  </structure>
  <varray name="forces" >
   <v>      -0.24101350       0.56797228       0.33533380 </v>
   <v>       0.17908062      -0.24642759       0.01381686 </v>
   <v>       0.26921944      -0.00545986      -0.15222263 </v>
   <v>       0.39694684      -0.33082384       0.05411911 </v>
   <v>       0.12124107       0.59596692      -0.62050554 </v>
   <v>      -0.44272115       0.14440866      -0.15757505 </v>
   <v>       0.15067074      -0.52703727       0.33405501 </v>
   <v>      -0.65843854      -0.08930665       0.66985977 </v>
   <v>      -0.10328392       0.21231783      -0.09970605 </v>
   <v>       0.09155945       0.17494025      -0.92609855 </v>
   <v>      -0.07602057      -0.40411367       0.27541506 </v>
   <v>       0.19919618       0.45773362      -0.70866831 </v>
   <v>       0.32019359      -0.37483536       0.53503868 </v>
   <v>       0.06454230       0.00064641       0.08016939 </v>
   <v>      -0.10980625       0.61045650      -0.64699520 </v>
   <v>      -0.85249451      -0.17080524       0.74851170 </v>
   <v>      -1.02555416      -0.08541157       0.90487621 </v>
   <v>       0.05292522      -0.03170543      -0.07260114 </v>
   <v>      -0.07625710       0.26862671       0.51787068 </v>
   <v>       0.45740996      -0.53254735       0.22036893 </v>
   <v>       0.42016269      -0.19044595      -0.38424502 </v>
   <v>       0.06742055      -0.00819969      -0.53643783 </v>
   <v>      -0.48192544       0.29045686       0.51745342 </v>
   <v>       0.78345734       0.00307879      -0.31930816 </v>
   <v>       0.19067942      -0.45504662       0.34592035 </v>
   <v>       0.35258006       0.48907423      -0.79112732 </v>
   <v>       0.25082015       0.21264221      -0.23285490 </v>
   <v>       0.02754447      -0.17175308      -0.26506297 </v>
   <v>      -0.32813494      -0.40440210       0.36059968 </v>
  </varray>
  <varray name="stress" >
   <v>      36.26598493       7.16234783      16.99366962 </v>
   <v>       7.16234784      32.94338135       3.33717606 </v>
   <v>      16.99366954       3.33717599      31.65690678 </v>
  </varray>
  <energy>
   <i name="e_fr_energy">   -306.31596033 </i>
   <i name="e_wo_entrp">   -306.30713833 </i>
   <i name="e_0_energy">     -0.02646601 </i>
  </energy>
  <time name="totalsc"> 3022.61 3027.30</time>
 </calculation>
 <calculation>
  <scstep>
   <time name="dav">   40.17   40.22</time>
   <time name="total">   40.83   40.89</time>
   <energy>
    <i name="alphaZ">   1117.49777267 </i>
    <i name="ewald"> -10895.88385528 </i>
    <i name="hartreedc">  -3057.10765535 </i>
    <i name="XCdc">   -848.59546495 </i>
    <i name="pawpsdc">  18895.09745046 </i>
    <i name="pawaedc"> -17427.82080262 </i>
    <i name="eentropy">     -0.03485877 </i>
    <i name="bandstr">   -927.06061493 </i>
    <i name="atom">  12835.31476492 </i>
    <i name="e_fr_energy">   -308.59326387 </i>
    <i name="e_wo_entrp">   -308.55840510 </i>
    <i name="e_0_energy">   -308.58164428 </i>
   </energy>
  </scstep>
  <scstep>
   <time name="dav">   50.89   50.94</time>
   <time name="total">   51.54   51.59</time>
   <energy>
    <i name="e_fr_energy">   -310.76404815 </i>
    <i name="e_wo_entrp">   -310.73527994 </i>
    <i name="e_0_energy">   -310.75445875 </i>
   </energy>
  </scstep>
  <scstep>
   <time name="dav">   50.85   50.91</time>
   <time name="total">   51.52   51.58</time>
   <energy>
    <i name="e_fr_energy">   -309.48723850 </i>
    <i name="e_wo_entrp">   -309.47120464 </i>
    <i name="e_0_energy">   -309.48189388 </i>
   </energy>
  </scstep>
  <scstep>
   <time name="dav">   47.55   47.60</time>
   <time name="total">   48.21   48.26</time>
   <energy>
    <i name="e_fr_energy">   -309.10337762 </i>
    <i name="e_wo_entrp">   -309.08253577 </i>
    <i name="e_0_energy">   -309.09643033 </i>
   </energy>
  </scstep>
  <scstep>
   <time name="dav">   50.22   50.31</time>
   <time name="total">   50.87   50.98</time>
   <energy>
    <i name="e_fr_energy">   -307.03590167 </i>
    <i name="e_wo_entrp">   -307.01897183 </i>
    <i name="e_0_energy">   -307.03025839 </i>
   </energy>
  </scstep>
  <scstep>
   <time name="dav">   50.59   50.66</time>
   <time name="total">   51.24   51.32</time>
   <energy>
    <i name="e_fr_energy">   -306.37767888 </i>
    <i name="e_wo_entrp">   -306.36729755 </i>
    <i name="e_0_energy">   -306.37421843 </i>
   </energy>
  </scstep>
  <scstep>
   <time name="dav">   48.47   48.53</time>
   <time name="total">   49.13   49.19</time>
   <energy>
    <i name="e_fr_energy">   -306.10274414 </i>
    <i name="e_wo_entrp">   -306.07625399 </i>
    <i name="e_0_energy">   -306.09391409 </i>
   </energy>
  </scstep>
  <scstep>
   <time name="dav">   49.10   49.16</time>
   <time name="total">   49.76   49.83</time>
   <energy>
    <i name="e_fr_energy">   -305.87089666 </i>
    <i name="e_wo_entrp">   -305.85002574 </i>
    <i name="e_0_energy">   -305.86393969 </i>
   </energy>
  </scstep>
  <scstep>
   <time name="dav">   47.81   47.87</time>
   <time name="total">   48.47   48.53</time>
   <energy>
    <i name="e_fr_energy">   -305.78238376 </i>
    <i name="e_wo_entrp">   -305.75582454 </i>
    <i name="e_0_energy">   -305.77353069 </i>
   </energy>
  </scstep>
  <scstep>
   <time name="dav">   46.57   46.62</time>
   <time name="total">   47.22   47.27</time>
   <energy>
    <i name="e_fr_energy">   -305.74384798 </i>
    <i name="e_wo_entrp">   -305.71644918 </i>
    <i name="e_0_energy">   -305.73471505 </i>
   </energy>
  </scstep>
  <scstep>
   <time name="dav">   48.04   48.10</time>
   <time name="total">   48.71   48.77</time>
   <energy>
    <i name="e_fr_energy">   -305.72682042 </i>
    <i name="e_wo_entrp">   -305.69779361 </i>
    <i name="e_0_energy">   -305.71714482 </i>
   </energy>
  </scstep>
  <scstep>
   <time name="dav">   47.04   47.09</time>
   <time name="total">   47.67   47.75</time>
   <energy>
    <i name="e_fr_energy">   -305.73078844 </i>
    <i name="e_wo_entrp">   -305.70222016 </i>
    <i name="e_0_energy">   -305.72126568 </i>
   </energy>
  </scstep>
  <scstep>
   <time name="dav">   48.57   48.62</time>
   <time name="total">   49.23   49.29</time>
   <energy>
    <i name="e_fr_energy">   -305.71177240 </i>
    <i name="e_wo_entrp">   -305.68279184 </i>
    <i name="e_0_energy">   -305.70211221 </i>
   </energy>
  </scstep>
  <scstep>
   <time name="dav">   50.31   50.36</time>
   <time name="total">   50.97   51.03</time>
   <energy>
    <i name="e_fr_energy">   -305.70603229 </i>
    <i name="e_wo_entrp">   -305.67692093 </i>
    <i name="e_0_energy">   -305.69632850 </i>
   </energy>
  </scstep>
  <scstep>
   <time name="dav">   49.73   49.79</time>
   <time name="total">   50.39   50.45</time>
   <energy>
    <i name="e_fr_energy">   -305.70568149 </i>
    <i name="e_wo_entrp">   -305.67677608 </i>
    <i name="e_0_energy">   -305.69604636 </i>
   </energy>
  </scstep>
  <scstep>
   <time name="dav">   45.06   45.10</time>
   <time name="total">   45.71   45.76</time>
   <energy>
    <i name="e_fr_energy">   -305.70523749 </i>
    <i name="e_wo_entrp">   -305.67611681 </i>
    <i name="e_0_energy">   -305.69553060 </i>
   </energy>
  </scstep>
  <scstep>
   <time name="dav">   45.99   46.04</time>
   <time name="total">   46.64   46.70</time>
   <energy>
    <i name="e_fr_energy">   -305.70401838 </i>
    <i name="e_wo_entrp">   -305.67507568 </i>
    <i name="e_0_energy">   -305.69437081 </i>
   </energy>
  </scstep>
  <scstep>
   <time name="dav">   46.98   47.02</time>
   <time name="total">   47.63   47.68</time>
   <energy>
    <i name="e_fr_energy">   -305.70394163 </i>
    <i name="e_wo_entrp">   -305.67487172 </i>
    <i name="e_0_energy">   -305.69425166 </i>
   </energy>
  </scstep>
  <scstep>
   <time name="dav">   43.25   43.30</time>
   <time name="total">   43.89   43.96</time>
   <energy>
    <i name="e_fr_energy">   -305.70386908 </i>
    <i name="e_wo_entrp">   -305.67480228 </i>
    <i name="e_0_energy">   -305.69418015 </i>
   </energy>
  </scstep>
  <scstep>
   <time name="dav">   28.42   28.45</time>
   <time name="total">   28.49   28.52</time>
   <energy>
    <i name="alphaZ">   1117.49777267 </i>
    <i name="ewald"> -10895.88385528 </i>
    <i name="hartreedc">  -3136.22464642 </i>
    <i name="XCdc">   -846.80504643 </i>
    <i name="pawpsdc">  17621.05303882 </i>
    <i name="pawaedc"> -16159.22494415 </i>
    <i name="eentropy">     -0.02910122 </i>
    <i name="bandstr">   -841.40180791 </i>
    <i name="atom">  12835.31476492 </i>
    <i name="e_fr_energy">   -305.70382501 </i>
    <i name="e_wo_entrp">   -305.67472379 </i>
    <i name="e_0_energy">   -305.69412460 </i>
   </energy>
  </scstep>
  <structure>
   <crystal>
    <varray name="basis" >
     <v>      -3.25383337      -3.22746539      -3.24073526 </v>
     <v>       1.54774487       1.59818513      -8.00711876 </v>
     <v>       7.99979716      -8.00268399      -1.55156086 </v>
    </varray>
    <i name="volume">    497.12830869 </i>
    <varray name="rec_basis" >
     <v>      -0.13388520      -0.12402011      -0.05063335 </v>
     <v>       0.04209571       0.06230533      -0.10431606 </v>
     <v>       0.06240239      -0.06249827      -0.00041224 </v>
    </varray>
   </crystal>
   <varray name="positions" >
    <v>       0.96393945       0.93287047       0.39752990 </v>
    <v>       0.63361831       0.26620846       0.40129922 </v>
    <v>       0.49863963       0.00130598       0.00083869 </v>
    <v>      -0.00074350      -0.00047751       0.00222213 </v>
    <v>       0.09713739       0.20522416       0.79855050 </v>
    <v>       0.03578126       0.06700830       0.59820730 </v>
    <v>       0.90137169       0.79699751       0.20206927 </v>
    <v>       0.80319688       0.59497819       0.39826225 </v>
    <v>       0.73297375       0.46761210       0.19903636 </v>
    <v>       0.66734906       0.33876667      -0.00025459 </v>
    <v>       0.36893660       0.73054314       0.60100178 </v>
    <v>       0.13102348       0.27207609       0.39921060 </v>
    <v>       0.83214269       0.66345119       0.00212215 </v>
    <v>       0.93269841       0.86639205       0.80019510 </v>
    <v>       0.56531149       0.13826623       0.19780080 </v>
    <v>       0.40477823       0.79393408       0.19791858 </v>
    <v>       0.43833711       0.85971349       0.79712943 </v>
    <v>       0.30002821       0.60038038       0.40025841 </v>
    <v>       0.86421305       0.73136293       0.59894696 </v>
    <v>       0.46633202       0.93151694       0.40302267 </v>
    <v>       0.16602774       0.33556248       0.00186439 </v>
    <v>       0.26763565       0.53617540       0.80023089 </v>
    <v>       0.20009785       0.39727261       0.59764166 </v>
    <v>       0.06227733       0.13656242       0.20238276 </v>
    <v>       0.76730386       0.53057171       0.80197162 </v>
    <v>       0.69669385       0.40623696       0.59958324 </v>
    <v>       0.59763464       0.20234480       0.80011657 </v>
    <v>       0.53487438       0.06754719       0.60060852 </v>
    <v>       0.33705615       0.66292891       0.00023287 </v>
   </varray>
  </structure>
  <varray name="forces" >
   <v>      -0.01887742       0.29393294       0.19542802 </v>
   <v>       0.12089016      -0.19706278      -0.00805672 </v>
   <v>      -0.15929712       0.16600925      -0.10240693 </v>
   <v>       0.14137271       0.07530027      -0.01082740 </v>
   <v>      -0.15673187       0.24706876      -0.15367867 </v>
   <v>      -0.00862023       0.01914420      -0.17380011 </v>
   <v>       0.15436112      -0.14882840       0.10119570 </v>
   <v>      -0.24468964      -0.08662623       0.35026551 </v>
   <v>       0.02071464       0.14181390       0.01244786 </v>
   <v>      -0.23746774       0.27575743      -0.21385412 </v>
   <v>      -0.10205617      -0.20816629       0.22038341 </v>
   <v>       0.23672657      -0.01266075      -0.27633192 </v>
   <v>       0.19342236       0.05833055      -0.08366123 </v>
   <v>       0.25803555       0.26089391      -0.20769129 </v>
   <v>       0.01736208       0.23087426      -0.29481138 </v>
   <v>      -0.36525209      -0.09274563       0.16654153 </v>
   <v>      -0.26643786       0.10138178       0.20238382 </v>
   <v>       0.05662165      -0.15482507      -0.07568550 </v>
   <v>      -0.00050787       0.17091068       0.25807143 </v>
   <v>       0.20261033      -0.16952224       0.10746742 </v>
   <v>      -0.08842837      -0.09983988      -0.28684900 </v>
   <v>      -0.21213485      -0.19386931      -0.06582301 </v>
   <v>      -0.31335352      -0.01412406       0.45335643 </v>
   <v>       0.43854588      -0.09395232      -0.13926294 </v>
   <v>       0.10237615      -0.31052948       0.46457567 </v>
   <v>       0.39375588       0.16683631      -0.26192225 </v>
   <v>       0.01443822       0.18298224      -0.06029718 </v>
   <v>       0.19172820      -0.40768048      -0.36847000 </v>
   <v>      -0.36910676      -0.20080355       0.25131284 </v>
  </varray>
  <varray name="stress" >
   <v>     -92.62846265       1.29814758       3.02063193 </v>
   <v>       1.29814752     -92.00969211      -1.97029281 </v>
   <v>       3.02063192      -1.97029284     -91.03453972 </v>
  </varray>
  <energy>
   <i name="e_fr_energy">   -305.70382501 </i>
   <i name="e_wo_entrp">   -305.69412460 </i>
   <i name="e_0_energy">     -0.02910122 </i>
  </energy>
  <time name="totalsc">  967.04  968.32</time>
 </calculation>
 <calculation>
  <scstep>
   <time name="dav">   40.09   40.16</time>
   <time name="total">   40.75   40.83</time>
   <energy>
    <i name="alphaZ">   1143.15840533 </i>
    <i name="ewald"> -10947.74484997 </i>
    <i name="hartreedc">  -3190.00959646 </i>
    <i name="XCdc">   -843.70849418 </i>
    <i name="pawpsdc">  17621.30428324 </i>
    <i name="pawaedc"> -16159.47817219 </i>
    <i name="eentropy">     -0.02459637 </i>
    <i name="bandstr">   -765.32156809 </i>
    <i name="atom">  12835.31476492 </i>
    <i name="e_fr_energy">   -306.50982378 </i>
    <i name="e_wo_entrp">   -306.48522741 </i>
    <i name="e_0_energy">   -306.50162499 </i>
   </energy>
  </scstep>
  <scstep>
   <time name="dav">   50.71   50.82</time>
   <time name="total">   51.37   51.48</time>
   <energy>
    <i name="e_fr_energy">   -307.21521673 </i>
    <i name="e_wo_entrp">   -307.20613351 </i>
    <i name="e_0_energy">   -307.21218899 </i>
   </energy>
  </scstep>
  <scstep>
   <time name="dav">   48.70   48.79</time>
   <time name="total">   49.37   49.46</time>
   <energy>
    <i name="e_fr_energy">   -306.68234210 </i>
    <i name="e_wo_entrp">   -306.65516204 </i>
    <i name="e_0_energy">   -306.67328208 </i>
   </energy>
  </scstep>
  <scstep>
   <time name="dav">   47.97   48.03</time>
   <time name="total">   48.62   48.69</time>
   <energy>
    <i name="e_fr_energy">   -306.31216707 </i>
    <i name="e_wo_entrp">   -306.29170407 </i>
    <i name="e_0_energy">   -306.30534607 </i>
   </energy>
  </scstep>
  <scstep>
   <time name="dav">   49.18   49.24</time>
   <time name="total">   49.84   49.91</time>
   <energy>
    <i name="e_fr_energy">   -306.23632139 </i>
    <i name="e_wo_entrp">   -306.21268200 </i>
    <i name="e_0_energy">   -306.22844159 </i>
   </energy>
  </scstep>
  <scstep>
   <time name="dav">   50.40   50.45</time>
   <time name="total">   51.05   51.11</time>
   <energy>
    <i name="e_fr_energy">   -306.10620883 </i>
    <i name="e_wo_entrp">   -306.08073147 </i>
    <i name="e_0_energy">   -306.09771638 </i>
   </energy>
  </scstep>
  <scstep>
   <time name="dav">   50.95   51.01</time>
   <time name="total">   51.60   51.66</time>
   <energy>
    <i name="e_fr_energy">   -306.07412195 </i>
    <i name="e_wo_entrp">   -306.04757939 </i>
    <i name="e_0_energy">   -306.06527443 </i>
   </energy>
  </scstep>
  <scstep>
   <time name="dav">   51.36   51.41</time>
   <time name="total">   52.01   52.07</time>
   <energy>
    <i name="e_fr_energy">   -306.05973834 </i>
    <i name="e_wo_entrp">   -306.03274109 </i>
    <i name="e_0_energy">   -306.05073926 </i>
   </energy>
  </scstep>
  <scstep>
   <time name="dav">   48.88   48.94</time>
   <time name="total">   49.55   49.61</time>
   <energy>
    <i name="e_fr_energy">   -306.05811832 </i>
    <i name="e_wo_entrp">   -306.03176981 </i>
    <i name="e_0_energy">   -306.04933548 </i>
   </energy>
  </scstep>
  <scstep>
   <time name="dav">   48.24   48.32</time>
   <time name="total">   48.89   48.97</time>
   <energy>
    <i name="e_fr_energy">   -306.05222893 </i>
    <i name="e_wo_entrp">   -306.02540790 </i>
    <i name="e_0_energy">   -306.04328859 </i>
   </energy>
  </scstep>
  <scstep>
   <time name="dav">   48.83   48.89</time>
   <time name="total">   49.49   49.55</time>
   <energy>
    <i name="e_fr_energy">   -306.05335550 </i>
    <i name="e_wo_entrp">   -306.02705224 </i>
    <i name="e_0_energy">   -306.04458775 </i>
   </energy>
  </scstep>
  <scstep>
   <time name="dav">   48.95   49.00</time>
   <time name="total">   49.61   49.66</time>
   <energy>
    <i name="e_fr_energy">   -306.05508592 </i>
    <i name="e_wo_entrp">   -306.02823186 </i>
    <i name="e_0_energy">   -306.04613457 </i>
   </energy>
  </scstep>
  <scstep>
   <time name="dav">   48.93   48.98</time>
   <time name="total">   49.59   49.65</time>
   <energy>
    <i name="e_fr_energy">   -306.05572561 </i>
    <i name="e_wo_entrp">   -306.02897164 </i>
    <i name="e_0_energy">   -306.04680762 </i>
   </energy>
  </scstep>
  <scstep>
   <time name="dav">   51.11   51.17</time>
   <time name="total">   51.77   51.82</time>
   <energy>
    <i name="e_fr_energy">   -306.05537456 </i>
    <i name="e_wo_entrp">   -306.02861444 </i>
    <i name="e_0_energy">   -306.04645452 </i>
   </energy>
  </scstep>
  <scstep>
   <time name="dav">   48.64   48.73</time>
   <time name="total">   49.29   49.40</time>
   <energy>
    <i name="e_fr_energy">   -306.05528109 </i>
    <i name="e_wo_entrp">   -306.02864941 </i>
    <i name="e_0_energy">   -306.04640386 </i>
   </energy>
  </scstep>
  <scstep>
   <time name="dav">   41.06   41.13</time>
   <time name="total">   41.73   41.80</time>
   <energy>
    <i name="e_fr_energy">   -306.05524031 </i>
    <i name="e_wo_entrp">   -306.02853022 </i>
    <i name="e_0_energy">   -306.04633695 </i>
   </energy>
  </scstep>
  <scstep>
   <time name="dav">   32.62   32.65</time>
   <time name="total">   32.69   32.73</time>
   <energy>
    <i name="alphaZ">   1143.15840533 </i>
    <i name="ewald"> -10947.74484997 </i>
    <i name="hartreedc">  -3149.05107548 </i>
    <i name="XCdc">   -845.08731624 </i>
    <i name="pawpsdc">  18172.60955052 </i>
    <i name="pawaedc"> -16710.77628715 </i>
    <i name="eentropy">     -0.02667553 </i>
    <i name="bandstr">   -804.45174318 </i>
    <i name="atom">  12835.31476492 </i>
    <i name="e_fr_energy">   -306.05522679 </i>
    <i name="e_wo_entrp">   -306.02855127 </i>
    <i name="e_0_energy">   -306.04633495 </i>
   </energy>
  </scstep>
  <structure>
   <crystal>
    <varray name="basis" >
     <v>      -3.21020016      -3.19609349      -3.20319277 </v>
     <v>       1.56274374       1.58972891      -7.95730774 </v>
     <v>       7.95339074      -7.95493518      -1.56478527 </v>
    </varray>
    <i name="volume">    485.96920173 </i>
    <varray name="rec_basis" >
     <v>      -0.13537371      -0.12519769      -0.05159846 </v>
     <v>       0.04214257       0.06276019      -0.10485585 </v>
     <v>       0.06281161      -0.06286472      -0.00022362 </v>
    </varray>
   </crystal>
   <varray name="positions" >
    <v>       0.96517666       0.93308893       0.39866671 </v>
    <v>       0.63348626       0.26641611       0.40070315 </v>
    <v>       0.49926013       0.00070316       0.00045275 </v>
    <v>      -0.00041021      -0.00026333       0.00120312 </v>
    <v>       0.09845481       0.20282461       0.79921061 </v>
    <v>       0.03467435       0.06685579       0.59902806 </v>
    <v>       0.90073736       0.79837361       0.20112251 </v>
    <v>       0.80173169       0.59729237       0.39906497 </v>
    <v>       0.73314099       0.46717955       0.19947770 </v>
    <v>       0.66705884       0.33626849      -0.00014605 </v>
    <v>       0.36789679       0.73182427       0.60054416 </v>
    <v>       0.13209030       0.26958982       0.39956695 </v>
    <v>       0.83266926       0.66492480       0.00115334 </v>
    <v>       0.93298512       0.86651780       0.80010639 </v>
    <v>       0.56594518       0.13600262       0.19880441 </v>
    <v>       0.40259279       0.79672949       0.19887942 </v>
    <v>       0.43604708       0.86291889       0.79845371 </v>
    <v>       0.30001650       0.60020482       0.40013919 </v>
    <v>       0.86531961       0.73227137       0.59943512 </v>
    <v>       0.46647451       0.93234503       0.40163774 </v>
    <v>       0.16632338       0.33453270       0.00100565 </v>
    <v>       0.26720601       0.53486786       0.80012006 </v>
[...]
       <r>    4.7401    1.0000 </r>
       <r>    4.7913    1.0000 </r>
       <r>    4.8579    1.0000 </r>
       <r>    4.8908    1.0000 </r>
       <r>    4.9436    1.0000 </r>
       <r>    5.0130    1.0000 </r>
       <r>    5.0597    1.0000 </r>
       <r>    5.1045    1.0000 </r>
       <r>    5.1681    1.0000 </r>
       <r>    5.2097    1.0000 </r>
       <r>    5.2364    1.0000 </r>
       <r>    5.3202    1.0000 </r>
       <r>    5.3847    1.0000 </r>
       <r>    5.4403    1.0000 </r>
       <r>    5.4995    1.0000 </r>
       <r>    5.5485    1.0000 </r>
       <r>    5.6156    1.0000 </r>
       <r>    5.6457    1.0000 </r>
       <r>    5.7285    1.0000 </r>
       <r>    5.7743    1.0000 </r>
       <r>    5.8058    1.0000 </r>
       <r>    5.8706    1.0000 </r>
       <r>    5.9307    1.0000 </r>
       <r>    5.9868    1.0001 </r>
       <r>    6.0446    1.0005 </r>
       <r>    6.0705    1.0009 </r>
       <r>    6.1520    1.0048 </r>
       <r>    6.2093    1.0122 </r>
       <r>    6.2411    1.0184 </r>
       <r>    6.2784    1.0269 </r>
       <r>    6.3083    1.0329 </r>
       <r>    6.3821    1.0249 </r>
       <r>    6.4224    0.9891 </r>
       <r>    6.4611    0.9211 </r>
       <r>    6.4902    0.8457 </r>
       <r>    6.5435    0.6580 </r>
       <r>    6.5694    0.5515 </r>
       <r>    6.6563    0.2071 </r>
       <r>    6.7363    0.0171 </r>
       <r>    6.8138   -0.0348 </r>
       <r>    6.8311   -0.0354 </r>
       <r>    6.8857   -0.0267 </r>
       <r>    6.9605   -0.0111 </r>
       <r>    7.1378   -0.0003 </r>
       <r>    7.1720   -0.0001 </r>
       <r>    7.3010   -0.0000 </r>
       <r>    7.3678   -0.0000 </r>
       <r>    7.3883   -0.0000 </r>
       <r>    7.5397   -0.0000 </r>
       <r>    7.7241   -0.0000 </r>
       <r>    7.8275   -0.0000 </r>
       <r>    7.9059   -0.0000 </r>
       <r>    8.1325   -0.0000 </r>
       <r>    8.2189   -0.0000 </r>
       <r>    8.3680   -0.0000 </r>
       <r>    8.4729   -0.0000 </r>
       <r>    8.5495   -0.0000 </r>
       <r>    8.6094   -0.0000 </r>
       <r>    8.6807   -0.0000 </r>
       <r>    8.7565   -0.0000 </r>
       <r>    8.7961   -0.0000 </r>
      </set>
     </set>
    </set>
   </array>
  </eigenvalues>
  <separator name="orbital magnetization" >
   <v name="MAGDIPOLOUT">      0.00000000      0.00000000      0.00000000</v>
  </separator>
  <dos>
   <i name="efermi">      6.58163395 </i>
   <total>
    <array>
     <dimension dim="1">gridpoints</dimension>
     <dimension dim="2">spin</dimension>
     <field>energy</field>
     <field>total</field>
     <field>integrated</field>
     <set>
      <set comment="spin 1">
       <r>   -50.2799     0.0000     0.0000 </r>
       <r>   -50.0734     0.0000     0.0000 </r>
       <r>   -49.8669     0.0000     0.0000 </r>
       <r>   -49.6605     0.0000     0.0000 </r>
       <r>   -49.4540     0.0000     0.0000 </r>
       <r>   -49.2475    -0.0000    -0.0000 </r>
       <r>   -49.0410    -0.0000    -0.0000 </r>
       <r>   -48.8346    -0.0000    -0.0000 </r>
       <r>   -48.6281    -0.0000    -0.0000 </r>
       <r>   -48.4216    -0.0000    -0.0000 </r>
       <r>   -48.2152    -0.0000    -0.0000 </r>
       <r>   -48.0087    -0.0048    -0.0010 </r>
       <r>   -47.8022    -0.3227    -0.0676 </r>
       <r>   -47.5958    -0.2955    -0.1286 </r>
       <r>   -47.3893    20.4119     4.0858 </r>
       <r>   -47.1828    33.7320    11.0505 </r>
       <r>   -46.9763     5.5830    12.2032 </r>
       <r>   -46.7699    -0.9405    12.0090 </r>
       <r>   -46.5634    -0.0434    12.0000 </r>
       <r>   -46.3569    -0.0002    12.0000 </r>
       <r>   -46.1505    -0.0000    12.0000 </r>
       <r>   -45.9440    -0.0000    12.0000 </r>
       <r>   -45.7375     0.0000    12.0000 </r>
       <r>   -45.5311     0.0000    12.0000 </r>
       <r>   -45.3246     0.0000    12.0000 </r>
       <r>   -45.1181     0.0000    12.0000 </r>
       <r>   -44.9116     0.0000    12.0000 </r>
       <r>   -44.7052     0.0000    12.0000 </r>
       <r>   -44.4987     0.0000    12.0000 </r>
       <r>   -44.2922     0.0000    12.0000 </r>
       <r>   -44.0858     0.0000    12.0000 </r>
       <r>   -43.8793     0.0000    12.0000 </r>
       <r>   -43.6728     0.0000    12.0000 </r>
       <r>   -43.4664     0.0000    12.0000 </r>
       <r>   -43.2599     0.0000    12.0000 </r>
       <r>   -43.0534     0.0000    12.0000 </r>
       <r>   -42.8469     0.0000    12.0000 </r>
       <r>   -42.6405     0.0000    12.0000 </r>
       <r>   -42.4340     0.0000    12.0000 </r>
       <r>   -42.2275     0.0000    12.0000 </r>
       <r>   -42.0211     0.0000    12.0000 </r>
       <r>   -41.8146     0.0000    12.0000 </r>
       <r>   -41.6081     0.0000    12.0000 </r>
       <r>   -41.4017     0.0000    12.0000 </r>
       <r>   -41.1952     0.0000    12.0000 </r>
       <r>   -40.9887     0.0000    12.0000 </r>
       <r>   -40.7822     0.0000    12.0000 </r>
       <r>   -40.5758     0.0000    12.0000 </r>
       <r>   -40.3693     0.0000    12.0000 </r>
       <r>   -40.1628     0.0000    12.0000 </r>
       <r>   -39.9564     0.0000    12.0000 </r>
       <r>   -39.7499     0.0000    12.0000 </r>
       <r>   -39.5434     0.0000    12.0000 </r>
       <r>   -39.3370     0.0000    12.0000 </r>
       <r>   -39.1305     0.0000    12.0000 </r>
       <r>   -38.9240     0.0000    12.0000 </r>
       <r>   -38.7175     0.0000    12.0000 </r>
       <r>   -38.5111     0.0000    12.0000 </r>
       <r>   -38.3046     0.0000    12.0000 </r>
       <r>   -38.0981     0.0000    12.0000 </r>
       <r>   -37.8917     0.0000    12.0000 </r>
       <r>   -37.6852     0.0000    12.0000 </r>
       <r>   -37.4787     0.0000    12.0000 </r>
       <r>   -37.2723     0.0000    12.0000 </r>
       <r>   -37.0658     0.0000    12.0000 </r>
       <r>   -36.8593     0.0000    12.0000 </r>
       <r>   -36.6528     0.0000    12.0000 </r>
       <r>   -36.4464     0.0000    12.0000 </r>
       <r>   -36.2399     0.0000    12.0000 </r>
       <r>   -36.0334     0.0000    12.0000 </r>
       <r>   -35.8270     0.0000    12.0000 </r>
       <r>   -35.6205     0.0000    12.0000 </r>
       <r>   -35.4140     0.0000    12.0000 </r>
       <r>   -35.2076     0.0000    12.0000 </r>
       <r>   -35.0011     0.0000    12.0000 </r>
       <r>   -34.7946     0.0000    12.0000 </r>
       <r>   -34.5881     0.0000    12.0000 </r>
       <r>   -34.3817     0.0000    12.0000 </r>
       <r>   -34.1752     0.0000    12.0000 </r>
       <r>   -33.9687     0.0000    12.0000 </r>
       <r>   -33.7623     0.0000    12.0000 </r>
       <r>   -33.5558     0.0000    12.0000 </r>
       <r>   -33.3493     0.0000    12.0000 </r>
       <r>   -33.1428     0.0000    12.0000 </r>
       <r>   -32.9364     0.0000    12.0000 </r>
       <r>   -32.7299     0.0000    12.0000 </r>
       <r>   -32.5234     0.0000    12.0000 </r>
       <r>   -32.3170     0.0000    12.0000 </r>
       <r>   -32.1105     0.0000    12.0000 </r>
       <r>   -31.9040     0.0000    12.0000 </r>
       <r>   -31.6976     0.0000    12.0000 </r>
       <r>   -31.4911     0.0000    12.0000 </r>
       <r>   -31.2846     0.0000    12.0000 </r>
       <r>   -31.0781     0.0000    12.0000 </r>
       <r>   -30.8717     0.0000    12.0000 </r>
       <r>   -30.6652     0.0000    12.0000 </r>
       <r>   -30.4587     0.0000    12.0000 </r>
       <r>   -30.2523     0.0000    12.0000 </r>
       <r>   -30.0458     0.0000    12.0000 </r>
       <r>   -29.8393     0.0000    12.0000 </r>
       <r>   -29.6329     0.0000    12.0000 </r>
       <r>   -29.4264     0.0000    12.0000 </r>
       <r>   -29.2199     0.0000    12.0000 </r>
       <r>   -29.0134     0.0000    12.0000 </r>
       <r>   -28.8070     0.0000    12.0000 </r>
       <r>   -28.6005     0.0000    12.0000 </r>
       <r>   -28.3940     0.0000    12.0000 </r>
       <r>   -28.1876     0.0000    12.0000 </r>
       <r>   -27.9811     0.0000    12.0000 </r>
       <r>   -27.7746     0.0000    12.0000 </r>
       <r>   -27.5682     0.0000    12.0000 </r>
       <r>   -27.3617     0.0000    12.0000 </r>
       <r>   -27.1552     0.0000    12.0000 </r>
       <r>   -26.9487     0.0000    12.0000 </r>
       <r>   -26.7423     0.0000    12.0000 </r>
       <r>   -26.5358     0.0000    12.0000 </r>
       <r>   -26.3293     0.0000    12.0000 </r>
       <r>   -26.1229     0.0000    12.0000 </r>
       <r>   -25.9164    -0.0000    12.0000 </r>
       <r>   -25.7099    -0.0000    12.0000 </r>
       <r>   -25.5035    -0.0000    12.0000 </r>
       <r>   -25.2970    -0.0000    12.0000 </r>
       <r>   -25.0905    -0.0000    12.0000 </r>
       <r>   -24.8840    -0.0000    12.0000 </r>
       <r>   -24.6776    -0.0026    11.9995 </r>
       <r>   -24.4711    -0.1536    11.9677 </r>
       <r>   -24.2646     0.0166    11.9712 </r>
       <r>   -24.0582     8.2528    13.6751 </r>
       <r>   -23.8517    15.0952    16.7918 </r>
       <r>   -23.6452    25.8884    22.1370 </r>
       <r>   -23.4388    60.1539    34.5570 </r>
       <r>   -23.2323    40.8151    42.9841 </r>
       <r>   -23.0258    17.0489    46.5042 </r>
       <r>   -22.8193     7.4220    48.0366 </r>
       <r>   -22.6129    -0.0399    48.0284 </r>
       <r>   -22.4064    -0.1340    48.0007 </r>
       <r>   -22.1999    -0.0035    48.0000 </r>
       <r>   -21.9935    -0.0000    48.0000 </r>
       <r>   -21.7870    -0.0000    48.0000 </r>
       <r>   -21.5805    -0.0000    48.0000 </r>
       <r>   -21.3741     0.0000    48.0000 </r>
       <r>   -21.1676     0.0000    48.0000 </r>
       <r>   -20.9611     0.0000    48.0000 </r>
       <r>   -20.7546     0.0000    48.0000 </r>
       <r>   -20.5482     0.0000    48.0000 </r>
       <r>   -20.3417     0.0000    48.0000 </r>
       <r>   -20.1352     0.0000    48.0000 </r>
       <r>   -19.9288     0.0000    48.0000 </r>
       <r>   -19.7223     0.0000    48.0000 </r>
       <r>   -19.5158     0.0000    48.0000 </r>
       <r>   -19.3094     0.0000    48.0000 </r>
       <r>   -19.1029     0.0000    48.0000 </r>
       <r>   -18.8964     0.0000    48.0000 </r>
       <r>   -18.6899     0.0000    48.0000 </r>
       <r>   -18.4835     0.0000    48.0000 </r>
       <r>   -18.2770     0.0000    48.0000 </r>
       <r>   -18.0705     0.0000    48.0000 </r>
       <r>   -17.8641     0.0000    48.0000 </r>
       <r>   -17.6576     0.0000    48.0000 </r>
       <r>   -17.4511     0.0000    48.0000 </r>
       <r>   -17.2447     0.0000    48.0000 </r>
       <r>   -17.0382     0.0000    48.0000 </r>
       <r>   -16.8317     0.0000    48.0000 </r>
       <r>   -16.6252     0.0000    48.0000 </r>
       <r>   -16.4188     0.0000    48.0000 </r>
       <r>   -16.2123     0.0000    48.0000 </r>
       <r>   -16.0058     0.0000    48.0000 </r>
       <r>   -15.7994     0.0000    48.0000 </r>
       <r>   -15.5929     0.0000    48.0000 </r>
       <r>   -15.3864     0.0000    48.0000 </r>
       <r>   -15.1800     0.0000    48.0000 </r>
       <r>   -14.9735     0.0000    48.0000 </r>
       <r>   -14.7670     0.0000    48.0000 </r>
       <r>   -14.5605     0.0000    48.0000 </r>
       <r>   -14.3541     0.0000    48.0000 </r>
       <r>   -14.1476     0.0000    48.0000 </r>
       <r>   -13.9411     0.0000    48.0000 </r>
       <r>   -13.7347     0.0000    48.0000 </r>
       <r>   -13.5282     0.0000    48.0000 </r>
       <r>   -13.3217     0.0000    48.0000 </r>
       <r>   -13.1153     0.0000    48.0000 </r>
       <r>   -12.9088     0.0000    48.0000 </r>
       <r>   -12.7023     0.0000    48.0000 </r>
       <r>   -12.4958     0.0000    48.0000 </r>
       <r>   -12.2894     0.0000    48.0000 </r>
       <r>   -12.0829     0.0000    48.0000 </r>
       <r>   -11.8764     0.0000    48.0000 </r>
       <r>   -11.6700     0.0000    48.0000 </r>
       <r>   -11.4635     0.0000    48.0000 </r>
       <r>   -11.2570     0.0000    48.0000 </r>
       <r>   -11.0505     0.0000    48.0000 </r>
       <r>   -10.8441     0.0000    48.0000 </r>
       <r>   -10.6376     0.0000    48.0000 </r>
       <r>   -10.4311     0.0000    48.0000 </r>
       <r>   -10.2247     0.0000    48.0000 </r>
       <r>   -10.0182     0.0000    48.0000 </r>
       <r>    -9.8117     0.0000    48.0000 </r>
       <r>    -9.6053     0.0000    48.0000 </r>
       <r>    -9.3988     0.0000    48.0000 </r>
       <r>    -9.1923     0.0000    48.0000 </r>
       <r>    -8.9858     0.0000    48.0000 </r>
       <r>    -8.7794     0.0000    48.0000 </r>
       <r>    -8.5729     0.0000    48.0000 </r>
       <r>    -8.3664     0.0000    48.0000 </r>
       <r>    -8.1600     0.0000    48.0000 </r>
       <r>    -7.9535     0.0000    48.0000 </r>
       <r>    -7.7470     0.0000    48.0000 </r>
       <r>    -7.5406     0.0000    48.0000 </r>
       <r>    -7.3341     0.0000    48.0000 </r>
       <r>    -7.1276     0.0000    48.0000 </r>
       <r>    -6.9211     0.0000    48.0000 </r>
       <r>    -6.7147     0.0000    48.0000 </r>
       <r>    -6.5082     0.0000    48.0000 </r>
       <r>    -6.3017     0.0000    48.0000 </r>
       <r>    -6.0953     0.0000    48.0000 </r>
       <r>    -5.8888     0.0000    48.0000 </r>
       <r>    -5.6823     0.0000    48.0000 </r>
       <r>    -5.4759     0.0000    48.0000 </r>
       <r>    -5.2694     0.0000    48.0000 </r>
       <r>    -5.0629     0.0000    48.0000 </r>
       <r>    -4.8564     0.0000    48.0000 </r>
       <r>    -4.6500     0.0000    48.0000 </r>
       <r>    -4.4435     0.0000    48.0000 </r>
       <r>    -4.2370     0.0000    48.0000 </r>
       <r>    -4.0306     0.0000    48.0000 </r>
       <r>    -3.8241     0.0000    48.0000 </r>
       <r>    -3.6176     0.0000    48.0000 </r>
       <r>    -3.4112     0.0000    48.0000 </r>
       <r>    -3.2047     0.0000    48.0000 </r>
       <r>    -2.9982     0.0000    48.0000 </r>
       <r>    -2.7917     0.0000    48.0000 </r>
       <r>    -2.5853     0.0000    48.0000 </r>
       <r>    -2.3788     0.0000    48.0000 </r>
       <r>    -2.1723     0.0000    48.0000 </r>
       <r>    -1.9659    -0.0000    48.0000 </r>
       <r>    -1.7594    -0.0000    48.0000 </r>
       <r>    -1.5529    -0.0000    48.0000 </r>
       <r>    -1.3465    -0.0000    48.0000 </r>
       <r>    -1.1400    -0.0000    48.0000 </r>
       <r>    -0.9335    -0.0000    48.0000 </r>
       <r>    -0.7270    -0.0000    48.0000 </r>
       <r>    -0.5206    -0.0028    47.9994 </r>
       <r>    -0.3141    -0.0176    47.9958 </r>
       <r>    -0.1076     0.1912    48.0352 </r>
       <r>     0.0988     0.9128    48.2237 </r>
       <r>     0.3053     1.2924    48.4905 </r>
       <r>     0.5118     1.8704    48.8767 </r>
       <r>     0.7182     2.0824    49.3067 </r>
       <r>     0.9247     1.8646    49.6917 </r>
       <r>     1.1312     2.8643    50.2831 </r>
       <r>     1.3377     3.1504    50.9335 </r>
       <r>     1.5441     3.4389    51.6436 </r>
       <r>     1.7506     3.6295    52.3929 </r>
       <r>     1.9571     4.6857    53.3604 </r>
       <r>     2.1635     5.5350    54.5032 </r>
       <r>     2.3700     7.1219    55.9737 </r>
       <r>     2.5765    11.0297    58.2510 </r>
       <r>     2.7829    16.4200    61.6412 </r>
       <r>     2.9894    21.0458    65.9866 </r>
       <r>     3.1959    26.6351    71.4859 </r>
       <r>     3.4024    30.4308    77.7689 </r>
       <r>     3.6088    30.9865    84.1667 </r>
       <r>     3.8153    32.2455    90.8245 </r>
       <r>     4.0218    32.7345    97.5832 </r>
       <r>     4.2282    30.4817   103.8767 </r>
       <r>     4.4347    26.5322   109.3548 </r>
       <r>     4.6412    26.0308   114.7294 </r>
       <r>     4.8476    31.1913   121.1695 </r>
       <r>     5.0541    38.0422   129.0241 </r>
       <r>     5.2606    41.5293   137.5986 </r>
       <r>     5.4671    41.4041   146.1473 </r>
       <r>     5.6735    41.4960   154.7150 </r>
       <r>     5.8800    41.2080   163.2232 </r>
       <r>     6.0865    41.8161   171.8570 </r>
       <r>     6.2929    43.3943   180.8166 </r>
       <r>     6.4994    42.8059   189.6548 </r>
       <r>     6.7059    38.7660   197.6588 </r>
       <r>     6.9123    31.1623   204.0929 </r>
       <r>     7.1188    25.2344   209.3030 </r>
       <r>     7.3253    20.6809   213.5730 </r>
       <r>     7.5318    18.9597   217.4876 </r>
       <r>     7.7382    17.8567   221.1745 </r>
       <r>     7.9447    19.0793   225.1138 </r>
       <r>     8.1512    22.5989   229.7798 </r>
       <r>     8.3576    23.2537   234.5810 </r>
       <r>     8.5641    17.5983   238.2146 </r>
       <r>     8.7706     7.9008   239.8458 </r>
       <r>     8.9771     0.9298   240.0378 </r>
       <r>     9.1835    -0.1690   240.0029 </r>
       <r>     9.3900    -0.0141   240.0000 </r>
       <r>     9.5965    -0.0001   240.0000 </r>
       <r>     9.8029    -0.0000   240.0000 </r>
       <r>    10.0094    -0.0000   240.0000 </r>
       <r>    10.2159    -0.0000   240.0000 </r>
       <r>    10.4223     0.0000   240.0000 </r>
       <r>    10.6288     0.0000   240.0000 </r>
       <r>    10.8353     0.0000   240.0000 </r>
       <r>    11.0418     0.0000   240.0000 </r>
       <r>    11.2482     0.0000   240.0000 </r>
       <r>    11.4547     0.0000   240.0000 </r>
       <r>    11.6612     0.0000   240.0000 </r>
      </set>
     </set>
    </array>
   </total>
  </dos>
 </calculation>
 <structure name="finalpos" >
  <crystal>
   <varray name="basis" >
    <v>      -3.22608391      -3.16259418      -3.18847386 </v>
    <v>       1.46559760       1.61483970      -7.85729088 </v>
    <v>       7.80887374      -7.82079490      -1.42449602 </v>
   </varray>
   <i name="volume">    469.86173371 </i>
   <varray name="rec_basis" >
    <v>      -0.13567947      -0.12614105      -0.05123256 </v>
    <v>       0.04348364       0.06277152      -0.10625858 </v>
    <v>       0.06384495      -0.06389390      -0.00122274 </v>
   </varray>
  </crystal>
  <varray name="positions" >
   <v>       0.95683514       0.92884194       0.39548999 </v>
   <v>       0.63475747       0.26239496       0.40873452 </v>
   <v>       0.49808905       0.00861235      -0.00149974 </v>
   <v>      -0.00317752       0.00616262       0.00280620 </v>
   <v>       0.10224129       0.20775703       0.79723060 </v>
   <v>       0.03967147       0.06314405       0.59835767 </v>
   <v>       0.90340816       0.79723799       0.19925468 </v>
   <v>       0.80304445       0.59087420       0.39620397 </v>
   <v>       0.73642439       0.47169994       0.19826253 </v>
   <v>       0.67144951       0.34573435      -0.00726569 </v>
   <v>       0.37059637       0.71871077       0.60089817 </v>
   <v>       0.13123828       0.27008197       0.40244059 </v>
   <v>       0.83617905       0.66964258      -0.00026091 </v>
   <v>       0.92746283       0.87264430       0.79744312 </v>
   <v>       0.54338463       0.16796559       0.19687681 </v>
   <v>       0.40690803       0.79586142       0.19440017 </v>
   <v>       0.43950328       0.85529150       0.79561498 </v>
   <v>       0.30168534       0.59464852       0.39403031 </v>
   <v>       0.85969217       0.72242595       0.59589152 </v>
   <v>       0.46266317       0.92713764       0.40553531 </v>
   <v>       0.17655865       0.34764693       0.01025897 </v>
   <v>       0.27509008       0.52875955       0.79927960 </v>
   <v>       0.20162858       0.38590577       0.59424901 </v>
   <v>       0.05387455       0.14497492       0.20802122 </v>
   <v>       0.76444997       0.51840993       0.80567640 </v>
   <v>       0.68309567       0.40888074       0.60611560 </v>
   <v>       0.59720822       0.20498752       0.79499617 </v>
   <v>       0.54393525       0.06474139       0.60987282 </v>
   <v>       0.34876914       0.65215693       0.00108539 </v>
  </varray>
 </structure>
</modeling>
