Nb - Mo - Ta - Ti - V SQS               
           1
    -3.160000   -3.160000   -3.160000
     1.580000    1.580000   -7.900000
     7.900000   -7.900000   -1.580000
   Nb   Mo   Ta   Ti   V 
   6   6   6   6   5
Direct configuration=     1
   0.96666667  0.93333333  0.40000000
   0.63333333  0.26666667  0.40000000
   0.50000000  0.00000000  0.00000000
   0.00000000  0.00000000  0.00000000
   0.10000000  0.20000000  0.80000000
   0.03333333  0.06666667  0.60000000
   0.90000000  0.80000000  0.20000000
   0.80000000  0.60000000  0.40000000
   0.73333333  0.46666667  0.20000000
   0.66666667  0.33333333  0.00000000
   0.36666667  0.73333333  0.60000000
   0.13333333  0.26666667  0.40000000
   0.83333333  0.66666667  0.00000000
   0.93333333  0.86666667  0.80000000
   0.56666667  0.13333333  0.20000000
   0.40000000  0.80000000  0.20000000
   0.43333333  0.86666667  0.80000000
   0.30000000  0.60000000  0.40000000
   0.86666667  0.73333333  0.60000000
   0.46666667  0.93333333  0.40000000
   0.16666667  0.33333333  0.00000000
   0.26666667  0.53333333  0.80000000
   0.20000000  0.40000000  0.60000000
   0.06666667  0.13333333  0.20000000
   0.76666667  0.53333333  0.80000000
   0.70000000  0.40000000  0.60000000
   0.60000000  0.20000000  0.80000000
   0.53333333  0.06666667  0.60000000
   0.33333333  0.66666667  0.00000000
Nb - Mo - Ta - Ti - V SQS               
           1
    -3.253833   -3.227465   -3.240735
     1.547745    1.598185   -8.007119
     7.999797   -8.002684   -1.551561
   Nb   Mo   Ta   Ti   V 
   6   6   6   6   5
Direct configuration=     2
   0.96393945  0.93287047  0.39752990
   0.63361831  0.26620846  0.40129922
   0.49863963  0.00130598  0.00083869
  -0.00074350 -0.00047751  0.00222213
   0.09713739  0.20522416  0.79855050
   0.03578126  0.06700830  0.59820730
   0.90137169  0.79699751  0.20206927
   0.80319688  0.59497819  0.39826225
   0.73297375  0.46761210  0.19903636
   0.66734906  0.33876667 -0.00025459
   0.36893660  0.73054314  0.60100178
   0.13102348  0.27207609  0.39921060
   0.83214269  0.66345119  0.00212215
   0.93269841  0.86639205  0.80019510
   0.56531149  0.13826623  0.19780080
   0.40477823  0.79393408  0.19791858
   0.43833711  0.85971349  0.79712943
   0.30002821  0.60038038  0.40025841
   0.86421305  0.73136293  0.59894696
   0.46633202  0.93151694  0.40302267
   0.16602774  0.33556248  0.00186439
   0.26763565  0.53617540  0.80023089
   0.20009785  0.39727261  0.59764166
   0.06227733  0.13656242  0.20238276
   0.76730386  0.53057171  0.80197162
   0.69669385  0.40623696  0.59958324
   0.59763464  0.20234480  0.80011657
   0.53487438  0.06754719  0.60060852
   0.33705615  0.66292891  0.00023287
Nb - Mo - Ta - Ti - V SQS               
           1
    -3.210200   -3.196093   -3.203193
     1.562744    1.589729   -7.957308
     7.953391   -7.954935   -1.564785
   Nb   Mo   Ta   Ti   V 
   6   6   6   6   5
Direct configuration=     3
   0.96517666  0.93308893  0.39866671
   0.63348626  0.26641611  0.40070315
   0.49926013  0.00070316  0.00045275
  -0.00041021 -0.00026333  0.00120312
   0.09845481  0.20282461  0.79921061
   0.03467435  0.06685579  0.59902806
   0.90073736  0.79837361  0.20112251
   0.80173169  0.59729237  0.39906497
   0.73314099  0.46717955  0.19947770
   0.66705884  0.33626849 -0.00014605
   0.36789679  0.73182427  0.60054416
   0.13209030  0.26958982  0.39956695
   0.83266926  0.66492480  0.00115334
   0.93298512  0.86651780  0.80010639
   0.56594518  0.13600262  0.19880441
   0.40259279  0.79672949  0.19887942
   0.43604708  0.86291889  0.79845371
   0.30001650  0.60020482  0.40013919
   0.86531961  0.73227137  0.59943512
   0.46647451  0.93234503  0.40163774
   0.16632338  0.33453270  0.00100565
   0.26720601  0.53486786  0.80012006
   0.20004626  0.39853266  0.59872832
   0.06427629  0.13507104  0.20128737
   0.76700347  0.53183717  0.80106989
   0.69821489  0.40336907  0.59976805
   0.59871508  0.20126581  0.80006143
   0.53417819  0.06714096  0.60032671
   0.33535508  0.66464787  0.00012857
Nb - Mo - Ta - Ti - V SQS               
           1
    -3.198459   -3.187652   -3.193091
     1.566780    1.587453   -7.943904
     7.940904   -7.942087   -1.568344
   Nb   Mo   Ta   Ti   V 
   6   6   6   6   5
Direct configuration=     4
   0.96551340  0.93314732  0.39897407
   0.63345067  0.26647266  0.40054176
   0.49942859  0.00054039  0.00034839
  -0.00031900 -0.00020472  0.00092715
   0.09881101  0.20217524  0.79938996
   0.03437262  0.06681396  0.59925051
   0.90056622  0.79874638  0.20086584
   0.80133478  0.59791769  0.39928164
   0.73318600  0.46706228  0.19959730
   0.66697742  0.33559274 -0.00011563
   0.36761505  0.73217103  0.60042001
   0.13237827  0.26891718  0.39966417
   0.83281428  0.66532400  0.00089041
   0.93306333  0.86655188  0.80008227
   0.56611528  0.13538977  0.19907683
   0.40200021  0.79748483  0.19913884
   0.43542632  0.86378488  0.79881136
   0.30001317  0.60015742  0.40010700
   0.86562161  0.73251679  0.59956667
   0.46651446  0.93256990  0.40126251
   0.16640312  0.33425476  0.00077355
   0.26708783  0.53451427  0.80009066
   0.20003312  0.39887274  0.59902196
   0.06481938  0.13466847  0.20099105
   0.76692313  0.53218000  0.80082538
   0.69862621  0.40259335  0.59981889
   0.59900822  0.20097406  0.80004671
   0.53398834  0.06703125  0.60025073
   0.33489363  0.66511279  0.00010001
Nb - Mo - Ta - Ti - V SQS               
           1
    -3.219787   -3.190263   -3.205613
     1.525669    1.583674   -7.918341
     7.907700   -7.910504   -1.526218
   Nb   Mo   Ta   Ti   V 
   6   6   6   6   5
Direct configuration=     5
   0.96286647  0.93299233  0.39711924
   0.63382411  0.26607174  0.40182805
   0.49864530  0.00195793  0.00037877
  -0.00137097 -0.00017964  0.00239859
   0.09681124  0.20631882  0.79784655
   0.03580295  0.06759075  0.59813953
   0.90152585  0.79638494  0.20255546
   0.80386261  0.59355975  0.39807242
   0.73266724  0.46784871  0.19878886
   0.66747396  0.33970102 -0.00097426
   0.36970761  0.72967039  0.60136445
   0.13068622  0.27317531  0.39934287
   0.83162580  0.66312583  0.00244853
   0.93146847  0.86730910  0.80008081
   0.56478699  0.13967151  0.19742405
   0.40612101  0.79276234  0.19744865
   0.43915828  0.85865765  0.79638216
   0.30027433  0.60025079  0.40047927
   0.86355530  0.73080196  0.59876301
   0.46610198  0.93121585  0.40372389
   0.16669589  0.33610480  0.00189816
   0.26897080  0.53580951  0.80011229
   0.20053237  0.39607925  0.59749729
   0.06125596  0.13726147  0.20314267
   0.76732825  0.52912211  0.80240396
   0.69538227  0.40723211  0.60003908
   0.59691677  0.20293621  0.79984011
   0.53566161  0.06817349  0.60136320
   0.33832799  0.66172729  0.00009233
Nb - Mo - Ta - Ti - V SQS               
           1
    -3.240976   -3.192858   -3.218053
     1.484827    1.579919   -7.892944
     7.874713   -7.879129   -1.484368
   Nb   Mo   Ta   Ti   V 
   6   6   6   6   5
Direct configuration=     6
   0.96024473  0.93283116  0.39526551
   0.63419764  0.26567643  0.40311068
   0.49786352  0.00337311  0.00041149
  -0.00240977 -0.00014870  0.00386525
   0.09481025  0.21044915  0.79631434
   0.03721301  0.06836145  0.59703477
   0.90248935  0.79403421  0.20423650
   0.80638275  0.58920476  0.39685887
   0.73214888  0.46863067  0.19798365
   0.66794466  0.34379814 -0.00182054
   0.37179174  0.72717758  0.60230314
   0.12899118  0.27742459  0.39903040
   0.83046249  0.66093808  0.00399626
   0.92988660  0.86806528  0.80007927
   0.56344968  0.14393915  0.19578384
   0.41021855  0.78804123  0.19575630
   0.44287172  0.85352984  0.79395122
   0.30053295  0.60034536  0.40085116
   0.86151719  0.72908779  0.59795488
   0.46570411  0.92987391  0.40617556
   0.16697875  0.33795561  0.00302471
   0.27082819  0.53710192  0.80013911
   0.20103710  0.39328504  0.59597038
   0.05772077  0.13985873  0.20529095
   0.76774608  0.52607594  0.80397193
   0.69215052  0.41186378  0.60026587
   0.59483746  0.20489439  0.79963620
   0.53731395  0.06931744  0.60247759
   0.34174262  0.65834730  0.00008071
Nb - Mo - Ta - Ti - V SQS               
           1
    -3.213753   -3.167278   -3.192366
     1.480312    1.573637   -7.844283
     7.820677   -7.824561   -1.476225
   Nb   Mo   Ta   Ti   V 
   6   6   6   6   5
Direct configuration=     7
   0.95998809  0.93267331  0.39569790
   0.63383377  0.26569633  0.40319077
   0.49814140  0.00305642 -0.00020525
  -0.00232324  0.00026780  0.00347060
   0.09571749  0.20948705  0.79627653
   0.03683290  0.06851904  0.59740893
   0.90279934  0.79382605  0.20380419
   0.80579638  0.59050200  0.39721337
   0.73215277  0.46777128  0.19835931
   0.66733019  0.34292787 -0.00275931
   0.37181476  0.72663994  0.60171168
   0.12986703  0.27629695  0.39942895
   0.83141243  0.66288441  0.00335232
   0.92899076  0.86912701  0.79999376
   0.56187294  0.14467055  0.19618509
   0.40867492  0.78949172  0.19617645
   0.44140770  0.85528234  0.79459616
   0.30109974  0.59976735  0.40081127
   0.86148253  0.72910892  0.59791076
   0.46567962  0.92993871  0.40579182
   0.16854391  0.33809934  0.00305087
   0.27170135  0.53595873  0.80021536
   0.20130483  0.39265722  0.59584553
   0.05825362  0.13991326  0.20522386
   0.76758783  0.52528924  0.80410932
   0.69155164  0.41160849  0.60077981
   0.59502109  0.20498503  0.79916103
   0.53817166  0.06942312  0.60325991
   0.34195922  0.65746385 -0.00006101
Nb - Mo - Ta - Ti - V SQS               
           1
    -3.214100   -3.167605   -3.192694
     1.480370    1.573717   -7.844904
     7.821367   -7.825258   -1.476329
   Nb   Mo   Ta   Ti   V 
   6   6   6   6   5
Direct configuration=     8
   0.95999139  0.93267534  0.39569234
   0.63383845  0.26569607  0.40318974
   0.49813783  0.00306049 -0.00019732
  -0.00232436  0.00026246  0.00347567
   0.09570582  0.20949940  0.79627702
   0.03683780  0.06851702  0.59740412
   0.90279536  0.79382872  0.20380975
   0.80580391  0.59048534  0.39720881
   0.73215274  0.46778231  0.19835448
   0.66733811  0.34293904 -0.00274724
   0.37181447  0.72664684  0.60171928
   0.12985577  0.27631143  0.39942383
   0.83140017  0.66285942  0.00336060
   0.92900227  0.86911338  0.79999486
   0.56189322  0.14466115  0.19617994
   0.40869477  0.78947310  0.19617105
   0.44142652  0.85525984  0.79458787
   0.30109245  0.59977477  0.40081179
   0.86148297  0.72910865  0.59791133
   0.46567994  0.92993788  0.40579675
   0.16852376  0.33809749  0.00305053
   0.27169013  0.53597341  0.80021438
   0.20130139  0.39266528  0.59584714
   0.05824676  0.13991256  0.20522472
   0.76758988  0.52529934  0.80410755
   0.69155936  0.41161177  0.60077321
   0.59501873  0.20498386  0.79916713
   0.53816062  0.06942176  0.60324986
   0.34195644  0.65747519 -0.00005919
Nb - Mo - Ta - Ti - V SQS               
           1
    -3.212603   -3.165861   -3.191565
     1.484117    1.579679   -7.853369
     7.824310   -7.827779   -1.475661
   Nb   Mo   Ta   Ti   V 
   6   6   6   6   5
Direct configuration=     9
   0.95939705  0.93256472  0.39605002
   0.63353873  0.26558310  0.40351996
   0.49823558  0.00308959 -0.00086050
  -0.00224585  0.00080288  0.00317348
   0.09656616  0.20897848  0.79605702
   0.03651502  0.06873065  0.59773939
   0.90339513  0.79321002  0.20343310
   0.80539597  0.59148461  0.39750639
   0.73216110  0.46696683  0.19862032
   0.66676050  0.34247922 -0.00396479
   0.37205481  0.72580361  0.60129956
   0.13079371  0.27537825  0.39971448
   0.83266959  0.66430129  0.00279706
   0.92798006  0.87033557  0.79974651
   0.55941010  0.14637701  0.19647180
   0.40736698  0.79060103  0.19644314
   0.44015799  0.85672078  0.79504401
   0.30160372  0.59907460  0.40058903
   0.86136393  0.72881955  0.59781828
   0.46557346  0.92989929  0.40560813
   0.17030277  0.33864597  0.00332423
   0.27281558  0.53467911  0.80022743
   0.20160913  0.39174188  0.59569191
   0.05854321  0.14028440  0.20537244
   0.76742782  0.52403268  0.80438543
   0.69049900  0.41163765  0.60152823
   0.59498451  0.20535068  0.79851675
   0.53928095  0.06970776  0.60428251
   0.34250998  0.65605212 -0.00013532
Nb - Mo - Ta - Ti - V SQS               
           1
    -3.210020   -3.162851   -3.189615
     1.490584    1.589969   -7.867978
     7.829390   -7.832130   -1.474509
   Nb   Mo   Ta   Ti   V 
   6   6   6   6   5
Direct configuration=    10
   0.95837076  0.93237421  0.39666703
   0.63302113  0.26538851  0.40408960
   0.49840428  0.00313963 -0.00200459
  -0.00210959  0.00173413  0.00265227
   0.09805085  0.20808065  0.79567739
   0.03595808  0.06909889  0.59831784
   0.90442974  0.79214369  0.20278318
   0.80469311  0.59320672  0.39801998
   0.73217443  0.46556156  0.19907876
   0.66576231  0.34168665 -0.00606540
   0.37246850  0.72435039  0.60057528
   0.13241190  0.27377007  0.40021571
   0.83486333  0.66678582  0.00182522
   0.92621680  0.87244182  0.79931832
   0.55512523  0.14933421  0.19697564
   0.40507606  0.79254496  0.19691276
   0.43796992  0.85923862  0.79583124
   0.30248543  0.59786792  0.40020459
   0.86115794  0.72832134  0.59765768
   0.46538951  0.92983277  0.40528271
   0.17337527  0.33959103  0.00379658
   0.27475694  0.53244854  0.80024967
   0.20213911  0.39015053  0.59542392
   0.05905561  0.14092519  0.20562737
   0.76714624  0.52184991  0.80486451
   0.68866838  0.41168248  0.60283076
   0.59492584  0.20598271  0.79739482
   0.54121593  0.07020070  0.60606413
   0.34346366  0.65359969 -0.00026698
Nb - Mo - Ta - Ti - V SQS               
           1
    -3.213722   -3.164531   -3.191004
     1.489668    1.593827   -7.871741
     7.833323   -7.835843   -1.470467
   Nb   Mo   Ta   Ti   V 
   6   6   6   6   5
Direct configuration=    11
   0.95806210  0.93226143  0.39653326
   0.63367595  0.26517039  0.40459603
   0.49841935  0.00370915 -0.00172996
  -0.00237646  0.00198598  0.00272709
   0.09827319  0.20851160  0.79566361
   0.03649695  0.06888985  0.59823371
   0.90413968  0.79213961  0.20264752
   0.80480711  0.59278055  0.39779025
   0.73189003  0.46615546  0.19888571
   0.66666349  0.34221074 -0.00670046
   0.37234428  0.72393069  0.60100658
   0.13219200  0.27358827  0.40034948
   0.83481663  0.66617268  0.00172792
   0.92613218  0.87301879  0.79894010
   0.55379477  0.15109158  0.19659809
   0.40594056  0.79215947  0.19658315
   0.43777087  0.85884586  0.79561238
   0.30248988  0.59777689  0.39979952
   0.86100788  0.72778669  0.59759276
   0.46492811  0.92959777  0.40550567
   0.17404525  0.34037335  0.00425582
   0.27531475  0.53195878  0.79992469
   0.20223860  0.38958188  0.59527083
   0.05804576  0.14141034  0.20603234
   0.76668944  0.52094681  0.80523667
   0.68755248  0.41192575  0.60346218
   0.59483912  0.20630087  0.79682035
   0.54189579  0.07040167  0.60680001
   0.34457692  0.65265044 -0.00016528
Nb - Mo - Ta - Ti - V SQS               
           1
    -3.221192   -3.167922   -3.193806
     1.487820    1.601612   -7.879332
     7.841259   -7.843333   -1.462311
   Nb   Mo   Ta   Ti   V 
   6   6   6   6   5
Direct configuration=    12
   0.95743972  0.93203378  0.39626332
   0.63499632  0.26473120  0.40561739
   0.49845009  0.00485785 -0.00117576
  -0.00291435  0.00249382  0.00287805
   0.09872159  0.20938065  0.79563613
   0.03758326  0.06846836  0.59806405
   0.90355481  0.79213118  0.20237384
   0.80503668  0.59192099  0.39732671
   0.73131676  0.46735278  0.19849667
   0.66848020  0.34326714 -0.00798065
   0.37209393  0.72308477  0.60187610
   0.13174869  0.27322175  0.40061910
   0.83472220  0.66493621  0.00153131
   0.92596158  0.87418184  0.79817766
   0.55111280  0.15463459  0.19583740
   0.40768318  0.79138202  0.19591841
   0.43736933  0.85805360  0.79517072
   0.30249860  0.59759292  0.39898255
   0.86070511  0.72670848  0.59746147
   0.46399791  0.92912403  0.40595506
   0.17539653  0.34195148  0.00518263
   0.27643901  0.53097101  0.79926913
   0.20243890  0.38843509  0.59496177
   0.05601018  0.14238881  0.20684907
   0.76576839  0.51912600  0.80598654
   0.68530315  0.41241666  0.60473542
   0.59466408  0.20694183  0.79566196
   0.54326693  0.07080782  0.60828439
   0.34682109  0.65073666  0.00003953
Nb - Mo - Ta - Ti - V SQS               
           1
    -3.217340   -3.162129   -3.187373
     1.483384    1.601189   -7.863267
     7.825480   -7.826904   -1.454976
   Nb   Mo   Ta   Ti   V 
   6   6   6   6   5
Direct configuration=    13
   0.95719489  0.93167054  0.39608734
   0.63526972  0.26455631  0.40600852
   0.49855163  0.00510436 -0.00105228
  -0.00306181  0.00263044  0.00301957
   0.09917329  0.20950596  0.79576161
   0.03825928  0.06813837  0.59794498
   0.90335657  0.79232272  0.20212170
   0.80505554  0.59155619  0.39705169
   0.73126092  0.46800195  0.19837675
   0.66943463  0.34358737 -0.00836983
   0.37180753  0.72270569  0.60214690
   0.13160527  0.27295466  0.40080768
   0.83455918  0.66488253  0.00136726
   0.92570772  0.87448745  0.79794161
   0.54991361  0.15650563  0.19554627
   0.40819602  0.79125219  0.19557267
   0.43762501  0.85763482  0.79522068
   0.30241304  0.59760677  0.39858347
   0.86052789  0.72621596  0.59737416
   0.46366718  0.92886796  0.40611237
   0.17608308  0.34268588  0.00578148
   0.27654584  0.53071402  0.79894686
   0.20250150  0.38796895  0.59467091
   0.05493525  0.14286658  0.20715964
   0.76525753  0.51859741  0.80629658
   0.68434971  0.41248479  0.60529573
   0.59474549  0.20712050  0.79511586
   0.54394569  0.07073674  0.60899399
   0.34778546  0.64997061  0.00011583
Nb - Mo - Ta - Ti - V SQS               
           1
    -3.216324   -3.160600   -3.185675
     1.482213    1.601078   -7.859028
     7.821317   -7.822570   -1.453041
   Nb   Mo   Ta   Ti   V 
   6   6   6   6   5
Direct configuration=    14
   0.95713017  0.93157449  0.39604078
   0.63534199  0.26451014  0.40611192
   0.49857848  0.00516955 -0.00101961
  -0.00310076  0.00266657  0.00305699
   0.09929266  0.20953912  0.79579480
   0.03843790  0.06805115  0.59791350
   0.90330417  0.79237331  0.20205504
   0.80506049  0.59145972  0.39697895
   0.73124619  0.46817354  0.19834509
   0.66968683  0.34367202 -0.00847267
   0.37173186  0.72260550  0.60221846
   0.13156737  0.27288407  0.40085751
   0.83451608  0.66486832  0.00132388
   0.92564063  0.87456819  0.79787921
   0.54959677  0.15700015  0.19546939
   0.40833150  0.79121785  0.19548127
   0.43769256  0.85752413  0.79523387
   0.30239040  0.59761038  0.39847796
   0.86048104  0.72608575  0.59735103
   0.46357979  0.92880027  0.40615393
   0.17626459  0.34288010  0.00593988
   0.27657404  0.53064605  0.79886165
   0.20251800  0.38784570  0.59459397
   0.05465124  0.14299287  0.20724175
   0.76512254  0.51845769  0.80637850
   0.68409781  0.41250282  0.60544384
   0.59476697  0.20716767  0.79497150
   0.54412511  0.07071805  0.60918161
   0.34804027  0.64976815  0.00013598
Nb - Mo - Ta - Ti - V SQS               
           1
    -3.217661   -3.160633   -3.185347
     1.481493    1.602259   -7.858023
     7.820272   -7.820457   -1.450728
   Nb   Mo   Ta   Ti   V 
   6   6   6   6   5
Direct configuration=    15
   0.95697630  0.93113406  0.39592620
   0.63515877  0.26440690  0.40634584
   0.49864805  0.00516875 -0.00110705
  -0.00302659  0.00270826  0.00319583
   0.09989469  0.20934141  0.79600336
   0.03899206  0.06769571  0.59783300
   0.90339871  0.79263079  0.20171210
   0.80490680  0.59137888  0.39683314
   0.73155416  0.46854660  0.19835846
   0.67033021  0.34358547 -0.00852320
   0.37142939  0.72233141  0.60220108
   0.13164596  0.27251562  0.40099648
   0.83457326  0.66535335  0.00110612
   0.92540348  0.87452038  0.79783128
   0.54853997  0.15857758  0.19545966
   0.40807253  0.79157725  0.19530792
   0.43812564  0.85728353  0.79556355
   0.30227675  0.59756806  0.39810654
   0.86041569  0.72569805  0.59727712
   0.46348229  0.92861676  0.40615000
   0.17675775  0.34340120  0.00653438
   0.27615680  0.53057826  0.79863217
   0.20243342  0.38770820  0.59430804
   0.05399684  0.14332078  0.20732306
   0.76480501  0.51848252  0.80643224
   0.68365439  0.41225509  0.60575831
   0.59502289  0.20716554  0.79462369
   0.54459313  0.07037941  0.60962182
   0.34844831  0.64940351  0.00018886
Nb - Mo - Ta - Ti - V SQS               
           1
    -3.221674   -3.160732   -3.184361
     1.479330    1.605803   -7.855007
     7.817137   -7.814120   -1.443791
   Nb   Mo   Ta   Ti   V 
   6   6   6   6   5
Direct configuration=    16
   0.95651456  0.92981261  0.39558219
   0.63460933  0.26409724  0.40704767
   0.49885666  0.00516635 -0.00136942
  -0.00280399  0.00283342  0.00361246
   0.10170056  0.20874852  0.79662925
   0.04065409  0.06662941  0.59759144
   0.90368208  0.79340314  0.20068317
   0.80444568  0.59113624  0.39639553
   0.73247804  0.46966596  0.19839880
   0.67225999  0.34332599 -0.00867470
   0.37052206  0.72150898  0.60214875
   0.13188170  0.27141028  0.40141338
   0.83474477  0.66680847  0.00045290
   0.92469208  0.87437683  0.79768738
   0.54537060  0.16330985  0.19543075
   0.40729572  0.79265535  0.19478781
   0.43942484  0.85656198  0.79655279
   0.30193559  0.59744089  0.39699204
   0.86021949  0.72453480  0.59705518
   0.46318981  0.92806618  0.40613813
   0.17823756  0.34496499  0.00831856
   0.27490514  0.53037464  0.79794349
   0.20217946  0.38729553  0.59345001
   0.05203412  0.14430441  0.20756701
   0.76385263  0.51855695  0.80659343
   0.68232450  0.41151186  0.60670171
   0.59579028  0.20715908  0.79358011
   0.54599719  0.06936374  0.61094271
   0.34967214  0.64830965  0.00034750
Nb - Mo - Ta - Ti - V SQS               
           1
    -3.227225   -3.167698   -3.191684
     1.482725    1.607575   -7.872171
     7.832492   -7.831198   -1.449162
   Nb   Mo   Ta   Ti   V 
   6   6   6   6   5
Direct configuration=    17
   0.95646211  0.92977400  0.39552058
   0.63446940  0.26390129  0.40732595
   0.49863333  0.00571503 -0.00136245
  -0.00262649  0.00298848  0.00358920
   0.10215125  0.20847022  0.79683039
   0.04077164  0.06611799  0.59775262
   0.90368088  0.79389280  0.20027873
   0.80404824  0.59126993  0.39644137
   0.73318734  0.46991439  0.19843360
   0.67245847  0.34323732 -0.00843938
   0.37052994  0.72124129  0.60196797
   0.13185086  0.27093603  0.40142802
   0.83526185  0.66709707  0.00030202
   0.92552100  0.87414899  0.79761858
   0.54426069  0.16436739  0.19564838
   0.40674785  0.79337161  0.19483694
   0.43914919  0.85636586  0.79671068
   0.30192175  0.59711980  0.39644459
   0.86011737  0.72422149  0.59695761
   0.46314447  0.92793002  0.40596887
   0.17822924  0.34546735  0.00886989
   0.27416818  0.53025226  0.79795499
   0.20196905  0.38726003  0.59335849
   0.05216694  0.14446426  0.20749848
   0.76383083  0.51890744  0.80636617
   0.68250456  0.41097262  0.60664100
   0.59636307  0.20677520  0.79361091
   0.54611479  0.06872580  0.61097390
   0.34957890  0.64842738  0.00047189
Nb - Mo - Ta - Ti - V SQS               
           1
    -3.224986   -3.164888   -3.188730
     1.481355    1.606860   -7.865248
     7.826299   -7.824310   -1.446995
   Nb   Mo   Ta   Ti   V 
   6   6   6   6   5
Direct configuration=    18
   0.95648321  0.92978954  0.39554537
   0.63452575  0.26398018  0.40721392
   0.49872328  0.00549417 -0.00136524
  -0.00269793  0.00292607  0.00359858
   0.10196983  0.20858227  0.79674943
   0.04072430  0.06632386  0.59768772
   0.90368135  0.79369568  0.20044154
   0.80420825  0.59121610  0.39642291
   0.73290184  0.46981442  0.19841964
   0.67237860  0.34327303 -0.00853410
   0.37052672  0.72134903  0.60204072
   0.13186323  0.27112692  0.40142210
   0.83505371  0.66698092  0.00036279
   0.92518730  0.87424072  0.79764629
   0.54470759  0.16394168  0.19556079
   0.40696845  0.79308328  0.19481718
   0.43926015  0.85644480  0.79664711
   0.30192722  0.59724901  0.39666493
   0.86015844  0.72434759  0.59699686
   0.46316268  0.92798482  0.40603699
   0.17823270  0.34526518  0.00864799
   0.27446483  0.53030149  0.79795032
   0.20205373  0.38727431  0.59339532
   0.05211347  0.14439992  0.20752607
   0.76383960  0.51876635  0.80645766
   0.68243202  0.41118967  0.60666542
   0.59613247  0.20692974  0.79359852
   0.54606740  0.06898259  0.61096132
   0.34961646  0.64837999  0.00042182
Nb - Mo - Ta - Ti - V SQS               
           1
    -3.222785   -3.164539   -3.188798
     1.481346    1.604226   -7.863990
     7.823134   -7.822974   -1.449698
   Nb   Mo   Ta   Ti   V 
   6   6   6   6   5
Direct configuration=    19
   0.95653246  0.92991763  0.39551815
   0.63451222  0.26379703  0.40739921
   0.49852127  0.00605744 -0.00129784
  -0.00263082  0.00310333  0.00348674
   0.10214151  0.20839153  0.79685823
   0.04059309  0.06591207  0.59787899
   0.90351183  0.79415288  0.20024047
   0.80392299  0.59133800  0.39650845
   0.73342733  0.46995734  0.19844742
   0.67222537  0.34335552 -0.00824595
   0.37069523  0.72118396  0.60186927
   0.13169875  0.27089676  0.40141908
   0.83532203  0.66712111  0.00034886
   0.92608148  0.87406060  0.79756533
   0.54430682  0.16418306  0.19579865
   0.40679866  0.79351336  0.19492462
   0.43885117  0.85631630  0.79654771
   0.30191437  0.59697538  0.39630248
   0.86003920  0.72428554  0.59689740
   0.46313965  0.92792349  0.40588604
   0.17791257  0.34550772  0.00886474
   0.27404441  0.53019032  0.79811261
   0.20188880  0.38724372  0.59344750
   0.05255083  0.14437453  0.20744921
   0.76394406  0.51906010  0.80623145
   0.68284125  0.41080060  0.60639692
   0.59660048  0.20650430  0.79386287
   0.54589987  0.06847736  0.61075438
   0.34937979  0.64873236  0.00052703
Nb - Mo - Ta - Ti - V SQS               
           1
    -3.219046   -3.163946   -3.188912
     1.481331    1.599753   -7.861853
     7.817759   -7.820705   -1.454288
   Nb   Mo   Ta   Ti   V 
   6   6   6   6   5
Direct configuration=    20
   0.95661610  0.93013524  0.39547186
   0.63448918  0.26348582  0.40771404
   0.49817778  0.00701439 -0.00118347
  -0.00251680  0.00340449  0.00329669
   0.10243319  0.20806742  0.79704308
   0.04037023  0.06521245  0.59820406
   0.90322376  0.79492972  0.19989879
   0.80343825  0.59154511  0.39665379
   0.73432003  0.47020002  0.19849447
   0.67196480  0.34349557 -0.00775641
   0.37098172  0.72090355  0.60157800
   0.13141941  0.27050578  0.40141404
   0.83577783  0.66735922  0.00032512
   0.92760077  0.87375443  0.79742766
   0.54362566  0.16459312  0.19620274
   0.40650991  0.79424401  0.19510706
   0.43815646  0.85609812  0.79637896
   0.30189291  0.59651066  0.39568681
   0.85983671  0.72418019  0.59672846
   0.46310065  0.92781938  0.40562960
   0.17736841  0.34591974  0.00923295
   0.27333008  0.53000148  0.79838841
   0.20160856  0.38719176  0.59353620
   0.05329394  0.14433133  0.20731854
   0.76412156  0.51955921  0.80584705
   0.68353687  0.41013963  0.60594080
   0.59739562  0.20578133  0.79431200
   0.54561560  0.06761916  0.61040299
   0.34897746  0.64933100  0.00070571
Nb - Mo - Ta - Ti - V SQS               
           1
    -3.219881   -3.166428   -3.191374
     1.481190    1.599908   -7.866301
     7.818133   -7.824956   -1.455612
   Nb   Mo   Ta   Ti   V 
   6   6   6   6   5
Direct configuration=    21
   0.95669072  0.93012641  0.39541458
   0.63452669  0.26323169  0.40784455
   0.49813638  0.00745385 -0.00121307
  -0.00264946  0.00390727  0.00315054
   0.10251617  0.20795756  0.79714844
   0.04024801  0.06476819  0.59826205
   0.90298776  0.79559604  0.19977785
   0.80327662  0.59151366  0.39665265
   0.73506718  0.47040258  0.19852841
   0.67169592  0.34397834 -0.00740810
   0.37108159  0.72051113  0.60132187
   0.13115587  0.27040049  0.40149795
   0.83585822  0.66780420  0.00022620
   0.92762896  0.87321757  0.79755909
   0.54344449  0.16507854  0.19658990
   0.40668511  0.79476358  0.19504282
   0.43883798  0.85587767  0.79625838
   0.30168339  0.59605476  0.39530368
   0.85979681  0.72404605  0.59653210
   0.46299029  0.92777487  0.40547288
   0.17682874  0.34632679  0.00949966
   0.27319549  0.52972201  0.79863622
   0.20142833  0.38707525  0.59368045
   0.05364483  0.14430774  0.20729975
   0.76419469  0.51970703  0.80560153
   0.68404557  0.40963728  0.60562098
   0.59788325  0.20532721  0.79472430
   0.54509606  0.06682904  0.61008228
   0.34869104  0.64993653  0.00089205
Nb - Mo - Ta - Ti - V SQS               
           1
    -3.220146   -3.167218   -3.192158
     1.481146    1.599957   -7.867717
     7.818252   -7.826308   -1.456033
   Nb   Mo   Ta   Ti   V 
   6   6   6   6   5
Direct configuration=    22
   0.95671445  0.93012360  0.39539636
   0.63453861  0.26315088  0.40788605
   0.49812319  0.00759361 -0.00122249
  -0.00269165  0.00406716  0.00310406
   0.10254255  0.20792262  0.79718195
   0.04020917  0.06462692  0.59828049
   0.90291269  0.79580794  0.19973939
   0.80322523  0.59150366  0.39665230
   0.73530475  0.47046699  0.19853918
   0.67161032  0.34413188 -0.00729730
   0.37111342  0.72038632  0.60124040
   0.13107206  0.27036702  0.40152465
   0.83588377  0.66794570  0.00019474
   0.92763794  0.87304684  0.79760089
   0.54338677  0.16523293  0.19671305
   0.40674079  0.79492880  0.19502239
   0.43905473  0.85580755  0.79622000
   0.30161686  0.59590977  0.39518182
   0.85978416  0.72400338  0.59646965
   0.46295523  0.92776072  0.40542304
   0.17665705  0.34645626  0.00958451
   0.27315266  0.52963314  0.79871504
   0.20137100  0.38703820  0.59372634
   0.05375642  0.14430024  0.20729376
   0.76421797  0.51975403  0.80552343
   0.68420742  0.40947751  0.60551924
   0.59803827  0.20518280  0.79485542
   0.54493097  0.06657777  0.60998029
   0.34859988  0.65012911  0.00095133
Nb - Mo - Ta - Ti - V SQS               
           1
    -3.219244   -3.165776   -3.189992
     1.478119    1.601432   -7.861932
     7.810191   -7.820940   -1.450913
   Nb   Mo   Ta   Ti   V 
   6   6   6   6   5
Direct configuration=    23
   0.95677442  0.92980338  0.39535548
   0.63452772  0.26302672  0.40795457
   0.49827645  0.00766441 -0.00134926
  -0.00295896  0.00461182  0.00302386