  29  29   0   0
  0.1632129E+02  0.5473281E-09  0.8209921E-09  0.1128346E-08  0.5000000E-15
  1.000000000000000E-004
  CAR 
 Nb - Mo - Ta - Ti - V SQS               
     11.57513133    -50.41383431  301      6.63588140      1.00000000
    -50.414  0.0000E+00  0.0000E+00
    -50.207  0.0000E+00  0.0000E+00
    -50.001  0.0000E+00  0.0000E+00
    -49.794  0.0000E+00  0.0000E+00
    -49.587  0.0000E+00  0.0000E+00
    -49.381 -0.1254E-34 -0.2592E-35
    -49.174 -0.3924E-27 -0.8109E-28
    -48.967 -0.1426E-20 -0.2946E-21
    -48.761 -0.5815E-15 -0.1202E-15
    -48.554 -0.2837E-10 -0.5862E-11
    -48.348 -0.1573E-06 -0.3252E-07
    -48.141 -0.9737E-04 -0.2015E-04
    -47.934 -0.5929E-02 -0.1245E-02
    -47.728  0.4007E-02 -0.4174E-03
    -47.521  0.3270E+00  0.6715E-01
    -47.314  0.4268E+00  0.1553E+00
    -47.108  0.3430E+00  0.2262E+00
    -46.901  0.7771E-01  0.2423E+00
    -46.694 -0.1028E-01  0.2402E+00
    -46.488 -0.7326E-03  0.2400E+00
    -46.281 -0.3843E-05  0.2400E+00
    -46.075 -0.2109E-08  0.2400E+00
    -45.868 -0.1288E-12  0.2400E+00
    -45.661  0.0000E+00  0.2400E+00
    -45.455  0.0000E+00  0.2400E+00
    -45.248  0.0000E+00  0.2400E+00
    -45.041  0.0000E+00  0.2400E+00
    -44.835  0.0000E+00  0.2400E+00
    -44.628  0.0000E+00  0.2400E+00
    -44.422  0.0000E+00  0.2400E+00
    -44.215  0.0000E+00  0.2400E+00
    -44.008  0.0000E+00  0.2400E+00
    -43.802  0.0000E+00  0.2400E+00
    -43.595  0.0000E+00  0.2400E+00
    -43.388  0.0000E+00  0.2400E+00
    -43.182  0.0000E+00  0.2400E+00
    -42.975  0.0000E+00  0.2400E+00
    -42.769  0.0000E+00  0.2400E+00
    -42.562  0.0000E+00  0.2400E+00
    -42.355  0.0000E+00  0.2400E+00
    -42.149  0.0000E+00  0.2400E+00
    -41.942  0.0000E+00  0.2400E+00
    -41.735  0.0000E+00  0.2400E+00
    -41.529  0.0000E+00  0.2400E+00
    -41.322  0.0000E+00  0.2400E+00
    -41.115  0.0000E+00  0.2400E+00
    -40.909  0.0000E+00  0.2400E+00
    -40.702  0.0000E+00  0.2400E+00
    -40.496  0.0000E+00  0.2400E+00
    -40.289  0.0000E+00  0.2400E+00
    -40.082  0.0000E+00  0.2400E+00
    -39.876  0.0000E+00  0.2400E+00
    -39.669  0.0000E+00  0.2400E+00
    -39.462  0.0000E+00  0.2400E+00
    -39.256  0.0000E+00  0.2400E+00
    -39.049  0.0000E+00  0.2400E+00
    -38.843  0.0000E+00  0.2400E+00
    -38.636  0.0000E+00  0.2400E+00
    -38.429  0.0000E+00  0.2400E+00
    -38.223  0.0000E+00  0.2400E+00
    -38.016  0.0000E+00  0.2400E+00
    -37.809  0.0000E+00  0.2400E+00
    -37.603  0.0000E+00  0.2400E+00
    -37.396  0.0000E+00  0.2400E+00
    -37.190  0.0000E+00  0.2400E+00
    -36.983  0.0000E+00  0.2400E+00
    -36.776  0.0000E+00  0.2400E+00
    -36.570  0.0000E+00  0.2400E+00
    -36.363  0.0000E+00  0.2400E+00
    -36.156  0.0000E+00  0.2400E+00
    -35.950  0.0000E+00  0.2400E+00
    -35.743  0.0000E+00  0.2400E+00
    -35.536  0.0000E+00  0.2400E+00
    -35.330  0.0000E+00  0.2400E+00
    -35.123  0.0000E+00  0.2400E+00
    -34.917  0.0000E+00  0.2400E+00
    -34.710  0.0000E+00  0.2400E+00
    -34.503  0.0000E+00  0.2400E+00
    -34.297  0.0000E+00  0.2400E+00
    -34.090  0.0000E+00  0.2400E+00
    -33.883  0.0000E+00  0.2400E+00
    -33.677  0.0000E+00  0.2400E+00
    -33.470  0.0000E+00  0.2400E+00
    -33.264  0.0000E+00  0.2400E+00
    -33.057  0.0000E+00  0.2400E+00
    -32.850  0.0000E+00  0.2400E+00
    -32.644  0.0000E+00  0.2400E+00
    -32.437  0.0000E+00  0.2400E+00
    -32.230  0.0000E+00  0.2400E+00
    -32.024  0.0000E+00  0.2400E+00
    -31.817  0.0000E+00  0.2400E+00
    -31.611  0.0000E+00  0.2400E+00
    -31.404  0.0000E+00  0.2400E+00
    -31.197  0.0000E+00  0.2400E+00
    -30.991  0.0000E+00  0.2400E+00
    -30.784  0.0000E+00  0.2400E+00
    -30.577  0.0000E+00  0.2400E+00
    -30.371  0.0000E+00  0.2400E+00
    -30.164  0.0000E+00  0.2400E+00
    -29.957  0.0000E+00  0.2400E+00
    -29.751  0.0000E+00  0.2400E+00
    -29.544  0.0000E+00  0.2400E+00
    -29.338  0.0000E+00  0.2400E+00
    -29.131  0.0000E+00  0.2400E+00
    -28.924  0.0000E+00  0.2400E+00
    -28.718  0.0000E+00  0.2400E+00
    -28.511  0.0000E+00  0.2400E+00
    -28.304  0.0000E+00  0.2400E+00
    -28.098  0.0000E+00  0.2400E+00
    -27.891  0.0000E+00  0.2400E+00
    -27.685  0.0000E+00  0.2400E+00
    -27.478  0.0000E+00  0.2400E+00
    -27.271  0.0000E+00  0.2400E+00
    -27.065  0.0000E+00  0.2400E+00
    -26.858  0.0000E+00  0.2400E+00
    -26.651  0.0000E+00  0.2400E+00
    -26.445  0.0000E+00  0.2400E+00
    -26.238  0.0000E+00  0.2400E+00
    -26.032 -0.3625E-36  0.2400E+00
    -25.825 -0.1394E-28  0.2400E+00
    -25.618 -0.6199E-22  0.2400E+00
    -25.412 -0.3100E-16  0.2400E+00
    -25.205 -0.1953E-11  0.2400E+00
    -24.998 -0.1451E-07  0.2400E+00
    -24.792 -0.1313E-04  0.2400E+00
    -24.585 -0.1368E-02  0.2397E+00
    -24.378 -0.7576E-02  0.2381E+00
    -24.172  0.1066E+00  0.2602E+00
    -23.965  0.2657E+00  0.3151E+00
    -23.759  0.5908E+00  0.4372E+00
    -23.552  0.8002E+00  0.6025E+00
    -23.345  0.8466E+00  0.7774E+00
    -23.139  0.6123E+00  0.9039E+00
    -22.932  0.2060E+00  0.9465E+00
    -22.725  0.6345E-01  0.9596E+00
    -22.519  0.3636E-02  0.9604E+00
    -22.312 -0.1684E-02  0.9600E+00
    -22.106 -0.4951E-04  0.9600E+00
    -21.899 -0.1354E-06  0.9600E+00
    -21.692 -0.4120E-10  0.9600E+00
    -21.486 -0.1437E-14  0.9600E+00
    -21.279  0.0000E+00  0.9600E+00
    -21.072  0.0000E+00  0.9600E+00
    -20.866  0.0000E+00  0.9600E+00
    -20.659  0.0000E+00  0.9600E+00
    -20.453  0.0000E+00  0.9600E+00
    -20.246  0.0000E+00  0.9600E+00
    -20.039  0.0000E+00  0.9600E+00
    -19.833  0.0000E+00  0.9600E+00
    -19.626  0.0000E+00  0.9600E+00
    -19.419  0.0000E+00  0.9600E+00
    -19.213  0.0000E+00  0.9600E+00
    -19.006  0.0000E+00  0.9600E+00
    -18.799  0.0000E+00  0.9600E+00
    -18.593  0.0000E+00  0.9600E+00
    -18.386  0.0000E+00  0.9600E+00
    -18.180  0.0000E+00  0.9600E+00
    -17.973  0.0000E+00  0.9600E+00
    -17.766  0.0000E+00  0.9600E+00
    -17.560  0.0000E+00  0.9600E+00
    -17.353  0.0000E+00  0.9600E+00
    -17.146  0.0000E+00  0.9600E+00
    -16.940  0.0000E+00  0.9600E+00
    -16.733  0.0000E+00  0.9600E+00
    -16.527  0.0000E+00  0.9600E+00
    -16.320  0.0000E+00  0.9600E+00
    -16.113  0.0000E+00  0.9600E+00
    -15.907  0.0000E+00  0.9600E+00
    -15.700  0.0000E+00  0.9600E+00
    -15.493  0.0000E+00  0.9600E+00
    -15.287  0.0000E+00  0.9600E+00
    -15.080  0.0000E+00  0.9600E+00
    -14.873  0.0000E+00  0.9600E+00
    -14.667  0.0000E+00  0.9600E+00
    -14.460  0.0000E+00  0.9600E+00
    -14.254  0.0000E+00  0.9600E+00
    -14.047  0.0000E+00  0.9600E+00
    -13.840  0.0000E+00  0.9600E+00
    -13.634  0.0000E+00  0.9600E+00
    -13.427  0.0000E+00  0.9600E+00
    -13.220  0.0000E+00  0.9600E+00
    -13.014  0.0000E+00  0.9600E+00
    -12.807  0.0000E+00  0.9600E+00
    -12.601  0.0000E+00  0.9600E+00
    -12.394  0.0000E+00  0.9600E+00
    -12.187  0.0000E+00  0.9600E+00
    -11.981  0.0000E+00  0.9600E+00
    -11.774  0.0000E+00  0.9600E+00
    -11.567  0.0000E+00  0.9600E+00
    -11.361  0.0000E+00  0.9600E+00
    -11.154  0.0000E+00  0.9600E+00
    -10.948  0.0000E+00  0.9600E+00
    -10.741  0.0000E+00  0.9600E+00
    -10.534  0.0000E+00  0.9600E+00
    -10.328  0.0000E+00  0.9600E+00
    -10.121  0.0000E+00  0.9600E+00
     -9.914  0.0000E+00  0.9600E+00
     -9.708  0.0000E+00  0.9600E+00
     -9.501  0.0000E+00  0.9600E+00
     -9.294  0.0000E+00  0.9600E+00
     -9.088  0.0000E+00  0.9600E+00
     -8.881  0.0000E+00  0.9600E+00
     -8.675  0.0000E+00  0.9600E+00
     -8.468  0.0000E+00  0.9600E+00
     -8.261  0.0000E+00  0.9600E+00
     -8.055  0.0000E+00  0.9600E+00
     -7.848  0.0000E+00  0.9600E+00
     -7.641  0.0000E+00  0.9600E+00
     -7.435  0.0000E+00  0.9600E+00
     -7.228  0.0000E+00  0.9600E+00
     -7.022  0.0000E+00  0.9600E+00
     -6.815  0.0000E+00  0.9600E+00
     -6.608  0.0000E+00  0.9600E+00
     -6.402  0.0000E+00  0.9600E+00
     -6.195  0.0000E+00  0.9600E+00
     -5.988  0.0000E+00  0.9600E+00
     -5.782  0.0000E+00  0.9600E+00
     -5.575  0.0000E+00  0.9600E+00
     -5.369  0.0000E+00  0.9600E+00
     -5.162  0.0000E+00  0.9600E+00
     -4.955  0.0000E+00  0.9600E+00
     -4.749  0.0000E+00  0.9600E+00
     -4.542  0.0000E+00  0.9600E+00
     -4.335  0.0000E+00  0.9600E+00
     -4.129  0.0000E+00  0.9600E+00
     -3.922  0.0000E+00  0.9600E+00
     -3.715  0.0000E+00  0.9600E+00
     -3.509  0.0000E+00  0.9600E+00
     -3.302  0.0000E+00  0.9600E+00
     -3.096  0.0000E+00  0.9600E+00
     -2.889  0.0000E+00  0.9600E+00
     -2.682  0.0000E+00  0.9600E+00
     -2.476  0.0000E+00  0.9600E+00
     -2.269  0.0000E+00  0.9600E+00
     -2.062  0.0000E+00  0.9600E+00
     -1.856 -0.7270E-32  0.9600E+00
     -1.649 -0.5447E-25  0.9600E+00
     -1.443 -0.4838E-19  0.9600E+00
     -1.236 -0.4928E-14  0.9600E+00
     -1.029 -0.6122E-10  0.9600E+00
     -0.823 -0.9064E-07  0.9600E+00
     -0.616 -0.1587E-04  0.9600E+00
     -0.409 -0.2856E-03  0.9599E+00
     -0.203  0.1123E-02  0.9602E+00
      0.004  0.1332E-01  0.9629E+00
      0.210  0.2515E-01  0.9681E+00
      0.417  0.3138E-01  0.9746E+00
      0.624  0.4213E-01  0.9833E+00
      0.830  0.3603E-01  0.9908E+00
      1.037  0.4705E-01  0.1000E+01
      1.244  0.6375E-01  0.1014E+01
      1.450  0.6362E-01  0.1027E+01
      1.657  0.7203E-01  0.1042E+01
      1.864  0.8278E-01  0.1059E+01
      2.070  0.1006E+00  0.1080E+01
      2.277  0.1173E+00  0.1104E+01
      2.483  0.1596E+00  0.1137E+01
      2.690  0.2806E+00  0.1195E+01
      2.897  0.3829E+00  0.1274E+01
      3.103  0.4529E+00  0.1367E+01
      3.310  0.5563E+00  0.1482E+01
      3.517  0.5859E+00  0.1603E+01
      3.723  0.5921E+00  0.1726E+01
      3.930  0.6069E+00  0.1851E+01
      4.136  0.6162E+00  0.1979E+01
      4.343  0.5950E+00  0.2101E+01
      4.550  0.5607E+00  0.2217E+01
      4.756  0.5756E+00  0.2336E+01
      4.963  0.6485E+00  0.2470E+01
      5.170  0.7848E+00  0.2632E+01
      5.376  0.8205E+00  0.2802E+01
      5.583  0.8577E+00  0.2979E+01
      5.789  0.8370E+00  0.3152E+01
      5.996  0.8303E+00  0.3324E+01
      6.203  0.8540E+00  0.3500E+01
      6.409  0.8172E+00  0.3669E+01
      6.616  0.7579E+00  0.3826E+01
      6.823  0.6739E+00  0.3965E+01
      7.029  0.6098E+00  0.4091E+01
      7.236  0.5302E+00  0.4200E+01
      7.443  0.4107E+00  0.4285E+01
      7.649  0.3821E+00  0.4364E+01
      7.856  0.4297E+00  0.4453E+01
      8.062  0.5298E+00  0.4563E+01
      8.269  0.5708E+00  0.4680E+01
      8.476  0.4088E+00  0.4765E+01
      8.682  0.1620E+00  0.4798E+01
      8.889  0.1103E-01  0.4801E+01
      9.096 -0.3321E-02  0.4800E+01
      9.302 -0.1987E-03  0.4800E+01
      9.509 -0.1642E-05  0.4800E+01
      9.715 -0.1962E-08  0.4800E+01
      9.922 -0.3072E-12  0.4800E+01
     10.129 -0.5639E-17  0.4800E+01
     10.335  0.0000E+00  0.4800E+01
     10.542  0.0000E+00  0.4800E+01
     10.749  0.0000E+00  0.4800E+01
     10.955  0.0000E+00  0.4800E+01
     11.162  0.0000E+00  0.4800E+01
     11.369  0.0000E+00  0.4800E+01
     11.575  0.0000E+00  0.4800E+01
