   29   29   50    1
  0.1632129E+02  0.5473281E-09  0.8209921E-09  0.1128346E-08  0.5000000E-15
  1.000000000000000E-004
  CAR 
 Nb - Mo - Ta - Ti - V SQS               
    192    172    120
 
  0.0000000E+00  0.0000000E+00  0.0000000E+00  0.2915452E-02
    1      -47.596154   1.000000
    2      -47.536261   1.000000
    3      -47.504048   1.000000
    4      -47.332487   1.000000
    5      -47.248862   1.000000
    6      -47.130777   1.000000
    7      -24.228933   1.000000
    8      -24.128430   1.000000
    9      -23.927167   1.000000
   10      -23.835408   1.000000
   11      -23.777452   1.000000
   12      -23.741132   1.000000
   13      -23.709199   1.000000
   14      -23.652632   1.000000
   15      -23.581078   1.000000
   16      -23.498355   1.000000
   17      -23.471505   1.000000
   18      -23.447869   1.000000
   19      -23.350746   1.000000
   20      -23.332088   1.000000
   21      -23.276236   1.000000
   22      -23.254704   1.000000
   23      -23.073686   1.000000
   24      -22.806602   1.000000
   25       -0.212660   1.000000
   26        1.115732   1.000000
   27        1.458024   1.000000
   28        2.276090   1.000000
   29        2.380380   1.000000
   30        2.475806   1.000000
   31        2.613454   1.000000
   32        2.663858   1.000000
   33        2.748118   1.000000
   34        2.823372   1.000000
   35        2.914891   1.000000
   36        2.942973   1.000000
   37        2.969816   1.000000
   38        3.139930   1.000000
   39        3.179934   1.000000
   40        3.256546   1.000000
   41        3.331474   1.000000
   42        3.474666   1.000000
   43        3.546814   1.000000
   44        3.583244   1.000000
   45        3.650820   1.000000
   46        3.715458   1.000000
   47        3.779347   1.000000
   48        3.845138   1.000000
   49        3.954480   1.000000
   50        4.017485   1.000000
   51        4.112145   1.000000
   52        4.116811   1.000000
   53        4.239580   1.000000
   54        4.297311   1.000000
   55        4.347596   1.000000
   56        4.487190   1.000000
   57        4.512391   1.000000
   58        4.545352   1.000000
   59        4.566695   1.000000
   60        4.620679   1.000000
   61        4.814476   1.000000
   62        4.861675   1.000000
   63        4.938236   1.000000
   64        4.981436   1.000000
   65        5.039761   1.000000
   66        5.120083   1.000000
   67        5.140073   1.000000
   68        5.215811   1.000000
   69        5.263210   1.000000
   70        5.294281   1.000000
   71        5.336786   1.000000
   72        5.396538   1.000000
   73        5.475065   1.000000
   74        5.483613   1.000000
   75        5.515086   1.000000
   76        5.593248   1.000000
   77        5.691286   1.000000
   78        5.734270   1.000000
   79        5.775975   1.000000
   80        5.842983   1.000000
   81        5.875575   1.000001
   82        5.999834   1.000033
   83        6.052976   1.000149
   84        6.101254   1.000516
   85        6.160921   1.001989
   86        6.245810   1.009354
   87        6.258426   1.011309
   88        6.291878   1.017684
   89        6.341195   1.028819
   90        6.360473   1.032578
   91        6.439114   1.023368
   92        6.530349   0.884911
   93        6.543745   0.847744
   94        6.641879   0.474634
   95        6.774518   0.042528
   96        6.808919  -0.004896
   97        6.941259  -0.026438
   98        6.975088  -0.018721
   99        7.049476  -0.006379
  100        7.090728  -0.002990
  101        7.162379  -0.000628
  102        7.167745  -0.000552
  103        7.252421  -0.000058
  104        7.431415  -0.000000
  105        7.588581  -0.000000
  106        7.601843  -0.000000
  107        7.704371  -0.000000
  108        7.752518  -0.000000
  109        7.921753  -0.000000
  110        8.095845  -0.000000
  111        8.147513  -0.000000
  112        8.208671  -0.000000
  113        8.313246  -0.000000
  114        8.405102  -0.000000
  115        8.456563  -0.000000
  116        8.515878  -0.000000
  117        8.553096  -0.000000
  118        8.561705  -0.000000
  119        8.622111  -0.000000
  120        8.704700  -0.000000
 
  0.1428571E+00  0.0000000E+00 -0.1561251E-16  0.5830904E-02
    1      -47.596025   1.000000
    2      -47.536038   1.000000
    3      -47.500346   1.000000
    4      -47.332281   1.000000
    5      -47.248799   1.000000
    6      -47.135026   1.000000
    7      -24.175427   1.000000
    8      -24.121908   1.000000
    9      -23.924763   1.000000
   10      -23.832624   1.000000
   11      -23.777814   1.000000
   12      -23.741639   1.000000
   13      -23.709354   1.000000
   14      -23.648556   1.000000
   15      -23.581622   1.000000
   16      -23.500474   1.000000
   17      -23.472865   1.000000
   18      -23.449471   1.000000
   19      -23.352156   1.000000
   20      -23.334205   1.000000
   21      -23.280493   1.000000
   22      -23.258231   1.000000
   23      -23.073960   1.000000
   24      -22.877174   1.000000
   25       -0.049382   1.000000
   26        1.262521   1.000000
   27        1.594462   1.000000
   28        2.293946   1.000000
   29        2.499145   1.000000
   30        2.598394   1.000000
   31        2.717900   1.000000
   32        2.754870   1.000000
   33        2.817663   1.000000
   34        2.868839   1.000000
   35        3.009154   1.000000
   36        3.057661   1.000000
   37        3.119317   1.000000
   38        3.210165   1.000000
   39        3.240633   1.000000
   40        3.340672   1.000000
   41        3.404818   1.000000
   42        3.500520   1.000000
   43        3.572553   1.000000
   44        3.627420   1.000000
   45        3.667794   1.000000
   46        3.722440   1.000000
   47        3.829550   1.000000
   48        3.935157   1.000000
   49        4.029509   1.000000
   50        4.089424   1.000000
   51        4.112272   1.000000
   52        4.185058   1.000000
   53        4.243274   1.000000
   54        4.341256   1.000000
   55        4.367971   1.000000
   56        4.461621   1.000000
   57        4.520333   1.000000
   58        4.588416   1.000000
   59        4.625516   1.000000
   60        4.673614   1.000000
   61        4.886194   1.000000
   62        4.908092   1.000000
   63        4.975301   1.000000
   64        5.050781   1.000000
   65        5.091067   1.000000
   66        5.115157   1.000000
   67        5.169769   1.000000
   68        5.224297   1.000000
   69        5.280786   1.000000
   70        5.312442   1.000000
   71        5.368448   1.000000
   72        5.437198   1.000000
   73        5.468423   1.000000
   74        5.510658   1.000000
   75        5.566769   1.000000
   76        5.625659   1.000000
   77        5.652270   1.000000
   78        5.695909   1.000000
   79        5.778982   1.000000
   80        5.810398   1.000000
   81        5.864678   1.000000
   82        5.953409   1.000008
   83        5.994360   1.000028
   84        6.090509   1.000396
   85        6.123579   1.000876
   86        6.194464   1.003871
   87        6.215123   1.005636
   88        6.271165   1.013541
   89        6.316070   1.023110
   90        6.343628   1.029339
   91        6.428622   1.028495
   92        6.482822   0.980629
   93        6.518658   0.913687
   94        6.606424   0.623156
   95        6.626277   0.540589
   96        6.705517   0.224215
   97        6.828868  -0.021095
   98        6.939574  -0.026821
   99        6.968053  -0.020283
  100        7.016319  -0.010824
  101        7.096433  -0.002670
  102        7.132483  -0.001249
  103        7.211521  -0.000182
  104        7.267960  -0.000037
  105        7.363853  -0.000002
  106        7.406099  -0.000000
  107        7.504380  -0.000000
  108        7.631821  -0.000000
  109        7.823110  -0.000000
  110        7.903986  -0.000000
  111        8.005028  -0.000000
  112        8.095281  -0.000000
  113        8.186830  -0.000000
  114        8.204948  -0.000000
  115        8.295543  -0.000000
  116        8.328118  -0.000000
  117        8.377765  -0.000000
  118        8.416093  -0.000000
  119        8.464349  -0.000000
  120        8.532414  -0.000000
 
  0.2857143E+00  0.1387779E-16  0.3469447E-17  0.5830904E-02
    1      -47.595738   1.000000
    2      -47.535610   1.000000
    3      -47.491619   1.000000
    4      -47.331801   1.000000
    5      -47.248659   1.000000
    6      -47.144922   1.000000
    7      -24.135762   1.000000
    8      -24.001250   1.000000
    9      -23.916054   1.000000
   10      -23.822164   1.000000
   11      -23.778457   1.000000
   12      -23.742960   1.000000
   13      -23.709540   1.000000
   14      -23.638958   1.000000
   15      -23.582709   1.000000
   16      -23.505765   1.000000
   17      -23.475498   1.000000
   18      -23.452991   1.000000
   19      -23.358693   1.000000
   20      -23.336329   1.000000
   21      -23.290943   1.000000
   22      -23.266282   1.000000
   23      -23.083507   1.000000
   24      -23.058676   1.000000
   25        0.413772   1.000000
   26        1.653933   1.000000
   27        1.958726   1.000000
   28        2.414189   1.000000
   29        2.641799   1.000000
   30        2.745438   1.000000
   31        2.855821   1.000000
   32        2.996727   1.000000
   33        3.009636   1.000000
   34        3.061754   1.000000
   35        3.199341   1.000000
   36        3.301466   1.000000
   37        3.346004   1.000000
   38        3.410471   1.000000
   39        3.449136   1.000000
   40        3.490785   1.000000
   41        3.518808   1.000000
   42        3.631059   1.000000
   43        3.650227   1.000000
   44        3.762232   1.000000
   45        3.815017   1.000000
   46        3.854893   1.000000
   47        3.906734   1.000000
   48        3.975095   1.000000
   49        4.035543   1.000000
   50        4.208790   1.000000
   51        4.248803   1.000000
   52        4.334105   1.000000
   53        4.402449   1.000000
   54        4.478601   1.000000
   55        4.512777   1.000000
   56        4.553007   1.000000
   57        4.591364   1.000000
   58        4.686729   1.000000
   59        4.734936   1.000000
   60        4.799586   1.000000
   61        4.874434   1.000000
   62        4.954710   1.000000
   63        4.995836   1.000000
   64        5.040113   1.000000
   65        5.104181   1.000000
   66        5.156603   1.000000
   67        5.204007   1.000000
   68        5.242450   1.000000
   69        5.310518   1.000000
   70        5.372014   1.000000
   71        5.433093   1.000000
   72        5.476591   1.000000
   73        5.513927   1.000000
   74        5.546183   1.000000
   75        5.611205   1.000000
   76        5.623832   1.000000
   77        5.690029   1.000000
   78        5.723547   1.000000
   79        5.767207   1.000000
   80        5.795947   1.000000
   81        5.843148   1.000000
   82        5.877182   1.000001
   83        5.943101   1.000006
   84        6.005161   1.000039
   85        6.026492   1.000072
   86        6.108494   1.000615
   87        6.150101   1.001582
   88        6.198809   1.004199
   89        6.266562   1.012706
   90        6.309639   1.021629
   91        6.379386   1.034984
   92        6.412771   1.033336
   93        6.448185   1.017509
   94        6.501696   0.949310
   95        6.569462   0.764601
   96        6.631722   0.517597
   97        6.644989   0.461508
   98        6.726458   0.156868
   99        6.798439   0.006752
  100        6.839212  -0.026770
  101        6.877617  -0.035417
  102        6.930683  -0.028794
  103        7.059343  -0.005374
  104        7.075736  -0.003987
  105        7.126453  -0.001426
  106        7.210865  -0.000185
  107        7.270521  -0.000034
  108        7.385077  -0.000001
  109        7.479999  -0.000000
  110        7.528983  -0.000000
  111        7.656694  -0.000000
  112        7.753041  -0.000000
  113        7.795370  -0.000000
  114        7.879886  -0.000000
  115        7.923137  -0.000000
  116        8.022762  -0.000000
  117        8.050454  -0.000000
  118        8.138265  -0.000000
  119        8.284916  -0.000000
  120        8.311622  -0.000000
 
  0.4285714E+00  0.5551115E-16 -0.4163336E-16  0.5830904E-02
    1      -47.595508   1.000000
    2      -47.535316   1.000000
    3      -47.484197   1.000000
    4      -47.331395   1.000000
    5      -47.248547   1.000000
    6      -47.153252   1.000000
    7      -24.133226   1.000000
    8      -23.923597   1.000000
    9      -23.852593   1.000000
   10      -23.780359   1.000000
   11      -23.744458   1.000000
   12      -23.732097   1.000000
   13      -23.707478   1.000000
   14      -23.631579   1.000000
   15      -23.583431   1.000000
   16      -23.512157   1.000000
   17      -23.477667   1.000000
   18      -23.455735   1.000000
   19      -23.367478   1.000000
   20      -23.341789   1.000000
   21      -23.321994   1.000000
   22      -23.286833   1.000000
   23      -23.266284   1.000000
   24      -23.072784   1.000000
   25        1.084790   1.000000
   26        1.855627   1.000000
   27        2.278676   1.000000
   28        2.476448   1.000000
   29        2.625067   1.000000
   30        2.837818   1.000000
   31        2.966953   1.000000
   32        3.088114   1.000000
   33        3.201462   1.000000
   34        3.273525   1.000000
   35        3.303178   1.000000
   36        3.367148   1.000000
   37        3.414679   1.000000
   38        3.550903   1.000000
   39        3.605594   1.000000
   40        3.681624   1.000000
   41        3.703736   1.000000
   42        3.772940   1.000000
   43        3.848716   1.000000
   44        3.905567   1.000000
   45        3.987358   1.000000
   46        4.035050   1.000000
   47        4.053556   1.000000
   48        4.143893   1.000000
   49        4.190226   1.000000
   50        4.269875   1.000000
   51        4.342732   1.000000
   52        4.386182   1.000000
   53        4.471205   1.000000
   54        4.532258   1.000000
   55        4.568581   1.000000
   56        4.654947   1.000000
   57        4.702476   1.000000
   58        4.776503   1.000000
   59        4.788317   1.000000
   60        4.819854   1.000000
   61        4.861688   1.000000
   62        4.896728   1.000000
   63        5.045559   1.000000
   64        5.097579   1.000000
   65        5.133899   1.000000
   66        5.181682   1.000000
   67        5.229014   1.000000
   68        5.259827   1.000000
   69        5.327967   1.000000
   70        5.367327   1.000000
   71        5.402269   1.000000
   72        5.450108   1.000000
   73        5.514347   1.000000
   74        5.552827   1.000000
   75        5.587643   1.000000
   76        5.615733   1.000000
   77        5.654391   1.000000
   78        5.711293   1.000000
   79        5.769677   1.000000
   80        5.798626   1.000000
   81        5.841217   1.000000
   82        5.904019   1.000001
   83        5.948888   1.000007
   84        5.988818   1.000024
   85        6.069021   1.000229
   86        6.089137   1.000383
   87        6.123060   1.000865
   88        6.168111   1.002307
   89        6.189740   1.003539
   90        6.237663   1.008227
   91        6.298410   1.019102
   92        6.331691   1.026708
   93        6.371658   1.034207
   94        6.403123   1.034837
   95        6.495897   0.959847
   96        6.527743   0.891624
   97        6.609811   0.609281
   98        6.676383   0.332459
   99        6.709226   0.211578
  100        6.752290   0.088205
  101        6.828041  -0.020566
  102        6.857932  -0.033110
  103        6.932387  -0.028423
  104        6.947002  -0.025120
  105        7.044817  -0.006901
  106        7.083898  -0.003414
  107        7.105618  -0.002216
  108        7.178571  -0.000423
  109        7.309824  -0.000010
  110        7.447790  -0.000000
  111        7.487127  -0.000000
  112        7.541143  -0.000000
  113        7.632990  -0.000000
  114        7.701720  -0.000000
  115        7.767305  -0.000000
  116        7.834287  -0.000000
  117        7.916897  -0.000000
  118        8.055876  -0.000000
  119        8.086633  -0.000000
  120        8.146167  -0.000000
 
 -0.6938894E-17  0.1428571E+00  0.1040834E-16  0.5830904E-02
    1      -47.596074   1.000000
    2      -47.536282   1.000000
    3      -47.504048   1.000000
    4      -47.332487   1.000000
    5      -47.248922   1.000000
    6      -47.130775   1.000000
    7      -24.228925   1.000000
    8      -24.127682   1.000000
    9      -23.924959   1.000000
   10      -23.835278   1.000000
   11      -23.777300   1.000000
   12      -23.741142   1.000000
   13      -23.709193   1.000000
   14      -23.652689   1.000000
   15      -23.581074   1.000000
   16      -23.498335   1.000000
   17      -23.471541   1.000000
   18      -23.447834   1.000000
   19      -23.350757   1.000000
   20      -23.332148   1.000000
   21      -23.276266   1.000000
   22      -23.258275   1.000000
   23      -23.073898   1.000000
   24      -22.806608   1.000000
   25       -0.144553   1.000000
   26        1.151485   1.000000
   27        1.522012   1.000000
   28        1.992906   1.000000
   29        2.409925   1.000000
   30        2.480975   1.000000
   31        2.609025   1.000000
   32        2.659594   1.000000
   33        2.737658   1.000000
   34        2.844344   1.000000
   35        2.932815   1.000000
   36        2.957439   1.000000
   37        2.989316   1.000000
   38        3.138738   1.000000
   39        3.181648   1.000000
   40        3.259654   1.000000
   41        3.315413   1.000000
   42        3.422429   1.000000
   43        3.512573   1.000000
   44        3.607139   1.000000
   45        3.659921   1.000000
   46        3.764883   1.000000
   47        3.815231   1.000000
   48        3.856395   1.000000
   49        3.997444   1.000000
   50        4.042219   1.000000
   51        4.101921   1.000000
   52        4.113773   1.000000
   53        4.206432   1.000000
   54        4.299973   1.000000
   55        4.334140   1.000000
   56        4.407433   1.000000
   57        4.529727   1.000000
   58        4.559269   1.000000
   59        4.614891   1.000000
   60        4.710769   1.000000
   61        4.840385   1.000000
   62        4.899333   1.000000
   63        4.938965   1.000000
   64        5.000528   1.000000
   65        5.058953   1.000000
   66        5.153503   1.000000
   67        5.166238   1.000000
   68        5.231284   1.000000
   69        5.254353   1.000000
   70        5.289616   1.000000
   71        5.340789   1.000000
   72        5.380275   1.000000
   73        5.484728   1.000000
   74        5.513362   1.000000
   75        5.576912   1.000000
   76        5.606581   1.000000
   77        5.662702   1.000000
   78        5.748309   1.000000
   79        5.777134   1.000000
   80        5.862872   1.000000
   81        5.895974   1.000001
   82        5.957620   1.000009
   83        6.038443   1.000100
   84        6.070755   1.000239
   85        6.139609   1.001258
   86        6.197730   1.004115
   87        6.235864   1.007992
   88        6.298118   1.019037
   89        6.304192   1.020391
   90        6.361301   1.032716
   91        6.393640   1.035429
   92        6.472351   0.994427
   93        6.501752   0.949206
   94        6.611790   0.601124
   95        6.704443   0.227926
   96        6.782292   0.029433
   97        6.885679  -0.035370
   98        6.978412  -0.017999
   99        7.016175  -0.010847
  100        7.111182  -0.001975
  101        7.166803  -0.000565
  102        7.316254  -0.000008
  103        7.360982  -0.000002
  104        7.461685  -0.000000
  105        7.526555  -0.000000
  106        7.557884  -0.000000
  107        7.669001  -0.000000
  108        7.803955  -0.000000
  109        7.919714  -0.000000
  110        8.013776  -0.000000
  111        8.072767  -0.000000
  112        8.201201  -0.000000
  113        8.269574  -0.000000
  114        8.279881  -0.000000
  115        8.330710  -0.000000
  116        8.410271  -0.000000
  117        8.499428  -0.000000
  118        8.513042  -0.000000
  119        8.524977  -0.000000
  120        8.665681  -0.000000
 
  0.1428571E+00  0.1428571E+00 -0.1387779E-16  0.5830904E-02
    1      -47.596101   1.000000
    2      -47.536018   1.000000
    3      -47.500347   1.000000
    4      -47.332282   1.000000
    5      -47.248741   1.000000
    6      -47.135028   1.000000
    7      -24.175507   1.000000
    8      -24.122549   1.000000
    9      -23.926959   1.000000
   10      -23.832748   1.000000
   11      -23.777962   1.000000
   12      -23.741645   1.000000
   13      -23.709360   1.000000
   14      -23.648524   1.000000
   15      -23.581637   1.000000
   16      -23.500485   1.000000
   17      -23.472835   1.000000
   18      -23.449464   1.000000
   19      -23.352135   1.000000
   20      -23.334156   1.000000
   21      -23.280417   1.000000
   22      -23.254808   1.000000
   23      -23.073772   1.000000
   24      -22.877168   1.000000
   25       -0.046093   1.000000
   26        1.246201   1.000000
   27        1.608802   1.000000
   28        2.273446   1.000000
   29        2.498995   1.000000
   30        2.591964   1.000000
   31        2.714238   1.000000
   32        2.729512   1.000000
   33        2.764462   1.000000
   34        2.897125   1.000000
   35        2.933961   1.000000
   36        3.014308   1.000000
   37        3.077948   1.000000
   38        3.208386   1.000000
   39        3.243503   1.000000
   40        3.324580   1.000000
   41        3.382508   1.000000
   42        3.515688   1.000000
   43        3.602973   1.000000
   44        3.635840   1.000000
   45        3.667942   1.000000
   46        3.765302   1.000000
   47        3.844843   1.000000
   48        3.899865   1.000000
   49        4.042644   1.000000
   50        4.082359   1.000000
   51        4.128236   1.000000
   52        4.171403   1.000000
   53        4.222633   1.000000
   54        4.315200   1.000000
   55        4.420254   1.000000
   56        4.475175   1.000000
   57        4.543244   1.000000
   58        4.637580   1.000000
   59        4.672214   1.000000
   60        4.712109   1.000000
   61        4.859803   1.000000
   62        4.886478   1.000000
   63        4.949050   1.000000
   64        5.002504   1.000000
   65        5.054272   1.000000
   66        5.132243   1.000000
   67        5.186677   1.000000
   68        5.212777   1.000000
   69        5.271824   1.000000
   70        5.321827   1.000000
   71        5.356922   1.000000
   72        5.392478   1.000000
   73        5.467803   1.000000
   74        5.484686   1.000000
   75        5.567866   1.000000
   76        5.600227   1.000000
   77        5.651668   1.000000
   78        5.709325   1.000000
   79        5.736107   1.000000
   80        5.802821   1.000000
   81        5.857289   1.000000
   82        5.955810   1.000008
   83        6.026921   1.000073
   84        6.070196   1.000236
   85        6.094678   1.000439
   86        6.185137   1.003239
   87        6.232281   1.007540
   88        6.267078   1.012798
   89        6.324019   1.024949
   90        6.345657   1.029765
   91        6.445044   1.019697
   92        6.493121   0.964599
   93        6.554034   0.816263
   94        6.623677   0.551535
   95        6.690606   0.277772
   96        6.762079   0.066565
   97        6.837455  -0.025925
   98        6.924782  -0.030039
   99        7.005990  -0.012566
  100        7.061214  -0.005198
  101        7.093220  -0.002846
  102        7.140613  -0.001041
  103        7.184283  -0.000367
  104        7.256415  -0.000052
  105        7.391998  -0.000001
  106        7.404791  -0.000000
  107        7.522212  -0.000000
  108        7.615722  -0.000000
  109        7.814798  -0.000000
  110        7.888314  -0.000000
  111        8.044022  -0.000000
  112        8.149528  -0.000000
  113        8.232868  -0.000000
  114        8.298182  -0.000000
  115        8.354660  -0.000000
  116        8.414763  -0.000000
  117        8.464900  -0.000000
  118        8.507256  -0.000000
  119        8.579641  -0.000000
  120        8.630949  -0.000000
 
  0.2857143E+00  0.1428571E+00  0.2775558E-16  0.5830904E-02
    1      -47.595911   1.000000
    2      -47.535564   1.000000
    3      -47.491621   1.000000
    4      -47.331802   1.000000
    5      -47.248526   1.000000
    6      -47.144926   1.000000
    7      -24.137196   1.000000
    8      -24.001749   1.000000
    9      -23.920875   1.000000
   10      -23.822387   1.000000
   11      -23.778789   1.000000
   12      -23.742987   1.000000
   13      -23.709549   1.000000
   14      -23.638872   1.000000
   15      -23.582741   1.000000
   16      -23.505781   1.000000
   17      -23.475435   1.000000
   18      -23.453009   1.000000
   19      -23.358639   1.000000
   20      -23.336218   1.000000
   21      -23.290505   1.000000
   22      -23.258643   1.000000
   23      -23.083199   1.000000
   24      -23.058538   1.000000
   25        0.357652   1.000000
   26        1.582241   1.000000
   27        1.919995   1.000000
   28        2.498996   1.000000
   29        2.600451   1.000000
   30        2.734265   1.000000
   31        2.899713   1.000000
   32        2.976589   1.000000
   33        3.011436   1.000000
   34        3.046953   1.000000
   35        3.164987   1.000000
   36        3.203627   1.000000
   37        3.328693   1.000000
   38        3.364343   1.000000
   39        3.456452   1.000000
   40        3.488151   1.000000
   41        3.553595   1.000000
   42        3.610293   1.000000
   43        3.685650   1.000000
   44        3.758361   1.000000
   45        3.798874   1.000000
   46        3.865768   1.000000
   47        3.958467   1.000000
   48        4.037625   1.000000
   49        4.075771   1.000000
   50        4.139929   1.000000
   51        4.210339   1.000000
   52        4.233049   1.000000
   53        4.380565   1.000000
   54        4.449504   1.000000
   55        4.468203   1.000000
   56        4.569617   1.000000
   57        4.630496   1.000000
   58        4.737776   1.000000
   59        4.762156   1.000000
   60        4.814162   1.000000
   61        4.914585   1.000000
   62        4.936832   1.000000
   63        4.995454   1.000000
   64        5.046624   1.000000
   65        5.096312   1.000000
   66        5.158678   1.000000
   67        5.181782   1.000000
   68        5.215473   1.000000
   69        5.303341   1.000000
   70        5.348193   1.000000
   71        5.377104   1.000000
   72        5.420192   1.000000
   73        5.469453   1.000000
   74        5.519815   1.000000
   75        5.581103   1.000000
   76        5.656976   1.000000
   77        5.692628   1.000000
   78        5.741709   1.000000
   79        5.786829   1.000000
   80        5.815477   1.000000
   81        5.860350   1.000000
   82        5.904180   1.000001
   83        5.937451   1.000005
   84        5.989972   1.000024
   85        6.073832   1.000259
   86        6.131380   1.001047
   87        6.155408   1.001771
   88        6.207810   1.004949
   89        6.245933   1.009372
   90        6.320573   1.024152
   91        6.358754   1.032284
   92        6.389026   1.035444
   93        6.448358   1.017383
   94        6.477891   0.987432
   95        6.557180   0.806150
   96        6.616278   0.582509
   97        6.668228   0.365095
   98        6.689544   0.281745
   99        6.751486   0.090092
  100        6.802440   0.002032
  101        6.855789  -0.032612
  102        6.928716  -0.029216
  103        7.045005  -0.006880
  104        7.120117  -0.001635
  105        7.159551  -0.000671
  106        7.250379  -0.000062
  107        7.276571  -0.000029
  108        7.405431  -0.000000
  109        7.604914  -0.000000
  110        7.653121  -0.000000
  111        7.747428  -0.000000
  112        7.895538  -0.000000
  113        7.998986  -0.000000
  114        8.042183  -0.000000
  115        8.139322  -0.000000
  116        8.150988  -0.000000
  117        8.216345  -0.000000
  118        8.287840  -0.000000
  119        8.364602  -0.000000
  120        8.447373  -0.000000
 
  0.4285714E+00  0.1428571E+00 -0.2081668E-16  0.5830904E-02
    1      -47.595646   1.000000
    2      -47.535279   1.000000
    3      -47.484198   1.000000
    4      -47.331396   1.000000
    5      -47.248440   1.000000
    6      -47.153255   1.000000
    7      -24.134377   1.000000
    8      -23.927546   1.000000
    9      -23.853169   1.000000
   10      -23.780670   1.000000
   11      -23.744498   1.000000
   12      -23.732082   1.000000
   13      -23.707478   1.000000
   14      -23.631512   1.000000
   15      -23.583466   1.000000
   16      -23.512157   1.000000
   17      -23.477627   1.000000
   18      -23.455749   1.000000
   19      -23.367427   1.000000
   20      -23.341748   1.000000
   21      -23.321942   1.000000
   22      -23.284438   1.000000
   23      -23.262032   1.000000
   24      -23.072477   1.000000
   25        0.997827   1.000000
   26        1.888967   1.000000
   27        2.212124   1.000000
   28        2.382213   1.000000
   29        2.617230   1.000000
   30        2.741759   1.000000
   31        2.992259   1.000000
   32        3.163765   1.000000
   33        3.244999   1.000000
   34        3.320865   1.000000
   35        3.365296   1.000000
   36        3.385649   1.000000
   37        3.461672   1.000000
   38        3.510799   1.000000
   39        3.631619   1.000000
   40        3.666636   1.000000
   41        3.689935   1.000000
   42        3.737319   1.000000
   43        3.833257   1.000000
   44        3.888617   1.000000
   45        3.945883   1.000000
   46        3.992753   1.000000
   47        4.087431   1.000000