 running on   96 total cores
 distrk:  each k-point on   96 cores,    1 groups
 distr:  one band on    8 cores,   12 groups
 using from now: INCAR     
 vasp.5.4.4.18Apr17-6-g9f103f2a35 (build Aug 09 2018 16:20:53) complex          
  
 POSCAR found :  5 types and      29 ions
 scaLAPACK will be used

 ----------------------------------------------------------------------------- 
|                                                                             |
|  ADVICE TO THIS USER RUNNING 'VASP/VAMP'   (HEAR YOUR MASTER'S VOICE ...):  |
|                                                                             |
|      You enforced a specific xc-type in the INCAR file,                     |
|      a different type was found on the POTCAR file                          |
|          I HOPE YOU KNOW, WHAT YOU ARE  DOING                               |
|                                                                             |
 ----------------------------------------------------------------------------- 

 LDA part: xc-table for Pade appr. of Perdew
 POSCAR found :  5 types and      29 ions
 POSCAR, INCAR and KPOINTS ok, starting setup
 FFT: planning ...
 WAVECAR not read
 initial charge from wavefunction
 entering main loop
       N       E                     dE             d eps       ncg     rms          rms(c)
DAV:   1    -0.382914953664E+04   -0.38291E+04   -0.15884E+05 58980   0.196E+03
DAV:   2    -0.958994869821E+04   -0.57608E+04   -0.53630E+04 67968   0.120E+03
DAV:   3    -0.105190178498E+05   -0.92907E+03   -0.89652E+03 82524   0.554E+02
DAV:   4    -0.107838201019E+05   -0.26480E+03   -0.23944E+03 82560   0.259E+02
DAV:   5    -0.109385455390E+05   -0.15473E+03   -0.13884E+03 82560   0.177E+02    0.629E+03
DAV:   6    -0.853814598461E+03    0.10085E+05   -0.29146E+04 65268   0.628E+02    0.282E+03
DAV:   7    -0.685538965731E+03    0.16828E+03   -0.18932E+04 75456   0.591E+02    0.217E+03
DAV:   8    -0.543230139468E+03    0.14231E+03   -0.54950E+03 73704   0.396E+02    0.195E+03
DAV:   9    -0.476873908704E+03    0.66356E+02   -0.95705E+02 72420   0.107E+02    0.186E+03
DAV:  10    -0.630668395801E+03   -0.15379E+03   -0.37666E+02 77160   0.730E+01    0.193E+03
DAV:  11    -0.730012101068E+03   -0.99344E+02   -0.92917E+02 74304   0.238E+02    0.171E+03
DAV:  12    -0.708523502326E+03    0.21489E+02   -0.67693E+02 74928   0.795E+01    0.149E+03
DAV:  13    -0.646674416761E+03    0.61849E+02   -0.19398E+03 66552   0.260E+02    0.119E+03
DAV:  14    -0.518840943477E+03    0.12783E+03   -0.11906E+03 73980   0.139E+02    0.555E+02
DAV:  15    -0.482578031603E+03    0.36263E+02   -0.14367E+03 77352   0.128E+02    0.385E+02
DAV:  16    -0.703936513215E+03   -0.22136E+03   -0.12317E+03 71088   0.146E+02    0.382E+02
DAV:  17    -0.721322461032E+03   -0.17386E+02   -0.36934E+02 71532   0.611E+01    0.318E+02
DAV:  18    -0.727061964626E+03   -0.57395E+01   -0.43860E+02 67356   0.858E+01    0.311E+02
DAV:  19    -0.641304867027E+03    0.85757E+02   -0.19859E+02 75264   0.622E+01    0.269E+02
DAV:  20    -0.562693921802E+03    0.78611E+02   -0.20172E+02 65172   0.608E+01    0.226E+02
DAV:  21    -0.508984895836E+03    0.53709E+02   -0.30551E+02 71328   0.798E+01    0.222E+02
DAV:  22    -0.490383784115E+03    0.18601E+02   -0.71971E+01 73392   0.237E+01    0.200E+02
DAV:  23    -0.469435523872E+03    0.20948E+02   -0.85243E+01 63480   0.618E+01    0.188E+02
DAV:  24    -0.459133632483E+03    0.10302E+02   -0.15049E+01 67188   0.125E+01    0.180E+02
DAV:  25    -0.451343141528E+03    0.77905E+01   -0.28681E+00 68820   0.958E+00    0.179E+02
DAV:  26    -0.443593257864E+03    0.77499E+01   -0.20876E+00 72588   0.894E+00    0.176E+02
DAV:  27    -0.401095509298E+03    0.42498E+02   -0.33609E+01 70260   0.253E+01    0.172E+02
DAV:  28    -0.354377287709E+03    0.46718E+02   -0.11110E+02 73380   0.533E+01    0.153E+02
DAV:  29    -0.325852754572E+03    0.28525E+02   -0.19257E+02 75540   0.620E+01    0.131E+02
DAV:  30    -0.334034812194E+03   -0.81821E+01   -0.55164E+01 77232   0.290E+01    0.132E+02
DAV:  31    -0.326278890496E+03    0.77559E+01   -0.45839E+01 74292   0.388E+01    0.116E+02
DAV:  32    -0.320231277176E+03    0.60476E+01   -0.12562E+01 75816   0.121E+01    0.104E+02
DAV:  33    -0.314784440376E+03    0.54468E+01   -0.77157E+00 67272   0.917E+00    0.865E+01
DAV:  34    -0.310049374475E+03    0.47351E+01   -0.70556E+00 74496   0.113E+01    0.758E+01
DAV:  35    -0.309280242752E+03    0.76913E+00   -0.40346E+00 72804   0.783E+00    0.735E+01
DAV:  36    -0.308984030760E+03    0.29621E+00   -0.32685E+00 71100   0.661E+00    0.699E+01
DAV:  37    -0.308506329917E+03    0.47770E+00   -0.93098E-01 79320   0.346E+00    0.678E+01
DAV:  38    -0.307983116407E+03    0.52321E+00   -0.38733E-01 68808   0.272E+00    0.634E+01
DAV:  39    -0.307267643513E+03    0.71547E+00   -0.10256E+01 64320   0.116E+01    0.418E+01
DAV:  40    -0.307935910573E+03   -0.66827E+00   -0.11525E+01 76236   0.131E+01    0.388E+01
DAV:  41    -0.307553424520E+03    0.38249E+00   -0.13831E+01 70620   0.147E+01    0.380E+01
DAV:  42    -0.306682556570E+03    0.87087E+00   -0.23685E+00 70884   0.609E+00    0.320E+01
DAV:  43    -0.305514305396E+03    0.11683E+01   -0.69319E+00 68148   0.107E+01    0.190E+01
DAV:  44    -0.304965091837E+03    0.54921E+00   -0.11675E+00 68748   0.396E+00    0.159E+01
DAV:  45    -0.304820987601E+03    0.14410E+00   -0.52403E-01 72996   0.263E+00    0.146E+01
DAV:  46    -0.304782270564E+03    0.38717E-01   -0.97029E-01 64932   0.378E+00    0.115E+01
DAV:  47    -0.304366383624E+03    0.41589E+00   -0.10831E+00 70056   0.432E+00    0.809E+00
DAV:  48    -0.304259360812E+03    0.10702E+00   -0.13405E-01 75324   0.141E+00    0.696E+00
DAV:  49    -0.304159614597E+03    0.99746E-01   -0.10207E-01 66552   0.131E+00    0.566E+00
DAV:  50    -0.304088546382E+03    0.71068E-01   -0.14972E-01 70272   0.159E+00    0.443E+00
DAV:  51    -0.303994454778E+03    0.94092E-01   -0.58686E-01 66960   0.320E+00    0.301E+00
DAV:  52    -0.303980867375E+03    0.13587E-01   -0.74703E-02 69768   0.113E+00    0.259E+00
DAV:  53    -0.303979298617E+03    0.15688E-02   -0.21405E-02 67104   0.546E-01    0.224E+00
DAV:  54    -0.303972729066E+03    0.65696E-02   -0.23233E-02 68940   0.618E-01    0.185E+00
DAV:  55    -0.303971489117E+03    0.12399E-02   -0.73135E-03 69600   0.347E-01    0.156E+00
DAV:  56    -0.303967352308E+03    0.41368E-02   -0.15191E-02 72576   0.498E-01    0.777E-01
DAV:  57    -0.303965676948E+03    0.16754E-02   -0.66698E-03 68172   0.271E-01    0.485E-01
DAV:  58    -0.303965171106E+03    0.50584E-03   -0.21228E-03 58968   0.215E-01    0.263E-01
DAV:  59    -0.303965213270E+03   -0.42165E-04   -0.11554E-03 58332   0.133E-01    0.270E-01
DAV:  60    -0.303965080060E+03    0.13321E-03   -0.19167E-04 27996   0.903E-02
   1 F= -.30396508E+03 E0= -.30396192E+03  d E =-.303965E+03
 curvature:   0.00 expect dE= 0.000E+00 dE for cont linesearch  0.000E+00
 trial: gam= 0.00000 g(F)=  0.736E+00 g(S)=  0.927E-01 ort = 0.000E+00 (trialstep = 0.100E+01)
 search vector abs. value=  0.829E+00
 bond charge predicted
       N       E                     dE             d eps       ncg     rms          rms(c)
DAV:   1    -0.304360987673E+03   -0.39577E+00   -0.91851E+01 41280   0.352E+01    0.620E+00
DAV:   2    -0.305754592625E+03   -0.13936E+01   -0.15864E+01 74172   0.222E+01    0.879E+00
DAV:   3    -0.304862594780E+03    0.89200E+00   -0.81363E+00 73812   0.123E+01    0.446E+00
DAV:   4    -0.304753061496E+03    0.10953E+00   -0.30738E+00 71328   0.751E+00    0.406E+00
DAV:   5    -0.304684709670E+03    0.68352E-01   -0.20404E+00 69240   0.668E+00    0.345E+00
DAV:   6    -0.304580834744E+03    0.10387E+00   -0.10056E+00 70836   0.460E+00    0.170E+00
DAV:   7    -0.304567376781E+03    0.13458E-01   -0.46502E-01 78000   0.274E+00    0.151E+00
DAV:   8    -0.304562395628E+03    0.49812E-02   -0.27084E-01 74472   0.226E+00    0.131E+00
DAV:   9    -0.304551128235E+03    0.11267E-01   -0.12335E-01 73452   0.152E+00    0.759E-01
DAV:  10    -0.304547224003E+03    0.39042E-02   -0.34969E-02 69828   0.750E-01    0.531E-01
DAV:  11    -0.304548848746E+03   -0.16247E-02   -0.20846E-02 63348   0.631E-01    0.553E-01
DAV:  12    -0.304548460062E+03    0.38868E-03   -0.17142E-02 66732   0.574E-01    0.291E-01
DAV:  13    -0.304549033175E+03   -0.57311E-03   -0.90347E-03 75072   0.370E-01    0.221E-01
DAV:  14    -0.304549116373E+03   -0.83198E-04   -0.10270E-02 67176   0.422E-01    0.241E-01
DAV:  15    -0.304548682732E+03    0.43364E-03   -0.50695E-03 59160   0.323E-01    0.105E-01
DAV:  16    -0.304548576111E+03    0.10662E-03   -0.13905E-03 57924   0.159E-01    0.618E-02
DAV:  17    -0.304548529106E+03    0.47006E-04   -0.21403E-04 30528   0.878E-02
   2 F= -.30454853E+03 E0= -.30454613E+03  d E =-.583449E+00
 trial-energy change:   -0.583449  1 .order   -0.579918   -0.828860   -0.330977
 step:   1.6219(harm=  1.6648)  dis= 0.06916  next Energy=  -304.652288 (dE=-0.687E+00)
 bond charge predicted
       N       E                     dE             d eps       ncg     rms          rms(c)
DAV:   1    -0.304562612782E+03   -0.14037E-01   -0.35550E+01 41280   0.220E+01    0.394E+00
DAV:   2    -0.305071605579E+03   -0.50899E+00   -0.60009E+00 73416   0.137E+01    0.534E+00
DAV:   3    -0.304767699947E+03    0.30391E+00   -0.30903E+00 73368   0.792E+00    0.281E+00
DAV:   4    -0.304722929750E+03    0.44770E-01   -0.12065E+00 71472   0.456E+00    0.242E+00
DAV:   5    -0.304694525206E+03    0.28405E-01   -0.75427E-01 69408   0.394E+00    0.208E+00
DAV:   6    -0.304659766701E+03    0.34759E-01   -0.40546E-01 71580   0.301E+00    0.110E+00
DAV:   7    -0.304653248190E+03    0.65185E-02   -0.17359E-01 79308   0.167E+00    0.871E-01
DAV:   8    -0.304649927144E+03    0.33210E-02   -0.78359E-02 76764   0.118E+00    0.655E-01
DAV:   9    -0.304646984520E+03    0.29426E-02   -0.32340E-02 68100   0.812E-01    0.452E-01
DAV:  10    -0.304646267396E+03    0.71712E-03   -0.12901E-02 59988   0.481E-01    0.327E-01
DAV:  11    -0.304646779847E+03   -0.51245E-03   -0.52543E-03 70320   0.294E-01    0.243E-01
DAV:  12    -0.304647318642E+03   -0.53880E-03   -0.70189E-03 65472   0.404E-01    0.258E-01
DAV:  13    -0.304646976999E+03    0.34164E-03   -0.54920E-03 70920   0.345E-01    0.128E-01
DAV:  14    -0.304646948556E+03    0.28443E-04   -0.32312E-03 61008   0.242E-01    0.130E-01
DAV:  15    -0.304646834664E+03    0.11389E-03   -0.16726E-03 55692   0.200E-01    0.658E-02
DAV:  16    -0.304646778287E+03    0.56377E-04   -0.30688E-04 35664   0.105E-01
   3 F= -.30464678E+03 E0= -.30464442E+03  d E =-.681698E+00
 curvature:  -0.83 expect dE=-0.919E+00 dE for cont linesearch -0.294E-03
 trial: gam= 1.35855 g(F)=  0.228E+00 g(S)=  0.881E+00 ort =-0.171E-01 (trialstep = 0.360E+00)
 search vector abs. value=  0.259E+01
 bond charge predicted
       N       E                     dE             d eps       ncg     rms          rms(c)
DAV:   1    -0.304883743732E+03   -0.23691E+00   -0.35730E+01 41520   0.231E+01    0.440E+00
DAV:   2    -0.305258005914E+03   -0.37426E+00   -0.53896E+00 70452   0.109E+01    0.494E+00
DAV:   3    -0.305120662311E+03    0.13734E+00   -0.40087E+00 72648   0.869E+00    0.385E+00
DAV:   4    -0.304999055136E+03    0.12161E+00   -0.12235E+00 72288   0.542E+00    0.201E+00
DAV:   5    -0.304961808888E+03    0.37246E-01   -0.62686E-01 73164   0.344E+00    0.182E+00
DAV:   6    -0.304938726824E+03    0.23082E-01   -0.38722E-01 69888   0.295E+00    0.119E+00
DAV:   7    -0.304928398124E+03    0.10329E-01   -0.12683E-01 72636   0.162E+00    0.662E-01
DAV:   8    -0.304927746071E+03    0.65205E-03   -0.62687E-02 71868   0.118E+00    0.641E-01
DAV:   9    -0.304925045191E+03    0.27009E-02   -0.26439E-02 66264   0.735E-01    0.372E-01
DAV:  10    -0.304924914448E+03    0.13074E-03   -0.73775E-03 60636   0.374E-01    0.311E-01
DAV:  11    -0.304925387750E+03   -0.47330E-03   -0.46879E-03 60192   0.345E-01    0.285E-01
DAV:  12    -0.304925744052E+03   -0.35630E-03   -0.63725E-03 70248   0.352E-01    0.205E-01
DAV:  13    -0.304925762636E+03   -0.18584E-04   -0.55576E-03 68664   0.313E-01    0.167E-01
DAV:  14    -0.304925596145E+03    0.16649E-03   -0.40794E-03 64092   0.288E-01    0.110E-01
DAV:  15    -0.304925532358E+03    0.63787E-04   -0.15263E-03 58068   0.191E-01    0.743E-02
DAV:  16    -0.304925450844E+03    0.81515E-04   -0.33812E-04 35952   0.104E-01
   4 F= -.30492545E+03 E0= -.30492242E+03  d E =-.278673E+00
 trial-energy change:   -0.278673  1 .order   -0.280439   -0.390311   -0.170567
 step:   0.6660(harm=  0.6386)  dis= 0.05870  next Energy=  -304.997050 (dE=-0.350E+00)
 bond charge predicted
       N       E                     dE             d eps       ncg     rms          rms(c)
DAV:   1    -0.304962328843E+03   -0.36796E-01   -0.25844E+01 41364   0.196E+01    0.366E+00
DAV:   2    -0.305229885031E+03   -0.26756E+00   -0.38603E+00 70464   0.923E+00    0.415E+00
DAV:   3    -0.305131370537E+03    0.98514E-01   -0.28482E+00 72204   0.734E+00    0.321E+00
DAV:   4    -0.305041324551E+03    0.90046E-01   -0.82943E-01 72168   0.442E+00    0.162E+00
DAV:   5    -0.305017580331E+03    0.23744E-01   -0.42138E-01 73092   0.281E+00    0.149E+00
DAV:   6    -0.305002258927E+03    0.15321E-01   -0.26051E-01 70044   0.244E+00    0.982E-01
DAV:   7    -0.304995120217E+03    0.71387E-02   -0.88506E-02 73188   0.134E+00    0.534E-01
DAV:   8    -0.304994815496E+03    0.30472E-03   -0.41073E-02 71892   0.943E-01    0.528E-01
DAV:   9    -0.304992988387E+03    0.18271E-02   -0.18197E-02 61680   0.609E-01    0.304E-01
DAV:  10    -0.304992970525E+03    0.17862E-04   -0.51313E-03 61008   0.310E-01    0.256E-01
DAV:  11    -0.304993362964E+03   -0.39244E-03   -0.35652E-03 59520   0.306E-01    0.234E-01
DAV:  12    -0.304993612835E+03   -0.24987E-03   -0.50250E-03 68628   0.329E-01    0.180E-01
DAV:  13    -0.304993522262E+03    0.90572E-04   -0.37996E-03 68988   0.258E-01    0.123E-01
DAV:  14    -0.304993432655E+03    0.89608E-04   -0.24510E-03 61992   0.221E-01    0.854E-02
DAV:  15    -0.304993392785E+03    0.39870E-04   -0.90828E-04 50316   0.159E-01
   5 F= -.30499339E+03 E0= -.30498977E+03  d E =-.346614E+00
 curvature:  -0.76 expect dE=-0.136E+00 dE for cont linesearch -0.145E-03
 trial: gam= 0.11212 g(F)=  0.171E+00 g(S)=  0.837E-02 ort =-0.223E-01 (trialstep = 0.421E+00)
 search vector abs. value=  0.207E+00
 bond charge predicted
       N       E                     dE             d eps       ncg     rms          rms(c)
DAV:   1    -0.305042263688E+03   -0.48831E-01   -0.35899E+00 42300   0.618E+00    0.544E-01
DAV:   2    -0.305071630777E+03   -0.29367E-01   -0.30475E-01 68640   0.288E+00    0.975E-01
DAV:   3    -0.305063953611E+03    0.76772E-02   -0.10366E-01 68520   0.159E+00    0.474E-01
DAV:   4    -0.305062731679E+03    0.12219E-02   -0.21897E-02 66732   0.713E-01    0.316E-01
DAV:   5    -0.305061760260E+03    0.97142E-03   -0.93779E-03 66420   0.424E-01    0.216E-01
DAV:   6    -0.305061905450E+03   -0.14519E-03   -0.66337E-03 63720   0.379E-01    0.243E-01
DAV:   7    -0.305061517424E+03    0.38803E-03   -0.55427E-03 63072   0.350E-01    0.170E-01
DAV:   8    -0.305061303780E+03    0.21364E-03   -0.30492E-03 64032   0.270E-01    0.110E-01
DAV:   9    -0.305061174749E+03    0.12903E-03   -0.97290E-04 51204   0.152E-01    0.500E-02
DAV:  10    -0.305061142735E+03    0.32014E-04   -0.18171E-04 27984   0.882E-02
   6 F= -.30506114E+03 E0= -.30505727E+03  d E =-.677500E-01
 ZBRENT: can't locate minimum, use default step
 trial-energy change:   -0.067750  1 .order   -0.067473   -0.074485   -0.060461
 step:   1.6833(harm=  2.2352)  dis= 0.04223  next Energy=  -305.191201 (dE=-0.198E+00)
 bond charge predicted
       N       E                     dE             d eps       ncg     rms          rms(c)
DAV:   1    -0.305023178185E+03    0.37997E-01   -0.32478E+01 43104   0.186E+01    0.171E+00
DAV:   2    -0.305276795858E+03   -0.25362E+00   -0.26409E+00 68160   0.821E+00    0.303E+00
DAV:   3    -0.305208469592E+03    0.68326E-01   -0.10205E+00 68436   0.497E+00    0.152E+00
DAV:   4    -0.305196152900E+03    0.12317E-01   -0.21279E-01 68196   0.221E+00    0.988E-01
DAV:   5    -0.305186329095E+03    0.98238E-02   -0.87949E-02 70380   0.133E+00    0.652E-01
DAV:   6    -0.305186625426E+03   -0.29633E-03   -0.54036E-02 71196   0.109E+00    0.670E-01
DAV:   7    -0.305184199433E+03    0.24260E-02   -0.41925E-02 67272   0.984E-01    0.505E-01
DAV:   8    -0.305182420278E+03    0.17792E-02   -0.29066E-02 70644   0.836E-01    0.361E-01
DAV:   9    -0.305181077892E+03    0.13424E-02   -0.11262E-02 71892   0.495E-01    0.165E-01
DAV:  10    -0.305180884613E+03    0.19328E-03   -0.38272E-03 63360   0.257E-01    0.113E-01
DAV:  11    -0.305180884165E+03    0.44735E-06   -0.18566E-03 60360   0.190E-01    0.974E-02
DAV:  12    -0.305180770781E+03    0.11338E-03   -0.74001E-04 47640   0.127E-01    0.413E-02
DAV:  13    -0.305180746818E+03    0.23963E-04   -0.16850E-04 27384   0.852E-02
   7 F= -.30518075E+03 E0= -.30517652E+03  d E =-.187354E+00
 curvature:  -1.19 expect dE=-0.724E-01 dE for cont linesearch -0.103E-01
 ZBRENT: extrapolating
 opt :   2.2117  next Energy=  -305.191946 (dE=-0.199E+00)
 bond charge predicted
       N       E                     dE             d eps       ncg     rms          rms(c)
DAV:   1    -0.305162783223E+03    0.17988E-01   -0.56790E+00 42000   0.778E+00    0.688E-01
DAV:   2    -0.305209198603E+03   -0.46415E-01   -0.48569E-01 68664   0.362E+00    0.124E+00
DAV:   3    -0.305196978440E+03    0.12220E-01   -0.17022E-01 68280   0.204E+00    0.601E-01
DAV:   4    -0.305195088550E+03    0.18899E-02   -0.36224E-02 68028   0.916E-01    0.401E-01
DAV:   5    -0.305193464909E+03    0.16236E-02   -0.15121E-02 67872   0.549E-01    0.269E-01
DAV:   6    -0.305193566411E+03   -0.10150E-03   -0.98565E-03 65232   0.469E-01    0.283E-01
DAV:   7    -0.305193063041E+03    0.50337E-03   -0.76740E-03 66060   0.416E-01    0.204E-01
DAV:   8    -0.305192755984E+03    0.30706E-03   -0.47877E-03 66084   0.336E-01    0.140E-01
DAV:   9    -0.305192560421E+03    0.19556E-03   -0.16806E-03 58800   0.195E-01    0.651E-02
DAV:  10    -0.305192514347E+03    0.46074E-04   -0.42362E-04 40068   0.106E-01
   8 F= -.30519251E+03 E0= -.30518828E+03  d E =-.199122E+00
 curvature:  -1.29 expect dE=-0.106E+00 dE for cont linesearch -0.120E-06
 trial: gam= 0.44362 g(F)=  0.746E-01 g(S)=  0.737E-02 ort =-0.139E-03 (trialstep = 0.779E+00)
 search vector abs. value=  0.123E+00
 bond charge predicted
       N       E                     dE             d eps       ncg     rms          rms(c)
DAV:   1    -0.305219835322E+03   -0.27275E-01   -0.63314E+00 41280   0.893E+00    0.131E+00
DAV:   2    -0.305271173961E+03   -0.51339E-01   -0.76416E-01 69372   0.434E+00    0.155E+00
DAV:   3    -0.305266673118E+03    0.45008E-02   -0.40924E-01 66492   0.312E+00    0.137E+00
DAV:   4    -0.305248563089E+03    0.18110E-01   -0.13800E-01 68160   0.177E+00    0.534E-01
DAV:   5    -0.305247256005E+03    0.13071E-02   -0.52254E-02 68004   0.104E+00    0.557E-01
DAV:   6    -0.305245706967E+03    0.15490E-02   -0.36298E-02 71088   0.954E-01    0.406E-01
DAV:   7    -0.305244291595E+03    0.14154E-02   -0.15407E-02 72108   0.575E-01    0.205E-01
DAV:   8    -0.305244230513E+03    0.61082E-04   -0.63373E-03 63336   0.363E-01    0.210E-01
DAV:   9    -0.305243904478E+03    0.32603E-03   -0.30181E-03 61140   0.263E-01    0.118E-01
DAV:  10    -0.305243924382E+03   -0.19904E-04   -0.99501E-04 52416   0.150E-01
   9 F= -.30524392E+03 E0= -.30523993E+03  d E =-.514100E-01
 trial-energy change:   -0.051410  1 .order   -0.051582   -0.063825   -0.039339
 step:   2.0305(harm=  2.0305)  dis= 0.04973  next Energy=  -305.275696 (dE=-0.832E-01)
 bond charge predicted
       N       E                     dE             d eps       ncg     rms          rms(c)
DAV:   1    -0.305206827113E+03    0.37077E-01   -0.16324E+01 41280   0.143E+01    0.211E+00
DAV:   2    -0.305338587516E+03   -0.13176E+00   -0.19683E+00 69528   0.700E+00    0.246E+00
DAV:   3    -0.305325095314E+03    0.13492E-01   -0.10085E+00 66696   0.491E+00    0.211E+00
DAV:   4    -0.305281332930E+03    0.43762E-01   -0.35006E-01 68304   0.284E+00    0.899E-01
DAV:   5    -0.305279262343E+03    0.20706E-02   -0.15188E-01 69408   0.183E+00    0.989E-01
DAV:   6    -0.305273383208E+03    0.58791E-02   -0.98261E-02 70548   0.157E+00    0.626E-01
DAV:   7    -0.305270185538E+03    0.31977E-02   -0.37000E-02 78924   0.882E-01    0.355E-01
DAV:   8    -0.305269957450E+03    0.22809E-03   -0.18312E-02 72180   0.611E-01    0.346E-01
DAV:   9    -0.305269082436E+03    0.87501E-03   -0.75873E-03 61320   0.402E-01    0.195E-01
DAV:  10    -0.305269181496E+03   -0.99060E-04   -0.26118E-03 62460   0.227E-01    0.179E-01
DAV:  11    -0.305269367864E+03   -0.18637E-03   -0.25520E-03 60912   0.233E-01    0.147E-01
DAV:  12    -0.305269374187E+03   -0.63235E-05   -0.23579E-03 61404   0.225E-01    0.914E-02
DAV:  13    -0.305269306518E+03    0.67669E-04   -0.12428E-03 59976   0.161E-01    0.531E-02
DAV:  14    -0.305269287207E+03    0.19311E-04   -0.42675E-04 39216   0.122E-01
  10 F= -.30526929E+03 E0= -.30526587E+03  d E =-.767729E-01
 curvature:  -1.52 expect dE=-0.205E+00 dE for cont linesearch -0.871E-03
 trial: gam= 1.69567 g(F)=  0.278E-01 g(S)=  0.107E+00 ort =-0.838E-02 (trialstep = 0.275E+00)
 search vector abs. value=  0.459E+00
 bond charge predicted
       N       E                     dE             d eps       ncg     rms          rms(c)
DAV:   1    -0.305287639179E+03   -0.18333E-01   -0.28928E+00 41280   0.646E+00    0.116E+00
DAV:   2    -0.305312948004E+03   -0.25309E-01   -0.42184E-01 70344   0.308E+00    0.111E+00
DAV:   3    -0.305309863052E+03    0.30850E-02   -0.26179E-01 70020   0.226E+00    0.109E+00
DAV:   4    -0.305302201038E+03    0.76620E-02   -0.12410E-01 69216   0.169E+00    0.685E-01
DAV:   5    -0.305296898346E+03    0.53027E-02   -0.47233E-02 70068   0.101E+00    0.400E-01
DAV:   6    -0.305296579211E+03    0.31914E-03   -0.27554E-02 70740   0.799E-01    0.403E-01
DAV:   7    -0.305295499232E+03    0.10800E-02   -0.15464E-02 69324   0.575E-01    0.216E-01
DAV:   8    -0.305295136423E+03    0.36281E-03   -0.56604E-03 63540   0.298E-01    0.146E-01
DAV:   9    -0.305294979429E+03    0.15699E-03   -0.16610E-03 59004   0.192E-01    0.101E-01
DAV:  10    -0.305294969051E+03    0.10378E-04   -0.60342E-04 46236   0.121E-01
  11 F= -.30529497E+03 E0= -.30529189E+03  d E =-.256818E-01
 trial-energy change:   -0.025682  1 .order   -0.025811   -0.033132   -0.018490
 step:   0.6225(harm=  0.6225)  dis= 0.02728  next Energy=  -305.306773 (dE=-0.375E-01)
 bond charge predicted
       N       E                     dE             d eps       ncg     rms          rms(c)
DAV:   1    -0.305293740799E+03    0.12386E-02   -0.46159E+00 41280   0.815E+00    0.144E+00
DAV:   2    -0.305333279841E+03   -0.39539E-01   -0.66138E-01 70188   0.388E+00    0.140E+00
DAV:   3    -0.305328588182E+03    0.46917E-02   -0.41555E-01 70224   0.285E+00    0.137E+00
DAV:   4    -0.305316546802E+03    0.12041E-01   -0.19690E-01 68892   0.212E+00    0.865E-01
DAV:   5    -0.305308192064E+03    0.83547E-02   -0.76023E-02 71424   0.125E+00    0.506E-01
DAV:   6    -0.305307622851E+03    0.56921E-03   -0.42931E-02 70788   0.100E+00    0.502E-01
DAV:   7    -0.305305936642E+03    0.16862E-02   -0.23579E-02 71148   0.703E-01    0.269E-01
DAV:   8    -0.305305451364E+03    0.48528E-03   -0.82482E-03 63708   0.359E-01    0.187E-01
DAV:   9    -0.305305241677E+03    0.20969E-03   -0.25614E-03 60372   0.236E-01    0.135E-01
DAV:  10    -0.305305256312E+03   -0.14636E-04   -0.11668E-03 54936   0.157E-01    0.111E-01
DAV:  11    -0.305305292424E+03   -0.36112E-04   -0.57650E-04 43620   0.128E-01
  12 F= -.30530529E+03 E0= -.30530269E+03  d E =-.360052E-01
 curvature:  -1.19 expect dE=-0.459E-01 dE for cont linesearch -0.152E-04
 trial: gam= 0.09163 g(F)=  0.382E-01 g(S)=  0.455E-03 ort =-0.243E-02 (trialstep = 0.345E+00)
 search vector abs. value=  0.421E-01
 bond charge predicted
       N       E                     dE             d eps       ncg     rms          rms(c)
DAV:   1    -0.305315316133E+03   -0.10060E-01   -0.47301E-01 41352   0.228E+00    0.275E-01
DAV:   2    -0.305321316854E+03   -0.60007E-02   -0.60564E-02 70788   0.131E+00    0.557E-01
DAV:   3    -0.305318157062E+03    0.31598E-02   -0.30256E-02 70104   0.863E-01    0.253E-01
DAV:   4    -0.305317725410E+03    0.43165E-03   -0.65569E-03 64008   0.373E-01    0.156E-01
DAV:   5    -0.305317504638E+03    0.22077E-03   -0.24614E-03 64692   0.205E-01    0.107E-01
DAV:   6    -0.305317461808E+03    0.42830E-04   -0.15144E-03 56676   0.183E-01    0.105E-01
DAV:   7    -0.305317427246E+03    0.34562E-04   -0.11832E-03 52476   0.177E-01    0.772E-02
DAV:   8    -0.305317382818E+03    0.44428E-04   -0.74001E-04 47784   0.138E-01
  13 F= -.30531738E+03 E0= -.30531481E+03  d E =-.120904E-01
 ZBRENT: can't locate minimum, use default step
 trial-energy change:   -0.012090  1 .order   -0.012201   -0.013250   -0.011152
 step:   1.3783(harm=  2.1755)  dis= 0.01397  next Energy=  -305.347121 (dE=-0.418E-01)
 bond charge predicted
       N       E                     dE             d eps       ncg     rms          rms(c)
DAV:   1    -0.305320414482E+03   -0.29872E-02   -0.42391E+00 41280   0.685E+00    0.773E-01
DAV:   2    -0.305365707578E+03   -0.45293E-01   -0.48237E-01 69984   0.372E+00    0.144E+00
DAV:   3    -0.305347321183E+03    0.18386E-01   -0.21183E-01 69516   0.234E+00    0.698E-01
DAV:   4    -0.305344056467E+03    0.32647E-02   -0.49357E-02 72012   0.105E+00    0.462E-01
DAV:   5    -0.305342256107E+03    0.18004E-02   -0.21007E-02 69732   0.622E-01    0.339E-01
DAV:   6    -0.305341737136E+03    0.51897E-03   -0.13204E-02 67572   0.508E-01    0.288E-01
DAV:   7    -0.305341633204E+03    0.10393E-03   -0.10822E-02 67092   0.478E-01    0.244E-01
DAV:   8    -0.305341198081E+03    0.43512E-03   -0.74926E-03 61680   0.372E-01    0.167E-01
DAV:   9    -0.305340948218E+03    0.24986E-03   -0.28310E-03 60072   0.265E-01    0.105E-01
DAV:  10    -0.305340839989E+03    0.10823E-03   -0.75308E-04 48072   0.137E-01    0.516E-02
DAV:  11    -0.305340837755E+03    0.22341E-05   -0.14622E-04 26832   0.822E-02
  14 F= -.30534084E+03 E0= -.30533830E+03  d E =-.355453E-01
 curvature:  -0.96 expect dE=-0.236E-01 dE for cont linesearch -0.411E-02
 ZBRENT: increasing intervall
 opt :   3.4458  next Energy=  -305.329313 (dE=-0.240E-01)
 bond charge predicted
       N       E                     dE             d eps       ncg     rms          rms(c)
DAV:   1    -0.305248344474E+03    0.92496E-01   -0.16984E+01 41280   0.137E+01    0.156E+00
DAV:   2    -0.305430917719E+03   -0.18257E+00   -0.19473E+00 69924   0.742E+00    0.289E+00
DAV:   3    -0.305356950434E+03    0.73967E-01   -0.86571E-01 69972   0.473E+00    0.139E+00
DAV:   4    -0.305344491110E+03    0.12459E-01   -0.20015E-01 73104   0.213E+00    0.948E-01
DAV:   5    -0.305336092015E+03    0.83991E-02   -0.83945E-02 73944   0.123E+00    0.654E-01
DAV:   6    -0.305334745679E+03    0.13463E-02   -0.53221E-02 68364   0.101E+00    0.612E-01
DAV:   7    -0.305333857873E+03    0.88781E-03   -0.44794E-02 68892   0.968E-01    0.482E-01
DAV:   8    -0.305332420654E+03    0.14372E-02   -0.30632E-02 74496   0.756E-01    0.367E-01
DAV:   9    -0.305331254237E+03    0.11664E-02   -0.13220E-02 64380   0.552E-01    0.219E-01
DAV:  10    -0.305330799923E+03    0.45431E-03   -0.37708E-03 63852   0.266E-01    0.109E-01
DAV:  11    -0.305330804520E+03   -0.45964E-05   -0.79494E-04 50184   0.136E-01
  15 F= -.30533080E+03 E0= -.30532847E+03  d E =-.255121E-01
 curvature:   2.70 expect dE= 0.304E+00 dE for cont linesearch  0.332E-01
 ZBRENT: bracketing found
 ZBRENT: interpolating
 opt :   2.1447  next Energy=  -305.345971 (dE=-0.407E-01)
 bond charge predicted
       N       E                     dE             d eps       ncg     rms          rms(c)
DAV:   1    -0.305313937457E+03    0.16862E-01   -0.66938E+00 41280   0.856E+00    0.985E-01
DAV:   2    -0.305388933377E+03   -0.74996E-01   -0.79440E-01 70488   0.483E+00    0.185E+00
DAV:   3    -0.305356626796E+03    0.32307E-01   -0.34970E-01 69396   0.297E+00    0.898E-01
DAV:   4    -0.305350579393E+03    0.60474E-02   -0.81911E-02 72864   0.134E+00    0.571E-01
DAV:   5    -0.305348143330E+03    0.24361E-02   -0.34080E-02 71688   0.786E-01    0.434E-01
DAV:   6    -0.305347119783E+03    0.10235E-02   -0.20781E-02 70932   0.639E-01    0.354E-01
DAV:   7    -0.305346937390E+03    0.18239E-03   -0.16682E-02 67116   0.596E-01    0.305E-01
DAV:   8    -0.305346391294E+03    0.54610E-03   -0.12363E-02 68532   0.475E-01    0.219E-01
DAV:   9    -0.305345950430E+03    0.44086E-03   -0.48033E-03 60360   0.339E-01    0.137E-01
DAV:  10    -0.305345762836E+03    0.18759E-03   -0.13549E-03 56040   0.174E-01    0.606E-02
DAV:  11    -0.305345757350E+03    0.54865E-05   -0.17807E-04 27144   0.907E-02
  16 F= -.30534576E+03 E0= -.30534329E+03  d E =-.404649E-01
 curvature:  -0.42 expect dE=-0.188E-01 dE for cont linesearch -0.365E-06
 trial: gam= 1.16200 g(F)=  0.165E-01 g(S)=  0.286E-01 ort =-0.192E-03 (trialstep = 0.292E+00)
 search vector abs. value=  0.101E+00
 bond charge predicted
       N       E                     dE             d eps       ncg     rms          rms(c)
DAV:   1    -0.305357350324E+03   -0.11587E-01   -0.83768E-01 42312   0.379E+00    0.829E-01
DAV:   2    -0.305361954081E+03   -0.46038E-02   -0.12535E-01 70620   0.182E+00    0.663E-01
DAV:   3    -0.305365949903E+03   -0.39958E-02   -0.11584E-01 69564   0.171E+00    0.912E-01
DAV:   4    -0.305358511659E+03    0.74382E-02   -0.56709E-02 66048   0.124E+00    0.378E-01
DAV:   5    -0.305356572760E+03    0.19389E-02   -0.18779E-02 72744   0.544E-01    0.241E-01
DAV:   6    -0.305356377227E+03    0.19553E-03   -0.10861E-02 67140   0.456E-01    0.233E-01
DAV:   7    -0.305356060018E+03    0.31721E-03   -0.58791E-03 58512   0.342E-01    0.151E-01
DAV:   8    -0.305355940210E+03    0.11981E-03   -0.21128E-03 60288   0.207E-01    0.982E-02
DAV:   9    -0.305355912690E+03    0.27520E-04   -0.71212E-04 46260   0.144E-01
  17 F= -.30535591E+03 E0= -.30535343E+03  d E =-.101553E-01
 trial-energy change:   -0.010155  1 .order   -0.010395   -0.013105   -0.007685
 step:   0.7069(harm=  0.7069)  dis= 0.01064  next Energy=  -305.361600 (dE=-0.158E-01)
 bond charge predicted
       N       E                     dE             d eps       ncg     rms          rms(c)
DAV:   1    -0.305363851042E+03   -0.79108E-02   -0.16859E+00 42636   0.539E+00    0.117E+00
DAV:   2    -0.305372756369E+03   -0.89053E-02   -0.25374E-01 70860   0.259E+00    0.940E-01
DAV:   3    -0.305379602146E+03   -0.68458E-02   -0.22513E-01 69660   0.238E+00    0.126E+00
DAV:   4    -0.305365449999E+03    0.14152E-01   -0.11205E-01 69168   0.175E+00    0.541E-01
DAV:   5    -0.305361626395E+03    0.38236E-02   -0.37306E-02 73812   0.779E-01    0.344E-01
DAV:   6    -0.305361218847E+03    0.40755E-03   -0.21567E-02 70752   0.652E-01    0.334E-01
DAV:   7    -0.305360645363E+03    0.57348E-03   -0.12238E-02 63156   0.494E-01    0.228E-01
DAV:   8    -0.305360376886E+03    0.26848E-03   -0.44075E-03 59892   0.299E-01    0.147E-01
DAV:   9    -0.305360331717E+03    0.45169E-04   -0.16377E-03 57804   0.205E-01    0.117E-01
DAV:  10    -0.305360334401E+03   -0.26839E-05   -0.99928E-04 53424   0.145E-01
  18 F= -.30536033E+03 E0= -.30535789E+03  d E =-.145771E-01
 curvature:  -0.80 expect dE=-0.209E-01 dE for cont linesearch -0.101E-05
 trial: gam= 0.53791 g(F)=  0.185E-01 g(S)=  0.766E-02 ort =-0.358E-03 (trialstep = 0.375E+00)
 search vector abs. value=  0.551E-01
 bond charge predicted
       N       E                     dE             d eps       ncg     rms          rms(c)
DAV:   1    -0.305366563947E+03   -0.62322E-02   -0.60637E-01 41280   0.251E+00    0.255E-01
DAV:   2    -0.305374251137E+03   -0.76872E-02   -0.68419E-02 70968   0.140E+00    0.629E-01
DAV:   3    -0.305369798568E+03    0.44526E-02   -0.32051E-02 70440   0.906E-01    0.223E-01
DAV:   4    -0.305369526679E+03    0.27189E-03   -0.56430E-03 62748   0.345E-01    0.164E-01
DAV:   5    -0.305369275135E+03    0.25154E-03   -0.20171E-03 61224   0.183E-01    0.101E-01
DAV:   6    -0.305369277304E+03   -0.21697E-05   -0.10490E-03 52836   0.158E-01    0.110E-01
DAV:   7    -0.305369274424E+03    0.28804E-05   -0.14004E-03 55548   0.191E-01    0.957E-02
DAV:   8    -0.305369176552E+03    0.97872E-04   -0.75639E-04 49428   0.137E-01
  19 F= -.30536918E+03 E0= -.30536680E+03  d E =-.884215E-02
 ZBRENT: can't locate minimum, use default step
 trial-energy change:   -0.008842  1 .order   -0.008846   -0.009729   -0.007962
 step:   1.5011(harm=  2.0659)  dis= 0.02153  next Energy=  -305.387114 (dE=-0.268E-01)
 bond charge predicted
       N       E                     dE             d eps       ncg     rms          rms(c)
DAV:   1    -0.305360365799E+03    0.89086E-02   -0.54509E+00 41280   0.753E+00    0.763E-01
DAV:   2    -0.305422215117E+03   -0.61849E-01   -0.56777E-01 70596   0.402E+00    0.171E+00
DAV:   3    -0.305389867663E+03    0.32347E-01   -0.25481E-01 70560   0.253E+00    0.671E-01
DAV:   4    -0.305387790074E+03    0.20776E-02   -0.55850E-02 71580   0.107E+00    0.490E-01
DAV:   5    -0.305385142497E+03    0.26476E-02   -0.19432E-02 68112   0.556E-01    0.271E-01
DAV:   6    -0.305385280204E+03   -0.13771E-03   -0.91806E-03 66324   0.461E-01    0.312E-01
DAV:   7    -0.305385103086E+03    0.17712E-03   -0.11494E-02 67452   0.513E-01    0.265E-01
DAV:   8    -0.305384267099E+03    0.83599E-03   -0.52028E-03 73632   0.302E-01    0.108E-01
DAV:   9    -0.305384134134E+03    0.13297E-03   -0.17083E-03 57852   0.196E-01    0.953E-02
DAV:  10    -0.305384067590E+03    0.66544E-04   -0.89554E-04 50532   0.139E-01
  20 F= -.30538407E+03 E0= -.30538188E+03  d E =-.237332E-01
 curvature:  -1.95 expect dE=-0.231E-01 dE for cont linesearch -0.116E-02
 ZBRENT: extrapolating
 opt :   1.9163  next Energy=  -305.385254 (dE=-0.249E-01)
 bond charge predicted
       N       E                     dE             d eps       ncg     rms          rms(c)
DAV:   1    -0.305382232578E+03    0.19016E-02   -0.74465E-01 41280   0.278E+00    0.278E-01
DAV:   2    -0.305390415782E+03   -0.81832E-02   -0.75516E-02 70452   0.148E+00    0.618E-01
DAV:   3    -0.305386192577E+03    0.42232E-02   -0.34066E-02 70668   0.934E-01    0.247E-01
DAV:   4    -0.305385882624E+03    0.30995E-03   -0.73635E-03 62172   0.392E-01    0.178E-01
DAV:   5    -0.305385528925E+03    0.35370E-03   -0.26508E-03 61500   0.214E-01    0.985E-02
DAV:   6    -0.305385532630E+03   -0.37044E-05   -0.10458E-03 51216   0.168E-01    0.109E-01
DAV:   7    -0.305385511288E+03    0.21342E-04   -0.14895E-03 56028   0.203E-01    0.961E-02
DAV:   8    -0.305385401847E+03    0.10944E-03   -0.61975E-04 45312   0.126E-01    0.418E-02
DAV:   9    -0.305385376541E+03    0.25306E-04   -0.16882E-04 26880   0.926E-02
  21 F= -.30538538E+03 E0= -.30538323E+03  d E =-.250421E-01
 curvature:  -2.00 expect dE=-0.301E-01 dE for cont linesearch -0.298E-04
 trial: gam= 0.46807 g(F)=  0.131E-01 g(S)=  0.199E-02 ort = 0.906E-03 (trialstep = 0.683E+00)
 search vector abs. value=  0.280E-01
 bond charge predicted
       N       E                     dE             d eps       ncg     rms          rms(c)
DAV:   1    -0.305390754157E+03   -0.53523E-02   -0.11400E+00 41280   0.398E+00    0.683E-01
DAV:   2    -0.305400385406E+03   -0.96312E-02   -0.14951E-01 70320   0.182E+00    0.672E-01
DAV:   3    -0.305398952811E+03    0.14326E-02   -0.87240E-02 72108   0.135E+00    0.669E-01
DAV:   4    -0.305396243474E+03    0.27093E-02   -0.46124E-02 63948   0.103E+00    0.435E-01
DAV:   5    -0.305393934691E+03    0.23088E-02   -0.18387E-02 69732   0.562E-01    0.206E-01
DAV:   6    -0.305393898626E+03    0.36064E-04   -0.88700E-03 69852   0.439E-01    0.232E-01
DAV:   7    -0.305393575443E+03    0.32318E-03   -0.53649E-03 60588   0.356E-01    0.142E-01
DAV:   8    -0.305393417306E+03    0.15814E-03   -0.21129E-03 62796   0.204E-01    0.853E-02
DAV:   9    -0.305393359856E+03    0.57451E-04   -0.52424E-04 42972   0.123E-01
  22 F= -.30539336E+03 E0= -.30539132E+03  d E =-.798331E-02
 trial-energy change:   -0.007983  1 .order   -0.008170   -0.010589   -0.005751
 step:   1.4961(harm=  1.4961)  dis= 0.01329  next Energy=  -305.396966 (dE=-0.116E-01)
 bond charge predicted
       N       E                     dE             d eps       ncg     rms          rms(c)
DAV:   1    -0.305392343005E+03    0.10743E-02   -0.16140E+00 41280   0.473E+00    0.800E-01
DAV:   2    -0.305406279698E+03   -0.13937E-01   -0.21152E-01 70392   0.217E+00    0.825E-01
DAV:   3    -0.305403526246E+03    0.27535E-02   -0.12438E-01 71940   0.161E+00    0.791E-01
DAV:   4    -0.305399809314E+03    0.37169E-02   -0.64433E-02 67956   0.121E+00    0.509E-01
DAV:   5    -0.305396659853E+03    0.31495E-02   -0.25815E-02 71928   0.660E-01    0.247E-01
DAV:   6    -0.305396598548E+03    0.61306E-04   -0.12393E-02 69360   0.524E-01    0.279E-01
DAV:   7    -0.305396137402E+03    0.46115E-03   -0.74887E-03 64092   0.420E-01    0.168E-01
DAV:   8    -0.305395935717E+03    0.20169E-03   -0.29050E-03 63720   0.236E-01    0.107E-01
DAV:   9    -0.305395870007E+03    0.65710E-04   -0.83689E-04 51900   0.143E-01
  23 F= -.30539587E+03 E0= -.30539395E+03  d E =-.104935E-01
 curvature:  -1.35 expect dE=-0.343E-01 dE for cont linesearch -0.168E-04
 trial: gam= 1.72268 g(F)=  0.466E-02 g(S)=  0.207E-01 ort =-0.590E-03 (trialstep = 0.223E+00)
 search vector abs. value=  0.106E+00
 bond charge predicted
       N       E                     dE             d eps       ncg     rms          rms(c)
DAV:   1    -0.305399196584E+03   -0.32609E-02   -0.43669E-01 41280   0.229E+00    0.322E-01
DAV:   2    -0.305402247787E+03   -0.30512E-02   -0.45868E-02 69792   0.102E+00    0.333E-01
DAV:   3    -0.305401930847E+03    0.31694E-03   -0.17851E-02 70728   0.634E-01    0.302E-01
DAV:   4    -0.305401333225E+03    0.59762E-03   -0.88525E-03 59496   0.456E-01    0.214E-01
DAV:   5    -0.305400923718E+03    0.40951E-03   -0.49916E-03 62532   0.322E-01    0.140E-01
DAV:   6    -0.305400858146E+03    0.65572E-04   -0.27332E-03 62136   0.240E-01    0.115E-01
DAV:   7    -0.305400753950E+03    0.10420E-03   -0.16274E-03 57444   0.204E-01    0.773E-02
DAV:   8    -0.305400712588E+03    0.41362E-04   -0.73327E-04 46824   0.148E-01
  24 F= -.30540071E+03 E0= -.30539884E+03  d E =-.484258E-02
 ZBRENT: can't locate minimum, use default step
 trial-energy change:   -0.004843  1 .order   -0.004841   -0.005417   -0.004266
 step:   0.8903(harm=  1.0472)  dis= 0.01695  next Energy=  -305.408613 (dE=-0.127E-01)
 bond charge predicted
       N       E                     dE             d eps       ncg     rms          rms(c)
DAV:   1    -0.305392038130E+03    0.87158E-02   -0.39176E+00 41280   0.683E+00    0.885E-01
DAV:   2    -0.305420182766E+03   -0.28145E-01   -0.39780E-01 69552   0.308E+00    0.988E-01
DAV:   3    -0.305415981770E+03    0.42010E-02   -0.14591E-01 70308   0.185E+00    0.807E-01
DAV:   4    -0.305411775918E+03    0.42059E-02   -0.69495E-02 67692   0.129E+00    0.583E-01
DAV:   5    -0.305408712174E+03    0.30637E-02   -0.37893E-02 71112   0.885E-01    0.378E-01
DAV:   6    -0.305407995006E+03    0.71717E-03   -0.18612E-02 72924   0.601E-01    0.268E-01
DAV:   7    -0.305407471104E+03    0.52390E-03   -0.10132E-02 66768   0.454E-01    0.204E-01
DAV:   8    -0.305407215944E+03    0.25516E-03   -0.46820E-03 62388   0.321E-01    0.139E-01
DAV:   9    -0.305407039504E+03    0.17644E-03   -0.14231E-03 57564   0.184E-01    0.752E-02
DAV:  10    -0.305407018771E+03    0.20733E-04   -0.29111E-04 34176   0.100E-01
  25 F= -.30540702E+03 E0= -.30540521E+03  d E =-.111488E-01
 curvature:  -2.21 expect dE=-0.184E-01 dE for cont linesearch -0.416E-04
 trial: gam= 0.15794 g(F)=  0.786E-02 g(S)=  0.482E-03 ort = 0.142E-02 (trialstep = 0.356E+00)
 search vector abs. value=  0.114E-01
 bond charge predicted
       N       E                     dE             d eps       ncg     rms          rms(c)
DAV:   1    -0.305409302668E+03   -0.22632E-02   -0.13160E-01 41472   0.126E+00    0.194E-01
DAV:   2    -0.305410593731E+03   -0.12911E-02   -0.16441E-02 70800   0.666E-01    0.294E-01
DAV:   3    -0.305409895857E+03    0.69787E-03   -0.97665E-03 67344   0.462E-01    0.164E-01
DAV:   4    -0.305409765274E+03    0.13058E-03   -0.31487E-03 61944   0.256E-01    0.114E-01
DAV:   5    -0.305409631857E+03    0.13342E-03   -0.15921E-03 59388   0.179E-01    0.779E-02
DAV:   6    -0.305409601227E+03    0.30630E-04   -0.75836E-04 49068   0.134E-01
  26 F= -.30540960E+03 E0= -.30540776E+03  d E =-.258246E-02
 trial-energy change:   -0.002582  1 .order   -0.002649   -0.003049   -0.002249
 step:   1.3584(harm=  1.3584)  dis= 0.00871  next Energy=  -305.412833 (dE=-0.581E-02)
 bond charge predicted
       N       E                     dE             d eps       ncg     rms          rms(c)
DAV:   1    -0.305410341625E+03   -0.70977E-03   -0.10338E+00 41280   0.353E+00    0.553E-01
DAV:   2    -0.305418651116E+03   -0.83095E-02   -0.12173E-01 71232   0.180E+00    0.707E-01
DAV:   3    -0.305415080674E+03    0.35704E-02   -0.66616E-02 70272   0.118E+00    0.435E-01
DAV:   4    -0.305414186999E+03    0.89368E-03   -0.25893E-02 67536   0.711E-01    0.345E-01
DAV:   5    -0.305413047794E+03    0.11392E-02   -0.12083E-02 69852   0.511E-01    0.220E-01
DAV:   6    -0.305412688225E+03    0.35957E-03   -0.64007E-03 63432   0.363E-01    0.160E-01
DAV:   7    -0.305412532346E+03    0.15588E-03   -0.33658E-03 62964   0.263E-01    0.116E-01
DAV:   8    -0.305412486353E+03    0.45992E-04   -0.15650E-03 60384   0.190E-01    0.909E-02
DAV:   9    -0.305412421836E+03    0.64517E-04   -0.45259E-04 39276   0.127E-01
  27 F= -.30541242E+03 E0= -.30541050E+03  d E =-.540307E-02
 curvature:  -0.91 expect dE=-0.954E-02 dE for cont linesearch -0.899E-07
 trial: gam= 1.26588 g(F)=  0.177E-02 g(S)=  0.874E-02 ort =-0.337E-04 (trialstep = 0.221E+00)
 search vector abs. value=  0.288E-01
 bond charge predicted
       N       E                     dE             d eps       ncg     rms          rms(c)
DAV:   1    -0.305414668232E+03   -0.21819E-02   -0.12455E-01 41472   0.135E+00    0.298E-01
DAV:   2    -0.305415449467E+03   -0.78123E-03   -0.18794E-02 71184   0.607E-01    0.257E-01
DAV:   3    -0.305415305932E+03    0.14353E-03   -0.15710E-02 71916   0.481E-01    0.256E-01
DAV:   4    -0.305414716844E+03    0.58909E-03   -0.63670E-03 60300   0.370E-01    0.146E-01
DAV:   5    -0.305414501949E+03    0.21490E-03   -0.28528E-03 63996   0.238E-01    0.105E-01
DAV:   6    -0.305414443616E+03    0.58333E-04   -0.16019E-03 57396   0.192E-01    0.888E-02
DAV:   7    -0.305414372738E+03    0.70878E-04   -0.74198E-04 47892   0.154E-01
  28 F= -.30541437E+03 E0= -.30541240E+03  d E =-.195090E-02
 trial-energy change:   -0.001951  1 .order   -0.001911   -0.002318   -0.001504
 step:   0.6304(harm=  0.6304)  dis= 0.00659  next Energy=  -305.415722 (dE=-0.330E-02)
 bond charge predicted
       N       E                     dE             d eps       ncg     rms          rms(c)
DAV:   1    -0.305416353395E+03   -0.19098E-02   -0.42295E-01 41280   0.250E+00    0.509E-01
DAV:   2    -0.305419312536E+03   -0.29591E-02   -0.59944E-02 70392   0.111E+00    0.481E-01
DAV:   3    -0.305418630051E+03    0.68249E-03   -0.50901E-02 72096   0.931E-01    0.469E-01
DAV:   4    -0.305416729020E+03    0.19010E-02   -0.19597E-02 60324   0.676E-01    0.247E-01
DAV:   5    -0.305416065637E+03    0.66338E-03   -0.86555E-03 69504   0.420E-01    0.177E-01
DAV:   6    -0.305415925066E+03    0.14057E-03   -0.43096E-03 58848   0.314E-01    0.141E-01
DAV:   7    -0.305415765698E+03    0.15937E-03   -0.17651E-03 60840   0.207E-01    0.691E-02
DAV:   8    -0.305415738866E+03    0.26832E-04   -0.54772E-04 44964   0.103E-01
  29 F= -.30541574E+03 E0= -.30541374E+03  d E =-.331703E-02
 curvature:  -0.87 expect dE=-0.270E-02 dE for cont linesearch -0.665E-05
 trial: gam= 0.20033 g(F)=  0.302E-02 g(S)=  0.978E-04 ort = 0.470E-03 (trialstep = 0.303E+00)
 search vector abs. value=  0.446E-02
 bond charge predicted
       N       E                     dE             d eps       ncg     rms          rms(c)
DAV:   1    -0.305416363069E+03   -0.59737E-03   -0.39582E-02 41580   0.670E-01    0.800E-02
DAV:   2    -0.305416730824E+03   -0.36775E-03   -0.38282E-03 69300   0.292E-01    0.997E-02
DAV:   3    -0.305416637478E+03    0.93346E-04   -0.14101E-03 56316   0.176E-01    0.646E-02
DAV:   4    -0.305416601867E+03    0.35611E-04   -0.20126E-04 31944   0.105E-01
  30 F= -.30541660E+03 E0= -.30541459E+03  d E =-.863001E-03
 ZBRENT: can't locate minimum, use default step
 trial-energy change:   -0.000863  1 .order   -0.000887   -0.000973   -0.000801
 step:   1.2127(harm=  1.7153)  dis= 0.00499  next Energy=  -305.418491 (dE=-0.275E-02)
 bond charge predicted
       N       E                     dE             d eps       ncg     rms          rms(c)
DAV:   1    -0.305416230280E+03    0.40720E-03   -0.35489E-01 41280   0.199E+00    0.194E-01
DAV:   2    -0.305419129321E+03   -0.28990E-02   -0.32741E-02 69384   0.865E-01    0.269E-01
DAV:   3    -0.305418585313E+03    0.54401E-03   -0.10440E-02 72492   0.477E-01    0.181E-01
DAV:   4    -0.305418362022E+03    0.22329E-03   -0.27736E-03 59340   0.269E-01    0.114E-01
DAV:   5    -0.305418240399E+03    0.12162E-03   -0.12292E-03 54792   0.165E-01    0.794E-02
DAV:   6    -0.305418256891E+03   -0.16492E-04   -0.83809E-04 50544   0.143E-01
  31 F= -.30541826E+03 E0= -.30541619E+03  d E =-.251803E-02
 curvature:  -1.04 expect dE=-0.102E-02 dE for cont linesearch -0.436E-03
 trial: gam=-0.01737 g(F)=  0.845E-03 g(S)=  0.133E-03 ort = 0.137E-02 (trialstep = 0.485E+00)
 search vector abs. value=  0.932E-03
 bond charge predicted
       N       E                     dE             d eps       ncg     rms          rms(c)
DAV:   1    -0.305418539945E+03   -0.29955E-03   -0.29803E-02 52848   0.710E-01    0.120E-01
DAV:   2    -0.305419152415E+03   -0.61247E-03   -0.80574E-03 73692   0.439E-01    0.196E-01
DAV:   3    -0.305418762696E+03    0.38972E-03   -0.49861E-03 65652   0.334E-01    0.124E-01
DAV:   4    -0.305418636919E+03    0.12578E-03   -0.12804E-03 54672   0.177E-01    0.589E-02
DAV:   5    -0.305418595857E+03    0.41062E-04   -0.21888E-04 33192   0.883E-02
  32 F= -.30541860E+03 E0= -.30541654E+03  d E =-.338966E-03
 ZBRENT: can't locate minimum, use default step
 trial-energy change:   -0.000339  1 .order   -0.000435   -0.000463   -0.000407
 step:   1.9404(harm=  4.0345)  dis= 0.00410  next Energy=  -305.420183 (dE=-0.193E-02)
 bond charge predicted
       N       E                     dE             d eps       ncg     rms          rms(c)
DAV:   1    -0.305417722577E+03    0.91434E-03   -0.25846E-01 41316   0.203E+00    0.330E-01
DAV:   2    -0.305421480867E+03   -0.37583E-02   -0.47518E-02 69156   0.117E+00    0.438E-01
DAV:   3    -0.305420265307E+03    0.12156E-02   -0.22015E-02 68124   0.779E-01    0.285E-01
DAV:   4    -0.305419578371E+03    0.68694E-03   -0.75552E-03 62304   0.424E-01    0.163E-01
DAV:   5    -0.305419355034E+03    0.22334E-03   -0.40150E-03 66156   0.302E-01    0.135E-01
DAV:   6    -0.305419227577E+03    0.12746E-03   -0.20670E-03 61872   0.201E-01    0.787E-02
DAV:   7    -0.305419188841E+03    0.38737E-04   -0.87655E-04 51504   0.141E-01
  33 F= -.30541919E+03 E0= -.30541713E+03  d E =-.931950E-03
 curvature:  -1.28 expect dE=-0.126E-02 dE for cont linesearch -0.480E-04
 trial: gam= 0.79164 g(F)=  0.614E-03 g(S)=  0.365E-03 ort = 0.187E-03 (trialstep = 0.389E+00)
 search vector abs. value=  0.186E-02
 reached required accuracy - stopping structural energy minimisation
 writing wavefunctions
VASP is done!
