<?xml version="1.0" encoding="ISO-8859-1"?>
<modeling>
 <generator>
  <i name="program" type="string">vasp </i>
  <i name="version" type="string">5.4.4.18Apr17-6-g9f103f2a35  </i>
  <i name="subversion" type="string">(build Aug 09 2018 16:20:53) complex            parallel </i>
  <i name="platform" type="string">LinuxIFC </i>
  <i name="date" type="string">2020 04 29 </i>
  <i name="time" type="string">15:05:02 </i>
 </generator>
 <incar>
  <i type="string" name="SYSTEM"> Nb - Mo - Ta - Ti - V SQS</i>
  <i type="string" name="PREC">normal</i>
  <i type="int" name="ICHARG">     0</i>
  <i type="int" name="IBRION">     2</i>
  <i type="int" name="NSW">    50</i>
  <i type="int" name="ISIF">     3</i>
  <i name="ENCUT">    600.00000000</i>
  <i type="string" name="LREAL"> Auto</i>
  <i type="int" name="ISMEAR">     1</i>
  <i name="SIGMA">      0.20000000</i>
  <v type="int" name="KPOINT_BSE">    -1     0     0     0</v>
  <i type="string" name="GGA"> PS</i>
 </incar>
 <structure name="primitive_cell" >
  <crystal>
   <varray name="basis" >
    <v>      -3.16000000      -3.16000000      -3.16000000 </v>
    <v>       1.58000000       1.58000000      -7.90000000 </v>
    <v>       7.90000000      -7.90000000      -1.58000000 </v>
   </varray>
   <i name="volume">    473.31744000 </i>
   <varray name="rec_basis" >
    <v>      -0.13713080      -0.12658228      -0.05274262 </v>
    <v>       0.04219409       0.06329114      -0.10548523 </v>
    <v>       0.06329114      -0.06329114       0.00000000 </v>
   </varray>
  </crystal>
  <varray name="positions" >
   <v>      -0.03333333      -0.06666667       0.40000000 </v>
   <v>       0.30000000      -0.40000000       0.40000000 </v>
   <v>      -0.10000000      -0.20000000       0.20000000 </v>
   <v>       0.06666667       0.13333333       0.20000000 </v>
   <v>       0.46666667      -0.06666667       0.40000000 </v>
   <v>      -0.13333333      -0.26666667      -0.40000000 </v>
   <v>       0.03333333       0.06666667      -0.40000000 </v>
   <v>      -0.36666667       0.26666667       0.40000000 </v>
   <v>       0.40000000      -0.20000000       0.20000000 </v>
   <v>      -0.20000000      -0.40000000       0.40000000 </v>
   <v>      -0.43333333       0.13333333       0.20000000 </v>
   <v>       0.36666667      -0.26666667      -0.40000000 </v>
   <v>      -0.46666667       0.06666667      -0.40000000 </v>
   <v>       0.23333333       0.46666667       0.20000000 </v>
   <v>       0.20000000       0.40000000      -0.40000000 </v>
   <v>       0.00000000       0.00000000       0.00000000 </v>
   <v>      -0.06666667      -0.13333333      -0.20000000 </v>
   <v>      -0.30000000       0.40000000      -0.40000000 </v>
   <v>      -0.26666667       0.46666667       0.20000000 </v>
   <v>       0.33333333      -0.33333333       0.00000000 </v>
   <v>       0.43333333      -0.13333333      -0.20000000 </v>
   <v>      -0.50000000       0.00000000       0.00000000 </v>
   <v>       0.26666667      -0.46666667      -0.20000000 </v>
   <v>      -0.33333333       0.33333333       0.00000000 </v>
   <v>      -0.40000000       0.20000000      -0.20000000 </v>
   <v>      -0.16666667      -0.33333333       0.00000000 </v>
   <v>      -0.23333333      -0.46666667      -0.20000000 </v>
   <v>       0.16666667       0.33333333       0.00000000 </v>
   <v>       0.10000000       0.20000000      -0.20000000 </v>
  </varray>
 </structure>
 <varray name="primitive_index" >
  <v type="int" >        1 </v>
  <v type="int" >       17 </v>
  <v type="int" >        7 </v>
  <v type="int" >       23 </v>
  <v type="int" >       19 </v>
  <v type="int" >       18 </v>
  <v type="int" >        6 </v>
  <v type="int" >        2 </v>
  <v type="int" >       15 </v>
  <v type="int" >        8 </v>
  <v type="int" >       14 </v>
  <v type="int" >       11 </v>
  <v type="int" >       27 </v>
  <v type="int" >       29 </v>
  <v type="int" >       22 </v>
  <v type="int" >        4 </v>
  <v type="int" >       13 </v>
  <v type="int" >       25 </v>
  <v type="int" >        9 </v>
  <v type="int" >       28 </v>
  <v type="int" >       16 </v>
  <v type="int" >        3 </v>
  <v type="int" >       21 </v>
  <v type="int" >       10 </v>
  <v type="int" >       26 </v>
  <v type="int" >       12 </v>
  <v type="int" >       24 </v>
  <v type="int" >       20 </v>
  <v type="int" >        5 </v>
 </varray>
 <kpoints>
  <generation param="Gamma">
   <v type="int" name="divisions">       7        7        7 </v>
   <v name="usershift">      0.00000000       0.00000000       0.00000000 </v>
   <v name="genvec1">      0.14285714       0.00000000       0.00000000 </v>
   <v name="genvec2">     -0.00000000       0.14285714       0.00000000 </v>
   <v name="genvec3">      0.00000000       0.00000000       0.14285714 </v>
   <v name="shift">      0.00000000       0.00000000       0.00000000 </v>
  </generation>
  <varray name="kpointlist" >
   <v>       0.00000000       0.00000000       0.00000000 </v>
   <v>       0.14285714       0.00000000      -0.00000000 </v>
   <v>       0.28571429       0.00000000       0.00000000 </v>
   <v>       0.42857143       0.00000000      -0.00000000 </v>
   <v>      -0.00000000       0.14285714       0.00000000 </v>
   <v>       0.14285714       0.14285714      -0.00000000 </v>
   <v>       0.28571429       0.14285714       0.00000000 </v>
   <v>       0.42857143       0.14285714      -0.00000000 </v>
   <v>      -0.42857143       0.14285714       0.00000000 </v>
   <v>      -0.28571429       0.14285714       0.00000000 </v>
   <v>      -0.14285714       0.14285714       0.00000000 </v>
   <v>       0.00000000       0.28571429      -0.00000000 </v>
   <v>       0.14285714       0.28571429      -0.00000000 </v>
   <v>       0.28571429       0.28571429      -0.00000000 </v>
   <v>       0.42857143       0.28571429      -0.00000000 </v>
   <v>      -0.42857143       0.28571429      -0.00000000 </v>
   <v>      -0.28571429       0.28571429      -0.00000000 </v>
   <v>      -0.14285714       0.28571429      -0.00000000 </v>
   <v>      -0.00000000       0.42857143      -0.00000000 </v>
   <v>       0.14285714       0.42857143       0.00000000 </v>
   <v>       0.28571429       0.42857143       0.00000000 </v>
   <v>       0.42857143       0.42857143      -0.00000000 </v>
   <v>      -0.42857143       0.42857143       0.00000000 </v>
   <v>      -0.28571429       0.42857143      -0.00000000 </v>
   <v>      -0.14285714       0.42857143      -0.00000000 </v>
   <v>       0.00000000       0.00000000       0.14285714 </v>
   <v>       0.14285714       0.00000000       0.14285714 </v>
   <v>       0.28571429       0.00000000       0.14285714 </v>
   <v>       0.42857143       0.00000000       0.14285714 </v>
   <v>      -0.42857143       0.00000000       0.14285714 </v>
   <v>      -0.28571429       0.00000000       0.14285714 </v>
   <v>      -0.14285714      -0.00000000       0.14285714 </v>
   <v>      -0.00000000       0.14285714       0.14285714 </v>
   <v>       0.14285714       0.14285714       0.14285714 </v>
   <v>       0.28571429       0.14285714       0.14285714 </v>
   <v>       0.42857143       0.14285714       0.14285714 </v>
   <v>      -0.42857143       0.14285714       0.14285714 </v>
   <v>      -0.28571429       0.14285714       0.14285714 </v>
   <v>      -0.14285714       0.14285714       0.14285714 </v>
   <v>      -0.00000000       0.28571429       0.14285714 </v>
   <v>       0.14285714       0.28571429       0.14285714 </v>
   <v>       0.28571429       0.28571429       0.14285714 </v>
   <v>       0.42857143       0.28571429       0.14285714 </v>
   <v>      -0.42857143       0.28571429       0.14285714 </v>
   <v>      -0.28571429       0.28571429       0.14285714 </v>
   <v>      -0.14285714       0.28571429       0.14285714 </v>
   <v>       0.00000000       0.42857143       0.14285714 </v>
   <v>       0.14285714       0.42857143       0.14285714 </v>
   <v>       0.28571429       0.42857143       0.14285714 </v>
   <v>       0.42857143       0.42857143       0.14285714 </v>
   <v>      -0.42857143       0.42857143       0.14285714 </v>
   <v>      -0.28571429       0.42857143       0.14285714 </v>
   <v>      -0.14285714       0.42857143       0.14285714 </v>
   <v>       0.00000000      -0.42857143       0.14285714 </v>
   <v>       0.14285714      -0.42857143       0.14285714 </v>
   <v>       0.28571429      -0.42857143       0.14285714 </v>
   <v>       0.42857143      -0.42857143       0.14285714 </v>
   <v>      -0.42857143      -0.42857143       0.14285714 </v>
   <v>      -0.28571429      -0.42857143       0.14285714 </v>
   <v>      -0.14285714      -0.42857143       0.14285714 </v>
   <v>       0.00000000      -0.28571429       0.14285714 </v>
   <v>       0.14285714      -0.28571429       0.14285714 </v>
   <v>       0.28571429      -0.28571429       0.14285714 </v>
   <v>       0.42857143      -0.28571429       0.14285714 </v>
   <v>      -0.42857143      -0.28571429       0.14285714 </v>
   <v>      -0.28571429      -0.28571429       0.14285714 </v>
   <v>      -0.14285714      -0.28571429       0.14285714 </v>
   <v>       0.00000000      -0.14285714       0.14285714 </v>
   <v>       0.14285714      -0.14285714       0.14285714 </v>
   <v>       0.28571429      -0.14285714       0.14285714 </v>
   <v>       0.42857143      -0.14285714       0.14285714 </v>
   <v>      -0.42857143      -0.14285714       0.14285714 </v>
   <v>      -0.28571429      -0.14285714       0.14285714 </v>
   <v>      -0.14285714      -0.14285714       0.14285714 </v>
   <v>       0.00000000       0.00000000       0.28571429 </v>
   <v>       0.14285714       0.00000000       0.28571429 </v>
   <v>       0.28571429       0.00000000       0.28571429 </v>
   <v>       0.42857143       0.00000000       0.28571429 </v>
   <v>      -0.42857143      -0.00000000       0.28571429 </v>
   <v>      -0.28571429      -0.00000000       0.28571429 </v>
   <v>      -0.14285714      -0.00000000       0.28571429 </v>
   <v>      -0.00000000       0.14285714       0.28571429 </v>
   <v>       0.14285714       0.14285714       0.28571429 </v>
   <v>       0.28571429       0.14285714       0.28571429 </v>
   <v>       0.42857143       0.14285714       0.28571429 </v>
   <v>      -0.42857143       0.14285714       0.28571429 </v>
   <v>      -0.28571429       0.14285714       0.28571429 </v>
   <v>      -0.14285714       0.14285714       0.28571429 </v>
   <v>      -0.00000000       0.28571429       0.28571429 </v>
   <v>       0.14285714       0.28571429       0.28571429 </v>
   <v>       0.28571429       0.28571429       0.28571429 </v>
   <v>       0.42857143       0.28571429       0.28571429 </v>
   <v>      -0.42857143       0.28571429       0.28571429 </v>
   <v>      -0.28571429       0.28571429       0.28571429 </v>
   <v>      -0.14285714       0.28571429       0.28571429 </v>
   <v>       0.00000000       0.42857143       0.28571429 </v>
   <v>       0.14285714       0.42857143       0.28571429 </v>
   <v>       0.28571429       0.42857143       0.28571429 </v>
   <v>       0.42857143       0.42857143       0.28571429 </v>
   <v>      -0.42857143       0.42857143       0.28571429 </v>
   <v>      -0.28571429       0.42857143       0.28571429 </v>
   <v>      -0.14285714       0.42857143       0.28571429 </v>
   <v>      -0.00000000      -0.42857143       0.28571429 </v>
   <v>       0.14285714      -0.42857143       0.28571429 </v>
   <v>       0.28571429      -0.42857143       0.28571429 </v>
   <v>       0.42857143      -0.42857143       0.28571429 </v>
   <v>      -0.42857143      -0.42857143       0.28571429 </v>
   <v>      -0.28571429      -0.42857143       0.28571429 </v>
   <v>      -0.14285714      -0.42857143       0.28571429 </v>
   <v>       0.00000000      -0.28571429       0.28571429 </v>
   <v>       0.14285714      -0.28571429       0.28571429 </v>
   <v>       0.28571429      -0.28571429       0.28571429 </v>
   <v>       0.42857143      -0.28571429       0.28571429 </v>
   <v>      -0.42857143      -0.28571429       0.28571429 </v>
   <v>      -0.28571429      -0.28571429       0.28571429 </v>
   <v>      -0.14285714      -0.28571429       0.28571429 </v>
   <v>       0.00000000      -0.14285714       0.28571429 </v>
   <v>       0.14285714      -0.14285714       0.28571429 </v>
   <v>       0.28571429      -0.14285714       0.28571429 </v>
   <v>       0.42857143      -0.14285714       0.28571429 </v>
   <v>      -0.42857143      -0.14285714       0.28571429 </v>
   <v>      -0.28571429      -0.14285714       0.28571429 </v>
   <v>      -0.14285714      -0.14285714       0.28571429 </v>
   <v>       0.00000000       0.00000000       0.42857143 </v>
   <v>       0.14285714       0.00000000       0.42857143 </v>
   <v>       0.28571429       0.00000000       0.42857143 </v>
   <v>       0.42857143      -0.00000000       0.42857143 </v>
   <v>      -0.42857143      -0.00000000       0.42857143 </v>
   <v>      -0.28571429       0.00000000       0.42857143 </v>
   <v>      -0.14285714      -0.00000000       0.42857143 </v>
   <v>      -0.00000000       0.14285714       0.42857143 </v>
   <v>       0.14285714       0.14285714       0.42857143 </v>
   <v>       0.28571429       0.14285714       0.42857143 </v>
   <v>       0.42857143       0.14285714       0.42857143 </v>
   <v>      -0.42857143       0.14285714       0.42857143 </v>
   <v>      -0.28571429       0.14285714       0.42857143 </v>
   <v>      -0.14285714       0.14285714       0.42857143 </v>
   <v>       0.00000000       0.28571429       0.42857143 </v>
   <v>       0.14285714       0.28571429       0.42857143 </v>
   <v>       0.28571429       0.28571429       0.42857143 </v>
   <v>       0.42857143       0.28571429       0.42857143 </v>
   <v>      -0.42857143       0.28571429       0.42857143 </v>
   <v>      -0.28571429       0.28571429       0.42857143 </v>
   <v>      -0.14285714       0.28571429       0.42857143 </v>
   <v>       0.00000000       0.42857143       0.42857143 </v>
   <v>       0.14285714       0.42857143       0.42857143 </v>
   <v>       0.28571429       0.42857143       0.42857143 </v>
   <v>       0.42857143       0.42857143       0.42857143 </v>
   <v>      -0.42857143       0.42857143       0.42857143 </v>
   <v>      -0.28571429       0.42857143       0.42857143 </v>
   <v>      -0.14285714       0.42857143       0.42857143 </v>
   <v>       0.00000000      -0.42857143       0.42857143 </v>
   <v>       0.14285714      -0.42857143       0.42857143 </v>
   <v>       0.28571429      -0.42857143       0.42857143 </v>
   <v>       0.42857143      -0.42857143       0.42857143 </v>
   <v>      -0.42857143      -0.42857143       0.42857143 </v>
   <v>      -0.28571429      -0.42857143       0.42857143 </v>
   <v>      -0.14285714      -0.42857143       0.42857143 </v>
   <v>      -0.00000000      -0.28571429       0.42857143 </v>
   <v>       0.14285714      -0.28571429       0.42857143 </v>
   <v>       0.28571429      -0.28571429       0.42857143 </v>
   <v>       0.42857143      -0.28571429       0.42857143 </v>
   <v>      -0.42857143      -0.28571429       0.42857143 </v>
   <v>      -0.28571429      -0.28571429       0.42857143 </v>
   <v>      -0.14285714      -0.28571429       0.42857143 </v>
   <v>       0.00000000      -0.14285714       0.42857143 </v>
   <v>       0.14285714      -0.14285714       0.42857143 </v>
   <v>       0.28571429      -0.14285714       0.42857143 </v>
   <v>       0.42857143      -0.14285714       0.42857143 </v>
   <v>      -0.42857143      -0.14285714       0.42857143 </v>
   <v>      -0.28571429      -0.14285714       0.42857143 </v>
   <v>      -0.14285714      -0.14285714       0.42857143 </v>
  </varray>
  <varray name="weights" >
   <v>       0.00291545 </v>
   <v>       0.00583090 </v>
   <v>       0.00583090 </v>
   <v>       0.00583090 </v>
   <v>       0.00583090 </v>
   <v>       0.00583090 </v>
   <v>       0.00583090 </v>
   <v>       0.00583090 </v>
   <v>       0.00583090 </v>
   <v>       0.00583090 </v>
   <v>       0.00583090 </v>
   <v>       0.00583090 </v>
   <v>       0.00583090 </v>
   <v>       0.00583090 </v>
   <v>       0.00583090 </v>
   <v>       0.00583090 </v>
   <v>       0.00583090 </v>
   <v>       0.00583090 </v>
   <v>       0.00583090 </v>
   <v>       0.00583090 </v>
   <v>       0.00583090 </v>
   <v>       0.00583090 </v>
   <v>       0.00583090 </v>
   <v>       0.00583090 </v>
   <v>       0.00583090 </v>
   <v>       0.00583090 </v>
   <v>       0.00583090 </v>
   <v>       0.00583090 </v>
   <v>       0.00583090 </v>
   <v>       0.00583090 </v>
   <v>       0.00583090 </v>
   <v>       0.00583090 </v>
   <v>       0.00583090 </v>
   <v>       0.00583090 </v>
   <v>       0.00583090 </v>
   <v>       0.00583090 </v>
   <v>       0.00583090 </v>
   <v>       0.00583090 </v>
   <v>       0.00583090 </v>
   <v>       0.00583090 </v>
   <v>       0.00583090 </v>
   <v>       0.00583090 </v>
   <v>       0.00583090 </v>
   <v>       0.00583090 </v>
   <v>       0.00583090 </v>
   <v>       0.00583090 </v>
   <v>       0.00583090 </v>
   <v>       0.00583090 </v>
   <v>       0.00583090 </v>
   <v>       0.00583090 </v>
   <v>       0.00583090 </v>
   <v>       0.00583090 </v>
   <v>       0.00583090 </v>
   <v>       0.00583090 </v>
   <v>       0.00583090 </v>
   <v>       0.00583090 </v>
   <v>       0.00583090 </v>
   <v>       0.00583090 </v>
   <v>       0.00583090 </v>
   <v>       0.00583090 </v>
   <v>       0.00583090 </v>
   <v>       0.00583090 </v>
   <v>       0.00583090 </v>
   <v>       0.00583090 </v>
   <v>       0.00583090 </v>
   <v>       0.00583090 </v>
   <v>       0.00583090 </v>
   <v>       0.00583090 </v>
   <v>       0.00583090 </v>
   <v>       0.00583090 </v>
   <v>       0.00583090 </v>
   <v>       0.00583090 </v>
   <v>       0.00583090 </v>
   <v>       0.00583090 </v>
   <v>       0.00583090 </v>
   <v>       0.00583090 </v>
   <v>       0.00583090 </v>
   <v>       0.00583090 </v>
   <v>       0.00583090 </v>
   <v>       0.00583090 </v>
   <v>       0.00583090 </v>
   <v>       0.00583090 </v>
   <v>       0.00583090 </v>
   <v>       0.00583090 </v>
   <v>       0.00583090 </v>
   <v>       0.00583090 </v>
   <v>       0.00583090 </v>
   <v>       0.00583090 </v>
   <v>       0.00583090 </v>
   <v>       0.00583090 </v>
   <v>       0.00583090 </v>
   <v>       0.00583090 </v>
   <v>       0.00583090 </v>
   <v>       0.00583090 </v>
   <v>       0.00583090 </v>
   <v>       0.00583090 </v>
   <v>       0.00583090 </v>
   <v>       0.00583090 </v>
   <v>       0.00583090 </v>
   <v>       0.00583090 </v>
   <v>       0.00583090 </v>
   <v>       0.00583090 </v>
   <v>       0.00583090 </v>
   <v>       0.00583090 </v>
   <v>       0.00583090 </v>
   <v>       0.00583090 </v>
   <v>       0.00583090 </v>
   <v>       0.00583090 </v>
   <v>       0.00583090 </v>
   <v>       0.00583090 </v>
   <v>       0.00583090 </v>
   <v>       0.00583090 </v>
   <v>       0.00583090 </v>
   <v>       0.00583090 </v>
   <v>       0.00583090 </v>
   <v>       0.00583090 </v>
   <v>       0.00583090 </v>
   <v>       0.00583090 </v>
   <v>       0.00583090 </v>
   <v>       0.00583090 </v>
   <v>       0.00583090 </v>
   <v>       0.00583090 </v>
   <v>       0.00583090 </v>
   <v>       0.00583090 </v>
   <v>       0.00583090 </v>
   <v>       0.00583090 </v>
   <v>       0.00583090 </v>
   <v>       0.00583090 </v>
   <v>       0.00583090 </v>
   <v>       0.00583090 </v>
   <v>       0.00583090 </v>
   <v>       0.00583090 </v>
   <v>       0.00583090 </v>
   <v>       0.00583090 </v>
   <v>       0.00583090 </v>
   <v>       0.00583090 </v>
   <v>       0.00583090 </v>
   <v>       0.00583090 </v>
   <v>       0.00583090 </v>
   <v>       0.00583090 </v>
   <v>       0.00583090 </v>
   <v>       0.00583090 </v>
   <v>       0.00583090 </v>
   <v>       0.00583090 </v>
   <v>       0.00583090 </v>
   <v>       0.00583090 </v>
   <v>       0.00583090 </v>
   <v>       0.00583090 </v>
   <v>       0.00583090 </v>
   <v>       0.00583090 </v>
   <v>       0.00583090 </v>
   <v>       0.00583090 </v>
   <v>       0.00583090 </v>
   <v>       0.00583090 </v>
   <v>       0.00583090 </v>
   <v>       0.00583090 </v>
   <v>       0.00583090 </v>
   <v>       0.00583090 </v>
   <v>       0.00583090 </v>
   <v>       0.00583090 </v>
   <v>       0.00583090 </v>
   <v>       0.00583090 </v>
   <v>       0.00583090 </v>
   <v>       0.00583090 </v>
   <v>       0.00583090 </v>
   <v>       0.00583090 </v>
   <v>       0.00583090 </v>
   <v>       0.00583090 </v>
   <v>       0.00583090 </v>
   <v>       0.00583090 </v>
   <v>       0.00583090 </v>
   <v>       0.00583090 </v>
  </varray>
 </kpoints>
 <parameters>
  <separator name="general" >
   <i type="string" name="SYSTEM">Nb - Mo - Ta - Ti - V SQS</i>
   <i type="logical" name="LCOMPAT"> F  </i>
  </separator>
  <separator name="electronic" >
   <i type="string" name="PREC">normal</i>
   <i name="ENMAX">    600.00000000</i>
   <i name="ENAUG">    455.65900000</i>
   <i name="EDIFF">      0.00010000</i>
   <i type="int" name="IALGO">    38</i>
   <i type="int" name="IWAVPR">    11</i>
   <i type="int" name="NBANDS">   120</i>
   <i name="NELECT">    192.00000000</i>
   <i type="int" name="TURBO">     0</i>
   <i type="int" name="IRESTART">     0</i>
   <i type="int" name="NREBOOT">     0</i>
   <i type="int" name="NMIN">     0</i>
   <i name="EREF">      0.00000000</i>
   <separator name="electronic smearing" >
    <i type="int" name="ISMEAR">     1</i>
    <i name="SIGMA">      0.20000000</i>
    <i name="KSPACING">      0.50000000</i>
    <i type="logical" name="KGAMMA"> T  </i>
   </separator>
   <separator name="electronic projectors" >
    <i type="logical" name="LREAL"> T  </i>
    <v name="ROPT">     -0.00050000     -0.00050000     -0.00050000     -0.00050000     -0.00050000</v>
    <i type="int" name="LMAXPAW">  -100</i>
    <i type="int" name="LMAXMIX">     2</i>
    <i type="logical" name="NLSPLINE"> F  </i>
   </separator>
   <separator name="electronic startup" >
    <i type="int" name="ISTART">     0</i>
    <i type="int" name="ICHARG">     0</i>
    <i type="int" name="INIWAV">     1</i>
   </separator>
   <separator name="electronic spin" >
    <i type="int" name="ISPIN">     1</i>
    <i type="logical" name="LNONCOLLINEAR"> F  </i>
    <v name="MAGMOM">      1.00000000      1.00000000      1.00000000      1.00000000      1.00000000      1.00000000      1.00000000      1.00000000      1.00000000      1.00000000      1.00000000      1.00000000      1.00000000      1.00000000      1.00000000      1.00000000      1.00000000      1.00000000      1.00000000      1.00000000
      1.00000000      1.00000000      1.00000000      1.00000000      1.00000000      1.00000000      1.00000000      1.00000000      1.00000000</v>
    <i name="NUPDOWN">     -1.00000000</i>
    <i type="logical" name="LSORBIT"> F  </i>
    <v name="SAXIS">      0.00000000      0.00000000      1.00000000</v>
    <i type="logical" name="LSPIRAL"> F  </i>
    <v name="QSPIRAL">      0.00000000      0.00000000      0.00000000</v>
    <i type="logical" name="LZEROZ"> F  </i>
   </separator>
   <separator name="electronic exchange-correlation" >
    <i type="logical" name="LASPH"> F  </i>
    <i type="logical" name="LMETAGGA"> F  </i>
   </separator>
   <separator name="electronic convergence" >
    <i type="int" name="NELM">    60</i>
    <i type="int" name="NELMDL">    -5</i>
    <i type="int" name="NELMIN">     2</i>
    <i name="ENINI">    600.00000000</i>
    <separator name="electronic convergence detail" >
     <i type="logical" name="LDIAG"> T  </i>
     <i type="logical" name="LSUBROT"> F  </i>
     <i name="WEIMIN">      0.00100000</i>
     <i name="EBREAK">      0.00000021</i>
     <i name="DEPER">      0.30000000</i>
     <i type="int" name="NRMM">     4</i>
     <i name="TIME">      0.40000000</i>
    </separator>
   </separator>
   <separator name="electronic mixer" >
    <i name="AMIX">      0.40000000</i>
    <i name="BMIX">      1.00000000</i>
    <i name="AMIN">      0.10000000</i>
    <i name="AMIX_MAG">      1.60000000</i>
    <i name="BMIX_MAG">      1.00000000</i>
    <separator name="electronic mixer details" >
     <i type="int" name="IMIX">     4</i>
     <i type="logical" name="MIXFIRST"> F  </i>
     <i type="int" name="MAXMIX">   -45</i>
     <i name="WC">    100.00000000</i>
     <i type="int" name="INIMIX">     1</i>
     <i type="int" name="MIXPRE">     1</i>
     <i type="int" name="MREMOVE">     5</i>
    </separator>
   </separator>
   <separator name="electronic dipolcorrection" >
    <i type="logical" name="LDIPOL"> F  </i>
    <i type="logical" name="LMONO"> F  </i>
    <i type="int" name="IDIPOL">     0</i>
    <i name="EPSILON">      1.00000000</i>
    <v name="DIPOL">   -100.00000000   -100.00000000   -100.00000000</v>
    <i name="EFIELD">      0.00000000</i>
   </separator>
  </separator>
  <separator name="grids" >
   <i type="int" name="NGX">    36</i>
   <i type="int" name="NGY">    50</i>
   <i type="int" name="NGZ">    70</i>
   <i type="int" name="NGXF">    72</i>
   <i type="int" name="NGYF">   100</i>
   <i type="int" name="NGZF">   140</i>
   <i type="logical" name="ADDGRID"> F  </i>
  </separator>
  <separator name="ionic" >
   <i type="int" name="NSW">    50</i>
   <i type="int" name="IBRION">     2</i>
   <i type="int" name="MDALGO">     0</i>
   <i type="int" name="ISIF">     3</i>
   <i name="PSTRESS">      0.00000000</i>
   <i name="EDIFFG">      0.00100000</i>
   <i type="int" name="NFREE">     1</i>
   <i name="POTIM">      0.50000000</i>
   <i name="SMASS">     -3.00000000</i>
   <i name="SCALEE">      1.00000000</i>
  </separator>
  <separator name="ionic md" >
   <i name="TEBEG">      0.00010000</i>
   <i name="TEEND">      0.00010000</i>
   <i type="int" name="NBLOCK">     1</i>
   <i type="int" name="KBLOCK">    50</i>
   <i type="int" name="NPACO">   256</i>
   <i name="APACO">     16.00000000</i>
  </separator>
  <separator name="symmetry" >
   <i type="int" name="ISYM">     2</i>
   <i name="SYMPREC">      0.00001000</i>
  </separator>
  <separator name="dos" >
   <i type="int" name="LORBIT">     0</i>
   <v name="RWIGS">     -1.00000000     -1.00000000     -1.00000000     -1.00000000     -1.00000000</v>
   <i type="int" name="NEDOS">   301</i>
   <i name="EMIN">     10.00000000</i>
   <i name="EMAX">    -10.00000000</i>
   <i name="EFERMI">      0.00000000</i>
  </separator>
  <separator name="writing" >
   <i type="int" name="NWRITE">     2</i>
   <i type="logical" name="LWAVE"> T  </i>
   <i type="logical" name="LDOWNSAMPLE"> F  </i>
   <i type="logical" name="LCHARG"> T  </i>
   <i type="logical" name="LPARD"> F  </i>
   <i type="logical" name="LVTOT"> F  </i>
   <i type="logical" name="LVHAR"> F  </i>
   <i type="logical" name="LELF"> F  </i>
   <i type="logical" name="LOPTICS"> F  </i>
   <v name="STM">      0.00000000      0.00000000      0.00000000      0.00000000      0.00000000      0.00000000      0.00000000</v>
  </separator>
  <separator name="performance" >
   <i type="int" name="NPAR">    12</i>
   <i type="int" name="NSIM">     4</i>
   <i type="int" name="NBLK">    -1</i>
   <i type="logical" name="LPLANE"> T  </i>
   <i type="logical" name="LSCALAPACK"> T  </i>
   <i type="logical" name="LSCAAWARE"> F  </i>
   <i type="logical" name="LSCALU"> F  </i>
   <i type="logical" name="LASYNC"> F  </i>
   <i type="logical" name="LORBITALREAL"> F  </i>
  </separator>
  <separator name="miscellaneous" >
   <i type="int" name="IDIOT">     3</i>
   <i type="int" name="ISPECIAL">     0</i>
   <i type="logical" name="LMUSIC"> F  </i>
   <v name="POMASS">     92.91000000     95.94000000    180.94800000     47.88000000     50.94100000</v>
   <v name="DARWINR">      0.00000000      0.00000000      0.00000000      0.00000000      0.00000000</v>
   <v name="DARWINV">      1.00000000      1.00000000      1.00000000      1.00000000      1.00000000</v>
   <i type="logical" name="LCORR"> T  </i>
  </separator>
  <i type="logical" name="GGA_COMPAT"> T  </i>
  <i type="logical" name="LBERRY"> F  </i>
  <i type="int" name="ICORELEVEL">     0</i>
  <i type="logical" name="LDAU"> F  </i>
  <i type="int" name="I_CONSTRAINED_M">     0</i>
  <separator name="electronic exchange-correlation" >
   <i type="string" name="GGA">PS</i>
   <i type="int" name="VOSKOWN">     0</i>
   <i type="logical" name="LHFCALC"> F  </i>
   <i type="string" name="PRECFOCK"></i>
   <i type="logical" name="LSYMGRAD"> F  </i>
   <i type="logical" name="LHFONE"> F  </i>
   <i type="logical" name="LRHFCALC"> F  </i>
   <i type="logical" name="LTHOMAS"> F  </i>
   <i type="logical" name="LMODELHF"> F  </i>
   <i name="ENCUT4O">     -1.00000000</i>
   <i type="int" name="EXXOEP">     0</i>
   <i type="int" name="FOURORBIT">     0</i>
   <i name="AEXX">      0.00000000</i>
   <i name="HFALPHA">      0.00000000</i>
   <i name="MCALPHA">      0.00000000</i>
   <i name="ALDAX">      1.00000000</i>
   <i name="AGGAX">      1.00000000</i>
   <i name="ALDAC">      1.00000000</i>
   <i name="AGGAC">      1.00000000</i>
   <i type="int" name="NKREDX">     1</i>
   <i type="int" name="NKREDY">     1</i>
   <i type="int" name="NKREDZ">     1</i>
   <i type="logical" name="SHIFTRED"> F  </i>
   <i type="logical" name="ODDONLY"> F  </i>
   <i type="logical" name="EVENONLY"> F  </i>
   <i type="int" name="LMAXFOCK">     0</i>
   <i type="int" name="NMAXFOCKAE">     0</i>
   <i type="logical" name="LFOCKAEDFT"> F  </i>
   <i name="HFSCREEN">      0.00000000</i>
   <i name="HFSCREENC">      0.00000000</i>
   <i type="int" name="NBANDSGWLOW">     0</i>
  </separator>
  <separator name="vdW DFT" >
   <i type="logical" name="LUSE_VDW"> F  </i>
   <i name="Zab_VDW">     -0.84910000</i>
   <i name="PARAM1">      0.12340000</i>
   <i name="PARAM2">      1.00000000</i>
   <i name="PARAM3">      0.00000000</i>
  </separator>
  <separator name="model GW" >
   <i type="int" name="MODEL_GW">     0</i>
   <i name="MODEL_EPS0">      9.79277462</i>
   <i name="MODEL_ALPHA">      1.00000000</i>
  </separator>
  <separator name="linear response parameters" >
   <i type="logical" name="LEPSILON"> F  </i>
   <i type="logical" name="LRPA"> F  </i>
   <i type="logical" name="LNABLA"> F  </i>
   <i type="logical" name="LVEL"> F  </i>
   <i type="int" name="KINTER">     0</i>
   <i name="CSHIFT">      0.10000000</i>
   <i name="OMEGAMAX">     -1.00000000</i>
   <i name="DEG_THRESHOLD">      0.00200000</i>
   <i name="RTIME">     -0.10000000</i>
   <i name="WPLASMAI">      0.00000000</i>
   <v name="DFIELD">      0.00000000      0.00000000      0.00000000</v>
   <v name="WPLASMA">      0.00000000      0.00000000      0.00000000      0.00000000      0.00000000      0.00000000      0.00000000      0.00000000      0.00000000</v>
  </separator>
  <separator name="orbital magnetization" >
   <i type="logical" name="NUCIND"> F  </i>
   <v name="MAGPOS">      0.00000000      0.00000000      0.00000000</v>
   <i type="logical" name="LNICSALL"> T  </i>
   <i type="logical" name="ORBITALMAG"> F  </i>
   <i type="logical" name="LMAGBLOCH"> F  </i>
   <i type="logical" name="LCHIMAG"> F  </i>
   <i type="logical" name="LGAUGE"> T  </i>
   <i type="int" name="MAGATOM">     0</i>
   <v name="MAGDIPOL">      0.00000000      0.00000000      0.00000000</v>
   <v name="AVECCONST">      0.00000000      0.00000000      0.00000000</v>
  </separator>
  <separator name="response functions" >
   <i type="logical" name="LADDER"> F  </i>
   <i type="logical" name="LRPAFORCE"> F  </i>
   <i type="logical" name="LFXC"> F  </i>
   <i type="logical" name="LHARTREE"> T  </i>
   <i type="int" name="IBSE">     0</i>
   <v type="int" name="KPOINT">    -1     0     0     0</v>
   <i type="logical" name="LTCTE"> F  </i>
   <i type="logical" name="LTETE"> F  </i>
   <i type="logical" name="LTRIPLET"> F  </i>
   <i type="logical" name="LFXCEPS"> F  </i>
   <i type="logical" name="LFXHEG"> F  </i>
   <i type="int" name="NATURALO">     2</i>
   <i type="logical" name="L2ORDER"> F  </i>
   <i type="logical" name="LMP2LT"> F  </i>
   <i type="logical" name="LUSEW"> F  </i>
   <i name="ENCUTGW">     -2.00000000</i>
   <i name="ENCUTGWSOFT">     -2.00000000</i>
   <i name="ENCUTLF">     -1.00000000</i>
   <i type="int" name="LMAXMP2">    -1</i>
   <i name="SCISSOR">      0.00000000</i>
   <i type="int" name="NOMEGA">     0</i>
   <i type="int" name="NOMEGAR">     0</i>
   <i type="int" name="NBANDSGW">    -1</i>
   <i type="int" name="NBANDSO">    -1</i>
   <i type="int" name="NBANDSV">    -1</i>
   <i type="int" name="NELM">     1</i>
   <i type="int" name="NELMHF">     1</i>
   <i type="int" name="DIM">     3</i>
   <i type="int" name="ANTIRES">     0</i>
   <i name="OMEGAMAX">    -30.00000000</i>
   <i name="OMEGAMIN">    -30.00000000</i>
   <i name="OMEGATL">   -200.00000000</i>
   <i type="int" name="OMEGAGRID">   140</i>
   <i name="CSHIFT">     -0.10000000</i>
   <i type="logical" name="SELFENERGY"> F  </i>
   <i type="logical" name="LSPECTRAL"> F  </i>
   <i type="logical" name="LSPECTRALGW"> F  </i>
   <i type="logical" name="LSINGLES"> F  </i>
   <i type="logical" name="LFERMIGW"> F  </i>
   <i type="logical" name="ODDONLYGW"> F  </i>
   <i type="logical" name="EVENONLYGW"> F  </i>
   <i type="int" name="NKREDLFX">     1</i>
   <i type="int" name="NKREDLFY">     1</i>
   <i type="int" name="NKREDLFZ">     1</i>
   <i type="int" name="MAXMEM">  2800</i>
   <i type="int" name="TELESCOPE">     0</i>
   <i type="int" name="TAUPAR">     1</i>
   <i type="int" name="OMEGAPAR">    -1</i>
   <i name="LAMBDA">      1.00000000</i>
  </separator>
  <separator name="External order field" >
   <i name="OFIELD_KAPPA">      0.00000000</i>
   <v name="OFIELD_K">      0.00000000      0.00000000      0.00000000</v>
   <i name="OFIELD_Q6_NEAR">      0.00000000</i>
   <i name="OFIELD_Q6_FAR">      0.00000000</i>
   <i name="OFIELD_A">      0.00000000</i>
  </separator>
  <separator name="solvation model" >
   <i type="logical" name="LSOL"> F  </i>
  </separator>
 </parameters>
 <atominfo>
  <atoms>      29 </atoms>
  <types>       5 </types>
  <array name="atoms" >
   <dimension dim="1">ion</dimension>
   <field type="string">element</field>
   <field type="int">atomtype</field>
   <set>
    <rc><c>Nb</c><c>   1</c></rc>
    <rc><c>Nb</c><c>   1</c></rc>
    <rc><c>Nb</c><c>   1</c></rc>
    <rc><c>Nb</c><c>   1</c></rc>
    <rc><c>Nb</c><c>   1</c></rc>
    <rc><c>Nb</c><c>   1</c></rc>
    <rc><c>Mo</c><c>   2</c></rc>
    <rc><c>Mo</c><c>   2</c></rc>
    <rc><c>Mo</c><c>   2</c></rc>
    <rc><c>Mo</c><c>   2</c></rc>
    <rc><c>Mo</c><c>   2</c></rc>
    <rc><c>Ta</c><c>   3</c></rc>
    <rc><c>Ta</c><c>   3</c></rc>
    <rc><c>Ta</c><c>   3</c></rc>
    <rc><c>Ta</c><c>   3</c></rc>
    <rc><c>Ta</c><c>   3</c></rc>
    <rc><c>Ta</c><c>   3</c></rc>
    <rc><c>Ti</c><c>   4</c></rc>
    <rc><c>Ti</c><c>   4</c></rc>
    <rc><c>Ti</c><c>   4</c></rc>
    <rc><c>Ti</c><c>   4</c></rc>
    <rc><c>Ti</c><c>   4</c></rc>
    <rc><c>Ti</c><c>   4</c></rc>
    <rc><c>V </c><c>   5</c></rc>
    <rc><c>V </c><c>   5</c></rc>
    <rc><c>V </c><c>   5</c></rc>
    <rc><c>V </c><c>   5</c></rc>
    <rc><c>V </c><c>   5</c></rc>
    <rc><c>V </c><c>   5</c></rc>
   </set>
  </array>
  <array name="atomtypes" >
   <dimension dim="1">type</dimension>
   <field type="int">atomspertype</field>
   <field type="string">element</field>
   <field>mass</field>
   <field>valence</field>
   <field type="string">pseudopotential</field>
   <set>
    <rc><c>   6</c><c>Nb</c><c>     92.91000000</c><c>     13.00000000</c><c>  PAW_PBE Nb_sv 25May2007               </c></rc>
    <rc><c>   5</c><c>Mo</c><c>     95.94000000</c><c>      6.00000000</c><c>  PAW_PBE Mo 08Apr2002                  </c></rc>
    <rc><c>   6</c><c>Ta</c><c>    180.94800000</c><c>      5.00000000</c><c>  PAW_PBE Ta 17Jan2003                  </c></rc>
    <rc><c>   6</c><c>Ti</c><c>     47.88000000</c><c>      4.00000000</c><c>  PAW_PBE Ti 08Apr2002                  </c></rc>
    <rc><c>   6</c><c>V </c><c>     50.94100000</c><c>      5.00000000</c><c>  PAW_PBE V 08Apr2002                   </c></rc>
   </set>
  </array>
 </atominfo>
 <structure name="initialpos" >
  <crystal>
   <varray name="basis" >
    <v>      -3.16000000      -3.16000000      -3.16000000 </v>
    <v>       1.58000000       1.58000000      -7.90000000 </v>
    <v>       7.90000000      -7.90000000      -1.58000000 </v>
   </varray>
   <i name="volume">    473.31744000 </i>
   <varray name="rec_basis" >
    <v>      -0.13713080      -0.12658228      -0.05274262 </v>
    <v>       0.04219409       0.06329114      -0.10548523 </v>
    <v>       0.06329114      -0.06329114       0.00000000 </v>
   </varray>
  </crystal>
  <varray name="positions" >
   <v>       0.96666667       0.93333333       0.40000000 </v>
   <v>       0.63333333       0.26666667       0.40000000 </v>
   <v>       0.50000000       0.00000000       0.00000000 </v>
   <v>       0.00000000       0.00000000       0.00000000 </v>
   <v>       0.10000000       0.20000000       0.80000000 </v>
   <v>       0.03333333       0.06666667       0.60000000 </v>
   <v>       0.90000000       0.80000000       0.20000000 </v>
   <v>       0.80000000       0.60000000       0.40000000 </v>
   <v>       0.73333333       0.46666667       0.20000000 </v>
   <v>       0.66666667       0.33333333       0.00000000 </v>
   <v>       0.36666667       0.73333333       0.60000000 </v>
   <v>       0.83333333       0.66666667       0.00000000 </v>
   <v>       0.93333333       0.86666667       0.80000000 </v>
   <v>       0.56666667       0.13333333       0.20000000 </v>
   <v>       0.40000000       0.80000000       0.20000000 </v>
   <v>       0.43333333       0.86666667       0.80000000 </v>
   <v>       0.30000000       0.60000000       0.40000000 </v>
   <v>       0.86666667       0.73333333       0.60000000 </v>
   <v>       0.46666667       0.93333333       0.40000000 </v>
   <v>       0.16666667       0.33333333       0.00000000 </v>
   <v>       0.26666667       0.53333333       0.80000000 </v>
   <v>       0.20000000       0.40000000       0.60000000 </v>
   <v>       0.06666667       0.13333333       0.20000000 </v>
   <v>       0.76666667       0.53333333       0.80000000 </v>
   <v>       0.70000000       0.40000000       0.60000000 </v>
   <v>       0.60000000       0.20000000       0.80000000 </v>
   <v>       0.53333333       0.06666667       0.60000000 </v>
   <v>       0.33333333       0.66666667       0.00000000 </v>
   <v>       0.23333333       0.46666667       0.20000000 </v>
  </varray>
 </structure>
 <calculation>
  <scstep>
   <time name="dav">   42.99   43.06</time>
   <time name="total">   43.11   43.21</time>
   <energy>
    <i name="alphaZ">   1146.37395419 </i>
    <i name="ewald"> -11054.98459508 </i>
    <i name="hartreedc">   -110.59711023 </i>
    <i name="XCdc">   -921.56462021 </i>
    <i name="pawpsdc"> 562766.80807570 </i>
    <i name="pawaedc">-561527.07675001 </i>
    <i name="eentropy">     -0.00240199 </i>
    <i name="bandstr">  -6916.58435499 </i>
    <i name="atom">  12788.47826598 </i>
    <i name="e_fr_energy">  -3829.14953664 </i>
    <i name="e_wo_entrp">  -3829.14713465 </i>
    <i name="e_0_energy">  -3829.14873597 </i>
   </energy>
  </scstep>
  <scstep>
   <time name="dav">   47.87   47.93</time>
   <time name="total">   47.88   47.93</time>
   <energy>
    <i name="e_fr_energy">  -9589.94869821 </i>
    <i name="e_wo_entrp">  -9589.94677633 </i>
    <i name="e_0_energy">  -9589.94805758 </i>
   </energy>
  </scstep>
  <scstep>
   <time name="dav">   56.20   56.28</time>
   <time name="total">   56.21   56.28</time>
   <energy>
    <i name="e_fr_energy"> -10519.01784978 </i>
    <i name="e_wo_entrp"> -10519.01973692 </i>
    <i name="e_0_energy"> -10519.01847883 </i>
   </energy>
  </scstep>
  <scstep>
   <time name="dav">   56.16   56.23</time>
   <time name="total">   56.17   56.24</time>
   <energy>
    <i name="e_fr_energy"> -10783.82010190 </i>
    <i name="e_wo_entrp"> -10783.82277628 </i>
    <i name="e_0_energy"> -10783.82099336 </i>
   </energy>
  </scstep>
  <scstep>
   <time name="dav">   56.48   56.56</time>
   <time name="total">   57.06   57.14</time>
   <energy>
    <i name="e_fr_energy"> -10938.54553904 </i>
    <i name="e_wo_entrp"> -10938.54903280 </i>
    <i name="e_0_energy"> -10938.54670362 </i>
   </energy>
  </scstep>
  <scstep>
   <time name="dav">   46.29   46.35</time>
   <time name="total">   47.01   47.08</time>
   <energy>
    <i name="e_fr_energy">   -853.81459846 </i>
    <i name="e_wo_entrp">   -853.81253953 </i>
    <i name="e_0_energy">   -853.81391215 </i>
   </energy>
  </scstep>
  <scstep>
   <time name="dav">   52.14   52.20</time>
   <time name="total">   52.87   52.95</time>
   <energy>
    <i name="e_fr_energy">   -685.53896573 </i>
    <i name="e_wo_entrp">   -685.54295280 </i>
    <i name="e_0_energy">   -685.54029475 </i>
   </energy>
  </scstep>
  <scstep>
   <time name="dav">   51.02   51.08</time>
   <time name="total">   51.69   51.75</time>
   <energy>
    <i name="e_fr_energy">   -543.23013947 </i>
    <i name="e_wo_entrp">   -543.22725500 </i>
    <i name="e_0_energy">   -543.22917798 </i>
   </energy>
  </scstep>
  <scstep>
   <time name="dav">   50.25   50.31</time>
   <time name="total">   50.92   50.99</time>
   <energy>
    <i name="e_fr_energy">   -476.87390870 </i>
    <i name="e_wo_entrp">   -476.87047656 </i>
    <i name="e_0_energy">   -476.87276466 </i>
   </energy>
  </scstep>
  <scstep>
   <time name="dav">   53.25   53.34</time>
   <time name="total">   53.92   54.01</time>
   <energy>
    <i name="e_fr_energy">   -630.66839580 </i>
    <i name="e_wo_entrp">   -630.66389150 </i>
    <i name="e_0_energy">   -630.66689437 </i>
   </energy>
  </scstep>
  <scstep>
   <time name="dav">   51.75   51.81</time>
   <time name="total">   52.44   52.51</time>
   <energy>
    <i name="e_fr_energy">   -730.01210107 </i>
    <i name="e_wo_entrp">   -730.00219634 </i>
    <i name="e_0_energy">   -730.00879949 </i>
   </energy>
  </scstep>
  <scstep>
   <time name="dav">   51.69   51.75</time>
   <time name="total">   52.34   52.42</time>
   <energy>
    <i name="e_fr_energy">   -708.52350233 </i>
    <i name="e_wo_entrp">   -708.52286540 </i>
    <i name="e_0_energy">   -708.52329002 </i>
   </energy>
  </scstep>
  <scstep>
   <time name="dav">   46.98   47.04</time>
   <time name="total">   47.65   47.71</time>
   <energy>
    <i name="e_fr_energy">   -646.67441676 </i>
    <i name="e_wo_entrp">   -646.67774045 </i>
    <i name="e_0_energy">   -646.67552466 </i>
   </energy>
  </scstep>
  <scstep>
   <time name="dav">   51.40   51.46</time>
   <time name="total">   52.07   52.13</time>
   <energy>
    <i name="e_fr_energy">   -518.84094348 </i>
    <i name="e_wo_entrp">   -518.84338125 </i>
    <i name="e_0_energy">   -518.84175607 </i>
   </energy>
  </scstep>
  <scstep>
   <time name="dav">   53.19   53.26</time>
   <time name="total">   53.87   53.95</time>
   <energy>
    <i name="e_fr_energy">   -482.57803160 </i>
    <i name="e_wo_entrp">   -482.57403489 </i>
    <i name="e_0_energy">   -482.57669937 </i>
   </energy>
  </scstep>
  <scstep>
   <time name="dav">   49.67   49.73</time>
   <time name="total">   50.33   50.39</time>
   <energy>
    <i name="e_fr_energy">   -703.93651321 </i>
    <i name="e_wo_entrp">   -703.94213396 </i>
    <i name="e_0_energy">   -703.93838680 </i>
   </energy>
  </scstep>
  <scstep>
   <time name="dav">   50.08   50.14</time>
   <time name="total">   50.75   50.82</time>
   <energy>
    <i name="e_fr_energy">   -721.32246103 </i>
    <i name="e_wo_entrp">   -721.32496661 </i>
    <i name="e_0_energy">   -721.32329623 </i>
   </energy>
  </scstep>
  <scstep>
   <time name="dav">   47.60   47.66</time>
   <time name="total">   48.28   48.34</time>
   <energy>
    <i name="e_fr_energy">   -727.06196463 </i>
    <i name="e_wo_entrp">   -727.05935591 </i>
    <i name="e_0_energy">   -727.06109506 </i>
   </energy>
  </scstep>
  <scstep>
   <time name="dav">   52.04   52.10</time>
   <time name="total">   52.71   52.78</time>
   <energy>
    <i name="e_fr_energy">   -641.30486703 </i>
    <i name="e_wo_entrp">   -641.31832560 </i>
    <i name="e_0_energy">   -641.30935322 </i>
   </energy>
  </scstep>
  <scstep>
   <time name="dav">   46.35   46.41</time>
   <time name="total">   47.02   47.07</time>
   <energy>
    <i name="e_fr_energy">   -562.69392180 </i>
    <i name="e_wo_entrp">   -562.68469510 </i>
    <i name="e_0_energy">   -562.69084623 </i>
   </energy>
  </scstep>
  <scstep>
   <time name="dav">   49.69   49.75</time>
   <time name="total">   50.37   50.44</time>
   <energy>
    <i name="e_fr_energy">   -508.98489584 </i>
    <i name="e_wo_entrp">   -508.98595418 </i>
    <i name="e_0_energy">   -508.98524862 </i>
   </energy>
  </scstep>
  <scstep>
   <time name="dav">   50.95   51.01</time>
   <time name="total">   51.62   51.69</time>
   <energy>
    <i name="e_fr_energy">   -490.38378412 </i>
    <i name="e_wo_entrp">   -490.38550132 </i>
    <i name="e_0_energy">   -490.38435652 </i>
   </energy>
  </scstep>
  <scstep>
   <time name="dav">   45.36   45.42</time>
   <time name="total">   46.02   46.09</time>
   <energy>
    <i name="e_fr_energy">   -469.43552387 </i>
    <i name="e_wo_entrp">   -469.44311397 </i>
    <i name="e_0_energy">   -469.43805390 </i>
   </energy>
  </scstep>
  <scstep>
   <time name="dav">   47.30   47.36</time>
   <time name="total">   47.97   48.02</time>
   <energy>
    <i name="e_fr_energy">   -459.13363248 </i>
    <i name="e_wo_entrp">   -459.14417059 </i>
    <i name="e_0_energy">   -459.13714519 </i>
   </energy>
  </scstep>
  <scstep>
   <time name="dav">   48.53   48.59</time>
   <time name="total">   49.21   49.28</time>
   <energy>
    <i name="e_fr_energy">   -451.34314153 </i>
    <i name="e_wo_entrp">   -451.35261060 </i>
    <i name="e_0_energy">   -451.34629788 </i>
   </energy>
  </scstep>
  <scstep>
   <time name="dav">   50.78   50.84</time>
   <time name="total">   51.45   51.52</time>
   <energy>
    <i name="e_fr_energy">   -443.59325786 </i>
    <i name="e_wo_entrp">   -443.60251007 </i>
    <i name="e_0_energy">   -443.59634193 </i>
   </energy>
  </scstep>
  <scstep>
   <time name="dav">   49.70   49.76</time>
   <time name="total">   50.38   50.44</time>
   <energy>
    <i name="e_fr_energy">   -401.09550930 </i>
    <i name="e_wo_entrp">   -401.10315342 </i>
    <i name="e_0_energy">   -401.09805734 </i>
   </energy>
  </scstep>
  <scstep>
   <time name="dav">   51.30   51.37</time>
   <time name="total">   51.97   52.03</time>
   <energy>
    <i name="e_fr_energy">   -354.37728771 </i>
    <i name="e_wo_entrp">   -354.37352462 </i>
    <i name="e_0_energy">   -354.37603335 </i>
   </energy>
  </scstep>
  <scstep>
   <time name="dav">   52.88   52.94</time>
   <time name="total">   53.55   53.63</time>
   <energy>
    <i name="e_fr_energy">   -325.85275457 </i>
    <i name="e_wo_entrp">   -325.84573649 </i>
    <i name="e_0_energy">   -325.85041521 </i>
   </energy>
  </scstep>
  <scstep>
   <time name="dav">   53.58   53.65</time>
   <time name="total">   54.25   54.32</time>
   <energy>
    <i name="e_fr_energy">   -334.03481219 </i>
    <i name="e_wo_entrp">   -334.03243021 </i>
    <i name="e_0_energy">   -334.03401820 </i>
   </energy>
  </scstep>
  <scstep>
   <time name="dav">   51.69   51.75</time>
   <time name="total">   52.36   52.43</time>
   <energy>
    <i name="e_fr_energy">   -326.27889050 </i>
    <i name="e_wo_entrp">   -326.26826114 </i>
    <i name="e_0_energy">   -326.27534738 </i>
   </energy>
  </scstep>
  <scstep>
   <time name="dav">   52.48   52.54</time>
   <time name="total">   53.15   53.21</time>
   <energy>
    <i name="e_fr_energy">   -320.23127718 </i>
    <i name="e_wo_entrp">   -320.21939278 </i>
    <i name="e_0_energy">   -320.22731571 </i>
   </energy>
  </scstep>
  <scstep>
   <time name="dav">   47.60   47.66</time>
   <time name="total">   48.27   48.34</time>
   <energy>
    <i name="e_fr_energy">   -314.78444038 </i>
    <i name="e_wo_entrp">   -314.76783985 </i>
    <i name="e_0_energy">   -314.77890687 </i>
   </energy>
  </scstep>
  <scstep>
   <time name="dav">   51.58   51.64</time>
   <time name="total">   52.25   52.31</time>
   <energy>
    <i name="e_fr_energy">   -310.04937448 </i>
    <i name="e_wo_entrp">   -310.03484072 </i>
    <i name="e_0_energy">   -310.04452989 </i>
   </energy>
  </scstep>
  <scstep>
   <time name="dav">   51.17   51.23</time>
   <time name="total">   51.85   51.92</time>
   <energy>
    <i name="e_fr_energy">   -309.28024275 </i>
    <i name="e_wo_entrp">   -309.26430136 </i>
    <i name="e_0_energy">   -309.27492896 </i>
   </energy>
  </scstep>
  <scstep>
   <time name="dav">   49.60   49.66</time>
   <time name="total">   50.27   50.33</time>
   <energy>
    <i name="e_fr_energy">   -308.98403076 </i>
    <i name="e_wo_entrp">   -308.96530406 </i>
    <i name="e_0_energy">   -308.97778853 </i>
   </energy>
  </scstep>
  <scstep>
   <time name="dav">   54.36   54.43</time>
   <time name="total">   55.06   55.14</time>
   <energy>
    <i name="e_fr_energy">   -308.50632992 </i>
    <i name="e_wo_entrp">   -308.48892624 </i>
    <i name="e_0_energy">   -308.50052869 </i>
   </energy>
  </scstep>
  <scstep>
   <time name="dav">   48.22   48.28</time>
   <time name="total">   48.89   48.95</time>
   <energy>
    <i name="e_fr_energy">   -307.98311641 </i>
    <i name="e_wo_entrp">   -307.96632211 </i>
    <i name="e_0_energy">   -307.97751831 </i>
   </energy>
  </scstep>
  <scstep>
   <time name="dav">   45.80   45.86</time>
   <time name="total">   46.48   46.54</time>
   <energy>
    <i name="e_fr_energy">   -307.26764351 </i>
    <i name="e_wo_entrp">   -307.26363803 </i>
    <i name="e_0_energy">   -307.26630835 </i>
   </energy>
  </scstep>
  <scstep>
   <time name="dav">   52.47   52.53</time>
   <time name="total">   53.14   53.21</time>
   <energy>
    <i name="e_fr_energy">   -307.93591057 </i>
    <i name="e_wo_entrp">   -307.93522098 </i>
    <i name="e_0_energy">   -307.93568071 </i>
   </energy>
  </scstep>
  <scstep>
   <time name="dav">   49.29   49.36</time>
   <time name="total">   49.93   50.06</time>
   <energy>
    <i name="e_fr_energy">   -307.55342452 </i>
    <i name="e_wo_entrp">   -307.54612392 </i>
    <i name="e_0_energy">   -307.55099099 </i>
   </energy>
  </scstep>
  <scstep>
   <time name="dav">   49.31   49.37</time>
   <time name="total">   49.99   50.05</time>
   <energy>
    <i name="e_fr_energy">   -306.68255657 </i>
    <i name="e_wo_entrp">   -306.68046780 </i>
    <i name="e_0_energy">   -306.68186031 </i>
   </energy>
  </scstep>
  <scstep>
   <time name="dav">   47.84   47.91</time>
   <time name="total">   48.53   48.60</time>
   <energy>
    <i name="e_fr_energy">   -305.51430540 </i>
    <i name="e_wo_entrp">   -305.50793038 </i>
    <i name="e_0_energy">   -305.51218039 </i>
   </energy>
  </scstep>
  <scstep>
   <time name="dav">   48.15   48.21</time>
   <time name="total">   48.81   48.88</time>
   <energy>
    <i name="e_fr_energy">   -304.96509184 </i>
    <i name="e_wo_entrp">   -304.95773271 </i>
    <i name="e_0_energy">   -304.96263879 </i>
   </energy>
  </scstep>
  <scstep>
   <time name="dav">   50.65   50.72</time>
   <time name="total">   51.33   51.40</time>
   <energy>
    <i name="e_fr_energy">   -304.82098760 </i>
    <i name="e_wo_entrp">   -304.81421983 </i>
    <i name="e_0_energy">   -304.81873168 </i>
   </energy>
  </scstep>
  <scstep>
   <time name="dav">   45.95   46.00</time>
   <time name="total">   46.61   46.67</time>
   <energy>
    <i name="e_fr_energy">   -304.78227056 </i>
    <i name="e_wo_entrp">   -304.77097643 </i>
    <i name="e_0_energy">   -304.77850585 </i>
   </energy>
  </scstep>
  <scstep>
   <time name="dav">   48.84   48.91</time>
   <time name="total">   49.53   49.60</time>
   <energy>
    <i name="e_fr_energy">   -304.36638362 </i>
    <i name="e_wo_entrp">   -304.35722757 </i>
    <i name="e_0_energy">   -304.36333161 </i>
   </energy>
  </scstep>
  <scstep>
   <time name="dav">   52.03   52.09</time>
   <time name="total">   52.70   52.77</time>
   <energy>
    <i name="e_fr_energy">   -304.25936081 </i>
    <i name="e_wo_entrp">   -304.24992410 </i>
    <i name="e_0_energy">   -304.25621524 </i>
   </energy>
  </scstep>
  <scstep>
   <time name="dav">   46.93   46.99</time>
   <time name="total">   47.61   47.67</time>
   <energy>
    <i name="e_fr_energy">   -304.15961460 </i>
    <i name="e_wo_entrp">   -304.15024062 </i>
    <i name="e_0_energy">   -304.15648994 </i>
   </energy>
  </scstep>
  <scstep>
   <time name="dav">   49.08   49.18</time>
   <time name="total">   49.77   49.87</time>
   <energy>
    <i name="e_fr_energy">   -304.08854638 </i>
    <i name="e_wo_entrp">   -304.08029717 </i>
    <i name="e_0_energy">   -304.08579664 </i>
   </energy>
  </scstep>
  <scstep>
   <time name="dav">   47.07   47.13</time>
   <time name="total">   47.75   47.81</time>
   <energy>
    <i name="e_fr_energy">   -303.99445478 </i>
    <i name="e_wo_entrp">   -303.98550232 </i>
    <i name="e_0_energy">   -303.99147062 </i>
   </energy>
  </scstep>
  <scstep>
   <time name="dav">   48.64   48.69</time>
   <time name="total">   49.31   49.37</time>
   <energy>
    <i name="e_fr_energy">   -303.98086738 </i>
    <i name="e_wo_entrp">   -303.97164275 </i>
    <i name="e_0_energy">   -303.97779250 </i>
   </energy>
  </scstep>
  <scstep>
   <time name="dav">   47.35   47.41</time>
   <time name="total">   48.03   48.10</time>
   <energy>
    <i name="e_fr_energy">   -303.97929862 </i>
    <i name="e_wo_entrp">   -303.97113124 </i>
    <i name="e_0_energy">   -303.97657616 </i>
   </energy>
  </scstep>
  <scstep>
   <time name="dav">   48.63   48.69</time>
   <time name="total">   49.31   49.37</time>
   <energy>
    <i name="e_fr_energy">   -303.97272907 </i>
    <i name="e_wo_entrp">   -303.96427880 </i>
    <i name="e_0_energy">   -303.96991231 </i>
   </energy>
  </scstep>
  <scstep>
   <time name="dav">   48.81   48.87</time>
   <time name="total">   49.50   49.57</time>
   <energy>
    <i name="e_fr_energy">   -303.97148912 </i>
    <i name="e_wo_entrp">   -303.96259042 </i>
    <i name="e_0_energy">   -303.96852289 </i>
   </energy>
  </scstep>
  <scstep>
   <time name="dav">   50.31   50.37</time>
   <time name="total">   50.98   51.05</time>
   <energy>
    <i name="e_fr_energy">   -303.96735231 </i>
    <i name="e_wo_entrp">   -303.95757170 </i>
    <i name="e_0_energy">   -303.96409211 </i>
   </energy>
  </scstep>
  <scstep>
   <time name="dav">   48.21   48.27</time>
   <time name="total">   48.89   48.96</time>
   <energy>
    <i name="e_fr_energy">   -303.96567695 </i>
    <i name="e_wo_entrp">   -303.95635634 </i>
    <i name="e_0_energy">   -303.96257008 </i>
   </energy>
  </scstep>
  <scstep>
   <time name="dav">   42.80   42.86</time>
   <time name="total">   43.49   43.54</time>
   <energy>
    <i name="e_fr_energy">   -303.96517111 </i>
    <i name="e_wo_entrp">   -303.95562655 </i>
    <i name="e_0_energy">   -303.96198959 </i>
   </energy>
  </scstep>
  <scstep>
   <time name="dav">   42.46   42.51</time>
   <time name="total">   43.14   43.20</time>
   <energy>
    <i name="e_fr_energy">   -303.96521327 </i>
    <i name="e_wo_entrp">   -303.95586191 </i>
    <i name="e_0_energy">   -303.96209615 </i>
   </energy>
  </scstep>
  <scstep>
   <time name="dav">   26.18   26.21</time>
   <time name="total">   26.25   26.30</time>
   <energy>
    <i name="alphaZ">   1146.37395419 </i>
    <i name="ewald"> -11054.98459508 </i>
    <i name="hartreedc">  -3025.92757934 </i>
    <i name="XCdc">   -828.81355149 </i>
    <i name="pawpsdc">  18706.00399506 </i>
    <i name="pawaedc"> -17264.90201258 </i>
    <i name="eentropy">     -0.00946862 </i>
    <i name="bandstr">   -770.18408818 </i>
    <i name="atom">  12788.47826598 </i>
    <i name="e_fr_energy">   -303.96508006 </i>
    <i name="e_wo_entrp">   -303.95561144 </i>
    <i name="e_0_energy">   -303.96192386 </i>
   </energy>
  </scstep>
  <structure>
   <crystal>
    <varray name="basis" >
     <v>      -3.16000000      -3.16000000      -3.16000000 </v>
     <v>       1.58000000       1.58000000      -7.90000000 </v>
     <v>       7.90000000      -7.90000000      -1.58000000 </v>
    </varray>
    <i name="volume">    473.31744000 </i>
    <varray name="rec_basis" >
     <v>      -0.13713080      -0.12658228      -0.05274262 </v>
     <v>       0.04219409       0.06329114      -0.10548523 </v>
     <v>       0.06329114      -0.06329114       0.00000000 </v>
    </varray>
   </crystal>
   <varray name="positions" >
    <v>       0.96666667       0.93333333       0.40000000 </v>
    <v>       0.63333333       0.26666667       0.40000000 </v>
    <v>       0.50000000       0.00000000       0.00000000 </v>
    <v>       0.00000000       0.00000000       0.00000000 </v>
    <v>       0.10000000       0.20000000       0.80000000 </v>
    <v>       0.03333333       0.06666667       0.60000000 </v>
    <v>       0.90000000       0.80000000       0.20000000 </v>
    <v>       0.80000000       0.60000000       0.40000000 </v>
    <v>       0.73333333       0.46666667       0.20000000 </v>
    <v>       0.66666667       0.33333333       0.00000000 </v>
    <v>       0.36666667       0.73333333       0.60000000 </v>
    <v>       0.83333333       0.66666667       0.00000000 </v>
    <v>       0.93333333       0.86666667       0.80000000 </v>
    <v>       0.56666667       0.13333333       0.20000000 </v>
    <v>       0.40000000       0.80000000       0.20000000 </v>
    <v>       0.43333333       0.86666667       0.80000000 </v>
    <v>       0.30000000       0.60000000       0.40000000 </v>
    <v>       0.86666667       0.73333333       0.60000000 </v>
    <v>       0.46666667       0.93333333       0.40000000 </v>
    <v>       0.16666667       0.33333333       0.00000000 </v>
    <v>       0.26666667       0.53333333       0.80000000 </v>
    <v>       0.20000000       0.40000000       0.60000000 </v>
    <v>       0.06666667       0.13333333       0.20000000 </v>
    <v>       0.76666667       0.53333333       0.80000000 </v>
    <v>       0.70000000       0.40000000       0.60000000 </v>
    <v>       0.60000000       0.20000000       0.80000000 </v>
    <v>       0.53333333       0.06666667       0.60000000 </v>
    <v>       0.33333333       0.66666667       0.00000000 </v>
    <v>       0.23333333       0.46666667       0.20000000 </v>
   </varray>
  </structure>
  <varray name="forces" >
   <v>       0.19884719       0.54435541       0.52172248 </v>
   <v>       0.39227316      -0.23924062      -0.28130559 </v>
   <v>       0.07943513       0.43382229      -0.31397637 </v>
   <v>       0.21718047      -0.07153459      -0.10379201 </v>
   <v>      -0.18977643       0.85568464      -0.61127914 </v>
   <v>      -0.24025604       0.54575056      -0.41351676 </v>
   <v>       0.06047403      -0.64132218       0.18371296 </v>
   <v>      -0.54522195      -0.22436954       0.82536375 </v>
   <v>       0.01199077       0.14038689       0.02655866 </v>
   <v>       0.23658543       0.49285231      -0.50833982 </v>
   <v>      -0.23238113      -0.28285528       0.21983971 </v>
   <v>      -0.03752839      -0.55319766       0.48985619 </v>
   <v>       0.24368569       0.28667941      -0.01020155 </v>
   <v>      -0.51109902       0.45557680      -0.26698167 </v>
   <v>      -0.53664116      -0.26651279       0.77716032 </v>
   <v>      -0.82039795      -0.07166508       0.64424183 </v>
   <v>       0.28759332      -0.31625264      -0.30228785 </v>
   <v>       0.04771839       0.27807757       0.39015842 </v>
   <v>       0.51188646      -0.67722647      -0.22512349 </v>
   <v>       0.04431590      -0.25467909      -0.36913021 </v>
   <v>      -0.29648818      -0.01901795      -0.20895454 </v>
   <v>      -0.43975134       0.06256745       0.55383331 </v>
   <v>       0.74863384       0.06040042      -0.83516380 </v>
   <v>      -0.07435516      -0.34993831       0.54971061 </v>
   <v>       0.88387599       0.28069212      -0.35167908 </v>
   <v>      -0.06405602       0.36214500      -0.17734776 </v>
   <v>       0.15077673      -0.91850418      -0.50503383 </v>
   <v>      -0.28596384      -0.17841986       0.63987826 </v>
   <v>       0.15864410       0.26574537      -0.33792304 </v>
  </varray>
  <varray name="stress" >
   <v>      -9.27484831      -1.08491326      -0.31129717 </v>
   <v>      -1.08491318     -15.38531948      -4.82998900 </v>
   <v>      -0.31129722      -4.82998901     -16.33308818 </v>
  </varray>
  <energy>
   <i name="e_fr_energy">   -303.96508006 </i>
   <i name="e_wo_entrp">   -303.96192386 </i>
   <i name="e_0_energy">     -0.00946862 </i>
  </energy>
  <time name="totalsc"> 3015.17 3019.36</time>
 </calculation>
 <calculation>
  <scstep>
   <time name="dav">   33.12   33.16</time>
   <time name="total">   33.82   33.87</time>
   <energy>
    <i name="alphaZ">   1169.79367865 </i>
    <i name="ewald"> -11175.10793061 </i>
    <i name="hartreedc">  -3003.89563676 </i>
    <i name="XCdc">   -826.29508682 </i>
    <i name="pawpsdc">  18706.78951872 </i>
    <i name="pawaedc"> -17265.71973300 </i>
    <i name="eentropy">     -0.00640197 </i>
    <i name="bandstr">   -698.39766187 </i>
    <i name="atom">  12788.47826598 </i>
    <i name="e_fr_energy">   -304.36098767 </i>
    <i name="e_wo_entrp">   -304.35458571 </i>
    <i name="e_0_energy">   -304.35885368 </i>
   </energy>
  </scstep>
  <scstep>
   <time name="dav">   51.86   51.92</time>
   <time name="total">   52.54   52.61</time>
   <energy>
    <i name="e_fr_energy">   -305.75459263 </i>
    <i name="e_wo_entrp">   -305.73952962 </i>
    <i name="e_0_energy">   -305.74957162 </i>
   </energy>
  </scstep>
  <scstep>
   <time name="dav">   51.60   51.66</time>
   <time name="total">   52.29   52.36</time>
   <energy>
    <i name="e_fr_energy">   -304.86259478 </i>
    <i name="e_wo_entrp">   -304.86002253 </i>
    <i name="e_0_energy">   -304.86173736 </i>
   </energy>
  </scstep>
  <scstep>
   <time name="dav">   50.09   50.15</time>
   <time name="total">   50.76   50.82</time>
   <energy>
    <i name="e_fr_energy">   -304.75306150 </i>
    <i name="e_wo_entrp">   -304.73955793 </i>
    <i name="e_0_energy">   -304.74856031 </i>
   </energy>
  </scstep>
  <scstep>
   <time name="dav">   48.73   48.79</time>
   <time name="total">   49.41   49.48</time>
   <energy>
    <i name="e_fr_energy">   -304.68470967 </i>
    <i name="e_wo_entrp">   -304.68039429 </i>
    <i name="e_0_energy">   -304.68327121 </i>
   </energy>
  </scstep>
  <scstep>
   <time name="dav">   49.60   49.66</time>
   <time name="total">   50.27   50.33</time>
   <energy>
    <i name="e_fr_energy">   -304.58083474 </i>
    <i name="e_wo_entrp">   -304.57526982 </i>
    <i name="e_0_energy">   -304.57897977 </i>
   </energy>
  </scstep>
  <scstep>
   <time name="dav">   54.01   54.07</time>
   <time name="total">   54.69   54.77</time>
   <energy>
    <i name="e_fr_energy">   -304.56737678 </i>
    <i name="e_wo_entrp">   -304.55924214 </i>
    <i name="e_0_energy">   -304.56466523 </i>
   </energy>
  </scstep>
  <scstep>
   <time name="dav">   51.59   51.65</time>
   <time name="total">   52.26   52.32</time>
   <energy>
    <i name="e_fr_energy">   -304.56239563 </i>
    <i name="e_wo_entrp">   -304.55455866 </i>
    <i name="e_0_energy">   -304.55978331 </i>
   </energy>
  </scstep>
  <scstep>
   <time name="dav">   51.07   51.13</time>
   <time name="total">   51.74   51.82</time>
   <energy>
    <i name="e_fr_energy">   -304.55112824 </i>
    <i name="e_wo_entrp">   -304.54412085 </i>
    <i name="e_0_energy">   -304.54879244 </i>
   </energy>
  </scstep>
  <scstep>
   <time name="dav">   49.10   49.16</time>
   <time name="total">   49.78   49.84</time>
   <energy>
    <i name="e_fr_energy">   -304.54722400 </i>
    <i name="e_wo_entrp">   -304.54006817 </i>
    <i name="e_0_energy">   -304.54483873 </i>
   </energy>
  </scstep>
  <scstep>
   <time name="dav">   45.19   45.25</time>
   <time name="total">   45.88   45.94</time>
   <energy>
    <i name="e_fr_energy">   -304.54884875 </i>
    <i name="e_wo_entrp">   -304.54130216 </i>
    <i name="e_0_energy">   -304.54633322 </i>
   </energy>
  </scstep>
  <scstep>
   <time name="dav">   47.22   47.28</time>
   <time name="total">   47.89   47.95</time>
   <energy>
    <i name="e_fr_energy">   -304.54846006 </i>
    <i name="e_wo_entrp">   -304.54123083 </i>
    <i name="e_0_energy">   -304.54605032 </i>
   </energy>
  </scstep>
  <scstep>
   <time name="dav">   52.17   52.23</time>
   <time name="total">   52.84   52.91</time>
   <energy>
    <i name="e_fr_energy">   -304.54903318 </i>
    <i name="e_wo_entrp">   -304.54199042 </i>
    <i name="e_0_energy">   -304.54668559 </i>
   </energy>
  </scstep>
  <scstep>
   <time name="dav">   47.68   47.73</time>
   <time name="total">   48.35   48.41</time>
   <energy>
    <i name="e_fr_energy">   -304.54911637 </i>
    <i name="e_wo_entrp">   -304.54167391 </i>
    <i name="e_0_energy">   -304.54663555 </i>
   </energy>
  </scstep>
  <scstep>
   <time name="dav">   43.28   43.33</time>
   <time name="total">   43.96   44.02</time>
   <energy>
    <i name="e_fr_energy">   -304.54868273 </i>
    <i name="e_wo_entrp">   -304.54156841 </i>
    <i name="e_0_energy">   -304.54631129 </i>
   </energy>
  </scstep>
  <scstep>
   <time name="dav">   42.43   42.48</time>
   <time name="total">   43.10   43.15</time>
   <energy>
    <i name="e_fr_energy">   -304.54857611 </i>
    <i name="e_wo_entrp">   -304.54134835 </i>
    <i name="e_0_energy">   -304.54616686 </i>
   </energy>
  </scstep>
  <scstep>
   <time name="dav">   27.87   27.90</time>
   <time name="total">   27.95   28.00</time>
   <energy>
    <i name="alphaZ">   1169.79367865 </i>
    <i name="ewald"> -11175.10793061 </i>
    <i name="hartreedc">  -2963.78957785 </i>
    <i name="XCdc">   -827.54310200 </i>
    <i name="pawpsdc">  19114.10152040 </i>
    <i name="pawaedc"> -17673.93565284 </i>
    <i name="eentropy">     -0.00720706 </i>
    <i name="bandstr">   -736.53852378 </i>
    <i name="atom">  12788.47826598 </i>
    <i name="e_fr_energy">   -304.54852911 </i>
    <i name="e_wo_entrp">   -304.54132205 </i>
    <i name="e_0_energy">   -304.54612675 </i>
   </energy>
  </scstep>
  <structure>
   <crystal>
    <varray name="basis" >
     <v>      -3.14342820      -3.12692146      -3.12665101 </v>
     <v>       1.57316440       1.58596317      -7.84058026 </v>
     <v>       7.86844497      -7.84072945      -1.54977418 </v>
    </varray>
    <i name="volume">    463.84144075 </i>
    <varray name="rec_basis" >
     <v>      -0.13783536      -0.12774866      -0.05349634 </v>
     <v>       0.04240501       0.06354216      -0.10618021 </v>
     <v>       0.06354678      -0.06373953      -0.00014272 </v>
    </varray>
   </crystal>
   <varray name="positions" >
    <v>       0.96069950       0.93274521       0.39894505 </v>
    <v>       0.63291495       0.26816621       0.40192822 </v>
    <v>       0.49762418       0.00308409      -0.00108206 </v>
    <v>      -0.00073584       0.00075185       0.00088154 </v>
    <v>       0.09758546       0.20533712       0.79680786 </v>
    <v>       0.03264221       0.06994831       0.59760006 </v>
    <v>       0.90304882       0.79723003       0.20214282 </v>
    <v>       0.80287700       0.59400491       0.39902033 </v>
    <v>       0.73232913       0.46698457       0.19960796 </v>
    <v>       0.66338528       0.33790664      -0.00078247 </v>
    <v>       0.36937193       0.73087791       0.60015411 </v>
    <v>       0.83571338       0.66240836       0.00157451 </v>
    <v>       0.92999652       0.86808995       0.79986873 </v>
    <v>       0.56794514       0.13504263       0.19704842 </v>
    <v>       0.40320024       0.79413900       0.19917521 </v>
    <v>       0.43755911       0.86149941       0.79771387 </v>
    <v>       0.30079781       0.60115810       0.40184374 </v>
    <v>       0.86366012       0.73229405       0.59929664 </v>
    <v>       0.46798867       0.93345313       0.40363076 </v>
    <v>       0.16886797       0.33452438       0.00091293 </v>
    <v>       0.26927591       0.53373509       0.79915279 </v>
    <v>       0.20111792       0.39647751       0.59846625 </v>
    <v>       0.06347022       0.13929169       0.20210141 </v>
    <v>       0.76789682       0.52931608       0.80084145 </v>
    <v>       0.69333341       0.40444588       0.60184172 </v>
    <v>       0.59866352       0.20187786       0.79869867 </v>
    <v>       0.53922989       0.06673915       0.60326487 </v>
    <v>       0.33468656       0.66228353      -0.00032837 </v>
    <v>       0.23152082       0.46952066       0.19967298 </v>
   </varray>
  </structure>
  <varray name="forces" >
   <v>       0.13537727       0.31733238       0.19800137 </v>
   <v>       0.29230416      -0.11495539      -0.04860511 </v>
   <v>      -0.12545734       0.22235810       0.04783072 </v>
   <v>       0.08917788      -0.00160633      -0.14044697 </v>
   <v>      -0.14028902       0.43025859      -0.29326089 </v>
   <v>      -0.30427635       0.50649983      -0.42417047 </v>
   <v>      -0.07043309      -0.26076739       0.18608095 </v>
   <v>      -0.36273679      -0.35139171       0.54468514 </v>
   <v>       0.00099611      -0.02369591       0.08912419 </v>
   <v>       0.00261713       0.40696976      -0.32621859 </v>
   <v>      -0.16237022      -0.21332063       0.16806891 </v>
   <v>      -0.00243572      -0.24045300       0.03093541 </v>
   <v>       0.03859910       0.16360457      -0.03208806 </v>
   <v>      -0.09139705       0.25712788      -0.15324974 </v>
   <v>      -0.19948060      -0.11850335       0.19781318 </v>
   <v>      -0.18973950       0.06094669       0.36649792 </v>
   <v>       0.14138751      -0.27998800      -0.04918373 </v>
   <v>       0.01896861       0.11890230       0.31972161 </v>
   <v>       0.43290752      -0.31344145      -0.13748107 </v>
   <v>      -0.00625476      -0.13832976      -0.29601120 </v>
   <v>      -0.24778464      -0.01778246      -0.08704366 </v>
   <v>      -0.39528398       0.21527145       0.54580383 </v>
   <v>       0.52458283      -0.17195597      -0.65394226 </v>
   <v>      -0.05205598      -0.23550599       0.43424190 </v>
   <v>       0.73802847       0.12062616      -0.24801079 </v>
   <v>      -0.09429620       0.37278464      -0.20603625 </v>
   <v>       0.12574256      -0.76292584      -0.37469553 </v>
   <v>      -0.24316133      -0.12548884       0.54132510 </v>
   <v>       0.14676342       0.17742967      -0.19968589 </v>
  </varray>
  <varray name="stress" >
   <v>      23.89792216      -0.73422810      -0.04889427 </v>
   <v>      -0.73422799      20.24348054      -2.38828132 </v>
   <v>      -0.04889437      -2.38828134      20.76353471 </v>
  </varray>
  <energy>
   <i name="e_fr_energy">   -304.54852911 </i>
   <i name="e_wo_entrp">   -304.54612675 </i>
   <i name="e_0_energy">     -0.00720706 </i>
  </energy>
  <time name="totalsc">  827.21  828.28</time>
 </calculation>
 <calculation>
  <scstep>
   <time name="dav">   33.15   33.20</time>
   <time name="total">   33.82   33.87</time>
   <energy>
    <i name="alphaZ">   1184.69156830 </i>
    <i name="ewald"> -11246.70122936 </i>
    <i name="hartreedc">  -2953.06342778 </i>
    <i name="XCdc">   -825.96174079 </i>
    <i name="pawpsdc">  19113.72648141 </i>
    <i name="pawaedc"> -17673.50524429 </i>
    <i name="eentropy">     -0.00695025 </i>
    <i name="bandstr">   -692.22033600 </i>
    <i name="atom">  12788.47826598 </i>
    <i name="e_fr_energy">   -304.56261278 </i>
    <i name="e_wo_entrp">   -304.55566253 </i>
    <i name="e_0_energy">   -304.56029603 </i>
   </energy>
  </scstep>
  <scstep>
   <time name="dav">   51.31   51.37</time>
   <time name="total">   51.98   52.05</time>
   <energy>
    <i name="e_fr_energy">   -305.07160558 </i>
    <i name="e_wo_entrp">   -305.06159618 </i>
    <i name="e_0_energy">   -305.06826911 </i>
   </energy>
  </scstep>
  <scstep>
   <time name="dav">   51.22   51.28</time>
   <time name="total">   51.89   51.96</time>
   <energy>
    <i name="e_fr_energy">   -304.76769995 </i>
    <i name="e_wo_entrp">   -304.76294952 </i>
    <i name="e_0_energy">   -304.76611647 </i>
   </energy>
  </scstep>
  <scstep>
   <time name="dav">   50.01   50.07</time>
   <time name="total">   50.68   50.75</time>
   <energy>
    <i name="e_fr_energy">   -304.72292975 </i>
    <i name="e_wo_entrp">   -304.71268606 </i>
    <i name="e_0_energy">   -304.71951519 </i>
   </energy>
  </scstep>
  <scstep>
   <time name="dav">   48.96   49.01</time>
   <time name="total">   49.63   49.68</time>
   <energy>
    <i name="e_fr_energy">   -304.69452521 </i>
    <i name="e_wo_entrp">   -304.68884650 </i>
    <i name="e_0_energy">   -304.69263231 </i>
   </energy>
  </scstep>
  <scstep>
   <time name="dav">   50.34   50.40</time>
   <time name="total">   51.01   51.08</time>
   <energy>
    <i name="e_fr_energy">   -304.65976670 </i>
    <i name="e_wo_entrp">   -304.65338736 </i>
    <i name="e_0_energy">   -304.65764025 </i>
   </energy>
  </scstep>
  <scstep>
   <time name="dav">   54.80   54.86</time>
   <time name="total">   55.46   55.53</time>
   <energy>
    <i name="e_fr_energy">   -304.65324819 </i>
    <i name="e_wo_entrp">   -304.64569130 </i>
    <i name="e_0_energy">   -304.65072923 </i>
   </energy>
  </scstep>
  <scstep>
   <time name="dav">   53.22   53.52</time>
   <time name="total">   53.86   54.21</time>
   <energy>
    <i name="e_fr_energy">   -304.64992714 </i>
    <i name="e_wo_entrp">   -304.64249008 </i>
    <i name="e_0_energy">   -304.64744812 </i>
   </energy>
  </scstep>
  <scstep>
   <time name="dav">   48.44   48.53</time>
   <time name="total">   49.11   49.20</time>
   <energy>
    <i name="e_fr_energy">   -304.64698452 </i>
    <i name="e_wo_entrp">   -304.64008967 </i>
    <i name="e_0_energy">   -304.64468624 </i>
   </energy>
  </scstep>
  <scstep>
   <time name="dav">   43.82   43.90</time>
   <time name="total">   44.49   44.59</time>
   <energy>
    <i name="e_fr_energy">   -304.64626740 </i>
    <i name="e_wo_entrp">   -304.63915293 </i>
    <i name="e_0_energy">   -304.64389591 </i>
   </energy>
  </scstep>
  <scstep>
   <time name="dav">   49.85   49.95</time>
   <time name="total">   50.52   50.62</time>
   <energy>
    <i name="e_fr_energy">   -304.64677985 </i>
    <i name="e_wo_entrp">   -304.63953847 </i>
    <i name="e_0_energy">   -304.64436605 </i>
   </energy>
  </scstep>
  <scstep>
   <time name="dav">   47.24   47.34</time>
   <time name="total">   47.92   48.02</time>
   <energy>
    <i name="e_fr_energy">   -304.64731864 </i>
    <i name="e_wo_entrp">   -304.64046824 </i>
    <i name="e_0_energy">   -304.64503518 </i>
   </energy>
  </scstep>
  <scstep>
   <time name="dav">   50.23   50.33</time>
   <time name="total">   50.90   51.01</time>
   <energy>
    <i name="e_fr_energy">   -304.64697700 </i>
    <i name="e_wo_entrp">   -304.63993807 </i>
    <i name="e_0_energy">   -304.64463069 </i>
   </energy>
  </scstep>
  <scstep>
   <time name="dav">   44.44   44.53</time>
   <time name="total">   45.11   45.20</time>
   <energy>
    <i name="e_fr_energy">   -304.64694856 </i>
    <i name="e_wo_entrp">   -304.63983033 </i>
    <i name="e_0_energy">   -304.64457581 </i>
   </energy>
  </scstep>
  <scstep>
   <time name="dav">   41.36   41.41</time>
   <time name="total">   42.03   42.08</time>
   <energy>
    <i name="e_fr_energy">   -304.64683466 </i>
    <i name="e_wo_entrp">   -304.63986480 </i>
    <i name="e_0_energy">   -304.64451138 </i>
   </energy>
  </scstep>
  <scstep>
   <time name="dav">   30.71   30.74</time>
   <time name="total">   30.79   30.84</time>
   <energy>
    <i name="alphaZ">   1184.69156830 </i>
    <i name="ewald"> -11246.70122936 </i>
    <i name="hartreedc">  -2928.63161607 </i>
    <i name="XCdc">   -826.73117046 </i>
    <i name="pawpsdc">  19399.64880902 </i>
    <i name="pawaedc"> -17959.91998209 </i>
    <i name="eentropy">     -0.00707649 </i>
    <i name="bandstr">   -715.47434711 </i>
    <i name="atom">  12788.47826598 </i>
    <i name="e_fr_energy">   -304.64677829 </i>
    <i name="e_wo_entrp">   -304.63970180 </i>
    <i name="e_0_energy">   -304.64441946 </i>
   </energy>
  </scstep>
  <structure>
   <crystal>
    <varray name="basis" >
     <v>      -3.13312293      -3.10635139      -3.10591276 </v>
     <v>       1.56891365       1.58967140      -7.80362977 </v>
     <v>       7.84882231      -7.80387174      -1.53097809 </v>
    </varray>
    <i name="volume">    458.00848069 </i>
    <varray name="rec_basis" >
     <v>      -0.13827752      -0.12848524      -0.05397422 </v>
     <v>       0.04253718       0.06369860      -0.10661744 </v>
     <v>       0.06370667      -0.06402205      -0.00023370 </v>
    </varray>
   </crystal>
   <varray name="positions" >
    <v>       0.95695373       0.93237396       0.39828099 </v>
    <v>       0.63266123       0.26910526       0.40313473 </v>
    <v>       0.49613700       0.00501226      -0.00175883 </v>
    <v>      -0.00119316       0.00122239       0.00143281 </v>
    <v>       0.09607186       0.20867402       0.79481246 </v>
    <v>       0.03220777       0.07200023       0.59610023 </v>
    <v>       0.90496176       0.79549924       0.20348364 </v>
    <v>       0.80466680       0.59025449       0.39840642 </v>
    <v>       0.73169890       0.46718284       0.19936226 </v>
    <v>       0.66133399       0.34076638      -0.00127169 </v>
    <v>       0.37106405       0.72934282       0.60025103 </v>
    <v>       0.83720250       0.65974569       0.00255868 </v>
    <v>       0.92790655       0.86897893       0.79978515 </v>
    <v>       0.56874106       0.13611133       0.19520405 </v>
    <v>       0.40519343       0.79047271       0.19865845 </v>
    <v>       0.44019222       0.85826696       0.79628414 </v>
    <v>       0.30130576       0.60188401       0.40299804 </v>
    <v>       0.86177093       0.73164204       0.59885420 </v>
    <v>       0.46882873       0.93353047       0.40590256 </v>
    <v>       0.17025318       0.33527110       0.00148599 </v>
    <v>       0.27091014       0.53398726       0.79862483 </v>
    <v>       0.20180769       0.39427317       0.59750590 </v>
    <v>       0.06148345       0.14301954       0.20341668 </v>
    <v>       0.76866318       0.52680337       0.80136649 </v>
    <v>       0.68916720       0.40722561       0.60299151 </v>
    <v>       0.59782511       0.20305164       0.79788482 </v>
    <v>       0.54293706       0.06678878       0.60531082 </v>
    <v>       0.33552588       0.65954136      -0.00053510 </v>
    <v>       0.23038869       0.47130548       0.19946872 </v>
   </varray>
  </structure>
  <varray name="forces" >
   <v>       0.09414396       0.15209899      -0.02387810 </v>
   <v>       0.21683308      -0.02400956       0.10194362 </v>
   <v>      -0.27259810       0.08979370       0.27773355 </v>
   <v>       0.02794342       0.03148368      -0.15250452 </v>
   <v>      -0.10357876       0.14771959      -0.08527008 </v>
   <v>      -0.34407500       0.45687320      -0.41974815 </v>
   <v>      -0.15471107       0.01684354       0.18207584 </v>
   <v>      -0.23323926      -0.44400271       0.33224970 </v>
   <v>      -0.00117991      -0.15210580       0.15406318 </v>
   <v>      -0.17243527       0.33241399      -0.17514646 </v>
[...]
       <r>    4.7374    1.0000 </r>
       <r>    4.8588    1.0000 </r>
       <r>    4.8876    1.0000 </r>
       <r>    4.9537    1.0000 </r>
       <r>    4.9861    1.0000 </r>
       <r>    5.0634    1.0000 </r>
       <r>    5.1432    1.0000 </r>
       <r>    5.2060    1.0000 </r>
       <r>    5.2594    1.0000 </r>
       <r>    5.3130    1.0000 </r>
       <r>    5.3553    1.0000 </r>
       <r>    5.3894    1.0000 </r>
       <r>    5.4350    1.0000 </r>
       <r>    5.4824    1.0000 </r>
       <r>    5.5079    1.0000 </r>
       <r>    5.5411    1.0000 </r>
       <r>    5.6647    1.0000 </r>
       <r>    5.6853    1.0000 </r>
       <r>    5.7422    1.0000 </r>
       <r>    5.7863    1.0000 </r>
       <r>    5.8575    1.0000 </r>
       <r>    5.9481    1.0000 </r>
       <r>    5.9991    1.0000 </r>
       <r>    6.0297    1.0001 </r>
       <r>    6.0706    1.0002 </r>
       <r>    6.1172    1.0008 </r>
       <r>    6.1594    1.0019 </r>
       <r>    6.2275    1.0070 </r>
       <r>    6.2573    1.0111 </r>
       <r>    6.3191    1.0238 </r>
       <r>    6.3804    1.0351 </r>
       <r>    6.4148    1.0329 </r>
       <r>    6.4556    1.0116 </r>
       <r>    6.4935    0.9640 </r>
       <r>    6.5562    0.8094 </r>
       <r>    6.6179    0.5759 </r>
       <r>    6.6914    0.2748 </r>
       <r>    6.7582    0.0749 </r>
       <r>    6.8011    0.0036 </r>
       <r>    6.8885   -0.0352 </r>
       <r>    6.9500   -0.0244 </r>
       <r>    7.0078   -0.0123 </r>
       <r>    7.0565   -0.0057 </r>
       <r>    7.1265   -0.0014 </r>
       <r>    7.2117   -0.0002 </r>
       <r>    7.3087   -0.0000 </r>
       <r>    7.4693   -0.0000 </r>
       <r>    7.5344   -0.0000 </r>
       <r>    7.6480   -0.0000 </r>
       <r>    7.7792   -0.0000 </r>
       <r>    7.8781   -0.0000 </r>
       <r>    8.0091   -0.0000 </r>
       <r>    8.0833   -0.0000 </r>
       <r>    8.1646   -0.0000 </r>
       <r>    8.2186   -0.0000 </r>
       <r>    8.3124   -0.0000 </r>
       <r>    8.4732   -0.0000 </r>
       <r>    8.4925   -0.0000 </r>
       <r>    8.5472   -0.0000 </r>
       <r>    8.6040   -0.0000 </r>
       <r>    8.6546   -0.0000 </r>
      </set>
     </set>
    </set>
   </array>
  </eigenvalues>
  <separator name="orbital magnetization" >
   <v name="MAGDIPOLOUT">      0.00000000      0.00000000      0.00000000</v>
  </separator>
  <dos>
   <i name="efermi">      6.63588140 </i>
   <total>
    <array>
     <dimension dim="1">gridpoints</dimension>
     <dimension dim="2">spin</dimension>
     <field>energy</field>
     <field>total</field>
     <field>integrated</field>
     <set>
      <set comment="spin 1">
       <r>   -50.4138     0.0000     0.0000 </r>
       <r>   -50.2072     0.0000     0.0000 </r>
       <r>   -50.0006     0.0000     0.0000 </r>
       <r>   -49.7939     0.0000     0.0000 </r>
       <r>   -49.5873     0.0000     0.0000 </r>
       <r>   -49.3807    -0.0000    -0.0000 </r>
       <r>   -49.1741    -0.0000    -0.0000 </r>
       <r>   -48.9674    -0.0000    -0.0000 </r>
       <r>   -48.7608    -0.0000    -0.0000 </r>
       <r>   -48.5542    -0.0000    -0.0000 </r>
       <r>   -48.3475    -0.0000    -0.0000 </r>
       <r>   -48.1409    -0.0049    -0.0010 </r>
       <r>   -47.9343    -0.2965    -0.0623 </r>
       <r>   -47.7276     0.2003    -0.0209 </r>
       <r>   -47.5210    16.3502     3.3576 </r>
       <r>   -47.3144    21.3406     7.7672 </r>
       <r>   -47.1078    17.1507    11.3110 </r>
       <r>   -46.9011     3.8853    12.1138 </r>
       <r>   -46.6945    -0.5140    12.0076 </r>
       <r>   -46.4879    -0.0366    12.0000 </r>
       <r>   -46.2812    -0.0002    12.0000 </r>
       <r>   -46.0746    -0.0000    12.0000 </r>
       <r>   -45.8680    -0.0000    12.0000 </r>
       <r>   -45.6613     0.0000    12.0000 </r>
       <r>   -45.4547     0.0000    12.0000 </r>
       <r>   -45.2481     0.0000    12.0000 </r>
       <r>   -45.0415     0.0000    12.0000 </r>
       <r>   -44.8348     0.0000    12.0000 </r>
       <r>   -44.6282     0.0000    12.0000 </r>
       <r>   -44.4216     0.0000    12.0000 </r>
       <r>   -44.2149     0.0000    12.0000 </r>
       <r>   -44.0083     0.0000    12.0000 </r>
       <r>   -43.8017     0.0000    12.0000 </r>
       <r>   -43.5950     0.0000    12.0000 </r>
       <r>   -43.3884     0.0000    12.0000 </r>
       <r>   -43.1818     0.0000    12.0000 </r>
       <r>   -42.9752     0.0000    12.0000 </r>
       <r>   -42.7685     0.0000    12.0000 </r>
       <r>   -42.5619     0.0000    12.0000 </r>
       <r>   -42.3553     0.0000    12.0000 </r>
       <r>   -42.1486     0.0000    12.0000 </r>
       <r>   -41.9420     0.0000    12.0000 </r>
       <r>   -41.7354     0.0000    12.0000 </r>
       <r>   -41.5287     0.0000    12.0000 </r>
       <r>   -41.3221     0.0000    12.0000 </r>
       <r>   -41.1155     0.0000    12.0000 </r>
       <r>   -40.9089     0.0000    12.0000 </r>
       <r>   -40.7022     0.0000    12.0000 </r>
       <r>   -40.4956     0.0000    12.0000 </r>
       <r>   -40.2890     0.0000    12.0000 </r>
       <r>   -40.0823     0.0000    12.0000 </r>
       <r>   -39.8757     0.0000    12.0000 </r>
       <r>   -39.6691     0.0000    12.0000 </r>
       <r>   -39.4625     0.0000    12.0000 </r>
       <r>   -39.2558     0.0000    12.0000 </r>
       <r>   -39.0492     0.0000    12.0000 </r>
       <r>   -38.8426     0.0000    12.0000 </r>
       <r>   -38.6359     0.0000    12.0000 </r>
       <r>   -38.4293     0.0000    12.0000 </r>
       <r>   -38.2227     0.0000    12.0000 </r>
       <r>   -38.0160     0.0000    12.0000 </r>
       <r>   -37.8094     0.0000    12.0000 </r>
       <r>   -37.6028     0.0000    12.0000 </r>
       <r>   -37.3962     0.0000    12.0000 </r>
       <r>   -37.1895     0.0000    12.0000 </r>
       <r>   -36.9829     0.0000    12.0000 </r>
       <r>   -36.7763     0.0000    12.0000 </r>
       <r>   -36.5696     0.0000    12.0000 </r>
       <r>   -36.3630     0.0000    12.0000 </r>
       <r>   -36.1564     0.0000    12.0000 </r>
       <r>   -35.9497     0.0000    12.0000 </r>
       <r>   -35.7431     0.0000    12.0000 </r>
       <r>   -35.5365     0.0000    12.0000 </r>
       <r>   -35.3299     0.0000    12.0000 </r>
       <r>   -35.1232     0.0000    12.0000 </r>
       <r>   -34.9166     0.0000    12.0000 </r>
       <r>   -34.7100     0.0000    12.0000 </r>
       <r>   -34.5033     0.0000    12.0000 </r>
       <r>   -34.2967     0.0000    12.0000 </r>
       <r>   -34.0901     0.0000    12.0000 </r>
       <r>   -33.8834     0.0000    12.0000 </r>
       <r>   -33.6768     0.0000    12.0000 </r>
       <r>   -33.4702     0.0000    12.0000 </r>
       <r>   -33.2636     0.0000    12.0000 </r>
       <r>   -33.0569     0.0000    12.0000 </r>
       <r>   -32.8503     0.0000    12.0000 </r>
       <r>   -32.6437     0.0000    12.0000 </r>
       <r>   -32.4370     0.0000    12.0000 </r>
       <r>   -32.2304     0.0000    12.0000 </r>
       <r>   -32.0238     0.0000    12.0000 </r>
       <r>   -31.8171     0.0000    12.0000 </r>
       <r>   -31.6105     0.0000    12.0000 </r>
       <r>   -31.4039     0.0000    12.0000 </r>
       <r>   -31.1973     0.0000    12.0000 </r>
       <r>   -30.9906     0.0000    12.0000 </r>
       <r>   -30.7840     0.0000    12.0000 </r>
       <r>   -30.5774     0.0000    12.0000 </r>
       <r>   -30.3707     0.0000    12.0000 </r>
       <r>   -30.1641     0.0000    12.0000 </r>
       <r>   -29.9575     0.0000    12.0000 </r>
       <r>   -29.7508     0.0000    12.0000 </r>
       <r>   -29.5442     0.0000    12.0000 </r>
       <r>   -29.3376     0.0000    12.0000 </r>
       <r>   -29.1310     0.0000    12.0000 </r>
       <r>   -28.9243     0.0000    12.0000 </r>
       <r>   -28.7177     0.0000    12.0000 </r>
       <r>   -28.5111     0.0000    12.0000 </r>
       <r>   -28.3044     0.0000    12.0000 </r>
       <r>   -28.0978     0.0000    12.0000 </r>
       <r>   -27.8912     0.0000    12.0000 </r>
       <r>   -27.6845     0.0000    12.0000 </r>
       <r>   -27.4779     0.0000    12.0000 </r>
       <r>   -27.2713     0.0000    12.0000 </r>
       <r>   -27.0647     0.0000    12.0000 </r>
       <r>   -26.8580     0.0000    12.0000 </r>
       <r>   -26.6514     0.0000    12.0000 </r>
       <r>   -26.4448     0.0000    12.0000 </r>
       <r>   -26.2381     0.0000    12.0000 </r>
       <r>   -26.0315    -0.0000    12.0000 </r>
       <r>   -25.8249    -0.0000    12.0000 </r>
       <r>   -25.6182    -0.0000    12.0000 </r>
       <r>   -25.4116    -0.0000    12.0000 </r>
       <r>   -25.2050    -0.0000    12.0000 </r>
       <r>   -24.9984    -0.0000    12.0000 </r>
       <r>   -24.7917    -0.0007    11.9999 </r>
       <r>   -24.5851    -0.0684    11.9857 </r>
       <r>   -24.3785    -0.3788    11.9075 </r>
       <r>   -24.1718     5.3287    13.0085 </r>
       <r>   -23.9652    13.2838    15.7533 </r>
       <r>   -23.7586    29.5420    21.8576 </r>
       <r>   -23.5519    40.0085    30.1246 </r>
       <r>   -23.3453    42.3288    38.8710 </r>
       <r>   -23.1387    30.6157    45.1971 </r>
       <r>   -22.9321    10.2976    47.3249 </r>
       <r>   -22.7254     3.1723    47.9804 </r>
       <r>   -22.5188     0.1818    48.0179 </r>
       <r>   -22.3122    -0.0842    48.0005 </r>
       <r>   -22.1055    -0.0025    48.0000 </r>
       <r>   -21.8989    -0.0000    48.0000 </r>
       <r>   -21.6923    -0.0000    48.0000 </r>
       <r>   -21.4857    -0.0000    48.0000 </r>
       <r>   -21.2790     0.0000    48.0000 </r>
       <r>   -21.0724     0.0000    48.0000 </r>
       <r>   -20.8658     0.0000    48.0000 </r>
       <r>   -20.6591     0.0000    48.0000 </r>
       <r>   -20.4525     0.0000    48.0000 </r>
       <r>   -20.2459     0.0000    48.0000 </r>
       <r>   -20.0392     0.0000    48.0000 </r>
       <r>   -19.8326     0.0000    48.0000 </r>
       <r>   -19.6260     0.0000    48.0000 </r>
       <r>   -19.4194     0.0000    48.0000 </r>
       <r>   -19.2127     0.0000    48.0000 </r>
       <r>   -19.0061     0.0000    48.0000 </r>
       <r>   -18.7995     0.0000    48.0000 </r>
       <r>   -18.5928     0.0000    48.0000 </r>
       <r>   -18.3862     0.0000    48.0000 </r>
       <r>   -18.1796     0.0000    48.0000 </r>
       <r>   -17.9729     0.0000    48.0000 </r>
       <r>   -17.7663     0.0000    48.0000 </r>
       <r>   -17.5597     0.0000    48.0000 </r>
       <r>   -17.3531     0.0000    48.0000 </r>
       <r>   -17.1464     0.0000    48.0000 </r>
       <r>   -16.9398     0.0000    48.0000 </r>
       <r>   -16.7332     0.0000    48.0000 </r>
       <r>   -16.5265     0.0000    48.0000 </r>
       <r>   -16.3199     0.0000    48.0000 </r>
       <r>   -16.1133     0.0000    48.0000 </r>
       <r>   -15.9066     0.0000    48.0000 </r>
       <r>   -15.7000     0.0000    48.0000 </r>
       <r>   -15.4934     0.0000    48.0000 </r>
       <r>   -15.2868     0.0000    48.0000 </r>
       <r>   -15.0801     0.0000    48.0000 </r>
       <r>   -14.8735     0.0000    48.0000 </r>
       <r>   -14.6669     0.0000    48.0000 </r>
       <r>   -14.4602     0.0000    48.0000 </r>
       <r>   -14.2536     0.0000    48.0000 </r>
       <r>   -14.0470     0.0000    48.0000 </r>
       <r>   -13.8403     0.0000    48.0000 </r>
       <r>   -13.6337     0.0000    48.0000 </r>
       <r>   -13.4271     0.0000    48.0000 </r>
       <r>   -13.2205     0.0000    48.0000 </r>
       <r>   -13.0138     0.0000    48.0000 </r>
       <r>   -12.8072     0.0000    48.0000 </r>
       <r>   -12.6006     0.0000    48.0000 </r>
       <r>   -12.3939     0.0000    48.0000 </r>
       <r>   -12.1873     0.0000    48.0000 </r>
       <r>   -11.9807     0.0000    48.0000 </r>
       <r>   -11.7740     0.0000    48.0000 </r>
       <r>   -11.5674     0.0000    48.0000 </r>
       <r>   -11.3608     0.0000    48.0000 </r>
       <r>   -11.1542     0.0000    48.0000 </r>
       <r>   -10.9475     0.0000    48.0000 </r>
       <r>   -10.7409     0.0000    48.0000 </r>
       <r>   -10.5343     0.0000    48.0000 </r>
       <r>   -10.3276     0.0000    48.0000 </r>
       <r>   -10.1210     0.0000    48.0000 </r>
       <r>    -9.9144     0.0000    48.0000 </r>
       <r>    -9.7077     0.0000    48.0000 </r>
       <r>    -9.5011     0.0000    48.0000 </r>
       <r>    -9.2945     0.0000    48.0000 </r>
       <r>    -9.0879     0.0000    48.0000 </r>
       <r>    -8.8812     0.0000    48.0000 </r>
       <r>    -8.6746     0.0000    48.0000 </r>
       <r>    -8.4680     0.0000    48.0000 </r>
       <r>    -8.2613     0.0000    48.0000 </r>
       <r>    -8.0547     0.0000    48.0000 </r>
       <r>    -7.8481     0.0000    48.0000 </r>
       <r>    -7.6414     0.0000    48.0000 </r>
       <r>    -7.4348     0.0000    48.0000 </r>
       <r>    -7.2282     0.0000    48.0000 </r>
       <r>    -7.0216     0.0000    48.0000 </r>
       <r>    -6.8149     0.0000    48.0000 </r>
       <r>    -6.6083     0.0000    48.0000 </r>
       <r>    -6.4017     0.0000    48.0000 </r>
       <r>    -6.1950     0.0000    48.0000 </r>
       <r>    -5.9884     0.0000    48.0000 </r>
       <r>    -5.7818     0.0000    48.0000 </r>
       <r>    -5.5751     0.0000    48.0000 </r>
       <r>    -5.3685     0.0000    48.0000 </r>
       <r>    -5.1619     0.0000    48.0000 </r>
       <r>    -4.9553     0.0000    48.0000 </r>
       <r>    -4.7486     0.0000    48.0000 </r>
       <r>    -4.5420     0.0000    48.0000 </r>
       <r>    -4.3354     0.0000    48.0000 </r>
       <r>    -4.1287     0.0000    48.0000 </r>
       <r>    -3.9221     0.0000    48.0000 </r>
       <r>    -3.7155     0.0000    48.0000 </r>
       <r>    -3.5089     0.0000    48.0000 </r>
       <r>    -3.3022     0.0000    48.0000 </r>
       <r>    -3.0956     0.0000    48.0000 </r>
       <r>    -2.8890     0.0000    48.0000 </r>
       <r>    -2.6823     0.0000    48.0000 </r>
       <r>    -2.4757     0.0000    48.0000 </r>
       <r>    -2.2691     0.0000    48.0000 </r>
       <r>    -2.0624     0.0000    48.0000 </r>
       <r>    -1.8558    -0.0000    48.0000 </r>
       <r>    -1.6492    -0.0000    48.0000 </r>
       <r>    -1.4426    -0.0000    48.0000 </r>
       <r>    -1.2359    -0.0000    48.0000 </r>
       <r>    -1.0293    -0.0000    48.0000 </r>
       <r>    -0.8227    -0.0000    48.0000 </r>
       <r>    -0.6160    -0.0008    47.9998 </r>
       <r>    -0.4094    -0.0143    47.9969 </r>
       <r>    -0.2028     0.0561    48.0085 </r>
       <r>     0.0039     0.6660    48.1461 </r>
       <r>     0.2105     1.2574    48.4059 </r>
       <r>     0.4171     1.5690    48.7301 </r>
       <r>     0.6237     2.1067    49.1654 </r>
       <r>     0.8304     1.8016    49.5377 </r>
       <r>     1.0370     2.3527    50.0238 </r>
       <r>     1.2436     3.1875    50.6825 </r>
       <r>     1.4503     3.1808    51.3397 </r>
       <r>     1.6569     3.6015    52.0839 </r>
       <r>     1.8635     4.1389    52.9391 </r>
       <r>     2.0702     5.0305    53.9785 </r>
       <r>     2.2768     5.8630    55.1900 </r>
       <r>     2.4834     7.9813    56.8392 </r>
       <r>     2.6900    14.0318    59.7386 </r>
       <r>     2.8967    19.1432    63.6942 </r>
       <r>     3.1033    22.6474    68.3738 </r>
       <r>     3.3099    27.8126    74.1207 </r>
       <r>     3.5166    29.2961    80.1741 </r>
       <r>     3.7232    29.6042    86.2912 </r>
       <r>     3.9298    30.3453    92.5615 </r>
       <r>     4.1365    30.8080    98.9273 </r>
       <r>     4.3431    29.7483   105.0742 </r>
       <r>     4.5497    28.0335   110.8668 </r>
       <r>     4.7563    28.7795   116.8135 </r>
       <r>     4.9630    32.4267   123.5138 </r>
       <r>     5.1696    39.2412   131.6222 </r>
       <r>     5.3762    41.0272   140.0997 </r>
       <r>     5.5829    42.8858   148.9612 </r>
       <r>     5.7895    41.8480   157.6082 </r>
       <r>     5.9961    41.5130   166.1860 </r>
       <r>     6.2028    42.7008   175.0093 </r>
       <r>     6.4094    40.8617   183.4526 </r>
       <r>     6.6160    37.8961   191.2830 </r>
       <r>     6.8226    33.6965   198.2458 </r>
       <r>     7.0293    30.4891   204.5457 </r>
       <r>     7.2359    26.5107   210.0236 </r>
       <r>     7.4425    20.5337   214.2665 </r>
       <r>     7.6492    19.1043   218.2140 </r>
       <r>     7.8558    21.4847   222.6534 </r>
       <r>     8.0624    26.4914   228.1273 </r>
       <r>     8.2691    28.5397   234.0244 </r>
       <r>     8.4757    20.4412   238.2482 </r>
       <r>     8.6823     8.1025   239.9224 </r>
       <r>     8.8889     0.5515   240.0364 </r>
       <r>     9.0956    -0.1660   240.0021 </r>
       <r>     9.3022    -0.0099   240.0000 </r>
       <r>     9.5088    -0.0001   240.0000 </r>
       <r>     9.7155    -0.0000   240.0000 </r>
       <r>     9.9221    -0.0000   240.0000 </r>
       <r>    10.1287    -0.0000   240.0000 </r>
       <r>    10.3354     0.0000   240.0000 </r>
       <r>    10.5420     0.0000   240.0000 </r>
       <r>    10.7486     0.0000   240.0000 </r>
       <r>    10.9552     0.0000   240.0000 </r>
       <r>    11.1619     0.0000   240.0000 </r>
       <r>    11.3685     0.0000   240.0000 </r>
       <r>    11.5751     0.0000   240.0000 </r>
      </set>
     </set>
    </array>
   </total>
  </dos>
 </calculation>
 <structure name="finalpos" >
  <crystal>
   <varray name="basis" >
    <v>      -3.18559699      -3.12935748      -3.12701235 </v>
    <v>       1.56826820       1.61480954      -7.84327130 </v>
    <v>       7.89646507      -7.81291638      -1.50525579 </v>
   </varray>
   <i name="volume">    467.56748957 </i>
   <varray name="rec_basis" >
    <v>      -0.13625739      -0.12741150      -0.05347685 </v>
    <v>       0.04217702       0.06306572      -0.10608023 </v>
    <v>       0.06329338      -0.06392552      -0.00050573 </v>
   </varray>
  </crystal>
  <varray name="positions" >
   <v>       0.94729057       0.93077692       0.39724924 </v>
   <v>       0.60844499       0.26557993       0.40435538 </v>
   <v>       0.50418292       0.00517014      -0.00643245 </v>
   <v>       0.00311620       0.01007000       0.00318798 </v>
   <v>       0.09708178       0.20884253       0.79244067 </v>
   <v>       0.03666265       0.07505257       0.58593198 </v>
   <v>       0.91068070       0.79820270       0.20053232 </v>
   <v>       0.81094342       0.57826506       0.39832682 </v>
   <v>       0.72981244       0.47313014       0.20113153 </v>
   <v>       0.66326838       0.34973680      -0.00653519 </v>
   <v>       0.36914590       0.72111487       0.60146427 </v>
   <v>       0.84163997       0.66711426       0.00103109 </v>
   <v>       0.92649092       0.87068528       0.79482162 </v>
   <v>       0.58227668       0.14040179       0.19089241 </v>
   <v>       0.40889371       0.80013237       0.19927660 </v>
   <v>       0.43454491       0.85535723       0.79671760 </v>
   <v>       0.30213636       0.60130309       0.40242046 </v>
   <v>       0.85973588       0.71666016       0.59843628 </v>
   <v>       0.46428526       0.93043811       0.41228940 </v>
   <v>       0.17226982       0.33936672       0.00466734 </v>
   <v>       0.26607577       0.52831466       0.79308076 </v>
   <v>       0.18775906       0.37392323       0.57921994 </v>
   <v>       0.07996961       0.16802534       0.23828573 </v>
   <v>       0.76064099       0.52002357       0.80706702 </v>
   <v>       0.66688707       0.40567967       0.60907020 </v>
   <v>       0.60014023       0.20430848       0.79193326 </v>
   <v>       0.56152546       0.05992289       0.61374473 </v>
   <v>       0.34134797       0.65516747      -0.00309981 </v>
   <v>       0.22941703       0.48056733       0.19849281 </v>
  </varray>
 </structure>
</modeling>
