Nb - Mo - Ta - Ti - V SQS               
           1
    -3.160000   -3.160000   -3.160000
     1.580000    1.580000   -7.900000
     7.900000   -7.900000   -1.580000
   Nb   Mo   Ta   Ti   V 
   6   5   6   6   6
Direct configuration=     1
   0.96666667  0.93333333  0.40000000
   0.63333333  0.26666667  0.40000000
   0.50000000  0.00000000  0.00000000
   0.00000000  0.00000000  0.00000000
   0.10000000  0.20000000  0.80000000
   0.03333333  0.06666667  0.60000000
   0.90000000  0.80000000  0.20000000
   0.80000000  0.60000000  0.40000000
   0.73333333  0.46666667  0.20000000
   0.66666667  0.33333333  0.00000000
   0.36666667  0.73333333  0.60000000
   0.83333333  0.66666667  0.00000000
   0.93333333  0.86666667  0.80000000
   0.56666667  0.13333333  0.20000000
   0.40000000  0.80000000  0.20000000
   0.43333333  0.86666667  0.80000000
   0.30000000  0.60000000  0.40000000
   0.86666667  0.73333333  0.60000000
   0.46666667  0.93333333  0.40000000
   0.16666667  0.33333333  0.00000000
   0.26666667  0.53333333  0.80000000
   0.20000000  0.40000000  0.60000000
   0.06666667  0.13333333  0.20000000
   0.76666667  0.53333333  0.80000000
   0.70000000  0.40000000  0.60000000
   0.60000000  0.20000000  0.80000000
   0.53333333  0.06666667  0.60000000
   0.33333333  0.66666667  0.00000000
   0.23333333  0.46666667  0.20000000
Nb - Mo - Ta - Ti - V SQS               
           1
    -3.143428   -3.126921   -3.126651
     1.573164    1.585963   -7.840580
     7.868445   -7.840729   -1.549774
   Nb   Mo   Ta   Ti   V 
   6   5   6   6   6
Direct configuration=     2
   0.96069950  0.93274521  0.39894505
   0.63291495  0.26816621  0.40192822
   0.49762418  0.00308409 -0.00108206
  -0.00073584  0.00075185  0.00088154
   0.09758546  0.20533712  0.79680786
   0.03264221  0.06994831  0.59760006
   0.90304882  0.79723003  0.20214282
   0.80287700  0.59400491  0.39902033
   0.73232913  0.46698457  0.19960796
   0.66338528  0.33790664 -0.00078247
   0.36937193  0.73087791  0.60015411
   0.83571338  0.66240836  0.00157451
   0.92999652  0.86808995  0.79986873
   0.56794514  0.13504263  0.19704842
   0.40320024  0.79413900  0.19917521
   0.43755911  0.86149941  0.79771387
   0.30079781  0.60115810  0.40184374
   0.86366012  0.73229405  0.59929664
   0.46798867  0.93345313  0.40363076
   0.16886797  0.33452438  0.00091293
   0.26927591  0.53373509  0.79915279
   0.20111792  0.39647751  0.59846625
   0.06347022  0.13929169  0.20210141
   0.76789682  0.52931608  0.80084145
   0.69333341  0.40444588  0.60184172
   0.59866352  0.20187786  0.79869867
   0.53922989  0.06673915  0.60326487
   0.33468656  0.66228353 -0.00032837
   0.23152082  0.46952066  0.19967298
Nb - Mo - Ta - Ti - V SQS               
           1
    -3.133123   -3.106351   -3.105913
     1.568914    1.589671   -7.803630
     7.848822   -7.803872   -1.530978
   Nb   Mo   Ta   Ti   V 
   6   5   6   6   6
Direct configuration=     3
   0.95695373  0.93237396  0.39828099
   0.63266123  0.26910526  0.40313473
   0.49613700  0.00501226 -0.00175883
  -0.00119316  0.00122239  0.00143281
   0.09607186  0.20867402  0.79481246
   0.03220777  0.07200023  0.59610023
   0.90496176  0.79549924  0.20348364
   0.80466680  0.59025449  0.39840642
   0.73169890  0.46718284  0.19936226
   0.66133399  0.34076638 -0.00127169
   0.37106405  0.72934282  0.60025103
   0.83720250  0.65974569  0.00255868
   0.92790655  0.86897893  0.79978515
   0.56874106  0.13611133  0.19520405
   0.40519343  0.79047271  0.19865845
   0.44019222  0.85826696  0.79628414
   0.30130576  0.60188401  0.40299804
   0.86177093  0.73164204  0.59885420
   0.46882873  0.93353047  0.40590256
   0.17025318  0.33527110  0.00148599
   0.27091014  0.53398726  0.79862483
   0.20180769  0.39427317  0.59750590
   0.06148345  0.14301954  0.20341668
   0.76866318  0.52680337  0.80136649
   0.68916720  0.40722561  0.60299151
   0.59782511  0.20305164  0.79788482
   0.54293706  0.06678878  0.60531082
   0.33552588  0.65954136 -0.00053510
   0.23038869  0.47130548  0.19946872
Nb - Mo - Ta - Ti - V SQS               
           1
    -3.149931   -3.114104   -3.114662
     1.577993    1.605295   -7.837937
     7.897050   -7.836622   -1.528192
   Nb   Mo   Ta   Ti   V 
   6   5   6   6   6
Direct configuration=     4
   0.95345177  0.93236127  0.39769063
   0.63190318  0.26979102  0.40435191
   0.49515774  0.00591633 -0.00269438
  -0.00154664  0.00193089  0.00186386
   0.09487604  0.21154838  0.79296190
   0.03206423  0.07464461  0.59403268
   0.90663580  0.79370345  0.20435052
   0.80731074  0.58602058  0.39815586
   0.73139859  0.46688502  0.19933531
   0.65955420  0.34358433 -0.00221621
   0.37284354  0.72766379  0.60037053
   0.83862262  0.65817749  0.00339639
   0.92639452  0.86976010  0.79951668
   0.56878032  0.13734701  0.19381680
   0.40681011  0.78798531  0.19824020
   0.44138758  0.85568763  0.79525030
   0.30195431  0.60203548  0.40425052
   0.86008626  0.73061956  0.59847953
   0.46883177  0.93390356  0.40818737
   0.17177701  0.33616592  0.00193848
   0.27266744  0.53403081  0.79798317
   0.20202839  0.39162402  0.59600355
   0.06017039  0.14687184  0.20526446
   0.76937338  0.52404779  0.80189345
   0.68453019  0.41016776  0.60458965
   0.59680393  0.20471197  0.79671493
   0.54729975  0.06673499  0.60774341
   0.33642497  0.65632766 -0.00083845
   0.22907453  0.47308475  0.19936697
Nb - Mo - Ta - Ti - V SQS               
           1
    -3.164258   -3.120713   -3.122119
     1.585732    1.618613   -7.867180
     7.938159   -7.864537   -1.525817
   Nb   Mo   Ta   Ti   V 
   6   5   6   6   6
Direct configuration=     5
   0.95047673  0.93234952  0.39718831
   0.63126298  0.27037277  0.40538396
   0.49432521  0.00668259 -0.00348787
  -0.00184500  0.00253181  0.00222946
   0.09385995  0.21398533  0.79139307
   0.03194095  0.07688670  0.59228027
   0.90805710  0.79218107  0.20508581
   0.80955026  0.58243033  0.39794318
   0.73114317  0.46663237  0.19931220
   0.65804416  0.34597357 -0.00301704
   0.37435286  0.72624025  0.60047213
   0.83982850  0.65684807  0.00410690
   0.92511090  0.87042218  0.79928856
   0.56881208  0.13839463  0.19264086
   0.40817904  0.78587600  0.19788543
   0.44239728  0.85350007  0.79437329
   0.30250797  0.60216445  0.40531298
   0.85865367  0.72975189  0.59816064
   0.46883985  0.93422062  0.41012501
   0.17307306  0.33692531  0.00232323
   0.27415830  0.53406798  0.79743991
   0.20220932  0.38937689  0.59472875
   0.05906407  0.15013920  0.20683208
   0.76997432  0.52171108  0.80233968
   0.68059968  0.41266238  0.60594364
   0.59593618  0.20611953  0.79572295
   0.55100966  0.06669108  0.60980832
   0.33718393  0.65360224 -0.00109639
   0.22796050  0.47459342  0.19928068
Nb - Mo - Ta - Ti - V SQS               
           1
    -3.163628   -3.121352   -3.124942
     1.583703    1.615523   -7.869138
     7.934736   -7.863716   -1.527758
   Nb   Mo   Ta   Ti   V 
   6   5   6   6   6
Direct configuration=     6
   0.95040905  0.93247493  0.39718473
   0.63037378  0.27016181  0.40541060
   0.49524251  0.00531350 -0.00394206
  -0.00212790  0.00292228  0.00223618
   0.09428678  0.21329511  0.79147086
   0.03247288  0.07757284  0.59155829
   0.90780428  0.79213957  0.20449444
   0.81053876  0.58187616  0.39831615
   0.73103814  0.46640825  0.19956103
   0.65849441  0.34592419 -0.00361836
   0.37421954  0.72608985  0.60052456
   0.83960901  0.65837697  0.00396520
   0.92567865  0.87057406  0.79906777
   0.56869053  0.13846780  0.19277807
   0.40814231  0.78687816  0.19803271
   0.44082744  0.85403132  0.79485699
   0.30284067  0.60178305  0.40540682
   0.85891381  0.72912857  0.59817358
   0.46777403  0.93424276  0.41037050
   0.17334905  0.33712439  0.00218570
   0.27425587  0.53381338  0.79713813
   0.20157391  0.38847737  0.59374760
   0.05961623  0.15076567  0.20787504
   0.76965972  0.52144014  0.80256900
   0.67942728  0.41309989  0.60668412
   0.59575237  0.20679954  0.79516431
   0.55267937  0.06644162  0.61063030
   0.33739849  0.65282732 -0.00120983
   0.22772570  0.47488284  0.19936757
Nb - Mo - Ta - Ti - V SQS               
           1
    -3.161738   -3.123267   -3.133410
     1.577615    1.606255   -7.875010
     7.924466   -7.861251   -1.533583
   Nb   Mo   Ta   Ti   V 
   6   5   6   6   6
Direct configuration=     7
   0.95020576  0.93285122  0.39717400
   0.62770703  0.26952962  0.40549080
   0.49799782  0.00120531 -0.00530493
  -0.00297740  0.00409403  0.00225632
   0.09556859  0.21122393  0.79170435
   0.03406784  0.07963121  0.58939149
   0.90704685  0.79201549  0.20271992
   0.81350458  0.58021256  0.39943523
   0.73072330  0.46573586  0.20030778
   0.65984590  0.34577586 -0.00542291
   0.37381991  0.72563870  0.60068195
   0.83894727  0.66296426  0.00353970
   0.92738158  0.87102933  0.79840507
   0.56832559  0.13868740  0.19318982
   0.40802960  0.78988484  0.19847446
   0.43611671  0.85562634  0.79630876
   0.30383937  0.60063842  0.40568841
   0.85969554  0.72725823  0.59821247
   0.46457665  0.93431000  0.41110743
   0.17417665  0.33772151  0.00177289
   0.27454958  0.53304953  0.79623260
   0.19967144  0.38577948  0.59080373
   0.06126956  0.15264437  0.21100449
   0.76871635  0.52062743  0.80325727
   0.67590855  0.41441327  0.60890633
   0.59520020  0.20884005  0.79348782
   0.55768720  0.06569149  0.61309655
   0.33804404  0.65050224 -0.00155016
   0.22702063  0.47575133  0.19962833
Nb - Mo - Ta - Ti - V SQS               
           1
    -3.160947   -3.124069   -3.136955
     1.575068    1.602375   -7.877468
     7.920168   -7.860219   -1.536021
   Nb   Mo   Ta   Ti   V 
   6   5   6   6   6
Direct configuration=     8
   0.95012035  0.93300882  0.39716949
   0.62659199  0.26926592  0.40552472
   0.49915529 -0.00051525 -0.00587571
  -0.00333394  0.00458485  0.00226474
   0.09610672  0.21035640  0.79180220
   0.03473434  0.08049262  0.58848356
   0.90673115  0.79196407  0.20197673
   0.81474627  0.57951493  0.39990381
   0.73059180  0.46545439  0.20062066
   0.66041249  0.34571354 -0.00617889
   0.37365308  0.72544996  0.60074796
   0.83866621  0.66488488  0.00336115
   0.92809393  0.87121940  0.79812728
   0.56817246  0.13877940  0.19336230
   0.40797925  0.79114347  0.19865925
   0.43414360  0.85629553  0.79691719
   0.30425812  0.60015887  0.40580636
   0.86002438  0.72647499  0.59822885
   0.46323855  0.93433918  0.41141642
   0.17452253  0.33797124  0.00159984
   0.27467372  0.53272980  0.79585334
   0.19887991  0.38465119  0.58957108
   0.06195755  0.15342980  0.21231497
   0.76832209  0.52028745  0.80354572
   0.67443393  0.41496402  0.60983737
   0.59496820  0.20969468  0.79278549
   0.55978146  0.06537533  0.61412913
   0.33831656  0.64952873 -0.00169257
   0.22672467  0.47611511  0.19973755
Nb - Mo - Ta - Ti - V SQS               
           1
    -3.160056   -3.120307   -3.134507
     1.571583    1.595049   -7.862884
     7.912773   -7.844988   -1.535364
   Nb   Mo   Ta   Ti   V 
   6   5   6   6   6
Direct configuration=     9
   0.94935986  0.93257844  0.39705651
   0.62496858  0.26843374  0.40549592
   0.49901989 -0.00001999 -0.00575927
  -0.00301090  0.00505250  0.00232928
   0.09685277  0.20931650  0.79222542
   0.03635325  0.08098364  0.58782065
   0.90694182  0.79302896  0.20188521
   0.81531344  0.57922938  0.40022612
   0.73002931  0.46671112  0.20062510
   0.66140292  0.34545343 -0.00650628
   0.37281439  0.72579437  0.60126551
   0.83883023  0.66447271  0.00294363
   0.92696627  0.87185447  0.79718646
   0.56920130  0.13804821  0.19287020
   0.40736156  0.79198727  0.19949818
   0.43439205  0.85652387  0.79718435
   0.30454035  0.60067528  0.40492357
   0.86072707  0.72552890  0.59833122
   0.46210722  0.93435486  0.41148063
   0.17437299  0.33814070  0.00136331
   0.27370627  0.53224962  0.79502456
   0.19744593  0.38308112  0.58813150
   0.06304994  0.15428493  0.21450698
   0.76747950  0.52054021  0.80432573
   0.67362160  0.41464888  0.61046642
   0.59551752  0.20972707  0.79230366
   0.56153080  0.06519481  0.61474676
   0.33894668  0.64954676 -0.00186002
   0.22682404  0.47591156  0.19990869
Nb - Mo - Ta - Ti - V SQS               
           1
    -3.158623   -3.114263   -3.130576
     1.565984    1.583278   -7.839453
     7.900891   -7.820517   -1.534309
   Nb   Mo   Ta   Ti   V 
   6   5   6   6   6
Direct configuration=    10
   0.94813746  0.93188564  0.39687467
   0.62235935  0.26709398  0.40544943
   0.49880186  0.00077728 -0.00557216
  -0.00249192  0.00580537  0.00243303
   0.09805396  0.20764180  0.79290696
   0.03895451  0.08177478  0.58675441
   0.90727929  0.79474354  0.20173762
   0.81622611  0.57876932  0.40074495
   0.72912368  0.46873449  0.20063160
   0.66299504  0.34503492 -0.00703261
   0.37146645  0.72634841  0.60209780
   0.83909371  0.66380951  0.00227209
   0.92515117  0.87287786  0.79567221
   0.57085539  0.13687140  0.19207905
   0.40636892  0.79334505  0.20084741
   0.43479167  0.85689124  0.79761415
   0.30499219  0.60150753  0.40350317
   0.86185794  0.72400556  0.59849649
   0.46028842  0.93438008  0.41158359
   0.17413204  0.33841376  0.00098265
   0.27215005  0.53147733  0.79369105
   0.19513981  0.38055465  0.58581558
   0.06480878  0.15565962  0.21803365
   0.76612579  0.52094646  0.80558032
   0.67231688  0.41414094  0.61147836
   0.59639991  0.20977964  0.79152860
   0.56434444  0.06490354  0.61574104
   0.33995947  0.64957594 -0.00212926
   0.22698429  0.47558368  0.20018414
Nb - Mo - Ta - Ti - V SQS               
           1
    -3.165541   -3.118985   -3.135388
     1.567164    1.582151   -7.845724
     7.913862   -7.827894   -1.536750
   Nb   Mo   Ta   Ti   V 
   6   5   6   6   6
Direct configuration=    11
   0.94746079  0.93161584  0.39690708
   0.62104367  0.26659958  0.40529818
   0.49869704  0.00134317 -0.00544280
  -0.00207939  0.00603179  0.00249947
   0.09849618  0.20722193  0.79315595
   0.04005111  0.08195022  0.58632046
   0.90742207  0.79542391  0.20170272
   0.81639342  0.57857859  0.40086473
   0.72885857  0.46951003  0.20068138
   0.66349542  0.34497309 -0.00710700
   0.37102078  0.72652406  0.60233633
   0.83924515  0.66341363  0.00202847
   0.92450887  0.87322711  0.79506429
   0.57167216  0.13651450  0.19176246
   0.40615879  0.79394687  0.20118207
   0.43501131  0.85691884  0.79775219
   0.30513894  0.60169600  0.40313307
   0.86225964  0.72332346  0.59857078
   0.45969192  0.93444739  0.41162612
   0.17389700  0.33848063  0.00090608
   0.27114640  0.53120081  0.79309994
   0.19422327  0.37958203  0.58479876
   0.06575157  0.15636260  0.21972527
   0.76556808  0.52117832  0.80610010
   0.67189636  0.41369410  0.61170895
   0.59692254  0.20955915  0.79137301
   0.56521070  0.06481722  0.61591981
   0.34034833  0.64981896 -0.00222436
   0.22715595  0.47537949  0.20025647
Nb - Mo - Ta - Ti - V SQS               
           1
    -3.174278   -3.124947   -3.141465
     1.568655    1.580727   -7.853644
     7.930241   -7.837211   -1.539833
   Nb   Mo   Ta   Ti   V 
   6   5   6   6   6
Direct configuration=    12
   0.94660798  0.93127529  0.39694789
   0.61938530  0.26597559  0.40510730
   0.49856480  0.00205725 -0.00527978
  -0.00155941  0.00631754  0.00258330
   0.09905400  0.20669200  0.79347013
   0.04143295  0.08217193  0.58577332
   0.90760173  0.79628256  0.20165861
   0.81660451  0.57833787  0.40101585
   0.72852414  0.47048871  0.20074398
   0.66412611  0.34489514 -0.00720073
   0.37045915  0.72674557  0.60263705
   0.83943599  0.66291415  0.00172132
   0.92369856  0.87366805  0.79429742
   0.57270157  0.13606433  0.19136340
   0.40589398  0.79470619  0.20160398
   0.43528829  0.85695363  0.79792632
   0.30532351  0.60193402  0.40266630
   0.86276634  0.72246267  0.59866466
   0.45894003  0.93453224  0.41167964
   0.17360064  0.33856502  0.00080947
   0.26988088  0.53085201  0.79235433
   0.19306744  0.37835493  0.58351641
   0.06694119  0.15724911  0.22185870
   0.76486545  0.52147064  0.80675550
   0.67136666  0.41313006  0.61199978
   0.59758127  0.20928102  0.79117692
   0.56630283  0.06470830  0.61614544
   0.34083831  0.65012573 -0.00234428
   0.22737248  0.47512179  0.20034775
Nb - Mo - Ta - Ti - V SQS               
           1
    -3.175848   -3.126385   -3.142050
     1.568288    1.581308   -7.853807
     7.931108   -7.838781   -1.539057
   Nb   Mo   Ta   Ti   V 
   6   5   6   6   6
Direct configuration=    13
   0.94640640  0.93130213  0.39708292
   0.61891114  0.26610066  0.40487598
   0.49885986  0.00208357 -0.00531751
  -0.00137382  0.00621887  0.00262708
   0.09897620  0.20704160  0.79338240
   0.04133397  0.08189359  0.58576165
   0.90761820  0.79614430  0.20160452
   0.81625814  0.57834072  0.40086312
   0.72862723  0.47036685  0.20086195
   0.66387829  0.34512956 -0.00704925
   0.37067364  0.72654068  0.60246459
   0.83945277  0.66316975  0.00184162
   0.92405750  0.87357979  0.79433497
   0.57307849  0.13631301  0.19137080
   0.40627803  0.79489071  0.20126406
   0.43509872  0.85680182  0.79791206
   0.30530361  0.60168777  0.40301493
   0.86261000  0.72228596  0.59865227
   0.45909720  0.93451847  0.41172258
   0.17344723  0.33853474  0.00095012
   0.26942905  0.53090108  0.79227814
   0.19310836  0.37837292  0.58331433
   0.06731046  0.15760939  0.22236989
   0.76471186  0.52146246  0.80681023
   0.67130945  0.41284852  0.61178694
   0.59782269  0.20898253  0.79137410
   0.56611750  0.06470561  0.61592228
   0.34081480  0.65030995 -0.00232491
   0.22744970  0.47519632  0.20024811
Nb - Mo - Ta - Ti - V SQS               
           1
    -3.180558   -3.130698   -3.143807
     1.567187    1.583050   -7.854295
     7.933710   -7.843493   -1.536731
   Nb   Mo   Ta   Ti   V 
   6   5   6   6   6
Direct configuration=    14
   0.94580188  0.93138264  0.39748793
   0.61748932  0.26647560  0.40418213
   0.49974465  0.00216261 -0.00543068
  -0.00081729  0.00592297  0.00275839
   0.09874293  0.20809032  0.79311930
   0.04103714  0.08105854  0.58572658
   0.90766756  0.79572951  0.20144227
   0.81521952  0.57834909  0.40040502
   0.72893635  0.47000137  0.20121580
   0.66313515  0.34583278 -0.00659485
   0.37131685  0.72592603  0.60194726
   0.83950307  0.66393660  0.00220250
   0.92513386  0.87331513  0.79444760
   0.57420877  0.13705913  0.19139303
   0.40742975  0.79544419  0.20024451
   0.43453025  0.85634634  0.79786925
   0.30524389  0.60094921  0.40406062
   0.86214117  0.72175578  0.59861510
   0.45956851  0.93447720  0.41185139
   0.17298720  0.33844394  0.00137199
   0.26807414  0.53104814  0.79204962
   0.19323111  0.37842679  0.58270820
   0.06841777  0.15869052  0.22390328
   0.76425129  0.52143792  0.80697441
   0.67113790  0.41200384  0.61114846
   0.59854662  0.20808726  0.79196550
   0.56556180  0.06469739  0.61525290
   0.34074428  0.65086261 -0.00226678
   0.22768125  0.47541987  0.19994927
Nb - Mo - Ta - Ti - V SQS               
           1
    -3.189979   -3.139326   -3.147320
     1.564984    1.586534   -7.855273
     7.938914   -7.852916   -1.532079
   Nb   Mo   Ta   Ti   V 
   6   5   6   6   6
Direct configuration=    15
   0.94459432  0.93154367  0.39829759
   0.61464954  0.26722397  0.40279515
   0.50151200  0.00232106 -0.00565686
   0.00029427  0.00533167  0.00302082
   0.09827715  0.21018715  0.79259372
   0.04044418  0.07938844  0.58565616
   0.90776616  0.79489993  0.20111776
   0.81314506  0.57836485  0.39948919
   0.72955367  0.46927098  0.20192304
   0.66165072  0.34723902 -0.00568624
   0.37260169  0.72469678  0.60091288
   0.83960352  0.66547046  0.00292420
   0.92728375  0.87278659  0.79467269
   0.57646649  0.13855186  0.19143779
   0.40973053  0.79655079  0.19820660
   0.43339473  0.85543514  0.79778349
   0.30512426  0.59947313  0.40615076
   0.86120468  0.72069525  0.59854058
   0.46050988  0.93439506  0.41210889
   0.17206819  0.33826245  0.00221529
   0.26536788  0.53134124  0.79159277
   0.19347644  0.37853407  0.58149652
   0.07062926  0.16085449  0.22696909
   0.76333129  0.52138873  0.80730257
   0.67079532  0.41031403  0.60987178
   0.59999238  0.20629786  0.79314747
   0.56445198  0.06468005  0.61391474
   0.34060347  0.65196781 -0.00215039
   0.22814385  0.47586679  0.19935195
Nb - Mo - Ta - Ti - V SQS               
           1
    -3.184050   -3.133896   -3.145109
     1.566370    1.584341   -7.854658
     7.935639   -7.846986   -1.535007
   Nb   Mo   Ta   Ti   V 
   6   5   6   6   6
Direct configuration=    16
   0.94535240  0.93144235  0.39778854
   0.61643176  0.26675491  0.40366707
   0.50040262  0.00222086 -0.00551474
  -0.00040336  0.00570315  0.00285593
   0.09856931  0.20886838  0.79292370
   0.04081646  0.08043944  0.58570083
   0.90770427  0.79542201  0.20132197
   0.81444702  0.57835619  0.40006503
   0.72916634  0.46972990  0.20147854
   0.66258253  0.34635432 -0.00625777
   0.37179513  0.72547027  0.60156345
   0.83954049  0.66450500  0.00247011
   0.92593437  0.87311822  0.79453123
   0.57504928  0.13761187  0.19140925
   0.40828599  0.79585486  0.19948755
   0.43410751  0.85600888  0.79783765
   0.30519976  0.60040070  0.40483700
   0.86179255  0.72136286  0.59858770
   0.45991904  0.93444626  0.41194699
   0.17264517  0.33837650  0.00168516
   0.26706646  0.53115806  0.79188000
   0.19332226  0.37846716  0.58225829
   0.06924150  0.15949055  0.22504102
   0.76390881  0.52141983  0.80709628
   0.67101025  0.41137800  0.61067484
   0.59908519  0.20742249  0.79240471
   0.56514839  0.06469210  0.61475609
   0.34069181  0.65127246 -0.00222381
   0.22785337  0.47558577  0.19972738
Nb - Mo - Ta - Ti - V SQS               
           1
    -3.181874   -3.131536   -3.141990
     1.564641    1.583903   -7.846952
     7.926109   -7.838092   -1.532298
   Nb   Mo   Ta   Ti   V 
   6   5   6   6   6
Direct configuration=    17
   0.94521362  0.93142679  0.39787954
   0.61586214  0.26683224  0.40345436
   0.50072373  0.00235134 -0.00561915
  -0.00007150  0.00570490  0.00292369
   0.09845169  0.20927291  0.79278177
   0.04052076  0.08006323  0.58575522
   0.90804414  0.79528210  0.20139327
   0.81402844  0.57835598  0.39986001
   0.72920148  0.46972195  0.20156479
   0.66236682  0.34664815 -0.00609081
   0.37193346  0.72516724  0.60141840
   0.83959362  0.66475533  0.00252954
   0.92607386  0.87297551  0.79460791
   0.57556076  0.13789343  0.19134637
   0.40854091  0.79591506  0.19930428
   0.43422216  0.85587538  0.79774919
   0.30492889  0.60048786  0.40489941
   0.86157351  0.72116270  0.59857779
   0.46015714  0.93434465  0.41192798
   0.17245271  0.33836581  0.00191920
   0.26667669  0.53116397  0.79189642
   0.19327246  0.37835607  0.58206725
   0.06991171  0.15996698  0.22577036
   0.76356384  0.52139335  0.80717993
   0.67099506  0.41094483  0.61035707
   0.59940303  0.20702966  0.79263912
   0.56491321  0.06457533  0.61450012
   0.34062743  0.65152459 -0.00222185
   0.22792490  0.47577601  0.19962883
Nb - Mo - Ta - Ti - V SQS               
           1
    -3.178789   -3.128188   -3.137567
     1.562188    1.583281   -7.836027
     7.912595   -7.825481   -1.528457
   Nb   Mo   Ta   Ti   V 
   6   5   6   6   6
Direct configuration=    18
   0.94501669  0.93140469  0.39800872
   0.61505385  0.26694187  0.40315239
   0.50117941  0.00253654 -0.00576735
   0.00039943  0.00570744  0.00301988
   0.09828486  0.20984699  0.79258034
   0.04010108  0.07952927  0.58583239
   0.90852640  0.79508359  0.20149448
   0.81343447  0.57835560  0.39956894
   0.72925133  0.46971068  0.20168722
   0.66206075  0.34706518 -0.00585376
   0.37212971  0.72473717  0.60121246
   0.83966904  0.66511062  0.00261394
   0.92627177  0.87277300  0.79471674
   0.57628662  0.13829309  0.19125716
   0.40890267  0.79600049  0.19904413
   0.43438484  0.85568590  0.79762361
   0.30454453  0.60061153  0.40498802
   0.86126266  0.72087859  0.59856370
   0.46049500  0.93420048  0.41190098
   0.17217958  0.33835066  0.00225144
   0.26612360  0.53117230  0.79191973
   0.19320179  0.37819838  0.58179605
   0.07086283  0.16064336  0.22680579
   0.76307430  0.52135574  0.80729866
   0.67097344  0.41032999  0.60990591
   0.59985400  0.20647221  0.79297184
   0.56457947  0.06440954  0.61413671
   0.34053612  0.65188242 -0.00221904
   0.22802643  0.47604600  0.19948895
Nb - Mo - Ta - Ti - V SQS               
           1
    -3.179455   -3.128602   -3.137317
     1.563254    1.585334   -7.837990
     7.910768   -7.823486   -1.527827
   Nb   Mo   Ta   Ti   V 
   6   5   6   6   6
Direct configuration=    19
   0.94509408  0.93136638  0.39797009
   0.61454197  0.26687198  0.40313790
   0.50130992  0.00280515 -0.00587731
   0.00081494  0.00594937  0.00307694
   0.09821859  0.21003316  0.79246685
   0.03971481  0.07928326  0.58589736
   0.90907579  0.79509566  0.20166395
   0.81322816  0.57830312  0.39943797
   0.72922202  0.46988975  0.20165636
   0.66206942  0.34722339 -0.00578799
   0.37199098  0.72447118  0.60120701
   0.83982844  0.66516389  0.00253087
   0.92607533  0.87257904  0.79480532
   0.57667946  0.13845035  0.19115401
   0.40881256  0.79600906  0.19921052
   0.43476481  0.85568193  0.79746596
   0.30403948  0.60106499  0.40459399
   0.86113644  0.72070115  0.59857799
   0.46070333  0.93403745  0.41178879
   0.17203970  0.33839038  0.00248233
   0.26601367  0.53103850  0.79206955
   0.19296644  0.37792225  0.58165970
   0.07175472  0.16105537  0.22759374
   0.76261005  0.52135468  0.80734901
   0.67100364  0.40981324  0.60960683
   0.60009800  0.20616570  0.79309065
   0.56433943  0.06416344  0.61395868
   0.34043950  0.65216042 -0.00225658
   0.22808099  0.47628909  0.19946954
Nb - Mo - Ta - Ti - V SQS               
           1
    -3.181452   -3.129844   -3.136569
     1.566451    1.591493   -7.843881
     7.905287   -7.817502   -1.525937
   Nb   Mo   Ta   Ti   V 
   6   5   6   6   6
Direct configuration=    20
   0.94532617  0.93125152  0.39785416
   0.61300645  0.26666226  0.40309437
   0.50170163  0.00361071 -0.00620722
   0.00206154  0.00667498  0.00324822
   0.09801996  0.21059143  0.79212633
   0.03855594  0.07854543  0.58609226
   0.91072377  0.79513199  0.20217251
   0.81260924  0.57814571  0.39904493
   0.72913425  0.47042673  0.20156378
   0.66209558  0.34769783 -0.00559060
   0.37157458  0.72367349  0.60119060
   0.84030660  0.66532368  0.00228162
   0.92548593  0.87199735  0.79507108
   0.57785796  0.13892202  0.19084453
   0.40854230  0.79603472  0.19970981
   0.43590458  0.85567012  0.79699293
   0.30252488  0.60242472  0.40341168
   0.86075769  0.72016899  0.59862082
   0.46132809  0.93354858  0.41145209
   0.17162019  0.33850947  0.00317516
   0.26568382  0.53063724  0.79251909
   0.19226023  0.37709411  0.58125051
   0.07443052  0.16229116  0.22995828
   0.76121748  0.52135140  0.80750010
   0.67109371  0.40826360  0.60870928
   0.60082966  0.20524659  0.79344713
   0.56361915  0.06342534  0.61342439
   0.34014992  0.65299404 -0.00236918
   0.22824484  0.47701810  0.19941136
Nb - Mo - Ta - Ti - V SQS               
           1
    -3.182188   -3.130302   -3.136294
     1.567629    1.593764   -7.846053
     7.903265   -7.815296   -1.525240
   Nb   Mo   Ta   Ti   V 
   6   5   6   6   6
Direct configuration=    21
   0.94541167  0.93120923  0.39781138
   0.61244039  0.26658488  0.40307826
   0.50184627  0.00390744 -0.00632890
   0.00252127  0.00694235  0.00331150
   0.09794692  0.21079702  0.79200071
   0.03812854  0.07827358  0.58616410
   0.91133125  0.79514553  0.20236020
   0.81238104  0.57808767  0.39889988
   0.72910207  0.47062450  0.20152965
   0.66210539  0.34787258 -0.00551773
   0.37142084  0.72337965  0.60118448
   0.84048289  0.66538256  0.00218966
   0.92526849  0.87178305  0.79516909
   0.57829250  0.13909584  0.19073038
   0.40844271  0.79604416  0.19989405
   0.43632466  0.85566587  0.79681839
   0.30196702  0.60292537  0.40297546
   0.86061790  0.71997296  0.59863658
   0.46155819  0.93336857  0.41132782
   0.17146564  0.33855331  0.00343083
   0.26556212  0.53048943  0.79268495
   0.19199963  0.37678903  0.58109945
   0.07541732  0.16274661  0.23083094
   0.76070419  0.52135007  0.80755583
   0.67112635  0.40769283  0.60837796
   0.60109905  0.20490814  0.79357863
   0.56335339  0.06315342  0.61322717
   0.34004346  0.65330105 -0.00241067
   0.22830548  0.47728662  0.19938994
Nb - Mo - Ta - Ti - V SQS               
           1
    -3.184664   -3.133035   -3.137153
     1.569402    1.598092   -7.851694
     7.906900   -7.820984   -1.524241
   Nb   Mo   Ta   Ti   V 
   6   5   6   6   6
Direct configuration=    22
   0.94568599  0.93135963  0.39773355
   0.61160955  0.26651904  0.40322576
   0.50224266  0.00399561 -0.00622134
   0.00275199  0.00752063  0.00335290
   0.09795951  0.21059566  0.79211824
   0.03773243  0.07796511  0.58614865
   0.91086786  0.79558118  0.20203712
   0.81225070  0.57806165  0.39887898
   0.72921124  0.47091677  0.20142051
   0.66241887  0.34793518 -0.00568109
   0.37098014  0.72310106  0.60125372
   0.84065417  0.66546636  0.00206489
   0.92581410  0.87155251  0.79523850
   0.57893448  0.13905178  0.19064903
   0.40860664  0.79674226  0.19982850
   0.43580062  0.85586263  0.79669334
   0.30188037  0.60260625  0.40286698
   0.86054988  0.71961297  0.59865483
   0.46173692  0.93305231  0.41128634
   0.17149929  0.33865870  0.00360068
   0.26571326  0.53015904  0.79292743
   0.19163193  0.37651355  0.58074699
   0.07635994  0.16320031  0.23188839
   0.76032405  0.52129564  0.80755561
   0.67073219  0.40725257  0.60825787
   0.60109831  0.20481752  0.79334583
   0.56311017  0.06269843  0.61320806
   0.34009929  0.65358346 -0.00248624
   0.22841012  0.47765552  0.19940597
Nb - Mo - Ta - Ti - V SQS               
           1
    -3.187608   -3.136285   -3.138174
     1.571510    1.603237   -7.858401
     7.911221   -7.827747   -1.523053
   Nb   Mo   Ta   Ti   V 
   6   5   6   6   6
Direct configuration=    23
   0.94601203  0.93153832  0.39764109
   0.61062231  0.26644070  0.40340105
   0.50271367  0.00410049 -0.00609351
   0.00302644  0.00820765  0.00340220