  29  29   0   0
  0.1632129E+02  0.5473281E-09  0.8209921E-09  0.1128346E-08  0.5000000E-15
  1.000000000000000E-004
  CAR 
 Nb - Mo - Ta - Ti - V SQS               
     11.60025160    -50.60123244  301      6.43398678      1.00000000
    -50.601  0.0000E+00  0.0000E+00
    -50.394  0.0000E+00  0.0000E+00
    -50.187  0.0000E+00  0.0000E+00
    -49.979  0.0000E+00  0.0000E+00
    -49.772  0.0000E+00  0.0000E+00
    -49.565 -0.9000E-35 -0.1866E-35
    -49.357 -0.3275E-27 -0.6790E-28
    -49.150 -0.1370E-20 -0.2841E-21
    -48.943 -0.6342E-15 -0.1315E-15
    -48.735 -0.3411E-10 -0.7072E-11
    -48.528 -0.2018E-06 -0.4186E-07
    -48.321 -0.1258E-03 -0.2613E-04
    -48.113 -0.6945E-02 -0.1466E-02
    -47.906  0.1485E-01  0.1612E-02
    -47.698  0.3383E+00  0.7176E-01
    -47.491  0.3491E+00  0.1441E+00
    -47.284  0.2074E+00  0.1871E+00
    -47.076  0.6975E-01  0.2016E+00
    -46.869 -0.7022E-02  0.2001E+00
    -46.662 -0.7011E-03  0.2000E+00
    -46.454 -0.3926E-05  0.2000E+00
    -46.247 -0.2162E-08  0.2000E+00
    -46.040 -0.1287E-12  0.2000E+00
    -45.832  0.0000E+00  0.2000E+00
    -45.625  0.0000E+00  0.2000E+00
    -45.418  0.0000E+00  0.2000E+00
    -45.210  0.0000E+00  0.2000E+00
    -45.003  0.0000E+00  0.2000E+00
    -44.796  0.0000E+00  0.2000E+00
    -44.588  0.0000E+00  0.2000E+00
    -44.381  0.0000E+00  0.2000E+00
    -44.174  0.0000E+00  0.2000E+00
    -43.966  0.0000E+00  0.2000E+00
    -43.759  0.0000E+00  0.2000E+00
    -43.552  0.0000E+00  0.2000E+00
    -43.344  0.0000E+00  0.2000E+00
    -43.137  0.0000E+00  0.2000E+00
    -42.930  0.0000E+00  0.2000E+00
    -42.722  0.0000E+00  0.2000E+00
    -42.515  0.0000E+00  0.2000E+00
    -42.308  0.0000E+00  0.2000E+00
    -42.100  0.0000E+00  0.2000E+00
    -41.893  0.0000E+00  0.2000E+00
    -41.686  0.0000E+00  0.2000E+00
    -41.478  0.0000E+00  0.2000E+00
    -41.271  0.0000E+00  0.2000E+00
    -41.064  0.0000E+00  0.2000E+00
    -40.856  0.0000E+00  0.2000E+00
    -40.649  0.0000E+00  0.2000E+00
    -40.442  0.0000E+00  0.2000E+00
    -40.234  0.0000E+00  0.2000E+00
    -40.027  0.0000E+00  0.2000E+00
    -39.820  0.0000E+00  0.2000E+00
    -39.612  0.0000E+00  0.2000E+00
    -39.405  0.0000E+00  0.2000E+00
    -39.198  0.0000E+00  0.2000E+00
    -38.990  0.0000E+00  0.2000E+00
    -38.783  0.0000E+00  0.2000E+00
    -38.576  0.0000E+00  0.2000E+00
    -38.368  0.0000E+00  0.2000E+00
    -38.161  0.0000E+00  0.2000E+00
    -37.954  0.0000E+00  0.2000E+00
    -37.746  0.0000E+00  0.2000E+00
    -37.539  0.0000E+00  0.2000E+00
    -37.332  0.0000E+00  0.2000E+00
    -37.124  0.0000E+00  0.2000E+00
    -36.917  0.0000E+00  0.2000E+00
    -36.710  0.0000E+00  0.2000E+00
    -36.502  0.0000E+00  0.2000E+00
    -36.295  0.0000E+00  0.2000E+00
    -36.088  0.0000E+00  0.2000E+00
    -35.880  0.0000E+00  0.2000E+00
    -35.673  0.0000E+00  0.2000E+00
    -35.466  0.0000E+00  0.2000E+00
    -35.258  0.0000E+00  0.2000E+00
    -35.051  0.0000E+00  0.2000E+00
    -34.844  0.0000E+00  0.2000E+00
    -34.636  0.0000E+00  0.2000E+00
    -34.429  0.0000E+00  0.2000E+00
    -34.222  0.0000E+00  0.2000E+00
    -34.014  0.0000E+00  0.2000E+00
    -33.807  0.0000E+00  0.2000E+00
    -33.599  0.0000E+00  0.2000E+00
    -33.392  0.0000E+00  0.2000E+00
    -33.185  0.0000E+00  0.2000E+00
    -32.977  0.0000E+00  0.2000E+00
    -32.770  0.0000E+00  0.2000E+00
    -32.563  0.0000E+00  0.2000E+00
    -32.355  0.0000E+00  0.2000E+00
    -32.148  0.0000E+00  0.2000E+00
    -31.941  0.0000E+00  0.2000E+00
    -31.733  0.0000E+00  0.2000E+00
    -31.526  0.0000E+00  0.2000E+00
    -31.319  0.0000E+00  0.2000E+00
    -31.111  0.0000E+00  0.2000E+00
    -30.904  0.0000E+00  0.2000E+00
    -30.697  0.0000E+00  0.2000E+00
    -30.489  0.0000E+00  0.2000E+00
    -30.282  0.0000E+00  0.2000E+00
    -30.075  0.0000E+00  0.2000E+00
    -29.867  0.0000E+00  0.2000E+00
    -29.660  0.0000E+00  0.2000E+00
    -29.453  0.0000E+00  0.2000E+00
    -29.245  0.0000E+00  0.2000E+00
    -29.038  0.0000E+00  0.2000E+00
    -28.831  0.0000E+00  0.2000E+00
    -28.623  0.0000E+00  0.2000E+00
    -28.416  0.0000E+00  0.2000E+00
    -28.209  0.0000E+00  0.2000E+00
    -28.001  0.0000E+00  0.2000E+00
    -27.794  0.0000E+00  0.2000E+00
    -27.587  0.0000E+00  0.2000E+00
    -27.379  0.0000E+00  0.2000E+00
    -27.172  0.0000E+00  0.2000E+00
    -26.965  0.0000E+00  0.2000E+00
    -26.757  0.0000E+00  0.2000E+00
    -26.550  0.0000E+00  0.2000E+00
    -26.343  0.0000E+00  0.2000E+00
    -26.135 -0.1312E-35  0.2000E+00
    -25.928 -0.4581E-28  0.2000E+00
    -25.721 -0.1819E-21  0.2000E+00
    -25.513 -0.8194E-16  0.2000E+00
    -25.306 -0.4243E-11  0.2000E+00
    -25.099 -0.2544E-07  0.2000E+00
    -24.891 -0.1730E-04  0.2000E+00
    -24.684 -0.1305E-02  0.1997E+00
    -24.477 -0.7361E-02  0.1982E+00
    -24.269  0.9114E-01  0.2171E+00
    -24.062  0.3656E+00  0.2929E+00
    -23.855  0.7059E+00  0.4393E+00
    -23.647  0.7569E+00  0.5962E+00
    -23.440  0.6669E+00  0.7345E+00
    -23.233  0.2319E+00  0.7825E+00
    -23.025  0.5263E-01  0.7934E+00
    -22.818  0.3413E-01  0.8005E+00
    -22.611 -0.2103E-02  0.8001E+00
    -22.403 -0.4323E-03  0.8000E+00
    -22.196 -0.3806E-05  0.8000E+00
    -21.989 -0.3447E-08  0.8000E+00
    -21.781 -0.3494E-12  0.8000E+00
    -21.574 -0.6120E-17  0.8000E+00
    -21.367  0.0000E+00  0.8000E+00
    -21.159  0.0000E+00  0.8000E+00
    -20.952  0.0000E+00  0.8000E+00
    -20.745  0.0000E+00  0.8000E+00
    -20.537  0.0000E+00  0.8000E+00
    -20.330  0.0000E+00  0.8000E+00
    -20.123  0.0000E+00  0.8000E+00
    -19.915  0.0000E+00  0.8000E+00
    -19.708  0.0000E+00  0.8000E+00
    -19.500  0.0000E+00  0.8000E+00
    -19.293  0.0000E+00  0.8000E+00
    -19.086  0.0000E+00  0.8000E+00
    -18.878  0.0000E+00  0.8000E+00
    -18.671  0.0000E+00  0.8000E+00
    -18.464  0.0000E+00  0.8000E+00
    -18.256  0.0000E+00  0.8000E+00
    -18.049  0.0000E+00  0.8000E+00
    -17.842  0.0000E+00  0.8000E+00
    -17.634  0.0000E+00  0.8000E+00
    -17.427  0.0000E+00  0.8000E+00
    -17.220  0.0000E+00  0.8000E+00
    -17.012  0.0000E+00  0.8000E+00
    -16.805  0.0000E+00  0.8000E+00
    -16.598  0.0000E+00  0.8000E+00
    -16.390  0.0000E+00  0.8000E+00
    -16.183  0.0000E+00  0.8000E+00
    -15.976  0.0000E+00  0.8000E+00
    -15.768  0.0000E+00  0.8000E+00
    -15.561  0.0000E+00  0.8000E+00
    -15.354  0.0000E+00  0.8000E+00
    -15.146  0.0000E+00  0.8000E+00
    -14.939  0.0000E+00  0.8000E+00
    -14.732  0.0000E+00  0.8000E+00
    -14.524  0.0000E+00  0.8000E+00
    -14.317  0.0000E+00  0.8000E+00
    -14.110  0.0000E+00  0.8000E+00
    -13.902  0.0000E+00  0.8000E+00
    -13.695  0.0000E+00  0.8000E+00
    -13.488  0.0000E+00  0.8000E+00
    -13.280  0.0000E+00  0.8000E+00
    -13.073  0.0000E+00  0.8000E+00
    -12.866  0.0000E+00  0.8000E+00
    -12.658  0.0000E+00  0.8000E+00
    -12.451  0.0000E+00  0.8000E+00
    -12.244  0.0000E+00  0.8000E+00
    -12.036  0.0000E+00  0.8000E+00
    -11.829  0.0000E+00  0.8000E+00
    -11.622  0.0000E+00  0.8000E+00
    -11.414  0.0000E+00  0.8000E+00
    -11.207  0.0000E+00  0.8000E+00
    -11.000  0.0000E+00  0.8000E+00
    -10.792  0.0000E+00  0.8000E+00
    -10.585  0.0000E+00  0.8000E+00
    -10.378  0.0000E+00  0.8000E+00
    -10.170  0.0000E+00  0.8000E+00
     -9.963  0.0000E+00  0.8000E+00
     -9.756  0.0000E+00  0.8000E+00
     -9.548  0.0000E+00  0.8000E+00
     -9.341  0.0000E+00  0.8000E+00
     -9.134  0.0000E+00  0.8000E+00
     -8.926  0.0000E+00  0.8000E+00
     -8.719  0.0000E+00  0.8000E+00
     -8.512  0.0000E+00  0.8000E+00
     -8.304  0.0000E+00  0.8000E+00
     -8.097  0.0000E+00  0.8000E+00
     -7.890  0.0000E+00  0.8000E+00
     -7.682  0.0000E+00  0.8000E+00
     -7.475  0.0000E+00  0.8000E+00
     -7.268  0.0000E+00  0.8000E+00
     -7.060  0.0000E+00  0.8000E+00
     -6.853  0.0000E+00  0.8000E+00
     -6.646  0.0000E+00  0.8000E+00
     -6.438  0.0000E+00  0.8000E+00
     -6.231  0.0000E+00  0.8000E+00
     -6.024  0.0000E+00  0.8000E+00
     -5.816  0.0000E+00  0.8000E+00
     -5.609  0.0000E+00  0.8000E+00
     -5.401  0.0000E+00  0.8000E+00
     -5.194  0.0000E+00  0.8000E+00
     -4.987  0.0000E+00  0.8000E+00
     -4.779  0.0000E+00  0.8000E+00
     -4.572  0.0000E+00  0.8000E+00
     -4.365  0.0000E+00  0.8000E+00
     -4.157  0.0000E+00  0.8000E+00
     -3.950  0.0000E+00  0.8000E+00
     -3.743  0.0000E+00  0.8000E+00
     -3.535  0.0000E+00  0.8000E+00
     -3.328  0.0000E+00  0.8000E+00
     -3.121  0.0000E+00  0.8000E+00
     -2.913  0.0000E+00  0.8000E+00
     -2.706  0.0000E+00  0.8000E+00
     -2.499  0.0000E+00  0.8000E+00
     -2.291  0.0000E+00  0.8000E+00
     -2.084 -0.8008E-33  0.8000E+00
     -1.877 -0.8299E-26  0.8000E+00
     -1.669 -0.1004E-19  0.8000E+00
     -1.462 -0.1376E-14  0.8000E+00
     -1.255 -0.2263E-10  0.8000E+00
     -1.047 -0.4376E-07  0.8000E+00
     -0.840 -0.9901E-05  0.8000E+00
     -0.633 -0.2361E-03  0.7999E+00
     -0.425  0.6278E-03  0.8001E+00
     -0.218  0.1147E-01  0.8025E+00
     -0.011  0.2423E-01  0.8075E+00
      0.197  0.3040E-01  0.8138E+00
      0.404  0.4174E-01  0.8224E+00
      0.611  0.3703E-01  0.8301E+00
      0.819  0.4715E-01  0.8399E+00
      1.026  0.6330E-01  0.8530E+00
      1.233  0.6244E-01  0.8660E+00
      1.441  0.6959E-01  0.8804E+00
      1.648  0.8114E-01  0.8972E+00
      1.855  0.9857E-01  0.9177E+00
      2.063  0.1182E+00  0.9422E+00
      2.270  0.1634E+00  0.9760E+00
      2.477  0.2898E+00  0.1036E+01
      2.685  0.3910E+00  0.1117E+01
      2.892  0.4752E+00  0.1216E+01
      3.099  0.5217E+00  0.1324E+01
      3.307  0.5947E+00  0.1447E+01
      3.514  0.6119E+00  0.1574E+01
      3.721  0.5930E+00  0.1697E+01
      3.929  0.6048E+00  0.1822E+01
      4.136  0.6106E+00  0.1949E+01
      4.343  0.5556E+00  0.2064E+01
      4.551  0.6140E+00  0.2192E+01
      4.758  0.7503E+00  0.2347E+01
      4.965  0.8112E+00  0.2515E+01
      5.173  0.7917E+00  0.2679E+01
      5.380  0.7950E+00  0.2844E+01
      5.587  0.8340E+00  0.3017E+01
      5.795  0.8456E+00  0.3193E+01
      6.002  0.8246E+00  0.3363E+01
      6.209  0.7987E+00  0.3529E+01
      6.417  0.7646E+00  0.3688E+01
      6.624  0.6742E+00  0.3827E+01
      6.831  0.5785E+00  0.3947E+01
      7.039  0.5032E+00  0.4052E+01
      7.246  0.4375E+00  0.4142E+01
      7.453  0.4049E+00  0.4226E+01
      7.661  0.4045E+00  0.4310E+01
      7.868  0.4431E+00  0.4402E+01
      8.076  0.5663E+00  0.4519E+01
      8.283  0.6272E+00  0.4650E+01
      8.490  0.4946E+00  0.4752E+01
      8.698  0.2150E+00  0.4797E+01
      8.905  0.2102E-01  0.4801E+01
      9.112 -0.4553E-02  0.4800E+01
      9.320 -0.3138E-03  0.4800E+01
      9.527 -0.2429E-05  0.4800E+01
      9.734 -0.2453E-08  0.4800E+01
      9.942 -0.3167E-12  0.4800E+01
     10.149 -0.4746E-17  0.4800E+01
     10.356  0.0000E+00  0.4800E+01
     10.564  0.0000E+00  0.4800E+01
     10.771  0.0000E+00  0.4800E+01
     10.978  0.0000E+00  0.4800E+01
     11.186  0.0000E+00  0.4800E+01
     11.393  0.0000E+00  0.4800E+01
     11.600  0.0000E+00  0.4800E+01
