   29   29   50    1
  0.1632129E+02  0.5473281E-09  0.8209921E-09  0.1128346E-08  0.5000000E-15
  1.000000000000000E-004
  CAR 
 Nb - Mo - Ta - Ti - V SQS               
    185    172    120
 
  0.0000000E+00  0.0000000E+00  0.0000000E+00  0.2915452E-02
    1      -47.773892   1.000000
    2      -47.760264   1.000000
    3      -47.654983   1.000000
    4      -47.506647   1.000000
    5      -47.304147   1.000000
    6      -24.346952   1.000000
    7      -24.184702   1.000000
    8      -24.112768   1.000000
    9      -23.936113   1.000000
   10      -23.928247   1.000000
   11      -23.879389   1.000000
   12      -23.877011   1.000000
   13      -23.800376   1.000000
   14      -23.701813   1.000000
   15      -23.674859   1.000000
   16      -23.618172   1.000000
   17      -23.509498   1.000000
   18      -23.489490   1.000000
   19      -23.434767   1.000000
   20      -22.997831   1.000000
   21       -0.414329   1.000000
   22        0.915050   1.000000
   23        1.291756   1.000000
   24        2.067584   1.000000
   25        2.155559   1.000000
   26        2.268456   1.000000
   27        2.351135   1.000000
   28        2.504890   1.000000
   29        2.526939   1.000000
   30        2.599204   1.000000
   31        2.611940   1.000000
   32        2.746701   1.000000
   33        2.787863   1.000000
   34        2.925292   1.000000
   35        2.982648   1.000000
   36        3.019795   1.000000
   37        3.111229   1.000000
   38        3.237767   1.000000
   39        3.267896   1.000000
   40        3.366550   1.000000
   41        3.385705   1.000000
   42        3.508173   1.000000
   43        3.543269   1.000000
   44        3.643472   1.000000
   45        3.663987   1.000000
   46        3.717846   1.000000
   47        3.844535   1.000000
   48        3.928797   1.000000
   49        3.985171   1.000000
   50        4.019447   1.000000
   51        4.114326   1.000000
   52        4.161548   1.000000
   53        4.261601   1.000000
   54        4.415885   1.000000
   55        4.427493   1.000000
   56        4.491788   1.000000
   57        4.531177   1.000000
   58        4.651610   1.000000
   59        4.676010   1.000000
   60        4.713802   1.000000
   61        4.785280   1.000000
   62        4.808866   1.000000
   63        4.844152   1.000000
   64        4.897206   1.000000
   65        4.955148   1.000000
   66        5.036053   1.000000
   67        5.070965   1.000000
   68        5.155291   1.000000
   69        5.260201   1.000000
   70        5.284785   1.000000
   71        5.321687   1.000000
   72        5.393474   1.000000
   73        5.473702   1.000000
   74        5.544024   1.000000
   75        5.611755   1.000000
   76        5.634290   1.000000
   77        5.700139   1.000001
   78        5.715392   1.000002
   79        5.793867   1.000029
   80        5.844016   1.000123
   81        5.879674   1.000316
   82        5.979574   1.003015
   83        5.991275   1.003778
   84        6.031114   1.007630
   85        6.181282   1.035238
   86        6.222638   1.030058
   87        6.229950   1.027097
   88        6.294836   0.958382
   89        6.369618   0.757359
   90        6.432881   0.504681
   91        6.567947   0.051115
   92        6.589654   0.015704
   93        6.637809  -0.026999
   94        6.718290  -0.030959
   95        6.771859  -0.019013
   96        6.801732  -0.012988
   97        6.890569  -0.002889
   98        6.976111  -0.000429
   99        7.101368  -0.000013
  100        7.195336  -0.000001
  101        7.290340  -0.000000
  102        7.364226  -0.000000
  103        7.492834  -0.000000
  104        7.578971  -0.000000
  105        7.726113  -0.000000
  106        7.872021  -0.000000
  107        7.948194  -0.000000
  108        8.099511  -0.000000
  109        8.201278  -0.000000
  110        8.272659  -0.000000
  111        8.300343  -0.000000
  112        8.348431  -0.000000
  113        8.355654  -0.000000
  114        8.426034  -0.000000
  115        8.482431  -0.000000
  116        8.503012  -0.000000
  117        8.597319  -0.000000
  118        8.636049  -0.000000
  119        8.670400  -0.000000
  120        8.714525  -0.000000
 
  0.1428571E+00  0.0000000E+00 -0.1561251E-16  0.5830904E-02
    1      -47.773517   1.000000
    2      -47.760065   1.000000
    3      -47.651768   1.000000
    4      -47.506474   1.000000
    5      -47.307927   1.000000
    6      -24.292897   1.000000
    7      -24.182438   1.000000
    8      -24.107821   1.000000
    9      -23.936241   1.000000
   10      -23.928596   1.000000
   11      -23.880405   1.000000
   12      -23.879529   1.000000
   13      -23.796824   1.000000
   14      -23.702691   1.000000
   15      -23.678093   1.000000
   16      -23.615609   1.000000
   17      -23.513759   1.000000
   18      -23.493645   1.000000
   19      -23.438338   1.000000
   20      -23.065256   1.000000
   21       -0.252393   1.000000
   22        1.061310   1.000000
   23        1.430438   1.000000
   24        2.067082   1.000000
   25        2.297924   1.000000
   26        2.384999   1.000000
   27        2.447702   1.000000
   28        2.571315   1.000000
   29        2.625043   1.000000
   30        2.649806   1.000000
   31        2.765787   1.000000
   32        2.830198   1.000000
   33        2.890721   1.000000
   34        3.014993   1.000000
   35        3.049203   1.000000
   36        3.079423   1.000000
   37        3.196833   1.000000
   38        3.297150   1.000000
   39        3.310522   1.000000
   40        3.382451   1.000000
   41        3.458578   1.000000
   42        3.516594   1.000000
   43        3.635916   1.000000
   44        3.686460   1.000000
   45        3.728821   1.000000
   46        3.768390   1.000000
   47        3.879705   1.000000
   48        3.926155   1.000000
   49        4.016090   1.000000
   50        4.126065   1.000000
   51        4.168274   1.000000
   52        4.213876   1.000000
   53        4.298289   1.000000
   54        4.388522   1.000000
   55        4.465700   1.000000
   56        4.518769   1.000000
   57        4.554802   1.000000
   58        4.678920   1.000000
   59        4.723419   1.000000
   60        4.768170   1.000000
   61        4.809359   1.000000
   62        4.874147   1.000000
   63        4.909720   1.000000
   64        4.932227   1.000000
   65        4.989604   1.000000
   66        5.057262   1.000000
   67        5.122140   1.000000
   68        5.192774   1.000000
   69        5.228327   1.000000
   70        5.298035   1.000000
   71        5.351812   1.000000
   72        5.398621   1.000000
   73        5.451837   1.000000
   74        5.475925   1.000000
   75        5.547548   1.000000
   76        5.586039   1.000000
   77        5.622770   1.000000
   78        5.680171   1.000001
   79        5.769109   1.000014
   80        5.805172   1.000041
   81        5.868596   1.000238
   82        5.930490   1.001071
   83        6.013674   1.005680
   84        6.071821   1.014019
   85        6.138441   1.028632
   86        6.169455   1.034169
   87        6.221826   1.030341
   88        6.266886   0.998581
   89        6.313586   0.920912
   90        6.362361   0.782601
   91        6.425545   0.535687
   92        6.492998   0.261947
   93        6.562060   0.062693
   94        6.653383  -0.032485
   95        6.713168  -0.031921
   96        6.761162  -0.021416
   97        6.818474  -0.010188
   98        6.972869  -0.000465
   99        7.009202  -0.000184
  100        7.034954  -0.000091
  101        7.156848  -0.000002
  102        7.183898  -0.000001
  103        7.337170  -0.000000
  104        7.457287  -0.000000
  105        7.530166  -0.000000
  106        7.684588  -0.000000
  107        7.798674  -0.000000
  108        7.908683  -0.000000
  109        7.980223  -0.000000
  110        8.025011  -0.000000
  111        8.080088  -0.000000
  112        8.158097  -0.000000
  113        8.231145  -0.000000
  114        8.258759  -0.000000
  115        8.280322  -0.000000
  116        8.292816  -0.000000
  117        8.389785  -0.000000
  118        8.510119  -0.000000
  119        8.561630  -0.000000
  120        8.593027  -0.000000
 
  0.2857143E+00  0.1387779E-16  0.3469447E-17  0.5830904E-02
    1      -47.772705   1.000000
    2      -47.759618   1.000000
    3      -47.644230   1.000000
    4      -47.506086   1.000000
    5      -47.316706   1.000000
    6      -24.177293   1.000000
    7      -24.171387   1.000000
    8      -24.066725   1.000000
    9      -23.936532   1.000000
   10      -23.928754   1.000000
   11      -23.885386   1.000000
   12      -23.881687   1.000000
   13      -23.788263   1.000000
   14      -23.705626   1.000000
   15      -23.684393   1.000000
   16      -23.609023   1.000000
   17      -23.523805   1.000000
   18      -23.503773   1.000000
   19      -23.446410   1.000000
   20      -23.248315   1.000000
   21        0.207443   1.000000
   22        1.451720   1.000000
   23        1.800169   1.000000
   24        2.178007   1.000000
   25        2.421490   1.000000
   26        2.557085   1.000000
   27        2.643982   1.000000
   28        2.754682   1.000000
   29        2.782035   1.000000
   30        2.894196   1.000000
   31        2.970138   1.000000
   32        3.060913   1.000000
   33        3.125203   1.000000
   34        3.162320   1.000000
   35        3.232562   1.000000
   36        3.294107   1.000000
   37        3.346512   1.000000
   38        3.365957   1.000000
   39        3.458345   1.000000
   40        3.523283   1.000000
   41        3.581979   1.000000
   42        3.690161   1.000000
   43        3.725716   1.000000
   44        3.750261   1.000000
   45        3.901139   1.000000
   46        3.959833   1.000000
   47        3.993942   1.000000
   48        4.058335   1.000000
   49        4.176532   1.000000
   50        4.220609   1.000000
   51        4.307358   1.000000
   52        4.346959   1.000000
   53        4.420677   1.000000
   54        4.457391   1.000000
   55        4.515087   1.000000
   56        4.569070   1.000000
   57        4.593307   1.000000
   58        4.723631   1.000000
   59        4.751301   1.000000
   60        4.813860   1.000000
   61        4.854062   1.000000
   62        4.907104   1.000000
   63        4.959941   1.000000
   64        5.003542   1.000000
   65        5.050163   1.000000
   66        5.105138   1.000000
   67        5.158720   1.000000
   68        5.215794   1.000000
   69        5.271491   1.000000
   70        5.287884   1.000000
   71        5.310228   1.000000
   72        5.371828   1.000000
   73        5.396651   1.000000
   74        5.466569   1.000000
   75        5.529648   1.000000
   76        5.585632   1.000000
   77        5.621886   1.000000
   78        5.672966   1.000001
   79        5.695226   1.000001
   80        5.762012   1.000011
   81        5.806092   1.000042
   82        5.838308   1.000105
   83        5.923139   1.000906
   84        5.979985   1.003040
   85        6.015640   1.005878
   86        6.085971   1.016836
   87        6.156336   1.032193
   88        6.186399   1.035432
   89        6.236435   1.023810
   90        6.306363   0.936387
   91        6.375920   0.734598
   92        6.432117   0.507913
   93        6.443130   0.461356
   94        6.493217   0.261147
   95        6.574388   0.039428
   96        6.621455  -0.017343
   97        6.647328  -0.030736
   98        6.686550  -0.035246
   99        6.803883  -0.012603
  100        6.875626  -0.003855
  101        6.937325  -0.001074
  102        6.971652  -0.000479
  103        7.046460  -0.000066
  104        7.155649  -0.000002
  105        7.269619  -0.000000
  106        7.281844  -0.000000
  107        7.390647  -0.000000
  108        7.481028  -0.000000
  109        7.568162  -0.000000
  110        7.667715  -0.000000
  111        7.735100  -0.000000
  112        7.839031  -0.000000
  113        7.890314  -0.000000
  114        7.953222  -0.000000
  115        8.037706  -0.000000
  116        8.133559  -0.000000
  117        8.146873  -0.000000
  118        8.239034  -0.000000
  119        8.327012  -0.000000
  120        8.416098  -0.000000
 
  0.4285714E+00  0.5551115E-16 -0.4163336E-16  0.5830904E-02
    1      -47.772083   1.000000
    2      -47.759260   1.000000
    3      -47.637838   1.000000
    4      -47.505775   1.000000
    5      -47.324065   1.000000
    6      -24.173107   1.000000
    7      -24.132971   1.000000
    8      -23.943380   1.000000
    9      -23.936451   1.000000
   10      -23.901455   1.000000
   11      -23.890019   1.000000
   12      -23.856488   1.000000
   13      -23.780459   1.000000
   14      -23.709234   1.000000
   15      -23.688200   1.000000
   16      -23.601490   1.000000
   17      -23.532464   1.000000
   18      -23.513792   1.000000
   19      -23.481106   1.000000
   20      -23.452913   1.000000
   21        0.874817   1.000000
   22        1.643691   1.000000
   23        2.109951   1.000000
   24        2.297247   1.000000
   25        2.379828   1.000000
   26        2.617693   1.000000
   27        2.751450   1.000000
   28        2.840401   1.000000
   29        2.985881   1.000000
   30        3.079505   1.000000
   31        3.095162   1.000000
   32        3.194042   1.000000
   33        3.241474   1.000000
   34        3.319798   1.000000
   35        3.354817   1.000000
   36        3.460624   1.000000
   37        3.528220   1.000000
   38        3.605986   1.000000
   39        3.630974   1.000000
   40        3.708770   1.000000
   41        3.759068   1.000000
   42        3.861388   1.000000
   43        3.884212   1.000000
   44        3.930665   1.000000
   45        4.013357   1.000000
   46        4.036446   1.000000
   47        4.129435   1.000000
   48        4.162438   1.000000
   49        4.232171   1.000000
   50        4.276026   1.000000
   51        4.362712   1.000000
   52        4.426294   1.000000
   53        4.459191   1.000000
   54        4.574535   1.000000
   55        4.596014   1.000000
   56        4.635184   1.000000
   57        4.700719   1.000000
   58        4.756167   1.000000
   59        4.782612   1.000000
   60        4.818590   1.000000
   61        4.834586   1.000000
   62        4.928642   1.000000
   63        4.961821   1.000000
   64        5.015645   1.000000
   65        5.050331   1.000000
   66        5.096474   1.000000
   67        5.125640   1.000000
   68        5.178731   1.000000
   69        5.225588   1.000000
   70        5.307834   1.000000
   71        5.341962   1.000000
   72        5.390017   1.000000
   73        5.423338   1.000000
   74        5.447663   1.000000
   75        5.510875   1.000000
   76        5.601022   1.000000
   77        5.618887   1.000000
   78        5.669065   1.000000
   79        5.714364   1.000002
   80        5.745610   1.000006
   81        5.812475   1.000051
   82        5.835335   1.000097
   83        5.896466   1.000481
   84        5.911401   1.000689
   85        5.973794   1.002689
   86        6.026844   1.007111
   87        6.052840   1.010711
   88        6.070867   1.013839
   89        6.126861   1.026039
   90        6.157763   1.032440
   91        6.223312   1.029816
   92        6.234280   1.024975
   93        6.334713   0.868097
   94        6.412835   0.588949
   95        6.482793   0.300145
   96        6.510394   0.201367
   97        6.578670   0.032217
   98        6.640672  -0.028257
   99        6.705121  -0.033262
  100        6.790992  -0.015014
  101        6.863095  -0.004858
  102        6.902624  -0.002267
  103        6.939357  -0.001026
  104        6.988241  -0.000317
  105        7.024011  -0.000123
  106        7.205548  -0.000000
  107        7.308479  -0.000000
  108        7.364166  -0.000000
  109        7.397785  -0.000000
  110        7.503848  -0.000000
  111        7.537131  -0.000000
  112        7.622681  -0.000000
  113        7.749709  -0.000000
  114        7.782096  -0.000000
  115        7.859250  -0.000000
  116        7.933994  -0.000000
  117        8.045502  -0.000000
  118        8.092744  -0.000000
  119        8.155511  -0.000000
  120        8.166188  -0.000000
 
 -0.6938894E-17  0.1428571E+00  0.1040834E-16  0.5830904E-02
    1      -47.773890   1.000000
    2      -47.760189   1.000000
    3      -47.654981   1.000000
    4      -47.506728   1.000000
    5      -47.304145   1.000000
    6      -24.346954   1.000000
    7      -24.181778   1.000000
    8      -24.112779   1.000000
    9      -23.936174   1.000000
   10      -23.928266   1.000000
   11      -23.879438   1.000000
   12      -23.877091   1.000000
   13      -23.800422   1.000000
   14      -23.701761   1.000000
   15      -23.674778   1.000000
   16      -23.618183   1.000000
   17      -23.509539   1.000000
   18      -23.489516   1.000000
   19      -23.438045   1.000000
   20      -22.997838   1.000000
   21       -0.346457   1.000000
   22        0.955415   1.000000
   23        1.348255   1.000000
   24        1.769862   1.000000
   25        2.214247   1.000000
   26        2.287548   1.000000
   27        2.342309   1.000000
   28        2.482623   1.000000
   29        2.533274   1.000000
   30        2.611835   1.000000
   31        2.689914   1.000000
   32        2.701869   1.000000
   33        2.774271   1.000000
   34        2.895480   1.000000
   35        2.944357   1.000000
   36        3.015778   1.000000
   37        3.106782   1.000000
   38        3.243474   1.000000
   39        3.304883   1.000000
   40        3.364342   1.000000
   41        3.435371   1.000000
   42        3.470876   1.000000
   43        3.558628   1.000000
   44        3.655183   1.000000
   45        3.687602   1.000000
   46        3.767174   1.000000
   47        3.839201   1.000000
   48        3.953892   1.000000
   49        3.970535   1.000000
   50        4.034025   1.000000
   51        4.109893   1.000000
   52        4.159280   1.000000
   53        4.315099   1.000000
   54        4.366626   1.000000
   55        4.473115   1.000000
   56        4.496673   1.000000
   57        4.568262   1.000000
   58        4.638212   1.000000
   59        4.690226   1.000000
   60        4.746961   1.000000
   61        4.790660   1.000000
   62        4.837797   1.000000
   63        4.868356   1.000000
   64        4.891349   1.000000
   65        4.994123   1.000000
   66        5.047109   1.000000
   67        5.079915   1.000000
   68        5.149663   1.000000
   69        5.226182   1.000000
   70        5.316178   1.000000
   71        5.368306   1.000000
   72        5.423353   1.000000
   73        5.463710   1.000000
   74        5.537336   1.000000
   75        5.575145   1.000000
   76        5.674952   1.000001
   77        5.690126   1.000001
   78        5.731899   1.000004
   79        5.801409   1.000036
   80        5.844870   1.000126
   81        5.902339   1.000555
   82        5.931723   1.001101
   83        5.962436   1.002135
   84        6.026168   1.007032
   85        6.100136   1.019906
   86        6.167965   1.033982
   87        6.188174   1.035455
   88        6.253567   1.011759
   89        6.331652   0.876441
   90        6.405103   0.620817
   91        6.444704   0.454724
   92        6.545074   0.100987
   93        6.602084   0.000308
   94        6.737428  -0.026878
   95        6.763908  -0.020791
   96        6.815397  -0.010669
   97        7.045453  -0.000068
   98        7.119243  -0.000007
   99        7.174304  -0.000001
  100        7.225044  -0.000000
  101        7.271694  -0.000000
  102        7.374286  -0.000000
  103        7.417238  -0.000000
  104        7.551455  -0.000000
  105        7.711992  -0.000000
  106        7.761286  -0.000000
  107        7.928897  -0.000000
  108        7.981722  -0.000000
  109        8.088385  -0.000000
  110        8.137661  -0.000000
  111        8.222423  -0.000000
  112        8.285859  -0.000000
  113        8.323912  -0.000000
  114        8.376454  -0.000000
  115        8.385766  -0.000000
  116        8.438744  -0.000000
  117        8.503792  -0.000000
  118        8.570140  -0.000000
  119        8.587294  -0.000000
  120        8.671882  -0.000000
 
  0.1428571E+00  0.1428571E+00 -0.1387779E-16  0.5830904E-02
    1      -47.773519   1.000000
    2      -47.760137   1.000000
    3      -47.651769   1.000000
    4      -47.506398   1.000000
    5      -47.307929   1.000000
    6      -24.292889   1.000000
    7      -24.185276   1.000000
    8      -24.107817   1.000000
    9      -23.936184   1.000000
   10      -23.928586   1.000000
   11      -23.880370   1.000000
   12      -23.879546   1.000000
   13      -23.796794   1.000000
   14      -23.702731   1.000000
   15      -23.678079   1.000000
   16      -23.615604   1.000000
   17      -23.513715   1.000000
   18      -23.493617   1.000000
   19      -23.435171   1.000000
   20      -23.065251   1.000000
   21       -0.250226   1.000000
   22        1.047864   1.000000
   23        1.441417   1.000000
   24        2.065626   1.000000
   25        2.282698   1.000000
   26        2.379544   1.000000
   27        2.440921   1.000000
   28        2.527330   1.000000
   29        2.587413   1.000000
   30        2.654438   1.000000
   31        2.703495   1.000000
   32        2.769231   1.000000
   33        2.871143   1.000000
   34        3.004386   1.000000
   35        3.071058   1.000000
   36        3.091506   1.000000
   37        3.162964   1.000000
   38        3.265816   1.000000
   39        3.327315   1.000000
   40        3.395189   1.000000
   41        3.467856   1.000000
   42        3.532618   1.000000
   43        3.658817   1.000000
   44        3.700467   1.000000
   45        3.746043   1.000000
   46        3.791957   1.000000
   47        3.894612   1.000000
   48        3.939544   1.000000
   49        4.064840   1.000000
   50        4.114016   1.000000
   51        4.166176   1.000000
   52        4.219573   1.000000
   53        4.307377   1.000000
   54        4.425492   1.000000
   55        4.481059   1.000000
   56        4.515418   1.000000
   57        4.586349   1.000000
   58        4.666493   1.000000
   59        4.705182   1.000000
   60        4.774338   1.000000
   61        4.805898   1.000000
   62        4.824482   1.000000
   63        4.881195   1.000000
   64        4.919282   1.000000
   65        4.997958   1.000000
   66        5.022464   1.000000
   67        5.088133   1.000000
   68        5.145464   1.000000
   69        5.196979   1.000000
   70        5.277765   1.000000
   71        5.363909   1.000000
   72        5.402416   1.000000
   73        5.446019   1.000000
   74        5.487018   1.000000
   75        5.519556   1.000000
   76        5.583381   1.000000
   77        5.643146   1.000000
   78        5.692129   1.000001
   79        5.715243   1.000002
   80        5.816692   1.000057
   81        5.852828   1.000157
   82        5.930131   1.001062
   83        5.991127   1.003767
   84        6.057678   1.011500
   85        6.139673   1.028899
   86        6.193915   1.035363
   87        6.222083   1.030252
   88        6.300820   0.947376
   89        6.334215   0.869470
   90        6.428154   0.524668
   91        6.443776   0.458632
   92        6.504510   0.221165
   93        6.571234   0.045023
   94        6.637728  -0.026961
   95        6.728836  -0.028783
   96        6.772930  -0.018778
   97        6.869741  -0.004303
   98        6.945751  -0.000887
   99        7.012501  -0.000168
  100        7.087529  -0.000019
  101        7.149250  -0.000003
  102        7.188127  -0.000001
  103        7.346698  -0.000000
  104        7.485040  -0.000000
  105        7.531670  -0.000000
  106        7.669901  -0.000000
  107        7.829556  -0.000000
  108        7.934638  -0.000000
  109        8.041958  -0.000000
  110        8.122469  -0.000000
  111        8.205174  -0.000000
  112        8.274813  -0.000000
  113        8.305798  -0.000000
  114        8.358332  -0.000000
  115        8.401453  -0.000000
  116        8.477206  -0.000000
  117        8.516556  -0.000000
  118        8.545309  -0.000000
  119        8.602183  -0.000000
  120        8.641427  -0.000000
 
  0.2857143E+00  0.1428571E+00  0.2775558E-16  0.5830904E-02
    1      -47.772710   1.000000
    2      -47.759782   1.000000
    3      -47.644233   1.000000
    4      -47.505911   1.000000
    5      -47.316710   1.000000
    6      -24.183806   1.000000
    7      -24.171377   1.000000
    8      -24.066706   1.000000
    9      -23.936398   1.000000
   10      -23.928728   1.000000
   11      -23.885373   1.000000
   12      -23.881583   1.000000
   13      -23.788186   1.000000
   14      -23.705702   1.000000
   15      -23.684441   1.000000
   16      -23.609006   1.000000
   17      -23.523705   1.000000
   18      -23.503713   1.000000
   19      -23.439145   1.000000
   20      -23.248300   1.000000
   21        0.149424   1.000000
   22        1.381541   1.000000
   23        1.762435   1.000000
   24        2.299827   1.000000
   25        2.372539   1.000000
   26        2.514782   1.000000
   27        2.660245   1.000000
   28        2.737187   1.000000
   29        2.763615   1.000000
   30        2.866068   1.000000
   31        2.926250   1.000000
   32        2.985675   1.000000
   33        3.094157   1.000000
   34        3.192123   1.000000
   35        3.246236   1.000000
   36        3.319306   1.000000
   37        3.352944   1.000000
   38        3.398010   1.000000
   39        3.465188   1.000000
   40        3.512831   1.000000
   41        3.601119   1.000000
   42        3.643304   1.000000
   43        3.772961   1.000000
   44        3.795373   1.000000
   45        3.898683   1.000000
   46        3.934945   1.000000
   47        3.976063   1.000000
   48        4.099756   1.000000
   49        4.155369   1.000000
   50        4.237355   1.000000
   51        4.286123   1.000000
   52        4.318294   1.000000
   53        4.382047   1.000000
   54        4.467976   1.000000
   55        4.546359   1.000000
   56        4.582218   1.000000
   57        4.605444   1.000000
   58        4.712609   1.000000
   59        4.761596   1.000000
   60        4.822575   1.000000
   61        4.839700   1.000000
   62        4.883801   1.000000
   63        4.931888   1.000000
   64        4.962988   1.000000
   65        5.028372   1.000000
   66        5.097022   1.000000
   67        5.129666   1.000000
   68        5.190814   1.000000
   69        5.212801   1.000000
   70        5.231699   1.000000
   71        5.305424   1.000000
   72        5.346777   1.000000
   73        5.420461   1.000000
   74        5.457466   1.000000
   75        5.517968   1.000000
   76        5.556341   1.000000
   77        5.632025   1.000000
   78        5.669596   1.000000
   79        5.696518   1.000001
   80        5.773327   1.000016
   81        5.820506   1.000064
   82        5.892371   1.000435
   83        5.945858   1.001503
   84        5.983917   1.003282
   85        6.046575   1.009745
   86        6.068765   1.013448
   87        6.125554   1.025739
   88        6.174309   1.034703
   89        6.212494   1.032985
   90        6.306335   0.936443
   91        6.318117   0.910531
   92        6.385223   0.699693
   93        6.414096   0.583707
   94        6.502570   0.227851
   95        6.570571   0.046231
   96        6.609190  -0.007021
   97        6.672671  -0.035300
   98        6.715191  -0.031550
   99        6.807574  -0.011960
  100        6.866596  -0.004559
  101        6.943512  -0.000934
  102        7.022901  -0.000127
  103        7.128180  -0.000005
  104        7.168671  -0.000001
  105        7.312753  -0.000000
  106        7.411874  -0.000000
  107        7.463111  -0.000000
  108        7.727822  -0.000000
  109        7.773472  -0.000000
  110        7.864584  -0.000000
  111        7.882808  -0.000000
  112        8.014396  -0.000000
  113        8.042089  -0.000000
  114        8.124779  -0.000000
  115        8.135623  -0.000000
  116        8.206708  -0.000000
  117        8.263463  -0.000000
  118        8.306900  -0.000000
  119        8.411832  -0.000000
  120        8.476592  -0.000000
 
  0.4285714E+00  0.1428571E+00 -0.2081668E-16  0.5830904E-02
    1      -47.772086   1.000000
    2      -47.759391   1.000000
    3      -47.637840   1.000000
    4      -47.505635   1.000000
    5      -47.324069   1.000000
    6      -24.178412   1.000000
    7      -24.132965   1.000000
    8      -23.943373   1.000000
    9      -23.936340   1.000000
   10      -23.901362   1.000000
   11      -23.890021   1.000000
   12      -23.856464   1.000000
   13      -23.780397   1.000000
   14      -23.709270   1.000000
   15      -23.688250   1.000000
   16      -23.601476   1.000000
   17      -23.532382   1.000000
   18      -23.513746   1.000000
   19      -23.481090   1.000000
   20      -23.447015   1.000000
   21        0.785226   1.000000
   22        1.679733   1.000000
   23        2.040848   1.000000
   24        2.215343   1.000000
   25        2.392634   1.000000
   26        2.477989   1.000000
   27        2.755880   1.000000
   28        2.963203   1.000000
   29        3.014835   1.000000
   30        3.104130   1.000000
   31        3.159515   1.000000
   32        3.205041   1.000000
   33        3.240926   1.000000
   34        3.330332   1.000000
   35        3.376420   1.000000
   36        3.452336   1.000000
   37        3.494155   1.000000
   38        3.594133   1.000000
   39        3.649392   1.000000
   40        3.736341   1.000000
   41        3.767310   1.000000
   42        3.793189   1.000000
   43        3.929519   1.000000
   44        3.938684   1.000000
   45        3.995185   1.000000
   46        4.053917   1.000000
   47        4.105377   1.000000