 running on   96 total cores
 distrk:  each k-point on   96 cores,    1 groups
 distr:  one band on    8 cores,   12 groups
 using from now: INCAR     
 vasp.5.4.4.18Apr17-6-g9f103f2a35 (build Aug 09 2018 16:20:53) complex          
  
 POSCAR found :  5 types and      29 ions
 scaLAPACK will be used

 ----------------------------------------------------------------------------- 
|                                                                             |
|  ADVICE TO THIS USER RUNNING 'VASP/VAMP'   (HEAR YOUR MASTER'S VOICE ...):  |
|                                                                             |
|      You enforced a specific xc-type in the INCAR file,                     |
|      a different type was found on the POTCAR file                          |
|          I HOPE YOU KNOW, WHAT YOU ARE  DOING                               |
|                                                                             |
 ----------------------------------------------------------------------------- 

 LDA part: xc-table for Pade appr. of Perdew
 POSCAR found :  5 types and      29 ions
 POSCAR, INCAR and KPOINTS ok, starting setup
 FFT: planning ...
 WAVECAR not read
 initial charge from wavefunction
 entering main loop
       N       E                     dE             d eps       ncg     rms          rms(c)
DAV:   1    -0.327724801075E+04   -0.32772E+04   -0.14384E+05 54744   0.185E+03
DAV:   2    -0.876054310024E+04   -0.54833E+04   -0.52173E+04 72168   0.111E+03
DAV:   3    -0.980661996497E+04   -0.10461E+04   -0.10050E+04 82560   0.537E+02
DAV:   4    -0.101434977469E+05   -0.33688E+03   -0.31797E+03 82560   0.241E+02
DAV:   5    -0.103086547669E+05   -0.16516E+03   -0.15780E+03 82560   0.178E+02BRMIX: very serious problems
 the old and the new charge density differ
 old charge density:   184.50000 new  185.00000
    0.871E+03
DAV:   6    -0.156567901475E+04    0.87430E+04   -0.41293E+04 68616   0.712E+02    0.374E+03
DAV:   7    -0.797884766303E+03    0.76779E+03   -0.14585E+04 70896   0.575E+02    0.281E+03
DAV:   8    -0.622204085164E+03    0.17568E+03   -0.60497E+03 74508   0.367E+02    0.248E+03
DAV:   9    -0.548997390554E+03    0.73207E+02   -0.10043E+03 72792   0.109E+02    0.236E+03
DAV:  10    -0.531124881603E+03    0.17873E+02   -0.36348E+02 77508   0.767E+01    0.228E+03
DAV:  11    -0.532839869712E+03   -0.17150E+01   -0.11298E+03 70848   0.690E+01    0.198E+03
DAV:  12    -0.564415558390E+03   -0.31576E+02   -0.50102E+03 76560   0.428E+02    0.172E+03
DAV:  13    -0.549892821786E+03    0.14523E+02   -0.26751E+03 75684   0.296E+02    0.118E+03
DAV:  14    -0.472750267041E+03    0.77143E+02   -0.21580E+03 62088   0.245E+02    0.567E+02
DAV:  15    -0.433887388725E+03    0.38863E+02   -0.16200E+03 79956   0.117E+02    0.214E+02
DAV:  16    -0.384380779935E+03    0.49507E+02   -0.60699E+02 74844   0.823E+01    0.156E+02
DAV:  17    -0.372022645456E+03    0.12358E+02   -0.15028E+02 76056   0.452E+01    0.153E+02
DAV:  18    -0.370896500851E+03    0.11261E+01   -0.51291E+01 76572   0.299E+01    0.150E+02
DAV:  19    -0.377853499543E+03   -0.69570E+01   -0.99644E+01 70644   0.470E+01    0.132E+02
DAV:  20    -0.353844030671E+03    0.24009E+02   -0.56544E+01 79032   0.406E+01    0.110E+02
DAV:  21    -0.349927367809E+03    0.39167E+01   -0.13313E+02 72096   0.580E+01    0.115E+02
DAV:  22    -0.328864236791E+03    0.21063E+02   -0.84806E+01 80004   0.419E+01    0.927E+01
DAV:  23    -0.314665887305E+03    0.14198E+02   -0.51580E+01 75360   0.339E+01    0.714E+01
DAV:  24    -0.315670645282E+03   -0.10048E+01   -0.26314E+01 69780   0.268E+01    0.709E+01
DAV:  25    -0.315280964017E+03    0.38968E+00   -0.46842E+00 79668   0.934E+00    0.673E+01
DAV:  26    -0.315602719775E+03   -0.32176E+00   -0.35444E-01 77100   0.188E+00    0.678E+01
DAV:  27    -0.312528330814E+03    0.30744E+01   -0.90094E+00 70320   0.136E+01    0.585E+01
DAV:  28    -0.308382311619E+03    0.41460E+01   -0.12437E+01 72720   0.159E+01    0.463E+01
DAV:  29    -0.306728697198E+03    0.16536E+01   -0.94712E+00 71820   0.134E+01    0.356E+01
DAV:  30    -0.306542826195E+03    0.18587E+00   -0.48961E+00 68952   0.734E+00    0.295E+01
DAV:  31    -0.305968795580E+03    0.57403E+00   -0.92416E+00 67872   0.148E+01    0.190E+01
DAV:  32    -0.306088612507E+03   -0.11982E+00   -0.38244E+00 74736   0.668E+00    0.158E+01
DAV:  33    -0.306272069043E+03   -0.18346E+00   -0.97096E-01 71472   0.344E+00    0.155E+01
DAV:  34    -0.305703575905E+03    0.56849E+00   -0.68933E-01 70716   0.226E+00    0.145E+01
DAV:  35    -0.305915862667E+03   -0.21229E+00   -0.20806E+00 75876   0.525E+00    0.155E+01
DAV:  36    -0.305058338566E+03    0.85752E+00   -0.14791E+00 73344   0.414E+00    0.141E+01
DAV:  37    -0.304954464317E+03    0.10387E+00   -0.31441E-01 71484   0.163E+00    0.126E+01
DAV:  38    -0.304975330584E+03   -0.20866E-01   -0.87276E-02 71340   0.113E+00    0.127E+01
DAV:  39    -0.304713932794E+03    0.26140E+00   -0.17230E-01 68028   0.174E+00    0.111E+01
DAV:  40    -0.304478016172E+03    0.23592E+00   -0.34795E-01 64848   0.255E+00    0.712E+00
DAV:  41    -0.304400345484E+03    0.77671E-01   -0.12807E-01 73500   0.134E+00    0.525E+00
DAV:  42    -0.304346869984E+03    0.53475E-01   -0.20293E-01 70692   0.180E+00    0.270E+00
DAV:  43    -0.304343509155E+03    0.33608E-02   -0.44816E-02 75264   0.871E-01    0.194E+00
DAV:  44    -0.304336913282E+03    0.65959E-02   -0.10506E-02 69972   0.455E-01    0.157E+00
DAV:  45    -0.304337253819E+03   -0.34054E-03   -0.10217E-02 66540   0.411E-01    0.125E+00
DAV:  46    -0.304332697592E+03    0.45562E-02   -0.66623E-03 61884   0.356E-01    0.868E-01
DAV:  47    -0.304330889038E+03    0.18086E-02   -0.18655E-03 64296   0.155E-01    0.636E-01
DAV:  48    -0.304330069870E+03    0.81917E-03   -0.13504E-03 62724   0.149E-01    0.461E-01
DAV:  49    -0.304329174366E+03    0.89550E-03   -0.11459E-03 57780   0.132E-01    0.301E-01
DAV:  50    -0.304328918036E+03    0.25633E-03   -0.23438E-04 30840   0.739E-02    0.227E-01
DAV:  51    -0.304328768250E+03    0.14979E-03   -0.35577E-03 60276   0.234E-01    0.222E-01
DAV:  52    -0.304328658683E+03    0.10957E-03   -0.29878E-04 38304   0.865E-02    0.162E-01
DAV:  53    -0.304328647954E+03    0.10729E-04   -0.15434E-04 29028   0.391E-02
   1 F= -.30432865E+03 E0= -.30432118E+03  d E =-.304329E+03
 curvature:   0.00 expect dE= 0.000E+00 dE for cont linesearch  0.000E+00
 trial: gam= 0.00000 g(F)=  0.730E+00 g(S)=  0.249E+00 ort = 0.000E+00 (trialstep = 0.100E+01)
 search vector abs. value=  0.979E+00
 bond charge predicted
       N       E                     dE             d eps       ncg     rms          rms(c)
DAV:   1    -0.305298239696E+03   -0.96958E+00   -0.11061E+02 42192   0.411E+01    0.103E+01
DAV:   2    -0.307125357017E+03   -0.18271E+01   -0.23722E+01 74568   0.251E+01    0.113E+01
DAV:   3    -0.305893555887E+03    0.12318E+01   -0.17422E+01 73992   0.171E+01    0.910E+00
DAV:   4    -0.305638667263E+03    0.25489E+00   -0.11022E+01 70704   0.160E+01    0.793E+00
DAV:   5    -0.305140006376E+03    0.49866E+00   -0.55987E+00 76464   0.108E+01    0.491E+00
DAV:   6    -0.305026135005E+03    0.11387E+00   -0.28530E+00 73092   0.738E+00    0.422E+00
DAV:   7    -0.304905854253E+03    0.12028E+00   -0.15257E+00 72444   0.556E+00    0.246E+00
DAV:   8    -0.304892571647E+03    0.13283E-01   -0.71954E-01 75732   0.351E+00    0.207E+00
DAV:   9    -0.304865665160E+03    0.26906E-01   -0.32097E-01 71892   0.235E+00    0.119E+00
DAV:  10    -0.304860092303E+03    0.55729E-02   -0.10760E-01 72036   0.146E+00    0.952E-01
DAV:  11    -0.304859108055E+03    0.98425E-03   -0.53170E-02 72636   0.105E+00    0.739E-01
DAV:  12    -0.304861133231E+03   -0.20252E-02   -0.26976E-02 76824   0.658E-01    0.444E-01
DAV:  13    -0.304864103931E+03   -0.29707E-02   -0.35027E-02 73524   0.765E-01    0.515E-01
DAV:  14    -0.304862460700E+03    0.16432E-02   -0.28536E-02 68892   0.785E-01    0.279E-01
DAV:  15    -0.304861661659E+03    0.79904E-03   -0.72359E-03 69840   0.366E-01    0.101E-01
DAV:  16    -0.304861627086E+03    0.34573E-04   -0.23377E-03 64128   0.166E-01    0.942E-02
DAV:  17    -0.304861563745E+03    0.63341E-04   -0.74410E-04 51228   0.106E-01
   2 F= -.30486156E+03 E0= -.30485541E+03  d E =-.532916E+00
 trial-energy change:   -0.532916  1 .order   -0.527632   -0.979315   -0.075949
 step:   1.0810(harm=  1.0841)  dis= 0.05732  next Energy=  -304.864642 (dE=-0.536E+00)
 bond charge predicted
       N       E                     dE             d eps       ncg     rms          rms(c)
DAV:   1    -0.304866093412E+03   -0.44663E-02   -0.73693E-01 47772   0.339E+00    0.806E-01
DAV:   2    -0.304878270111E+03   -0.12177E-01   -0.15258E-01 73656   0.194E+00    0.962E-01
DAV:   3    -0.304869824530E+03    0.84456E-02   -0.11810E-01 73920   0.148E+00    0.674E-01
DAV:   4    -0.304869117299E+03    0.70723E-03   -0.63775E-02 71760   0.113E+00    0.661E-01
DAV:   5    -0.304866159605E+03    0.29577E-02   -0.39986E-02 74064   0.881E-01    0.456E-01
DAV:   6    -0.304864999217E+03    0.11604E-02   -0.20906E-02 68748   0.631E-01    0.352E-01
DAV:   7    -0.304864133456E+03    0.86576E-03   -0.10162E-02 66420   0.459E-01    0.191E-01
DAV:   8    -0.304864090297E+03    0.43160E-04   -0.43924E-03 69252   0.284E-01    0.174E-01
DAV:   9    -0.304863928178E+03    0.16212E-03   -0.21779E-03 62592   0.208E-01    0.104E-01
DAV:  10    -0.304863858314E+03    0.69865E-04   -0.48682E-04 40884   0.115E-01
   3 F= -.30486386E+03 E0= -.30485786E+03  d E =-.535210E+00
 curvature:  -0.54 expect dE=-0.648E+00 dE for cont linesearch -0.233E-04
 trial: gam= 1.22959 g(F)=  0.343E+00 g(S)=  0.855E+00 ort =-0.649E-02 (trialstep = 0.374E+00)
 search vector abs. value=  0.266E+01
 bond charge predicted
       N       E                     dE             d eps       ncg     rms          rms(c)
DAV:   1    -0.305024080932E+03   -0.16015E+00   -0.40490E+01 41280   0.217E+01    0.323E+00
DAV:   2    -0.305793036501E+03   -0.76896E+00   -0.65194E+00 71076   0.122E+01    0.644E+00
DAV:   3    -0.305299450363E+03    0.49359E+00   -0.36078E+00 74208   0.840E+00    0.283E+00
DAV:   4    -0.305309797085E+03   -0.10347E-01   -0.10894E+00 70380   0.488E+00    0.293E+00
DAV:   5    -0.305236521737E+03    0.73275E-01   -0.52787E-01 69696   0.336E+00    0.139E+00
DAV:   6    -0.305234459901E+03    0.20618E-02   -0.25034E-01 68700   0.223E+00    0.149E+00
DAV:   7    -0.305221936953E+03    0.12523E-01   -0.18242E-01 69780   0.197E+00    0.935E-01
DAV:   8    -0.305219632064E+03    0.23049E-02   -0.10095E-01 73728   0.127E+00    0.732E-01
DAV:   9    -0.305214838930E+03    0.47931E-02   -0.56547E-02 73332   0.950E-01    0.448E-01
DAV:  10    -0.305213437211E+03    0.14017E-02   -0.16240E-02 62568   0.609E-01    0.282E-01
DAV:  11    -0.305212996461E+03    0.44075E-03   -0.47172E-03 67476   0.272E-01    0.170E-01
DAV:  12    -0.305213029648E+03   -0.33187E-04   -0.15832E-03 62916   0.150E-01    0.140E-01
DAV:  13    -0.305213147352E+03   -0.11770E-03   -0.18980E-03 61548   0.190E-01    0.127E-01
DAV:  14    -0.305213165376E+03   -0.18024E-04   -0.22107E-03 57204   0.237E-01    0.115E-01
DAV:  15    -0.305213037889E+03    0.12749E-03   -0.12689E-03 56076   0.175E-01    0.455E-02
DAV:  16    -0.305212997621E+03    0.40268E-04   -0.18102E-04 27912   0.795E-02
   4 F= -.30521300E+03 E0= -.30520843E+03  d E =-.349139E+00
 trial-energy change:   -0.349139  1 .order   -0.349509   -0.444706   -0.254312
 step:   0.8731(harm=  0.8731)  dis= 0.09274  next Energy=  -305.383212 (dE=-0.519E+00)
 bond charge predicted
       N       E                     dE             d eps       ncg     rms          rms(c)
DAV:   1    -0.305047136724E+03    0.16590E+00   -0.72174E+01 41280   0.291E+01    0.426E+00
DAV:   2    -0.306407389084E+03   -0.13603E+01   -0.11683E+01 72348   0.165E+01    0.835E+00
DAV:   3    -0.305532883194E+03    0.87451E+00   -0.60843E+00 73836   0.108E+01    0.366E+00
DAV:   4    -0.305553668070E+03   -0.20785E-01   -0.19032E+00 69264   0.647E+00    0.381E+00
DAV:   5    -0.305424335610E+03    0.12933E+00   -0.88928E-01 69816   0.443E+00    0.165E+00
DAV:   6    -0.305421650244E+03    0.26854E-02   -0.36627E-01 69876   0.272E+00    0.183E+00
DAV:   7    -0.305405005643E+03    0.16645E-01   -0.29364E-01 69504   0.254E+00    0.125E+00
DAV:   8    -0.305399141223E+03    0.58644E-02   -0.15905E-01 73344   0.164E+00    0.864E-01
DAV:   9    -0.305391588746E+03    0.75525E-02   -0.84787E-02 72276   0.107E+00    0.500E-01
DAV:  10    -0.305390282109E+03    0.13066E-02   -0.24339E-02 66912   0.721E-01    0.381E-01
DAV:  11    -0.305389555305E+03    0.72680E-03   -0.80181E-03 66612   0.392E-01    0.225E-01
DAV:  12    -0.305389689721E+03   -0.13442E-03   -0.32154E-03 67500   0.221E-01    0.194E-01
DAV:  13    -0.305389868141E+03   -0.17842E-03   -0.40462E-03 64044   0.276E-01    0.178E-01
DAV:  14    -0.305389860465E+03    0.76764E-05   -0.39384E-03 60864   0.311E-01    0.143E-01
DAV:  15    -0.305389655732E+03    0.20473E-03   -0.21529E-03 64392   0.210E-01    0.548E-02
DAV:  16    -0.305389593474E+03    0.62258E-04   -0.31184E-04 35688   0.897E-02
   5 F= -.30538959E+03 E0= -.30538610E+03  d E =-.525735E+00
 curvature:  -0.98 expect dE=-0.215E+00 dE for cont linesearch -0.248E-03
 trial: gam= 0.03819 g(F)=  0.201E+00 g(S)=  0.192E-01 ort = 0.260E-01 (trialstep = 0.474E+00)
 search vector abs. value=  0.226E+00
 bond charge predicted
       N       E                     dE             d eps       ncg     rms          rms(c)
DAV:   1    -0.305453823382E+03   -0.64168E-01   -0.58999E+00 41280   0.834E+00    0.137E+00
DAV:   2    -0.305547797920E+03   -0.93975E-01   -0.87420E-01 70668   0.483E+00    0.242E+00
DAV:   3    -0.305496442435E+03    0.51355E-01   -0.50462E-01 72972   0.348E+00    0.125E+00
DAV:   4    -0.305491015696E+03    0.54267E-02   -0.16272E-01 70020   0.172E+00    0.103E+00
DAV:   5    -0.305486395882E+03    0.46198E-02   -0.11251E-01 64512   0.150E+00    0.894E-01
DAV:   6    -0.305480248107E+03    0.61478E-02   -0.55949E-02 72600   0.107E+00    0.402E-01
DAV:   7    -0.305480001575E+03    0.24653E-03   -0.25177E-02 75300   0.704E-01    0.399E-01
DAV:   8    -0.305479053024E+03    0.94855E-03   -0.17402E-02 68568   0.605E-01    0.261E-01
DAV:   9    -0.305478461545E+03    0.59148E-03   -0.47227E-03 66636   0.318E-01    0.141E-01
DAV:  10    -0.305478310954E+03    0.15059E-03   -0.14773E-03 62424   0.141E-01    0.100E-01
DAV:  11    -0.305478362386E+03   -0.51432E-04   -0.90203E-04 53244   0.133E-01
   6 F= -.30547836E+03 E0= -.30547443E+03  d E =-.887689E-01
 trial-energy change:   -0.088769  1 .order   -0.089159   -0.104765   -0.073553
 step:   1.5899(harm=  1.5899)  dis= 0.04943  next Energy=  -305.565418 (dE=-0.176E+00)
 bond charge predicted
       N       E                     dE             d eps       ncg     rms          rms(c)
DAV:   1    -0.305425242832E+03    0.53068E-01   -0.32817E+01 41280   0.198E+01    0.316E+00
DAV:   2    -0.305927452749E+03   -0.50221E+00   -0.47096E+00 70596   0.112E+01    0.557E+00
DAV:   3    -0.305654766140E+03    0.27269E+00   -0.26809E+00 73980   0.801E+00    0.285E+00
DAV:   4    -0.305630700456E+03    0.24066E-01   -0.89228E-01 70032   0.409E+00    0.235E+00
DAV:   5    -0.305601329398E+03    0.29371E-01   -0.55654E-01 65280   0.328E+00    0.198E+00
DAV:   6    -0.305572245673E+03    0.29084E-01   -0.29388E-01 72336   0.244E+00    0.920E-01
DAV:   7    -0.305569816979E+03    0.24287E-02   -0.12651E-01 76920   0.150E+00    0.853E-01
DAV:   8    -0.305566054095E+03    0.37629E-02   -0.90842E-02 71328   0.134E+00    0.631E-01
DAV:   9    -0.305562723869E+03    0.33302E-02   -0.27166E-02 72168   0.776E-01    0.329E-01
DAV:  10    -0.305561942908E+03    0.78096E-03   -0.79701E-03 68940   0.311E-01    0.228E-01
DAV:  11    -0.305562372472E+03   -0.42956E-03   -0.51462E-03 64128   0.301E-01    0.259E-01
DAV:  12    -0.305562211223E+03    0.16125E-03   -0.39761E-03 62364   0.286E-01    0.135E-01
DAV:  13    -0.305562341156E+03   -0.12993E-03   -0.27295E-03 69348   0.230E-01    0.136E-01
DAV:  14    -0.305562238105E+03    0.10305E-03   -0.26313E-03 64452   0.239E-01    0.962E-02
DAV:  15    -0.305562149892E+03    0.88213E-04   -0.82338E-04 52152   0.137E-01
   7 F= -.30556215E+03 E0= -.30555732E+03  d E =-.172556E+00
 curvature:  -0.81 expect dE=-0.232E+00 dE for cont linesearch -0.334E-06
 trial: gam= 1.29784 g(F)=  0.559E-01 g(S)=  0.229E+00 ort = 0.305E-03 (trialstep = 0.236E+00)
 search vector abs. value=  0.667E+00
 bond charge predicted
       N       E                     dE             d eps       ncg     rms          rms(c)
DAV:   1    -0.305611510137E+03   -0.49272E-01   -0.42963E+00 41280   0.770E+00    0.158E+00
DAV:   2    -0.305679697208E+03   -0.68187E-01   -0.76489E-01 71940   0.452E+00    0.223E+00
DAV:   3    -0.305643388009E+03    0.36309E-01   -0.50909E-01 71448   0.346E+00    0.141E+00
DAV:   4    -0.305633780082E+03    0.96079E-02   -0.22002E-01 70980   0.201E+00    0.108E+00
DAV:   5    -0.305625503631E+03    0.82765E-02   -0.12670E-01 73764   0.152E+00    0.838E-01
DAV:   6    -0.305620326797E+03    0.51768E-02   -0.66115E-02 71880   0.119E+00    0.482E-01
DAV:   7    -0.305618654198E+03    0.16726E-02   -0.26627E-02 77748   0.696E-01    0.298E-01
DAV:   8    -0.305618481706E+03    0.17249E-03   -0.11217E-02 73020   0.434E-01    0.263E-01
DAV:   9    -0.305618060554E+03    0.42115E-03   -0.50808E-03 62460   0.340E-01    0.170E-01
DAV:  10    -0.305617936196E+03    0.12436E-03   -0.19640E-03 63264   0.188E-01    0.113E-01
DAV:  11    -0.305618026940E+03   -0.90744E-04   -0.82904E-04 53220   0.110E-01
   8 F= -.30561803E+03 E0= -.30561314E+03  d E =-.558770E-01
 trial-energy change:   -0.055877  1 .order   -0.056941   -0.067482   -0.046400
 step:   0.7563(harm=  0.7563)  dis= 0.04057  next Energy=  -305.670149 (dE=-0.108E+00)
 bond charge predicted
       N       E                     dE             d eps       ncg     rms          rms(c)
DAV:   1    -0.305624359238E+03   -0.64230E-02   -0.20733E+01 41280   0.169E+01    0.353E+00
DAV:   2    -0.305929908438E+03   -0.30555E+00   -0.36239E+00 71760   0.100E+01    0.460E+00
DAV:   3    -0.305780274895E+03    0.14963E+00   -0.22930E+00 70656   0.745E+00    0.312E+00
DAV:   4    -0.305722692541E+03    0.57582E-01   -0.10459E+00 70800   0.460E+00    0.216E+00
DAV:   5    -0.305689828048E+03    0.32864E-01   -0.55633E-01 74916   0.321E+00    0.176E+00
DAV:   6    -0.305667075860E+03    0.22752E-01   -0.30227E-01 71220   0.257E+00    0.102E+00
DAV:   7    -0.305659507997E+03    0.75679E-02   -0.11617E-01 77652   0.148E+00    0.625E-01
DAV:   8    -0.305658673370E+03    0.83463E-03   -0.46833E-02 74424   0.873E-01    0.517E-01
DAV:   9    -0.305657093779E+03    0.15796E-02   -0.19298E-02 70512   0.631E-01    0.357E-01
DAV:  10    -0.305656927846E+03    0.16593E-03   -0.91032E-03 67560   0.415E-01    0.281E-01
DAV:  11    -0.305657497502E+03   -0.56966E-03   -0.54086E-03 68496   0.308E-01    0.237E-01
DAV:  12    -0.305657562448E+03   -0.64946E-04   -0.59107E-03 71712   0.365E-01    0.171E-01
DAV:  13    -0.305657482970E+03    0.79478E-04   -0.37257E-03 67248   0.269E-01    0.110E-01
DAV:  14    -0.305657399558E+03    0.83412E-04   -0.17180E-03 63096   0.181E-01    0.700E-02
DAV:  15    -0.305657370530E+03    0.29028E-04   -0.51086E-04 43764   0.125E-01
   9 F= -.30565737E+03 E0= -.30565265E+03  d E =-.952206E-01
 curvature:  -0.88 expect dE=-0.117E+00 dE for cont linesearch -0.206E-02
 ZBRENT: interpolating
 opt :   0.6694  next Energy=  -305.659083 (dE=-0.969E-01)
 bond charge predicted
       N       E                     dE             d eps       ncg     rms          rms(c)
DAV:   1    -0.305658404768E+03   -0.10052E-02   -0.58598E-01 41652   0.286E+00    0.599E-01
DAV:   2    -0.305668158135E+03   -0.97534E-02   -0.10769E-01 70788   0.173E+00    0.881E-01
DAV:   3    -0.305662591941E+03    0.55662E-02   -0.73561E-02 69828   0.136E+00    0.511E-01
DAV:   4    -0.305661196632E+03    0.13953E-02   -0.27876E-02 69900   0.701E-01    0.374E-01
DAV:   5    -0.305660201784E+03    0.99485E-03   -0.17038E-02 69960   0.576E-01    0.313E-01
DAV:   6    -0.305659446869E+03    0.75491E-03   -0.91392E-03 70680   0.442E-01    0.173E-01
DAV:   7    -0.305659220810E+03    0.22606E-03   -0.35978E-03 69480   0.258E-01    0.109E-01
DAV:   8    -0.305659181584E+03    0.39226E-04   -0.16209E-03 63588   0.164E-01    0.906E-02
DAV:   9    -0.305659112130E+03    0.69454E-04   -0.58827E-04 44244   0.124E-01
  10 F= -.30565911E+03 E0= -.30565434E+03  d E =-.969622E-01
 curvature:  -0.74 expect dE=-0.736E-01 dE for cont linesearch -0.415E-08
 trial: gam= 0.32438 g(F)=  0.884E-01 g(S)=  0.116E-01 ort = 0.614E-04 (trialstep = 0.323E+00)
 search vector abs. value=  0.170E+00
 bond charge predicted
       N       E                     dE             d eps       ncg     rms          rms(c)
DAV:   1    -0.305676413569E+03   -0.17232E-01   -0.20933E+00 42120   0.479E+00    0.496E-01
DAV:   2    -0.305715213292E+03   -0.38800E-01   -0.28910E-01 69048   0.290E+00    0.149E+00
DAV:   3    -0.305691250082E+03    0.23963E-01   -0.13440E-01 68832   0.186E+00    0.369E-01
DAV:   4    -0.305691428078E+03   -0.17800E-03   -0.22996E-02 69540   0.713E-01    0.399E-01
DAV:   5    -0.305689941416E+03    0.14867E-02   -0.11293E-02 67212   0.518E-01    0.195E-01
DAV:   6    -0.305689800109E+03    0.14131E-03   -0.37443E-03 65952   0.287E-01    0.176E-01
DAV:   7    -0.305689708812E+03    0.91297E-04   -0.27623E-03 61824   0.258E-01    0.142E-01
DAV:   8    -0.305689639865E+03    0.68947E-04   -0.24424E-03 63192   0.213E-01    0.115E-01
DAV:   9    -0.305689491125E+03    0.14874E-03   -0.11220E-03 58452   0.152E-01    0.549E-02
DAV:  10    -0.305689456594E+03    0.34531E-04   -0.22972E-04 30684   0.965E-02
  11 F= -.30568946E+03 E0= -.30568478E+03  d E =-.303445E-01
 ZBRENT: can't locate minimum, use default step
 trial-energy change:   -0.030344  1 .order   -0.030247   -0.032311   -0.028182
 step:   1.2915(harm=  2.5268)  dis= 0.03983  next Energy=  -305.785539 (dE=-0.126E+00)
 bond charge predicted
       N       E                     dE             d eps       ncg     rms          rms(c)
DAV:   1    -0.305638403880E+03    0.51087E-01   -0.18842E+01 42156   0.144E+01    0.153E+00
DAV:   2    -0.305956140813E+03   -0.31774E+00   -0.24679E+00 69456   0.846E+00    0.399E+00
DAV:   3    -0.305771603952E+03    0.18454E+00   -0.10613E+00 69324   0.523E+00    0.111E+00
DAV:   4    -0.305772443535E+03   -0.83958E-03   -0.19894E-01 70644   0.213E+00    0.116E+00
DAV:   5    -0.305759755231E+03    0.12688E-01   -0.97351E-02 71772   0.151E+00    0.577E-01
DAV:   6    -0.305758907568E+03    0.84766E-03   -0.31861E-02 71016   0.834E-01    0.545E-01
DAV:   7    -0.305758309094E+03    0.59847E-03   -0.26506E-02 70272   0.807E-01    0.465E-01
DAV:   8    -0.305757566946E+03    0.74215E-03   -0.22595E-02 69048   0.658E-01    0.360E-01
DAV:   9    -0.305755984532E+03    0.15824E-02   -0.10156E-02 69204   0.431E-01    0.147E-01
DAV:  10    -0.305755887546E+03    0.96986E-04   -0.33258E-03 70776   0.240E-01    0.113E-01
DAV:  11    -0.305755858001E+03    0.29545E-04   -0.16026E-03 58416   0.185E-01    0.845E-02
DAV:  12    -0.305755784969E+03    0.73032E-04   -0.54656E-04 45576   0.124E-01
  12 F= -.30575578E+03 E0= -.30575143E+03  d E =-.966728E-01
 curvature:  -1.47 expect dE=-0.658E-01 dE for cont linesearch -0.199E-01
 ZBRENT: increasing intervall
 opt :   3.2288  next Energy=  -305.772261 (dE=-0.113E+00)
 bond charge predicted
       N       E                     dE             d eps       ncg     rms          rms(c)
DAV:   1    -0.305277819417E+03    0.47804E+00   -0.75364E+01 42012   0.290E+01    0.346E+00
DAV:   2    -0.306480486769E+03   -0.12027E+01   -0.97924E+00 69876   0.171E+01    0.719E+00
DAV:   3    -0.305833739530E+03    0.64675E+00   -0.39084E+00 69420   0.101E+01    0.234E+00
DAV:   4    -0.305822700420E+03    0.11039E-01   -0.79620E-01 70728   0.435E+00    0.220E+00
DAV:   5    -0.305779026313E+03    0.43674E-01   -0.38629E-01 70788   0.301E+00    0.118E+00
DAV:   6    -0.305773564120E+03    0.54622E-02   -0.10672E-01 70944   0.144E+00    0.995E-01
DAV:   7    -0.305776215398E+03   -0.26513E-02   -0.10077E-01 69336   0.150E+00    0.106E+00
DAV:   8    -0.305771760084E+03    0.44553E-02   -0.93095E-02 69876   0.150E+00    0.788E-01
DAV:   9    -0.305764612057E+03    0.71480E-02   -0.44185E-02 73464   0.929E-01    0.301E-01
DAV:  10    -0.305764118370E+03    0.49369E-03   -0.12929E-02 76464   0.434E-01    0.194E-01
DAV:  11    -0.305764099406E+03    0.18964E-04   -0.57942E-03 61944   0.335E-01    0.175E-01
DAV:  12    -0.305763823462E+03    0.27594E-03   -0.25767E-03 59064   0.253E-01    0.851E-02
DAV:  13    -0.305763776096E+03    0.47366E-04   -0.76270E-04 51396   0.121E-01
  13 F= -.30576378E+03 E0= -.30575981E+03  d E =-.104664E+00
 curvature:  -1.22 expect dE=-0.125E+00 dE for cont linesearch -0.144E-01
 ZBRENT: bracketing found
 ZBRENT: interpolating
 opt :   2.2931  next Energy=  -305.784711 (dE=-0.126E+00)
 bond charge predicted
       N       E                     dE             d eps       ncg     rms          rms(c)
DAV:   1    -0.305665174359E+03    0.98649E-01   -0.17492E+01 41280   0.139E+01    0.168E+00
DAV:   2    -0.306069756622E+03   -0.40458E+00   -0.29260E+00 67116   0.981E+00    0.531E+00
DAV:   3    -0.305796715500E+03    0.27304E+00   -0.15500E+00 67380   0.695E+00    0.111E+00
DAV:   4    -0.305800915867E+03   -0.42004E-02   -0.22837E-01 70272   0.226E+00    0.120E+00
DAV:   5    -0.305785926162E+03    0.14990E-01   -0.10193E-01 68748   0.157E+00    0.567E-01
DAV:   6    -0.305785649024E+03    0.27714E-03   -0.28681E-02 68952   0.762E-01    0.550E-01
DAV:   7    -0.305785109180E+03    0.53984E-03   -0.23469E-02 69984   0.764E-01    0.460E-01
DAV:   8    -0.305784076417E+03    0.10328E-02   -0.21418E-02 69108   0.648E-01    0.357E-01
DAV:   9    -0.305782868616E+03    0.12078E-02   -0.89158E-03 72564   0.395E-01    0.175E-01
DAV:  10    -0.305782813326E+03    0.55290E-04   -0.40081E-03 66156   0.285E-01    0.158E-01
DAV:  11    -0.305782604771E+03    0.20855E-03   -0.15203E-03 55932   0.191E-01    0.687E-02
DAV:  12    -0.305782558870E+03    0.45901E-04   -0.29589E-04 36552   0.988E-02
  14 F= -.30578256E+03 E0= -.30577849E+03  d E =-.123447E+00
 curvature:  -1.78 expect dE=-0.862E-01 dE for cont linesearch -0.171E-03
 trial: gam= 0.31175 g(F)=  0.348E-01 g(S)=  0.136E-01 ort = 0.404E-02 (trialstep = 0.717E+00)
 search vector abs. value=  0.675E-01
 bond charge predicted
       N       E                     dE             d eps       ncg     rms          rms(c)
DAV:   1    -0.305804270978E+03   -0.21666E-01   -0.38655E+00 42972   0.760E+00    0.162E+00
DAV:   2    -0.305844892418E+03   -0.40621E-01   -0.63144E-01 70200   0.372E+00    0.168E+00
DAV:   3    -0.305835994803E+03    0.88976E-02   -0.46140E-01 70332   0.311E+00    0.160E+00
DAV:   4    -0.305820870524E+03    0.15124E-01   -0.20566E-01 66936   0.229E+00    0.992E-01
DAV:   5    -0.305811500420E+03    0.93701E-02   -0.10836E-01 69948   0.151E+00    0.652E-01
DAV:   6    -0.305808373732E+03    0.31267E-02   -0.50691E-02 70452   0.111E+00    0.450E-01
DAV:   7    -0.305807416361E+03    0.95737E-03   -0.23298E-02 74484   0.685E-01    0.345E-01
DAV:   8    -0.305806617069E+03    0.79929E-03   -0.10126E-02 64536   0.469E-01    0.206E-01
DAV:   9    -0.305806417374E+03    0.19970E-03   -0.31697E-03 64488   0.249E-01    0.148E-01
DAV:  10    -0.305806356264E+03    0.61110E-04   -0.96057E-04 54252   0.136E-01
  15 F= -.30580636E+03 E0= -.30580245E+03  d E =-.237974E-01
 trial-energy change:   -0.023797  1 .order   -0.024692   -0.035633   -0.013750
 step:   1.1674(harm=  1.1674)  dis= 0.01828  next Energy=  -305.811571 (dE=-0.290E-01)
 bond charge predicted
       N       E                     dE             d eps       ncg     rms          rms(c)
DAV:   1    -0.305808648466E+03   -0.22311E-02   -0.15228E+00 42432   0.475E+00    0.100E+00
DAV:   2    -0.305825945667E+03   -0.17297E-01   -0.25575E-01 70020   0.242E+00    0.113E+00
DAV:   3    -0.305820577612E+03    0.53681E-02   -0.19080E-01 69564   0.204E+00    0.994E-01
DAV:   4    -0.305815068930E+03    0.55087E-02   -0.79575E-02 66660   0.141E+00    0.644E-01
DAV:   5    -0.305811268151E+03    0.38008E-02   -0.43273E-02 71136   0.969E-01    0.408E-01
DAV:   6    -0.305810196104E+03    0.10720E-02   -0.20107E-02 70800   0.688E-01    0.289E-01
DAV:   7    -0.305809645708E+03    0.55040E-03   -0.83760E-03 74136   0.394E-01    0.188E-01
DAV:   8    -0.305809494192E+03    0.15152E-03   -0.30086E-03 65160   0.247E-01    0.140E-01
DAV:   9    -0.305809433231E+03    0.60961E-04   -0.11210E-03 55224   0.158E-01    0.106E-01
DAV:  10    -0.305809413942E+03    0.19289E-04   -0.30604E-04 35352   0.102E-01
  16 F= -.30580941E+03 E0= -.30580563E+03  d E =-.268551E-01
 curvature:  -0.79 expect dE=-0.578E-01 dE for cont linesearch -0.325E-04
 trial: gam= 1.55834 g(F)=  0.184E-01 g(S)=  0.545E-01 ort =-0.166E-02 (trialstep = 0.235E+00)
 search vector abs. value=  0.232E+00
 bond charge predicted
       N       E                     dE             d eps       ncg     rms          rms(c)
DAV:   1    -0.305818858822E+03   -0.94256E-02   -0.13175E+00 43284   0.372E+00    0.445E-01
DAV:   2    -0.305834290816E+03   -0.15432E-01   -0.16205E-01 70392   0.192E+00    0.851E-01
DAV:   3    -0.305826705371E+03    0.75854E-02   -0.68354E-02 69912   0.124E+00    0.402E-01
DAV:   4    -0.305825777592E+03    0.92778E-03   -0.17417E-02 69492   0.593E-01    0.302E-01
DAV:   5    -0.305825242102E+03    0.53549E-03   -0.90331E-03 68976   0.430E-01    0.239E-01
DAV:   6    -0.305824961501E+03    0.28060E-03   -0.58131E-03 68796   0.362E-01    0.180E-01
DAV:   7    -0.305824738347E+03    0.22315E-03   -0.35855E-03 70176   0.270E-01    0.120E-01
DAV:   8    -0.305824712567E+03    0.25780E-04   -0.24801E-03 64716   0.202E-01    0.111E-01
DAV:   9    -0.305824569836E+03    0.14273E-03   -0.97219E-04 50964   0.155E-01    0.547E-02
DAV:  10    -0.305824530950E+03    0.38886E-04   -0.16726E-04 27312   0.842E-02
  17 F= -.30582453E+03 E0= -.30582098E+03  d E =-.151170E-01
 ZBRENT: can't locate minimum, use default step
 trial-energy change:   -0.015117  1 .order   -0.014960   -0.016543   -0.013378
 step:   0.9405(harm=  1.2288)  dis= 0.02733  next Energy=  -305.852642 (dE=-0.432E-01)
 bond charge predicted
       N       E                     dE             d eps       ncg     rms          rms(c)
DAV:   1    -0.305812033586E+03    0.12536E-01   -0.11986E+01 44808   0.111E+01    0.123E+00
DAV:   2    -0.305930324593E+03   -0.11829E+00   -0.12362E+00 70728   0.528E+00    0.237E+00
DAV:   3    -0.305865739688E+03    0.64585E-01   -0.51224E-01 71004   0.333E+00    0.102E+00
DAV:   4    -0.305860220686E+03    0.55190E-02   -0.13242E-01 71604   0.163E+00    0.837E-01
DAV:   5    -0.305856246204E+03    0.39745E-02   -0.75818E-02 70860   0.125E+00    0.641E-01
DAV:   6    -0.305854148371E+03    0.20978E-02   -0.47518E-02 70680   0.103E+00    0.497E-01
DAV:   7    -0.305852182770E+03    0.19656E-02   -0.29365E-02 74220   0.787E-01    0.340E-01
DAV:   8    -0.305852171961E+03    0.10808E-04   -0.18210E-02 72516   0.588E-01    0.327E-01
DAV:   9    -0.305851071086E+03    0.11009E-02   -0.71129E-03 66852   0.395E-01    0.138E-01
DAV:  10    -0.305850914209E+03    0.15688E-03   -0.16608E-03 62004   0.175E-01    0.885E-02
DAV:  11    -0.305850916129E+03   -0.19195E-05   -0.46923E-04 43500   0.120E-01
  18 F= -.30585092E+03 E0= -.30584806E+03  d E =-.415022E-01
 curvature:  -1.85 expect dE=-0.475E-01 dE for cont linesearch -0.240E-02
 ZBRENT: extrapolating
 opt :   1.2498  next Energy=  -305.853597 (dE=-0.442E-01)
 bond charge predicted
       N       E                     dE             d eps       ncg     rms          rms(c)
DAV:   1    -0.305842409330E+03    0.85049E-02   -0.22768E+00 43128   0.488E+00    0.584E-01
DAV:   2    -0.305869012424E+03   -0.26603E-01   -0.27383E-01 69996   0.260E+00    0.109E+00
DAV:   3    -0.305856216602E+03    0.12796E-01   -0.10582E-01 70308   0.158E+00    0.469E-01
DAV:   4    -0.305855156282E+03    0.10603E-02   -0.27577E-02 70764   0.760E-01    0.395E-01
DAV:   5    -0.305854091588E+03    0.10647E-02   -0.15684E-02 71328   0.578E-01    0.287E-01
DAV:   6    -0.305853666368E+03    0.42522E-03   -0.90948E-03 71748   0.439E-01    0.214E-01
DAV:   7    -0.305853429397E+03    0.23697E-03   -0.58846E-03 72072   0.351E-01    0.174E-01
DAV:   8    -0.305853353871E+03    0.75526E-04   -0.40561E-03 67320   0.287E-01    0.151E-01
DAV:   9    -0.305853110350E+03    0.24352E-03   -0.14556E-03 58032   0.183E-01    0.605E-02
DAV:  10    -0.305853070173E+03    0.40177E-04   -0.19529E-04 30180   0.856E-02
  19 F= -.30585307E+03 E0= -.30585052E+03  d E =-.436562E-01
 curvature:  -2.07 expect dE=-0.543E-01 dE for cont linesearch -0.960E-04
 trial: gam= 0.23090 g(F)=  0.254E-01 g(S)=  0.838E-03 ort =-0.328E-02 (trialstep = 0.438E+00)
 search vector abs. value=  0.371E-01
 bond charge predicted
       N       E                     dE             d eps       ncg     rms          rms(c)
DAV:   1    -0.305859824831E+03   -0.67145E-02   -0.71356E-01 41292   0.281E+00    0.372E-01
DAV:   2    -0.305864334825E+03   -0.45100E-02   -0.66649E-02 66936   0.113E+00    0.297E-01
DAV:   3    -0.305864891248E+03   -0.55642E-03   -0.25137E-02 67896   0.712E-01    0.374E-01
DAV:   4    -0.305863492412E+03    0.13988E-02   -0.10407E-02 62520   0.486E-01    0.158E-01
DAV:   5    -0.305863316845E+03    0.17557E-03   -0.34782E-03 65736   0.254E-01    0.125E-01
DAV:   6    -0.305863276613E+03    0.40232E-04   -0.22421E-03 67164   0.221E-01    0.124E-01
DAV:   7    -0.305863190971E+03    0.85642E-04   -0.15282E-03 59088   0.190E-01    0.816E-02
DAV:   8    -0.305863138000E+03    0.52971E-04   -0.59937E-04 45204   0.128E-01
  20 F= -.30586314E+03 E0= -.30586065E+03  d E =-.100678E-01
 ZBRENT: can't locate minimum, use default step
 trial-energy change:   -0.010068  1 .order   -0.010024   -0.011176   -0.008872
 step:   1.7522(harm=  2.1247)  dis= 0.01738  next Energy=  -305.880174 (dE=-0.271E-01)
 bond charge predicted
       N       E                     dE             d eps       ncg     rms          rms(c)
DAV:   1    -0.305849671648E+03    0.13519E-01   -0.63985E+00 41280   0.840E+00    0.114E+00
DAV:   2    -0.305890123311E+03   -0.40452E-01   -0.60781E-01 67680   0.344E+00    0.886E-01
DAV:   3    -0.305893392895E+03   -0.32696E-02   -0.21022E-01 68556   0.203E+00    0.105E+00
DAV:   4    -0.305882547434E+03    0.10845E-01   -0.94297E-02 67548   0.146E+00    0.518E-01
DAV:   5    -0.305880655777E+03    0.18917E-02   -0.35959E-02 73896   0.831E-01    0.376E-01
DAV:   6    -0.305879974511E+03    0.68127E-03   -0.19410E-02 80112   0.605E-01    0.324E-01
DAV:   7    -0.305879360037E+03    0.61447E-03   -0.12152E-02 71676   0.522E-01    0.244E-01
DAV:   8    -0.305878954869E+03    0.40517E-03   -0.62666E-03 64368   0.367E-01    0.159E-01
DAV:   9    -0.305878771413E+03    0.18346E-03   -0.18767E-03 62916   0.194E-01    0.930E-02
DAV:  10    -0.305878788882E+03   -0.17468E-04   -0.68607E-04 48336   0.135E-01
  21 F= -.30587879E+03 E0= -.30587651E+03  d E =-.257187E-01
 curvature:  -1.47 expect dE=-0.464E-01 dE for cont linesearch -0.612E-03
 trial: gam= 1.01425 g(F)=  0.871E-02 g(S)=  0.229E-01 ort = 0.393E-02 (trialstep = 0.335E+00)
 search vector abs. value=  0.777E-01
 bond charge predicted
       N       E                     dE             d eps       ncg     rms          rms(c)
DAV:   1    -0.305888660393E+03   -0.98890E-02   -0.88432E-01 41292   0.350E+00    0.770E-01
DAV:   2    -0.305893847446E+03   -0.51871E-02   -0.11785E-01 70692   0.164E+00    0.616E-01
DAV:   3    -0.305894009190E+03   -0.16174E-03   -0.84454E-02 70320   0.134E+00    0.673E-01
DAV:   4    -0.305890824262E+03    0.31849E-02   -0.51553E-02 65700   0.112E+00    0.440E-01
DAV:   5    -0.305888423432E+03    0.24008E-02   -0.18577E-02 69528   0.611E-01    0.171E-01
DAV:   6    -0.305888457778E+03   -0.34347E-04   -0.66933E-03 75000   0.359E-01    0.202E-01
DAV:   7    -0.305888199838E+03    0.25794E-03   -0.43441E-03 65472   0.310E-01    0.139E-01
DAV:   8    -0.305888070776E+03    0.12906E-03   -0.16014E-03 61656   0.189E-01    0.838E-02
DAV:   9    -0.305887999625E+03    0.71151E-04   -0.28165E-04 34704   0.933E-02
  22 F= -.30588800E+03 E0= -.30588568E+03  d E =-.921074E-02
 trial-energy change:   -0.009211  1 .order   -0.009268   -0.011903   -0.006633
 step:   0.7557(harm=  0.7557)  dis= 0.01045  next Energy=  -305.892232 (dE=-0.134E-01)
 bond charge predicted
       N       E                     dE             d eps       ncg     rms          rms(c)
DAV:   1    -0.305892596526E+03   -0.45258E-02   -0.14027E+00 41280   0.441E+00    0.941E-01
DAV:   2    -0.305901243289E+03   -0.86468E-02   -0.18151E-01 70524   0.208E+00    0.818E-01
DAV:   3    -0.305902722123E+03   -0.14788E-02   -0.14228E-01 70008   0.179E+00    0.959E-01
DAV:   4    -0.305896296131E+03    0.64260E-02   -0.83479E-02 66384   0.142E+00    0.544E-01
DAV:   5    -0.305892995648E+03    0.33005E-02   -0.28803E-02 73680   0.744E-01    0.301E-01
DAV:   6    -0.305892641909E+03    0.35374E-03   -0.14187E-02 74112   0.547E-01    0.261E-01
DAV:   7    -0.305892190936E+03    0.45097E-03   -0.62838E-03 64308   0.392E-01    0.166E-01
DAV:   8    -0.305892056265E+03    0.13467E-03   -0.25885E-03 66852   0.225E-01    0.118E-01
DAV:   9    -0.305892003678E+03    0.52586E-04   -0.81597E-04 49008   0.142E-01
  23 F= -.30589200E+03 E0= -.30588966E+03  d E =-.132148E-01
 curvature:  -0.83 expect dE=-0.127E-01 dE for cont linesearch -0.130E-07
 trial: gam= 0.66606 g(F)=  0.829E-02 g(S)=  0.714E-02 ort =-0.349E-04 (trialstep = 0.419E+00)
 search vector abs. value=  0.499E-01
 bond charge predicted
       N       E                     dE             d eps       ncg     rms          rms(c)
DAV:   1    -0.305894310704E+03   -0.22544E-02   -0.82703E-01 41280   0.278E+00    0.283E-01
DAV:   2    -0.305900612279E+03   -0.63016E-02   -0.64479E-02 68304   0.136E+00    0.525E-01
DAV:   3    -0.305898531534E+03    0.20807E-02   -0.24871E-02 67236   0.824E-01    0.265E-01
DAV:   4    -0.305898140573E+03    0.39096E-03   -0.56382E-03 62424   0.377E-01    0.196E-01
DAV:   5    -0.305897856447E+03    0.28413E-03   -0.28438E-03 61116   0.268E-01    0.126E-01
DAV:   6    -0.305897798118E+03    0.58330E-04   -0.13436E-03 55872   0.188E-01    0.106E-01
DAV:   7    -0.305897761851E+03    0.36266E-04   -0.12889E-03 56844   0.167E-01    0.828E-02
DAV:   8    -0.305897712346E+03    0.49506E-04   -0.71456E-04 46200   0.139E-01
  24 F= -.30589771E+03 E0= -.30589537E+03  d E =-.570867E-02
 ZBRENT: can't locate minimum, use default step
 trial-energy change:   -0.005709  1 .order   -0.005834   -0.006454   -0.005214
 step:   1.6752(harm=  2.1799)  dis= 0.01885  next Energy=  -305.908799 (dE=-0.168E-01)
 bond charge predicted
       N       E                     dE             d eps       ncg     rms          rms(c)
DAV:   1    -0.305879272202E+03    0.18490E-01   -0.74620E+00 41868   0.833E+00    0.812E-01
DAV:   2    -0.305937759638E+03   -0.58487E-01   -0.56412E-01 68244   0.402E+00    0.168E+00
DAV:   3    -0.305914497446E+03    0.23262E-01   -0.23566E-01 66948   0.258E+00    0.723E-01
DAV:   4    -0.305912039589E+03    0.24579E-02   -0.49469E-02 69396   0.111E+00    0.571E-01
DAV:   5    -0.305909327748E+03    0.27118E-02   -0.27757E-02 66348   0.831E-01    0.327E-01
DAV:   6    -0.305908646505E+03    0.68124E-03   -0.10558E-02 68088   0.500E-01    0.248E-01
DAV:   7    -0.305908450379E+03    0.19613E-03   -0.90096E-03 70932   0.391E-01    0.215E-01
DAV:   8    -0.305908106806E+03    0.34357E-03   -0.53892E-03 69420   0.315E-01    0.160E-01
DAV:   9    -0.305907810708E+03    0.29610E-03   -0.24330E-03 64668   0.242E-01    0.874E-02
DAV:  10    -0.305907743613E+03    0.67095E-04   -0.80018E-04 51636   0.132E-01
  25 F= -.30590774E+03 E0= -.30590542E+03  d E =-.157399E-01
 curvature:  -3.24 expect dE=-0.284E-01 dE for cont linesearch -0.863E-03
 trial: gam= 0.08406 g(F)=  0.691E-02 g(S)=  0.187E-02 ort = 0.365E-02 (trialstep = 0.670E+00)
 search vector abs. value=  0.975E-02
 bond charge predicted
       N       E                     dE             d eps       ncg     rms          rms(c)
DAV:   1    -0.305912611432E+03   -0.48007E-02   -0.46105E-01 41520   0.256E+00    0.593E-01
DAV:   2    -0.305915773650E+03   -0.31622E-02   -0.66792E-02 71664   0.129E+00    0.510E-01
DAV:   3    -0.305915234873E+03    0.53878E-03   -0.49857E-02 72888   0.101E+00    0.484E-01
DAV:   4    -0.305913774906E+03    0.14600E-02   -0.27101E-02 66756   0.792E-01    0.370E-01
DAV:   5    -0.305912474398E+03    0.13005E-02   -0.12648E-02 68544   0.548E-01    0.216E-01
DAV:   6    -0.305912124600E+03    0.34980E-03   -0.56347E-03 65484   0.347E-01    0.140E-01
DAV:   7    -0.305911997473E+03    0.12713E-03   -0.26765E-03 67224   0.222E-01    0.104E-01
DAV:   8    -0.305911960883E+03    0.36590E-04   -0.11063E-03 58248   0.154E-01    0.775E-02
DAV:   9    -0.305911917685E+03    0.43198E-04   -0.22585E-04 32328   0.982E-02
  26 F= -.30591192E+03 E0= -.30590974E+03  d E =-.417407E-02
 trial-energy change:   -0.004174  1 .order   -0.004211   -0.006090   -0.002332
 step:   1.0860(harm=  1.0860)  dis= 0.00628  next Energy=  -305.912679 (dE=-0.494E-02)
 bond charge predicted
       N       E                     dE             d eps       ncg     rms          rms(c)
DAV:   1    -0.305912907557E+03   -0.94667E-03   -0.17854E-01 41736   0.160E+00    0.357E-01
DAV:   2    -0.305913816364E+03   -0.90881E-03   -0.22757E-02 70272   0.712E-01    0.267E-01
DAV:   3    -0.305913956775E+03   -0.14041E-03   -0.16709E-02 72408   0.540E-01    0.297E-01
DAV:   4    -0.305913351241E+03    0.60553E-03   -0.94817E-03 65220   0.476E-01    0.220E-01
DAV:   5    -0.305912845186E+03    0.50606E-03   -0.44598E-03 64356   0.317E-01    0.112E-01
DAV:   6    -0.305912785808E+03    0.59378E-04   -0.17249E-03 61548   0.191E-01    0.926E-02
DAV:   7    -0.305912750337E+03    0.35471E-04   -0.94235E-04 53016   0.156E-01
  27 F= -.30591275E+03 E0= -.30591067E+03  d E =-.500672E-02
 curvature:  -0.58 expect dE=-0.593E-02 dE for cont linesearch -0.249E-04
 trial: gam= 1.12162 g(F)=  0.279E-02 g(S)=  0.738E-02 ort = 0.645E-03 (trialstep = 0.307E+00)
 search vector abs. value=  0.239E-01
 bond charge predicted
       N       E                     dE             d eps       ncg     rms          rms(c)
DAV:   1    -0.305915101100E+03   -0.23153E-02   -0.22414E-01 41304   0.161E+00    0.266E-01
DAV:   2    -0.305916455810E+03   -0.13547E-02   -0.23538E-02 68592   0.661E-01    0.235E-01
DAV:   3    -0.305916585522E+03   -0.12971E-03   -0.11996E-02 69792   0.510E-01    0.271E-01
DAV:   4    -0.305915974346E+03    0.61118E-03   -0.52903E-03 61704   0.368E-01    0.144E-01
DAV:   5    -0.305915839623E+03    0.13472E-03   -0.25901E-03 62376   0.232E-01    0.119E-01
DAV:   6    -0.305915737678E+03    0.10194E-03   -0.13365E-03 54300   0.199E-01    0.784E-02
DAV:   7    -0.305915675285E+03    0.62393E-04   -0.57188E-04 45696   0.127E-01
  28 F= -.30591568E+03 E0= -.30591366E+03  d E =-.292495E-02
 ZBRENT: can't locate minimum, use default step
 trial-energy change:   -0.002925  1 .order   -0.002954   -0.003350   -0.002558
 step:   1.2296(harm=  1.2998)  dis= 0.01151  next Energy=  -305.919833 (dE=-0.708E-02)
 bond charge predicted
       N       E                     dE             d eps       ncg     rms          rms(c)
DAV:   1    -0.305913372130E+03    0.23655E-02   -0.20069E+00 41280   0.480E+00    0.728E-01
DAV:   2    -0.305926176707E+03   -0.12805E-01   -0.20180E-01 68052   0.197E+00    0.704E-01
DAV:   3    -0.305925518075E+03    0.65863E-03   -0.96474E-02 70260   0.145E+00    0.714E-01
DAV:   4    -0.305921648912E+03    0.38692E-02   -0.40674E-02 65532   0.102E+00    0.426E-01
DAV:   5    -0.305920238589E+03    0.14103E-02   -0.20235E-02 70092   0.663E-01    0.311E-01
DAV:   6    -0.305919589208E+03    0.64938E-03   -0.10189E-02 67620   0.528E-01    0.212E-01
DAV:   7    -0.305919229321E+03    0.35989E-03   -0.46900E-03 72408   0.309E-01    0.121E-01
DAV:   8    -0.305919152376E+03    0.76944E-04   -0.20643E-03 64428   0.194E-01    0.100E-01
DAV:   9    -0.305919077800E+03    0.74577E-04   -0.75009E-04 49344   0.137E-01
  29 F= -.30591908E+03 E0= -.30591729E+03  d E =-.632746E-02
 curvature:  -1.42 expect dE=-0.633E-02 dE for cont linesearch -0.578E-06
 trial: gam= 0.50394 g(F)=  0.404E-02 g(S)=  0.433E-03 ort =-0.987E-04 (trialstep = 0.492E+00)
 search vector abs. value=  0.104E-01
 bond charge predicted
       N       E                     dE             d eps       ncg     rms          rms(c)
DAV:   1    -0.305920426536E+03   -0.12742E-02   -0.21373E-01 42408   0.140E+00    0.142E-01
DAV:   2    -0.305921850841E+03   -0.14243E-02   -0.15346E-02 69828   0.610E-01    0.223E-01
DAV:   3    -0.305921256317E+03    0.59452E-03   -0.53534E-03 71352   0.338E-01    0.115E-01
DAV:   4    -0.305921268785E+03   -0.12468E-04   -0.16968E-03 55512   0.210E-01    0.125E-01
DAV:   5    -0.305921108735E+03    0.16005E-03   -0.81250E-04 50160   0.154E-01    0.522E-02
DAV:   6    -0.305921136779E+03   -0.28045E-04   -0.48100E-04 45768   0.121E-01
  30 F= -.30592114E+03 E0= -.30591938E+03  d E =-.205898E-02
 ZBRENT: can't locate minimum, use default step
 trial-energy change:   -0.002059  1 .order   -0.002105   -0.002174   -0.002036
 step:   1.9674(harm=  7.7779)  dis= 0.00839  next Energy=  -305.936265 (dE=-0.172E-01)
 bond charge predicted
       N       E                     dE             d eps       ncg     rms          rms(c)
DAV:   1    -0.305919631901E+03    0.14768E-02   -0.19189E+00 42612   0.420E+00    0.386E-01
DAV:   2    -0.305932325149E+03   -0.12693E-01   -0.13183E-01 69000   0.184E+00    0.682E-01
DAV:   3    -0.305927272977E+03    0.50522E-02   -0.45701E-02 70692   0.106E+00    0.321E-01
DAV:   4    -0.305927172329E+03    0.10065E-03   -0.13221E-02 65604   0.577E-01    0.315E-01
DAV:   5    -0.305926114377E+03    0.10580E-02   -0.62038E-03 65628   0.395E-01    0.144E-01
DAV:   6    -0.305926191316E+03   -0.76940E-04   -0.32432E-03 61956   0.286E-01    0.175E-01
DAV:   7    -0.305925944408E+03    0.24691E-03   -0.30126E-03 61812   0.256E-01    0.103E-01
DAV:   8    -0.305925833762E+03    0.11065E-03   -0.12289E-03 56280   0.165E-01    0.711E-02
DAV:   9    -0.305925779804E+03    0.53958E-04   -0.36792E-04 39708   0.117E-01
  31 F= -.30592578E+03 E0= -.30592412E+03  d E =-.670200E-02
 curvature:  -3.34 expect dE=-0.113E-01 dE for cont linesearch -0.205E-02
 ZBRENT: increasing intervall
 opt :   4.9186  next Energy=  -305.928490 (dE=-0.941E-02)
 bond charge predicted
       N       E                     dE             d eps       ncg     rms          rms(c)
DAV:   1    -0.305903562040E+03    0.22272E-01   -0.76788E+00 42276   0.843E+00    0.803E-01
DAV:   2    -0.305956574461E+03   -0.53012E-01   -0.54953E-01 68904   0.374E+00    0.138E+00
DAV:   3    -0.305936131947E+03    0.20443E-01   -0.19339E-01 71184   0.218E+00    0.670E-01
DAV:   4    -0.305935086854E+03    0.10451E-02   -0.55457E-02 67764   0.118E+00    0.621E-01
DAV:   5    -0.305931020439E+03    0.40664E-02   -0.24841E-02 68676   0.776E-01    0.282E-01
DAV:   6    -0.305931235873E+03   -0.21543E-03   -0.12353E-02 67776   0.558E-01    0.345E-01
DAV:   7    -0.305930389325E+03    0.84655E-03   -0.11958E-02 65184   0.517E-01    0.216E-01
DAV:   8    -0.305929898165E+03    0.49116E-03   -0.54267E-03 70332   0.321E-01    0.141E-01
DAV:   9    -0.305929721975E+03    0.17619E-03   -0.20050E-03 60696   0.215E-01    0.837E-02
DAV:  10    -0.305929653975E+03    0.68000E-04   -0.68521E-04 47076   0.124E-01
  32 F= -.30592965E+03 E0= -.30592816E+03  d E =-.105762E-01
 curvature:  -4.42 expect dE=-0.246E-01 dE for cont linesearch -0.114E-05
 trial: gam= 0.93071 g(F)=  0.508E-02 g(S)=  0.481E-03 ort =-0.519E-04 (trialstep = 0.991E+00)
 search vector abs. value=  0.145E-01
 bond charge predicted
       N       E                     dE             d eps       ncg     rms          rms(c)
DAV:   1    -0.305927065921E+03    0.26561E-02   -0.13867E+00 41280   0.377E+00    0.384E-01
DAV:   2    -0.305941621960E+03   -0.14556E-01   -0.13419E-01 69864   0.188E+00    0.785E-01
DAV:   3    -0.305935077410E+03    0.65446E-02   -0.54408E-02 69336   0.119E+00    0.319E-01
DAV:   4    -0.305934914755E+03    0.16266E-03   -0.11241E-02 64488   0.552E-01    0.291E-01
DAV:   5    -0.305934069435E+03    0.84532E-03   -0.57298E-03 65076   0.374E-01    0.132E-01
DAV:   6    -0.305934085204E+03   -0.15768E-04   -0.23831E-03 62772   0.236E-01    0.148E-01
DAV:   7    -0.305933950490E+03    0.13471E-03   -0.22258E-03 63588   0.218E-01    0.967E-02
DAV:   8    -0.305933875286E+03    0.75204E-04   -0.10643E-03 55884   0.155E-01    0.676E-02
DAV:   9    -0.305933804458E+03    0.70828E-04   -0.27493E-04 33684   0.110E-01
  33 F= -.30593380E+03 E0= -.30593219E+03  d E =-.415048E-02
 trial-energy change:   -0.004150  1 .order   -0.004289   -0.005464   -0.003115
 step:   2.3045(harm=  2.3045)  dis= 0.01398  next Energy=  -305.936009 (dE=-0.635E-02)
 bond charge predicted
       N       E                     dE             d eps       ncg     rms          rms(c)
DAV:   1    -0.305923665827E+03    0.10209E-01   -0.24327E+00 41280   0.499E+00    0.496E-01
DAV:   2    -0.305945962071E+03   -0.22296E-01   -0.21493E-01 69204   0.240E+00    0.897E-01
DAV:   3    -0.305938061125E+03    0.79009E-02   -0.78289E-02 69240   0.144E+00    0.426E-01
DAV:   4    -0.305937591972E+03    0.46915E-03   -0.19068E-02 65424   0.727E-01    0.369E-01
DAV:   5    -0.305936200086E+03    0.13919E-02   -0.92638E-03 66612   0.465E-01    0.168E-01
DAV:   6    -0.305936297514E+03   -0.97428E-04   -0.41659E-03 63408   0.311E-01    0.202E-01
DAV:   7    -0.305936024526E+03    0.27299E-03   -0.39664E-03 66420   0.294E-01    0.123E-01
DAV:   8    -0.305935880537E+03    0.14399E-03   -0.16367E-03 63528   0.178E-01    0.792E-02
DAV:   9    -0.305935800892E+03    0.79645E-04   -0.52627E-04 44292   0.121E-01
  34 F= -.30593580E+03 E0= -.30593401E+03  d E =-.614692E-02
 curvature:  -3.03 expect dE=-0.876E-02 dE for cont linesearch -0.193E-05
 trial: gam= 0.51374 g(F)=  0.155E-02 g(S)=  0.134E-02 ort =-0.961E-04 (trialstep = 0.125E+01)
 search vector abs. value=  0.662E-02
 bond charge predicted
       N       E                     dE             d eps       ncg     rms          rms(c)
DAV:   1    -0.305936718331E+03   -0.83779E-03   -0.10595E+00 41292   0.382E+00    0.805E-01
DAV:   2    -0.305942491370E+03   -0.57730E-02   -0.13169E-01 70692   0.178E+00    0.655E-01
DAV:   3    -0.305944088238E+03   -0.15969E-02   -0.89878E-02 69732   0.143E+00    0.752E-01
DAV:   4    -0.305939767236E+03    0.43210E-02   -0.53454E-02 67428   0.111E+00    0.493E-01
DAV:   5    -0.305937512675E+03    0.22546E-02   -0.23356E-02 71976   0.701E-01    0.283E-01
DAV:   6    -0.305937020486E+03    0.49219E-03   -0.10541E-02 70812   0.479E-01    0.197E-01
DAV:   7    -0.305936720328E+03    0.30016E-03   -0.45045E-03 67536   0.307E-01    0.135E-01
DAV:   8    -0.305936629827E+03    0.90501E-04   -0.19602E-03 63756   0.194E-01    0.962E-02
DAV:   9    -0.305936565515E+03    0.64312E-04   -0.56977E-04 43692   0.125E-01
  35 F= -.30593657E+03 E0= -.30593477E+03  d E =-.764623E-03
 trial-energy change:   -0.000765  1 .order   -0.000752   -0.003560    0.002057
 step:   0.7945(harm=  0.7945)  dis= 0.00267  next Energy=  -305.936929 (dE=-0.113E-02)
 bond charge predicted
       N       E                     dE             d eps       ncg     rms          rms(c)
DAV:   1    -0.305936932763E+03   -0.30294E-03   -0.14112E-01 41556   0.138E+00    0.314E-01
DAV:   2    -0.305938115059E+03   -0.11823E-02   -0.20566E-02 72432   0.731E-01    0.298E-01
DAV:   3    -0.305938048655E+03    0.66404E-04   -0.14828E-02 68580   0.606E-01    0.294E-01
DAV:   4    -0.305937425925E+03    0.62273E-03   -0.79602E-03 63912   0.422E-01    0.177E-01
DAV:   5    -0.305937174482E+03    0.25144E-03   -0.36303E-03 64344   0.289E-01    0.135E-01
DAV:   6    -0.305937032292E+03    0.14219E-03   -0.19047E-03 61092   0.214E-01    0.710E-02
DAV:   7    -0.305936968785E+03    0.63506E-04   -0.48115E-04 41172   0.122E-01
  36 F= -.30593697E+03 E0= -.30593518E+03  d E =-.116789E-02
 curvature:  -0.93 expect dE=-0.194E-02 dE for cont linesearch -0.148E-05
 trial: gam= 0.72021 g(F)=  0.955E-03 g(S)=  0.114E-02 ort =-0.103E-03 (trialstep = 0.116E+01)
 search vector abs. value=  0.538E-02
 bond charge predicted
       N       E                     dE             d eps       ncg     rms          rms(c)
DAV:   1    -0.305935896663E+03    0.11356E-02   -0.69586E-01 42024   0.256E+00    0.292E-01
DAV:   2    -0.305941119261E+03   -0.52226E-02   -0.56609E-02 68772   0.107E+00    0.468E-01
DAV:   3    -0.305939354935E+03    0.17643E-02   -0.23231E-02 68988   0.759E-01    0.284E-01
DAV:   4    -0.305938861930E+03    0.49300E-03   -0.63299E-03 64116   0.396E-01    0.175E-01
DAV:   5    -0.305938547944E+03    0.31399E-03   -0.33971E-03 63960   0.243E-01    0.108E-01
DAV:   6    -0.305938542477E+03    0.54666E-05   -0.20836E-03 61764   0.215E-01    0.116E-01
DAV:   7    -0.305938457352E+03    0.85126E-04   -0.14800E-03 58440   0.176E-01    0.709E-02
DAV:   8    -0.305938395524E+03    0.61827E-04   -0.44116E-04 39708   0.119E-01
  37 F= -.30593840E+03 E0= -.30593673E+03  d E =-.142674E-02
 trial-energy change:   -0.001427  1 .order   -0.001404   -0.002350   -0.000457
 step:   1.4424(harm=  1.4424)  dis= 0.00552  next Energy=  -305.938428 (dE=-0.146E-02)
 bond charge predicted
       N       E                     dE             d eps       ncg     rms          rms(c)
DAV:   1    -0.305938277061E+03    0.18029E-03   -0.40704E-02 42192   0.632E-01    0.736E-02
DAV:   2    -0.305938620876E+03   -0.34382E-03   -0.34999E-03 68844   0.269E-01    0.123E-01
DAV:   3    -0.305938482441E+03    0.13843E-03   -0.13905E-03 56316   0.192E-01    0.639E-02
DAV:   4    -0.305938454742E+03    0.27699E-04   -0.20998E-04 32928   0.985E-02
  38 F= -.30593845E+03 E0= -.30593682E+03  d E =-.148596E-02
 curvature:  -1.92 expect dE=-0.109E-02 dE for cont linesearch -0.683E-05
 trial: gam= 0.21469 g(F)=  0.531E-03 g(S)=  0.365E-04 ort = 0.138E-03 (trialstep = 0.122E+01)
 search vector abs. value=  0.875E-03
 bond charge predicted
       N       E                     dE             d eps       ncg     rms          rms(c)
DAV:   1    -0.305938585470E+03   -0.10303E-03   -0.12539E-01 42360   0.110E+00    0.114E-01
DAV:   2    -0.305939632552E+03   -0.10471E-02   -0.10735E-02 68916   0.529E-01    0.241E-01
DAV:   3    -0.305939077271E+03    0.55528E-03   -0.46040E-03 63924   0.346E-01    0.862E-02
DAV:   4    -0.305939040375E+03    0.36896E-04   -0.84886E-04 52812   0.142E-01
  39 F= -.30593904E+03 E0= -.30593742E+03  d E =-.585633E-03
 trial-energy change:   -0.000586  1 .order   -0.000631   -0.000728   -0.000535
 step:   4.5903(harm=  4.5903)  dis= 0.00540  next Energy=  -305.939826 (dE=-0.137E-02)
 bond charge predicted
       N       E                     dE             d eps       ncg     rms          rms(c)
DAV:   1    -0.305935854814E+03    0.32225E-02   -0.95843E-01 42264   0.305E+00    0.307E-01
DAV:   2    -0.305943193026E+03   -0.73382E-02   -0.76665E-02 69432   0.136E+00    0.597E-01
DAV:   3    -0.305939736563E+03    0.34565E-02   -0.31310E-02 68856   0.927E-01    0.262E-01
DAV:   4    -0.305939449713E+03    0.28685E-03   -0.77872E-03 64704   0.420E-01    0.206E-01
DAV:   5    -0.305939119256E+03    0.33046E-03   -0.49630E-03 63576   0.326E-01    0.161E-01
DAV:   6    -0.305938979143E+03    0.14011E-03   -0.26970E-03 60036   0.259E-01    0.121E-01
DAV:   7    -0.305938890175E+03    0.88969E-04   -0.17977E-03 62436   0.190E-01    0.857E-02
DAV:   8    -0.305938831241E+03    0.58933E-04   -0.76160E-04 49320   0.140E-01
  40 F= -.30593883E+03 E0= -.30593722E+03  d E =-.376499E-03
 curvature:  -3.36 expect dE=-0.550E-02 dE for cont linesearch -0.665E-03
 trial: gam= 0.00000 g(F)=  0.122E-02 g(S)=  0.414E-03 ort =-0.416E-03 (trialstep = 0.101E+01)
 search vector abs. value=  0.164E-02
 reached required accuracy - stopping structural energy minimisation
 writing wavefunctions
VASP is done!
