<?xml version="1.0" encoding="ISO-8859-1"?>
<modeling>
 <generator>
  <i name="program" type="string">vasp </i>
  <i name="version" type="string">5.4.4.18Apr17-6-g9f103f2a35  </i>
  <i name="subversion" type="string">(build Aug 09 2018 16:20:53) complex            parallel </i>
  <i name="platform" type="string">LinuxIFC </i>
  <i name="date" type="string">2020 05 01 </i>
  <i name="time" type="string">03:18:46 </i>
 </generator>
 <incar>
  <i type="string" name="SYSTEM"> Nb - Mo - Ta - Ti - V SQS</i>
  <i type="string" name="PREC">normal</i>
  <i type="int" name="ICHARG">     0</i>
  <i type="int" name="IBRION">     2</i>
  <i type="int" name="NSW">    50</i>
  <i type="int" name="ISIF">     3</i>
  <i name="ENCUT">    600.00000000</i>
  <i type="string" name="LREAL"> Auto</i>
  <i type="int" name="ISMEAR">     1</i>
  <i name="SIGMA">      0.20000000</i>
  <v type="int" name="KPOINT_BSE">    -1     0     0     0</v>
  <i type="string" name="GGA"> PS</i>
 </incar>
 <structure name="primitive_cell" >
  <crystal>
   <varray name="basis" >
    <v>      -3.16000000      -3.16000000      -3.16000000 </v>
    <v>       1.58000000       1.58000000      -7.90000000 </v>
    <v>       7.90000000      -7.90000000      -1.58000000 </v>
   </varray>
   <i name="volume">    473.31744000 </i>
   <varray name="rec_basis" >
    <v>      -0.13713080      -0.12658228      -0.05274262 </v>
    <v>       0.04219409       0.06329114      -0.10548523 </v>
    <v>       0.06329114      -0.06329114       0.00000000 </v>
   </varray>
  </crystal>
  <varray name="positions" >
   <v>      -0.03333333      -0.06666667       0.40000000 </v>
   <v>       0.30000000      -0.40000000       0.40000000 </v>
   <v>      -0.10000000      -0.20000000       0.20000000 </v>
   <v>       0.06666667       0.13333333       0.20000000 </v>
   <v>       0.46666667      -0.06666667       0.40000000 </v>
   <v>      -0.13333333      -0.26666667      -0.40000000 </v>
   <v>      -0.36666667       0.26666667       0.40000000 </v>
   <v>       0.40000000      -0.20000000       0.20000000 </v>
   <v>      -0.20000000      -0.40000000       0.40000000 </v>
   <v>      -0.43333333       0.13333333       0.20000000 </v>
   <v>       0.36666667      -0.26666667      -0.40000000 </v>
   <v>       0.13333333       0.26666667       0.40000000 </v>
   <v>      -0.46666667       0.06666667      -0.40000000 </v>
   <v>       0.23333333       0.46666667       0.20000000 </v>
   <v>       0.20000000       0.40000000      -0.40000000 </v>
   <v>       0.00000000       0.00000000       0.00000000 </v>
   <v>      -0.06666667      -0.13333333      -0.20000000 </v>
   <v>      -0.30000000       0.40000000      -0.40000000 </v>
   <v>      -0.26666667       0.46666667       0.20000000 </v>
   <v>       0.33333333      -0.33333333       0.00000000 </v>
   <v>       0.43333333      -0.13333333      -0.20000000 </v>
   <v>      -0.50000000       0.00000000       0.00000000 </v>
   <v>       0.26666667      -0.46666667      -0.20000000 </v>
   <v>      -0.33333333       0.33333333       0.00000000 </v>
   <v>      -0.40000000       0.20000000      -0.20000000 </v>
   <v>      -0.16666667      -0.33333333       0.00000000 </v>
   <v>      -0.23333333      -0.46666667      -0.20000000 </v>
   <v>       0.16666667       0.33333333       0.00000000 </v>
   <v>       0.10000000       0.20000000      -0.20000000 </v>
  </varray>
 </structure>
 <varray name="primitive_index" >
  <v type="int" >        1 </v>
  <v type="int" >       17 </v>
  <v type="int" >        6 </v>
  <v type="int" >       23 </v>
  <v type="int" >       19 </v>
  <v type="int" >       18 </v>
  <v type="int" >        2 </v>
  <v type="int" >       15 </v>
  <v type="int" >        7 </v>
  <v type="int" >       14 </v>
  <v type="int" >       10 </v>
  <v type="int" >       11 </v>
  <v type="int" >       27 </v>
  <v type="int" >       29 </v>
  <v type="int" >       22 </v>
  <v type="int" >        4 </v>
  <v type="int" >       13 </v>
  <v type="int" >       25 </v>
  <v type="int" >        8 </v>
  <v type="int" >       28 </v>
  <v type="int" >       16 </v>
  <v type="int" >        3 </v>
  <v type="int" >       21 </v>
  <v type="int" >        9 </v>
  <v type="int" >       26 </v>
  <v type="int" >       12 </v>
  <v type="int" >       24 </v>
  <v type="int" >       20 </v>
  <v type="int" >        5 </v>
 </varray>
 <kpoints>
  <generation param="Gamma">
   <v type="int" name="divisions">       7        7        7 </v>
   <v name="usershift">      0.00000000       0.00000000       0.00000000 </v>
   <v name="genvec1">      0.14285714       0.00000000       0.00000000 </v>
   <v name="genvec2">     -0.00000000       0.14285714       0.00000000 </v>
   <v name="genvec3">      0.00000000       0.00000000       0.14285714 </v>
   <v name="shift">      0.00000000       0.00000000       0.00000000 </v>
  </generation>
  <varray name="kpointlist" >
   <v>       0.00000000       0.00000000       0.00000000 </v>
   <v>       0.14285714       0.00000000      -0.00000000 </v>
   <v>       0.28571429       0.00000000       0.00000000 </v>
   <v>       0.42857143       0.00000000      -0.00000000 </v>
   <v>      -0.00000000       0.14285714       0.00000000 </v>
   <v>       0.14285714       0.14285714      -0.00000000 </v>
   <v>       0.28571429       0.14285714       0.00000000 </v>
   <v>       0.42857143       0.14285714      -0.00000000 </v>
   <v>      -0.42857143       0.14285714       0.00000000 </v>
   <v>      -0.28571429       0.14285714       0.00000000 </v>
   <v>      -0.14285714       0.14285714       0.00000000 </v>
   <v>       0.00000000       0.28571429      -0.00000000 </v>
   <v>       0.14285714       0.28571429      -0.00000000 </v>
   <v>       0.28571429       0.28571429      -0.00000000 </v>
   <v>       0.42857143       0.28571429      -0.00000000 </v>
   <v>      -0.42857143       0.28571429      -0.00000000 </v>
   <v>      -0.28571429       0.28571429      -0.00000000 </v>
   <v>      -0.14285714       0.28571429      -0.00000000 </v>
   <v>      -0.00000000       0.42857143      -0.00000000 </v>
   <v>       0.14285714       0.42857143       0.00000000 </v>
   <v>       0.28571429       0.42857143       0.00000000 </v>
   <v>       0.42857143       0.42857143      -0.00000000 </v>
   <v>      -0.42857143       0.42857143       0.00000000 </v>
   <v>      -0.28571429       0.42857143      -0.00000000 </v>
   <v>      -0.14285714       0.42857143      -0.00000000 </v>
   <v>       0.00000000       0.00000000       0.14285714 </v>
   <v>       0.14285714       0.00000000       0.14285714 </v>
   <v>       0.28571429       0.00000000       0.14285714 </v>
   <v>       0.42857143       0.00000000       0.14285714 </v>
   <v>      -0.42857143       0.00000000       0.14285714 </v>
   <v>      -0.28571429       0.00000000       0.14285714 </v>
   <v>      -0.14285714      -0.00000000       0.14285714 </v>
   <v>      -0.00000000       0.14285714       0.14285714 </v>
   <v>       0.14285714       0.14285714       0.14285714 </v>
   <v>       0.28571429       0.14285714       0.14285714 </v>
   <v>       0.42857143       0.14285714       0.14285714 </v>
   <v>      -0.42857143       0.14285714       0.14285714 </v>
   <v>      -0.28571429       0.14285714       0.14285714 </v>
   <v>      -0.14285714       0.14285714       0.14285714 </v>
   <v>      -0.00000000       0.28571429       0.14285714 </v>
   <v>       0.14285714       0.28571429       0.14285714 </v>
   <v>       0.28571429       0.28571429       0.14285714 </v>
   <v>       0.42857143       0.28571429       0.14285714 </v>
   <v>      -0.42857143       0.28571429       0.14285714 </v>
   <v>      -0.28571429       0.28571429       0.14285714 </v>
   <v>      -0.14285714       0.28571429       0.14285714 </v>
   <v>       0.00000000       0.42857143       0.14285714 </v>
   <v>       0.14285714       0.42857143       0.14285714 </v>
   <v>       0.28571429       0.42857143       0.14285714 </v>
   <v>       0.42857143       0.42857143       0.14285714 </v>
   <v>      -0.42857143       0.42857143       0.14285714 </v>
   <v>      -0.28571429       0.42857143       0.14285714 </v>
   <v>      -0.14285714       0.42857143       0.14285714 </v>
   <v>       0.00000000      -0.42857143       0.14285714 </v>
   <v>       0.14285714      -0.42857143       0.14285714 </v>
   <v>       0.28571429      -0.42857143       0.14285714 </v>
   <v>       0.42857143      -0.42857143       0.14285714 </v>
   <v>      -0.42857143      -0.42857143       0.14285714 </v>
   <v>      -0.28571429      -0.42857143       0.14285714 </v>
   <v>      -0.14285714      -0.42857143       0.14285714 </v>
   <v>       0.00000000      -0.28571429       0.14285714 </v>
   <v>       0.14285714      -0.28571429       0.14285714 </v>
   <v>       0.28571429      -0.28571429       0.14285714 </v>
   <v>       0.42857143      -0.28571429       0.14285714 </v>
   <v>      -0.42857143      -0.28571429       0.14285714 </v>
   <v>      -0.28571429      -0.28571429       0.14285714 </v>
   <v>      -0.14285714      -0.28571429       0.14285714 </v>
   <v>       0.00000000      -0.14285714       0.14285714 </v>
   <v>       0.14285714      -0.14285714       0.14285714 </v>
   <v>       0.28571429      -0.14285714       0.14285714 </v>
   <v>       0.42857143      -0.14285714       0.14285714 </v>
   <v>      -0.42857143      -0.14285714       0.14285714 </v>
   <v>      -0.28571429      -0.14285714       0.14285714 </v>
   <v>      -0.14285714      -0.14285714       0.14285714 </v>
   <v>       0.00000000       0.00000000       0.28571429 </v>
   <v>       0.14285714       0.00000000       0.28571429 </v>
   <v>       0.28571429       0.00000000       0.28571429 </v>
   <v>       0.42857143       0.00000000       0.28571429 </v>
   <v>      -0.42857143      -0.00000000       0.28571429 </v>
   <v>      -0.28571429      -0.00000000       0.28571429 </v>
   <v>      -0.14285714      -0.00000000       0.28571429 </v>
   <v>      -0.00000000       0.14285714       0.28571429 </v>
   <v>       0.14285714       0.14285714       0.28571429 </v>
   <v>       0.28571429       0.14285714       0.28571429 </v>
   <v>       0.42857143       0.14285714       0.28571429 </v>
   <v>      -0.42857143       0.14285714       0.28571429 </v>
   <v>      -0.28571429       0.14285714       0.28571429 </v>
   <v>      -0.14285714       0.14285714       0.28571429 </v>
   <v>      -0.00000000       0.28571429       0.28571429 </v>
   <v>       0.14285714       0.28571429       0.28571429 </v>
   <v>       0.28571429       0.28571429       0.28571429 </v>
   <v>       0.42857143       0.28571429       0.28571429 </v>
   <v>      -0.42857143       0.28571429       0.28571429 </v>
   <v>      -0.28571429       0.28571429       0.28571429 </v>
   <v>      -0.14285714       0.28571429       0.28571429 </v>
   <v>       0.00000000       0.42857143       0.28571429 </v>
   <v>       0.14285714       0.42857143       0.28571429 </v>
   <v>       0.28571429       0.42857143       0.28571429 </v>
   <v>       0.42857143       0.42857143       0.28571429 </v>
   <v>      -0.42857143       0.42857143       0.28571429 </v>
   <v>      -0.28571429       0.42857143       0.28571429 </v>
   <v>      -0.14285714       0.42857143       0.28571429 </v>
   <v>      -0.00000000      -0.42857143       0.28571429 </v>
   <v>       0.14285714      -0.42857143       0.28571429 </v>
   <v>       0.28571429      -0.42857143       0.28571429 </v>
   <v>       0.42857143      -0.42857143       0.28571429 </v>
   <v>      -0.42857143      -0.42857143       0.28571429 </v>
   <v>      -0.28571429      -0.42857143       0.28571429 </v>
   <v>      -0.14285714      -0.42857143       0.28571429 </v>
   <v>       0.00000000      -0.28571429       0.28571429 </v>
   <v>       0.14285714      -0.28571429       0.28571429 </v>
   <v>       0.28571429      -0.28571429       0.28571429 </v>
   <v>       0.42857143      -0.28571429       0.28571429 </v>
   <v>      -0.42857143      -0.28571429       0.28571429 </v>
   <v>      -0.28571429      -0.28571429       0.28571429 </v>
   <v>      -0.14285714      -0.28571429       0.28571429 </v>
   <v>       0.00000000      -0.14285714       0.28571429 </v>
   <v>       0.14285714      -0.14285714       0.28571429 </v>
   <v>       0.28571429      -0.14285714       0.28571429 </v>
   <v>       0.42857143      -0.14285714       0.28571429 </v>
   <v>      -0.42857143      -0.14285714       0.28571429 </v>
   <v>      -0.28571429      -0.14285714       0.28571429 </v>
   <v>      -0.14285714      -0.14285714       0.28571429 </v>
   <v>       0.00000000       0.00000000       0.42857143 </v>
   <v>       0.14285714       0.00000000       0.42857143 </v>
   <v>       0.28571429       0.00000000       0.42857143 </v>
   <v>       0.42857143      -0.00000000       0.42857143 </v>
   <v>      -0.42857143      -0.00000000       0.42857143 </v>
   <v>      -0.28571429       0.00000000       0.42857143 </v>
   <v>      -0.14285714      -0.00000000       0.42857143 </v>
   <v>      -0.00000000       0.14285714       0.42857143 </v>
   <v>       0.14285714       0.14285714       0.42857143 </v>
   <v>       0.28571429       0.14285714       0.42857143 </v>
   <v>       0.42857143       0.14285714       0.42857143 </v>
   <v>      -0.42857143       0.14285714       0.42857143 </v>
   <v>      -0.28571429       0.14285714       0.42857143 </v>
   <v>      -0.14285714       0.14285714       0.42857143 </v>
   <v>       0.00000000       0.28571429       0.42857143 </v>
   <v>       0.14285714       0.28571429       0.42857143 </v>
   <v>       0.28571429       0.28571429       0.42857143 </v>
   <v>       0.42857143       0.28571429       0.42857143 </v>
   <v>      -0.42857143       0.28571429       0.42857143 </v>
   <v>      -0.28571429       0.28571429       0.42857143 </v>
   <v>      -0.14285714       0.28571429       0.42857143 </v>
   <v>       0.00000000       0.42857143       0.42857143 </v>
   <v>       0.14285714       0.42857143       0.42857143 </v>
   <v>       0.28571429       0.42857143       0.42857143 </v>
   <v>       0.42857143       0.42857143       0.42857143 </v>
   <v>      -0.42857143       0.42857143       0.42857143 </v>
   <v>      -0.28571429       0.42857143       0.42857143 </v>
   <v>      -0.14285714       0.42857143       0.42857143 </v>
   <v>       0.00000000      -0.42857143       0.42857143 </v>
   <v>       0.14285714      -0.42857143       0.42857143 </v>
   <v>       0.28571429      -0.42857143       0.42857143 </v>
   <v>       0.42857143      -0.42857143       0.42857143 </v>
   <v>      -0.42857143      -0.42857143       0.42857143 </v>
   <v>      -0.28571429      -0.42857143       0.42857143 </v>
   <v>      -0.14285714      -0.42857143       0.42857143 </v>
   <v>      -0.00000000      -0.28571429       0.42857143 </v>
   <v>       0.14285714      -0.28571429       0.42857143 </v>
   <v>       0.28571429      -0.28571429       0.42857143 </v>
   <v>       0.42857143      -0.28571429       0.42857143 </v>
   <v>      -0.42857143      -0.28571429       0.42857143 </v>
   <v>      -0.28571429      -0.28571429       0.42857143 </v>
   <v>      -0.14285714      -0.28571429       0.42857143 </v>
   <v>       0.00000000      -0.14285714       0.42857143 </v>
   <v>       0.14285714      -0.14285714       0.42857143 </v>
   <v>       0.28571429      -0.14285714       0.42857143 </v>
   <v>       0.42857143      -0.14285714       0.42857143 </v>
   <v>      -0.42857143      -0.14285714       0.42857143 </v>
   <v>      -0.28571429      -0.14285714       0.42857143 </v>
   <v>      -0.14285714      -0.14285714       0.42857143 </v>
  </varray>
  <varray name="weights" >
   <v>       0.00291545 </v>
   <v>       0.00583090 </v>
   <v>       0.00583090 </v>
   <v>       0.00583090 </v>
   <v>       0.00583090 </v>
   <v>       0.00583090 </v>
   <v>       0.00583090 </v>
   <v>       0.00583090 </v>
   <v>       0.00583090 </v>
   <v>       0.00583090 </v>
   <v>       0.00583090 </v>
   <v>       0.00583090 </v>
   <v>       0.00583090 </v>
   <v>       0.00583090 </v>
   <v>       0.00583090 </v>
   <v>       0.00583090 </v>
   <v>       0.00583090 </v>
   <v>       0.00583090 </v>
   <v>       0.00583090 </v>
   <v>       0.00583090 </v>
   <v>       0.00583090 </v>
   <v>       0.00583090 </v>
   <v>       0.00583090 </v>
   <v>       0.00583090 </v>
   <v>       0.00583090 </v>
   <v>       0.00583090 </v>
   <v>       0.00583090 </v>
   <v>       0.00583090 </v>
   <v>       0.00583090 </v>
   <v>       0.00583090 </v>
   <v>       0.00583090 </v>
   <v>       0.00583090 </v>
   <v>       0.00583090 </v>
   <v>       0.00583090 </v>
   <v>       0.00583090 </v>
   <v>       0.00583090 </v>
   <v>       0.00583090 </v>
   <v>       0.00583090 </v>
   <v>       0.00583090 </v>
   <v>       0.00583090 </v>
   <v>       0.00583090 </v>
   <v>       0.00583090 </v>
   <v>       0.00583090 </v>
   <v>       0.00583090 </v>
   <v>       0.00583090 </v>
   <v>       0.00583090 </v>
   <v>       0.00583090 </v>
   <v>       0.00583090 </v>
   <v>       0.00583090 </v>
   <v>       0.00583090 </v>
   <v>       0.00583090 </v>
   <v>       0.00583090 </v>
   <v>       0.00583090 </v>
   <v>       0.00583090 </v>
   <v>       0.00583090 </v>
   <v>       0.00583090 </v>
   <v>       0.00583090 </v>
   <v>       0.00583090 </v>
   <v>       0.00583090 </v>
   <v>       0.00583090 </v>
   <v>       0.00583090 </v>
   <v>       0.00583090 </v>
   <v>       0.00583090 </v>
   <v>       0.00583090 </v>
   <v>       0.00583090 </v>
   <v>       0.00583090 </v>
   <v>       0.00583090 </v>
   <v>       0.00583090 </v>
   <v>       0.00583090 </v>
   <v>       0.00583090 </v>
   <v>       0.00583090 </v>
   <v>       0.00583090 </v>
   <v>       0.00583090 </v>
   <v>       0.00583090 </v>
   <v>       0.00583090 </v>
   <v>       0.00583090 </v>
   <v>       0.00583090 </v>
   <v>       0.00583090 </v>
   <v>       0.00583090 </v>
   <v>       0.00583090 </v>
   <v>       0.00583090 </v>
   <v>       0.00583090 </v>
   <v>       0.00583090 </v>
   <v>       0.00583090 </v>
   <v>       0.00583090 </v>
   <v>       0.00583090 </v>
   <v>       0.00583090 </v>
   <v>       0.00583090 </v>
   <v>       0.00583090 </v>
   <v>       0.00583090 </v>
   <v>       0.00583090 </v>
   <v>       0.00583090 </v>
   <v>       0.00583090 </v>
   <v>       0.00583090 </v>
   <v>       0.00583090 </v>
   <v>       0.00583090 </v>
   <v>       0.00583090 </v>
   <v>       0.00583090 </v>
   <v>       0.00583090 </v>
   <v>       0.00583090 </v>
   <v>       0.00583090 </v>
   <v>       0.00583090 </v>
   <v>       0.00583090 </v>
   <v>       0.00583090 </v>
   <v>       0.00583090 </v>
   <v>       0.00583090 </v>
   <v>       0.00583090 </v>
   <v>       0.00583090 </v>
   <v>       0.00583090 </v>
   <v>       0.00583090 </v>
   <v>       0.00583090 </v>
   <v>       0.00583090 </v>
   <v>       0.00583090 </v>
   <v>       0.00583090 </v>
   <v>       0.00583090 </v>
   <v>       0.00583090 </v>
   <v>       0.00583090 </v>
   <v>       0.00583090 </v>
   <v>       0.00583090 </v>
   <v>       0.00583090 </v>
   <v>       0.00583090 </v>
   <v>       0.00583090 </v>
   <v>       0.00583090 </v>
   <v>       0.00583090 </v>
   <v>       0.00583090 </v>
   <v>       0.00583090 </v>
   <v>       0.00583090 </v>
   <v>       0.00583090 </v>
   <v>       0.00583090 </v>
   <v>       0.00583090 </v>
   <v>       0.00583090 </v>
   <v>       0.00583090 </v>
   <v>       0.00583090 </v>
   <v>       0.00583090 </v>
   <v>       0.00583090 </v>
   <v>       0.00583090 </v>
   <v>       0.00583090 </v>
   <v>       0.00583090 </v>
   <v>       0.00583090 </v>
   <v>       0.00583090 </v>
   <v>       0.00583090 </v>
   <v>       0.00583090 </v>
   <v>       0.00583090 </v>
   <v>       0.00583090 </v>
   <v>       0.00583090 </v>
   <v>       0.00583090 </v>
   <v>       0.00583090 </v>
   <v>       0.00583090 </v>
   <v>       0.00583090 </v>
   <v>       0.00583090 </v>
   <v>       0.00583090 </v>
   <v>       0.00583090 </v>
   <v>       0.00583090 </v>
   <v>       0.00583090 </v>
   <v>       0.00583090 </v>
   <v>       0.00583090 </v>
   <v>       0.00583090 </v>
   <v>       0.00583090 </v>
   <v>       0.00583090 </v>
   <v>       0.00583090 </v>
   <v>       0.00583090 </v>
   <v>       0.00583090 </v>
   <v>       0.00583090 </v>
   <v>       0.00583090 </v>
   <v>       0.00583090 </v>
   <v>       0.00583090 </v>
   <v>       0.00583090 </v>
   <v>       0.00583090 </v>
   <v>       0.00583090 </v>
   <v>       0.00583090 </v>
   <v>       0.00583090 </v>
   <v>       0.00583090 </v>
  </varray>
 </kpoints>
 <parameters>
  <separator name="general" >
   <i type="string" name="SYSTEM">Nb - Mo - Ta - Ti - V SQS</i>
   <i type="logical" name="LCOMPAT"> F  </i>
  </separator>
  <separator name="electronic" >
   <i type="string" name="PREC">normal</i>
   <i name="ENMAX">    600.00000000</i>
   <i name="ENAUG">    455.65900000</i>
   <i name="EDIFF">      0.00010000</i>
   <i type="int" name="IALGO">    38</i>
   <i type="int" name="IWAVPR">    11</i>
   <i type="int" name="NBANDS">   120</i>
   <i name="NELECT">    185.00000000</i>
   <i type="int" name="TURBO">     0</i>
   <i type="int" name="IRESTART">     0</i>
   <i type="int" name="NREBOOT">     0</i>
   <i type="int" name="NMIN">     0</i>
   <i name="EREF">      0.00000000</i>
   <separator name="electronic smearing" >
    <i type="int" name="ISMEAR">     1</i>
    <i name="SIGMA">      0.20000000</i>
    <i name="KSPACING">      0.50000000</i>
    <i type="logical" name="KGAMMA"> T  </i>
   </separator>
   <separator name="electronic projectors" >
    <i type="logical" name="LREAL"> T  </i>
    <v name="ROPT">     -0.00050000     -0.00050000     -0.00050000     -0.00050000     -0.00050000</v>
    <i type="int" name="LMAXPAW">  -100</i>
    <i type="int" name="LMAXMIX">     2</i>
    <i type="logical" name="NLSPLINE"> F  </i>
   </separator>
   <separator name="electronic startup" >
    <i type="int" name="ISTART">     0</i>
    <i type="int" name="ICHARG">     0</i>
    <i type="int" name="INIWAV">     1</i>
   </separator>
   <separator name="electronic spin" >
    <i type="int" name="ISPIN">     1</i>
    <i type="logical" name="LNONCOLLINEAR"> F  </i>
    <v name="MAGMOM">      1.00000000      1.00000000      1.00000000      1.00000000      1.00000000      1.00000000      1.00000000      1.00000000      1.00000000      1.00000000      1.00000000      1.00000000      1.00000000      1.00000000      1.00000000      1.00000000      1.00000000      1.00000000      1.00000000      1.00000000
      1.00000000      1.00000000      1.00000000      1.00000000      1.00000000      1.00000000      1.00000000      1.00000000      1.00000000</v>
    <i name="NUPDOWN">     -1.00000000</i>
    <i type="logical" name="LSORBIT"> F  </i>
    <v name="SAXIS">      0.00000000      0.00000000      1.00000000</v>
    <i type="logical" name="LSPIRAL"> F  </i>
    <v name="QSPIRAL">      0.00000000      0.00000000      0.00000000</v>
    <i type="logical" name="LZEROZ"> F  </i>
   </separator>
   <separator name="electronic exchange-correlation" >
    <i type="logical" name="LASPH"> F  </i>
    <i type="logical" name="LMETAGGA"> F  </i>
   </separator>
   <separator name="electronic convergence" >
    <i type="int" name="NELM">    60</i>
    <i type="int" name="NELMDL">    -5</i>
    <i type="int" name="NELMIN">     2</i>
    <i name="ENINI">    600.00000000</i>
    <separator name="electronic convergence detail" >
     <i type="logical" name="LDIAG"> T  </i>
     <i type="logical" name="LSUBROT"> F  </i>
     <i name="WEIMIN">      0.00100000</i>
     <i name="EBREAK">      0.00000021</i>
     <i name="DEPER">      0.30000000</i>
     <i type="int" name="NRMM">     4</i>
     <i name="TIME">      0.40000000</i>
    </separator>
   </separator>
   <separator name="electronic mixer" >
    <i name="AMIX">      0.40000000</i>
    <i name="BMIX">      1.00000000</i>
    <i name="AMIN">      0.10000000</i>
    <i name="AMIX_MAG">      1.60000000</i>
    <i name="BMIX_MAG">      1.00000000</i>
    <separator name="electronic mixer details" >
     <i type="int" name="IMIX">     4</i>
     <i type="logical" name="MIXFIRST"> F  </i>
     <i type="int" name="MAXMIX">   -45</i>
     <i name="WC">    100.00000000</i>
     <i type="int" name="INIMIX">     1</i>
     <i type="int" name="MIXPRE">     1</i>
     <i type="int" name="MREMOVE">     5</i>
    </separator>
   </separator>
   <separator name="electronic dipolcorrection" >
    <i type="logical" name="LDIPOL"> F  </i>
    <i type="logical" name="LMONO"> F  </i>
    <i type="int" name="IDIPOL">     0</i>
    <i name="EPSILON">      1.00000000</i>
    <v name="DIPOL">   -100.00000000   -100.00000000   -100.00000000</v>
    <i name="EFIELD">      0.00000000</i>
   </separator>
  </separator>
  <separator name="grids" >
   <i type="int" name="NGX">    36</i>
   <i type="int" name="NGY">    50</i>
   <i type="int" name="NGZ">    70</i>
   <i type="int" name="NGXF">    72</i>
   <i type="int" name="NGYF">   100</i>
   <i type="int" name="NGZF">   140</i>
   <i type="logical" name="ADDGRID"> F  </i>
  </separator>
  <separator name="ionic" >
   <i type="int" name="NSW">    50</i>
   <i type="int" name="IBRION">     2</i>
   <i type="int" name="MDALGO">     0</i>
   <i type="int" name="ISIF">     3</i>
   <i name="PSTRESS">      0.00000000</i>
   <i name="EDIFFG">      0.00100000</i>
   <i type="int" name="NFREE">     1</i>
   <i name="POTIM">      0.50000000</i>
   <i name="SMASS">     -3.00000000</i>
   <i name="SCALEE">      1.00000000</i>
  </separator>
  <separator name="ionic md" >
   <i name="TEBEG">      0.00010000</i>
   <i name="TEEND">      0.00010000</i>
   <i type="int" name="NBLOCK">     1</i>
   <i type="int" name="KBLOCK">    50</i>
   <i type="int" name="NPACO">   256</i>
   <i name="APACO">     16.00000000</i>
  </separator>
  <separator name="symmetry" >
   <i type="int" name="ISYM">     2</i>
   <i name="SYMPREC">      0.00001000</i>
  </separator>
  <separator name="dos" >
   <i type="int" name="LORBIT">     0</i>
   <v name="RWIGS">     -1.00000000     -1.00000000     -1.00000000     -1.00000000     -1.00000000</v>
   <i type="int" name="NEDOS">   301</i>
   <i name="EMIN">     10.00000000</i>
   <i name="EMAX">    -10.00000000</i>
   <i name="EFERMI">      0.00000000</i>
  </separator>
  <separator name="writing" >
   <i type="int" name="NWRITE">     2</i>
   <i type="logical" name="LWAVE"> T  </i>
   <i type="logical" name="LDOWNSAMPLE"> F  </i>
   <i type="logical" name="LCHARG"> T  </i>
   <i type="logical" name="LPARD"> F  </i>
   <i type="logical" name="LVTOT"> F  </i>
   <i type="logical" name="LVHAR"> F  </i>
   <i type="logical" name="LELF"> F  </i>
   <i type="logical" name="LOPTICS"> F  </i>
   <v name="STM">      0.00000000      0.00000000      0.00000000      0.00000000      0.00000000      0.00000000      0.00000000</v>
  </separator>
  <separator name="performance" >
   <i type="int" name="NPAR">    12</i>
   <i type="int" name="NSIM">     4</i>
   <i type="int" name="NBLK">    -1</i>
   <i type="logical" name="LPLANE"> T  </i>
   <i type="logical" name="LSCALAPACK"> T  </i>
   <i type="logical" name="LSCAAWARE"> F  </i>
   <i type="logical" name="LSCALU"> F  </i>
   <i type="logical" name="LASYNC"> F  </i>
   <i type="logical" name="LORBITALREAL"> F  </i>
  </separator>
  <separator name="miscellaneous" >
   <i type="int" name="IDIOT">     3</i>
   <i type="int" name="ISPECIAL">     0</i>
   <i type="logical" name="LMUSIC"> F  </i>
   <v name="POMASS">     92.91000000     95.94000000    180.94800000     47.88000000     50.94100000</v>
   <v name="DARWINR">      0.00000000      0.00000000      0.00000000      0.00000000      0.00000000</v>
   <v name="DARWINV">      1.00000000      1.00000000      1.00000000      1.00000000      1.00000000</v>
   <i type="logical" name="LCORR"> T  </i>
  </separator>
  <i type="logical" name="GGA_COMPAT"> T  </i>
  <i type="logical" name="LBERRY"> F  </i>
  <i type="int" name="ICORELEVEL">     0</i>
  <i type="logical" name="LDAU"> F  </i>
  <i type="int" name="I_CONSTRAINED_M">     0</i>
  <separator name="electronic exchange-correlation" >
   <i type="string" name="GGA">PS</i>
   <i type="int" name="VOSKOWN">     0</i>
   <i type="logical" name="LHFCALC"> F  </i>
   <i type="string" name="PRECFOCK"></i>
   <i type="logical" name="LSYMGRAD"> F  </i>
   <i type="logical" name="LHFONE"> F  </i>
   <i type="logical" name="LRHFCALC"> F  </i>
   <i type="logical" name="LTHOMAS"> F  </i>
   <i type="logical" name="LMODELHF"> F  </i>
   <i name="ENCUT4O">     -1.00000000</i>
   <i type="int" name="EXXOEP">     0</i>
   <i type="int" name="FOURORBIT">     0</i>
   <i name="AEXX">      0.00000000</i>
   <i name="HFALPHA">      0.00000000</i>
   <i name="MCALPHA">      0.00000000</i>
   <i name="ALDAX">      1.00000000</i>
   <i name="AGGAX">      1.00000000</i>
   <i name="ALDAC">      1.00000000</i>
   <i name="AGGAC">      1.00000000</i>
   <i type="int" name="NKREDX">     1</i>
   <i type="int" name="NKREDY">     1</i>
   <i type="int" name="NKREDZ">     1</i>
   <i type="logical" name="SHIFTRED"> F  </i>
   <i type="logical" name="ODDONLY"> F  </i>
   <i type="logical" name="EVENONLY"> F  </i>
   <i type="int" name="LMAXFOCK">     0</i>
   <i type="int" name="NMAXFOCKAE">     0</i>
   <i type="logical" name="LFOCKAEDFT"> F  </i>
   <i name="HFSCREEN">      0.00000000</i>
   <i name="HFSCREENC">      0.00000000</i>
   <i type="int" name="NBANDSGWLOW">     0</i>
  </separator>
  <separator name="vdW DFT" >
   <i type="logical" name="LUSE_VDW"> F  </i>
   <i name="Zab_VDW">     -0.84910000</i>
   <i name="PARAM1">      0.12340000</i>
   <i name="PARAM2">      1.00000000</i>
   <i name="PARAM3">      0.00000000</i>
  </separator>
  <separator name="model GW" >
   <i type="int" name="MODEL_GW">     0</i>
   <i name="MODEL_EPS0">      9.79277462</i>
   <i name="MODEL_ALPHA">      1.00000000</i>
  </separator>
  <separator name="linear response parameters" >
   <i type="logical" name="LEPSILON"> F  </i>
   <i type="logical" name="LRPA"> F  </i>
   <i type="logical" name="LNABLA"> F  </i>
   <i type="logical" name="LVEL"> F  </i>
   <i type="int" name="KINTER">     0</i>
   <i name="CSHIFT">      0.10000000</i>
   <i name="OMEGAMAX">     -1.00000000</i>
   <i name="DEG_THRESHOLD">      0.00200000</i>
   <i name="RTIME">     -0.10000000</i>
   <i name="WPLASMAI">      0.00000000</i>
   <v name="DFIELD">      0.00000000      0.00000000      0.00000000</v>
   <v name="WPLASMA">      0.00000000      0.00000000      0.00000000      0.00000000      0.00000000      0.00000000      0.00000000      0.00000000      0.00000000</v>
  </separator>
  <separator name="orbital magnetization" >
   <i type="logical" name="NUCIND"> F  </i>
   <v name="MAGPOS">      0.00000000      0.00000000      0.00000000</v>
   <i type="logical" name="LNICSALL"> T  </i>
   <i type="logical" name="ORBITALMAG"> F  </i>
   <i type="logical" name="LMAGBLOCH"> F  </i>
   <i type="logical" name="LCHIMAG"> F  </i>
   <i type="logical" name="LGAUGE"> T  </i>
   <i type="int" name="MAGATOM">     0</i>
   <v name="MAGDIPOL">      0.00000000      0.00000000      0.00000000</v>
   <v name="AVECCONST">      0.00000000      0.00000000      0.00000000</v>
  </separator>
  <separator name="response functions" >
   <i type="logical" name="LADDER"> F  </i>
   <i type="logical" name="LRPAFORCE"> F  </i>
   <i type="logical" name="LFXC"> F  </i>
   <i type="logical" name="LHARTREE"> T  </i>
   <i type="int" name="IBSE">     0</i>
   <v type="int" name="KPOINT">    -1     0     0     0</v>
   <i type="logical" name="LTCTE"> F  </i>
   <i type="logical" name="LTETE"> F  </i>
   <i type="logical" name="LTRIPLET"> F  </i>
   <i type="logical" name="LFXCEPS"> F  </i>
   <i type="logical" name="LFXHEG"> F  </i>
   <i type="int" name="NATURALO">     2</i>
   <i type="logical" name="L2ORDER"> F  </i>
   <i type="logical" name="LMP2LT"> F  </i>
   <i type="logical" name="LUSEW"> F  </i>
   <i name="ENCUTGW">     -2.00000000</i>
   <i name="ENCUTGWSOFT">     -2.00000000</i>
   <i name="ENCUTLF">     -1.00000000</i>
   <i type="int" name="LMAXMP2">    -1</i>
   <i name="SCISSOR">      0.00000000</i>
   <i type="int" name="NOMEGA">     0</i>
   <i type="int" name="NOMEGAR">     0</i>
   <i type="int" name="NBANDSGW">    -1</i>
   <i type="int" name="NBANDSO">    -1</i>
   <i type="int" name="NBANDSV">    -1</i>
   <i type="int" name="NELM">     1</i>
   <i type="int" name="NELMHF">     1</i>
   <i type="int" name="DIM">     3</i>
   <i type="int" name="ANTIRES">     0</i>
   <i name="OMEGAMAX">    -30.00000000</i>
   <i name="OMEGAMIN">    -30.00000000</i>
   <i name="OMEGATL">   -200.00000000</i>
   <i type="int" name="OMEGAGRID">   140</i>
   <i name="CSHIFT">     -0.10000000</i>
   <i type="logical" name="SELFENERGY"> F  </i>
   <i type="logical" name="LSPECTRAL"> F  </i>
   <i type="logical" name="LSPECTRALGW"> F  </i>
   <i type="logical" name="LSINGLES"> F  </i>
   <i type="logical" name="LFERMIGW"> F  </i>
   <i type="logical" name="ODDONLYGW"> F  </i>
   <i type="logical" name="EVENONLYGW"> F  </i>
   <i type="int" name="NKREDLFX">     1</i>
   <i type="int" name="NKREDLFY">     1</i>
   <i type="int" name="NKREDLFZ">     1</i>
   <i type="int" name="MAXMEM">  2800</i>
   <i type="int" name="TELESCOPE">     0</i>
   <i type="int" name="TAUPAR">     1</i>
   <i type="int" name="OMEGAPAR">    -1</i>
   <i name="LAMBDA">      1.00000000</i>
  </separator>
  <separator name="External order field" >
   <i name="OFIELD_KAPPA">      0.00000000</i>
   <v name="OFIELD_K">      0.00000000      0.00000000      0.00000000</v>
   <i name="OFIELD_Q6_NEAR">      0.00000000</i>
   <i name="OFIELD_Q6_FAR">      0.00000000</i>
   <i name="OFIELD_A">      0.00000000</i>
  </separator>
  <separator name="solvation model" >
   <i type="logical" name="LSOL"> F  </i>
  </separator>
 </parameters>
 <atominfo>
  <atoms>      29 </atoms>
  <types>       5 </types>
  <array name="atoms" >
   <dimension dim="1">ion</dimension>
   <field type="string">element</field>
   <field type="int">atomtype</field>
   <set>
    <rc><c>Nb</c><c>   1</c></rc>
    <rc><c>Nb</c><c>   1</c></rc>
    <rc><c>Nb</c><c>   1</c></rc>
    <rc><c>Nb</c><c>   1</c></rc>
    <rc><c>Nb</c><c>   1</c></rc>
    <rc><c>Mo</c><c>   2</c></rc>
    <rc><c>Mo</c><c>   2</c></rc>
    <rc><c>Mo</c><c>   2</c></rc>
    <rc><c>Mo</c><c>   2</c></rc>
    <rc><c>Mo</c><c>   2</c></rc>
    <rc><c>Mo</c><c>   2</c></rc>
    <rc><c>Ta</c><c>   3</c></rc>
    <rc><c>Ta</c><c>   3</c></rc>
    <rc><c>Ta</c><c>   3</c></rc>
    <rc><c>Ta</c><c>   3</c></rc>
    <rc><c>Ta</c><c>   3</c></rc>
    <rc><c>Ta</c><c>   3</c></rc>
    <rc><c>Ti</c><c>   4</c></rc>
    <rc><c>Ti</c><c>   4</c></rc>
    <rc><c>Ti</c><c>   4</c></rc>
    <rc><c>Ti</c><c>   4</c></rc>
    <rc><c>Ti</c><c>   4</c></rc>
    <rc><c>Ti</c><c>   4</c></rc>
    <rc><c>V </c><c>   5</c></rc>
    <rc><c>V </c><c>   5</c></rc>
    <rc><c>V </c><c>   5</c></rc>
    <rc><c>V </c><c>   5</c></rc>
    <rc><c>V </c><c>   5</c></rc>
    <rc><c>V </c><c>   5</c></rc>
   </set>
  </array>
  <array name="atomtypes" >
   <dimension dim="1">type</dimension>
   <field type="int">atomspertype</field>
   <field type="string">element</field>
   <field>mass</field>
   <field>valence</field>
   <field type="string">pseudopotential</field>
   <set>
    <rc><c>   5</c><c>Nb</c><c>     92.91000000</c><c>     13.00000000</c><c>  PAW_PBE Nb_sv 25May2007               </c></rc>
    <rc><c>   6</c><c>Mo</c><c>     95.94000000</c><c>      6.00000000</c><c>  PAW_PBE Mo 08Apr2002                  </c></rc>
    <rc><c>   6</c><c>Ta</c><c>    180.94800000</c><c>      5.00000000</c><c>  PAW_PBE Ta 17Jan2003                  </c></rc>
    <rc><c>   6</c><c>Ti</c><c>     47.88000000</c><c>      4.00000000</c><c>  PAW_PBE Ti 08Apr2002                  </c></rc>
    <rc><c>   6</c><c>V </c><c>     50.94100000</c><c>      5.00000000</c><c>  PAW_PBE V 08Apr2002                   </c></rc>
   </set>
  </array>
 </atominfo>
 <structure name="initialpos" >
  <crystal>
   <varray name="basis" >
    <v>      -3.16000000      -3.16000000      -3.16000000 </v>
    <v>       1.58000000       1.58000000      -7.90000000 </v>
    <v>       7.90000000      -7.90000000      -1.58000000 </v>
   </varray>
   <i name="volume">    473.31744000 </i>
   <varray name="rec_basis" >
    <v>      -0.13713080      -0.12658228      -0.05274262 </v>
    <v>       0.04219409       0.06329114      -0.10548523 </v>
    <v>       0.06329114      -0.06329114       0.00000000 </v>
   </varray>
  </crystal>
  <varray name="positions" >
   <v>       0.96666667       0.93333333       0.40000000 </v>
   <v>       0.63333333       0.26666667       0.40000000 </v>
   <v>       0.50000000       0.00000000       0.00000000 </v>
   <v>       0.00000000       0.00000000       0.00000000 </v>
   <v>       0.10000000       0.20000000       0.80000000 </v>
   <v>       0.90000000       0.80000000       0.20000000 </v>
   <v>       0.80000000       0.60000000       0.40000000 </v>
   <v>       0.73333333       0.46666667       0.20000000 </v>
   <v>       0.66666667       0.33333333       0.00000000 </v>
   <v>       0.36666667       0.73333333       0.60000000 </v>
   <v>       0.13333333       0.26666667       0.40000000 </v>
   <v>       0.83333333       0.66666667       0.00000000 </v>
   <v>       0.93333333       0.86666667       0.80000000 </v>
   <v>       0.56666667       0.13333333       0.20000000 </v>
   <v>       0.40000000       0.80000000       0.20000000 </v>
   <v>       0.43333333       0.86666667       0.80000000 </v>
   <v>       0.30000000       0.60000000       0.40000000 </v>
   <v>       0.86666667       0.73333333       0.60000000 </v>
   <v>       0.46666667       0.93333333       0.40000000 </v>
   <v>       0.16666667       0.33333333       0.00000000 </v>
   <v>       0.26666667       0.53333333       0.80000000 </v>
   <v>       0.20000000       0.40000000       0.60000000 </v>
   <v>       0.06666667       0.13333333       0.20000000 </v>
   <v>       0.76666667       0.53333333       0.80000000 </v>
   <v>       0.70000000       0.40000000       0.60000000 </v>
   <v>       0.60000000       0.20000000       0.80000000 </v>
   <v>       0.53333333       0.06666667       0.60000000 </v>
   <v>       0.33333333       0.66666667       0.00000000 </v>
   <v>       0.23333333       0.46666667       0.20000000 </v>
  </varray>
 </structure>
 <calculation>
  <scstep>
   <time name="dav">   40.42   40.61</time>
   <time name="total">   40.54   40.76</time>
   <energy>
    <i name="alphaZ">   1104.47950323 </i>
    <i name="ewald"> -10196.18207334 </i>
    <i name="hartreedc">   -104.12640002 </i>
    <i name="XCdc">  -1018.50793406 </i>
    <i name="pawpsdc"> 490130.33879980 </i>
    <i name="pawaedc">-488812.72528337 </i>
    <i name="eentropy">      0.00052780 </i>
    <i name="bandstr">  -5832.10157229 </i>
    <i name="atom">  11451.57642151 </i>
    <i name="e_fr_energy">  -3277.24801075 </i>
    <i name="e_wo_entrp">  -3277.24853855 </i>
    <i name="e_0_energy">  -3277.24818668 </i>
   </energy>
  </scstep>
  <scstep>
   <time name="dav">   50.56   50.63</time>
   <time name="total">   50.57   50.64</time>
   <energy>
    <i name="e_fr_energy">  -8760.54310024 </i>
    <i name="e_wo_entrp">  -8760.54491552 </i>
    <i name="e_0_energy">  -8760.54370533 </i>
   </energy>
  </scstep>
  <scstep>
   <time name="dav">   56.56   56.64</time>
   <time name="total">   56.57   56.65</time>
   <energy>
    <i name="e_fr_energy">  -9806.61996497 </i>
    <i name="e_wo_entrp">  -9806.61910431 </i>
    <i name="e_0_energy">  -9806.61967809 </i>
   </energy>
  </scstep>
  <scstep>
   <time name="dav">   56.47   56.54</time>
   <time name="total">   56.48   56.55</time>
   <energy>
    <i name="e_fr_energy"> -10143.49774687 </i>
    <i name="e_wo_entrp"> -10143.49673759 </i>
    <i name="e_0_energy"> -10143.49741045 </i>
   </energy>
  </scstep>
  <scstep>
   <time name="dav">   56.53   56.61</time>
   <time name="total">   57.18   57.26</time>
   <energy>
    <i name="e_fr_energy"> -10308.65476689 </i>
    <i name="e_wo_entrp"> -10308.65272700 </i>
    <i name="e_0_energy"> -10308.65408693 </i>
   </energy>
  </scstep>
  <scstep>
   <time name="dav">   48.45   48.51</time>
   <time name="total">   49.10   49.16</time>
   <energy>
    <i name="e_fr_energy">  -1565.67901475 </i>
    <i name="e_wo_entrp">  -1565.67442291 </i>
    <i name="e_0_energy">  -1565.67748414 </i>
   </energy>
  </scstep>
  <scstep>
   <time name="dav">   50.07   50.13</time>
   <time name="total">   50.82   50.89</time>
   <energy>
    <i name="e_fr_energy">   -797.88476630 </i>
    <i name="e_wo_entrp">   -797.88535308 </i>
    <i name="e_0_energy">   -797.88496190 </i>
   </energy>
  </scstep>
  <scstep>
   <time name="dav">   51.91   51.98</time>
   <time name="total">   52.64   52.71</time>
   <energy>
    <i name="e_fr_energy">   -622.20408516 </i>
    <i name="e_wo_entrp">   -622.20247759 </i>
    <i name="e_0_energy">   -622.20354931 </i>
   </energy>
  </scstep>
  <scstep>
   <time name="dav">   50.93   51.00</time>
   <time name="total">   51.60   51.67</time>
   <energy>
    <i name="e_fr_energy">   -548.99739055 </i>
    <i name="e_wo_entrp">   -548.99543443 </i>
    <i name="e_0_energy">   -548.99673851 </i>
   </energy>
  </scstep>
  <scstep>
   <time name="dav">   53.50   53.57</time>
   <time name="total">   54.15   54.22</time>
   <energy>
    <i name="e_fr_energy">   -531.12488160 </i>
    <i name="e_wo_entrp">   -531.12550123 </i>
    <i name="e_0_energy">   -531.12508815 </i>
   </energy>
  </scstep>
  <scstep>
   <time name="dav">   49.87   49.93</time>
   <time name="total">   50.53   50.61</time>
   <energy>
    <i name="e_fr_energy">   -532.83986971 </i>
    <i name="e_wo_entrp">   -532.84076022 </i>
    <i name="e_0_energy">   -532.84016655 </i>
   </energy>
  </scstep>
  <scstep>
   <time name="dav">   52.99   53.06</time>
   <time name="total">   53.64   53.71</time>
   <energy>
    <i name="e_fr_energy">   -564.41555839 </i>
    <i name="e_wo_entrp">   -564.41871602 </i>
    <i name="e_0_energy">   -564.41661093 </i>
   </energy>
  </scstep>
  <scstep>
   <time name="dav">   52.82   52.88</time>
   <time name="total">   53.53   53.60</time>
   <energy>
    <i name="e_fr_energy">   -549.89282179 </i>
    <i name="e_wo_entrp">   -549.89255748 </i>
    <i name="e_0_energy">   -549.89273369 </i>
   </energy>
  </scstep>
  <scstep>
   <time name="dav">   44.66   44.72</time>
   <time name="total">   45.32   45.37</time>
   <energy>
    <i name="e_fr_energy">   -472.75026704 </i>
    <i name="e_wo_entrp">   -472.74528354 </i>
    <i name="e_0_energy">   -472.74860587 </i>
   </energy>
  </scstep>
  <scstep>
   <time name="dav">   55.22   55.28</time>
   <time name="total">   55.89   55.96</time>
   <energy>
    <i name="e_fr_energy">   -433.88738872 </i>
    <i name="e_wo_entrp">   -433.88950944 </i>
    <i name="e_0_energy">   -433.88809563 </i>
   </energy>
  </scstep>
  <scstep>
   <time name="dav">   51.96   52.02</time>
   <time name="total">   52.61   52.67</time>
   <energy>
    <i name="e_fr_energy">   -384.38077994 </i>
    <i name="e_wo_entrp">   -384.37665136 </i>
    <i name="e_0_energy">   -384.37940374 </i>
   </energy>
  </scstep>
  <scstep>
   <time name="dav">   52.79   52.85</time>
   <time name="total">   53.46   53.53</time>
   <energy>
    <i name="e_fr_energy">   -372.02264546 </i>
    <i name="e_wo_entrp">   -372.01822786 </i>
    <i name="e_0_energy">   -372.02117292 </i>
   </energy>
  </scstep>
  <scstep>
   <time name="dav">   52.98   53.04</time>
   <time name="total">   53.63   53.69</time>
   <energy>
    <i name="e_fr_energy">   -370.89650085 </i>
    <i name="e_wo_entrp">   -370.89536008 </i>
    <i name="e_0_energy">   -370.89612059 </i>
   </energy>
  </scstep>
  <scstep>
   <time name="dav">   49.62   49.67</time>
   <time name="total">   50.28   50.34</time>
   <energy>
    <i name="e_fr_energy">   -377.85349954 </i>
    <i name="e_wo_entrp">   -377.85614283 </i>
    <i name="e_0_energy">   -377.85438064 </i>
   </energy>
  </scstep>
  <scstep>
   <time name="dav">   54.43   54.50</time>
   <time name="total">   55.08   55.15</time>
   <energy>
    <i name="e_fr_energy">   -353.84403067 </i>
    <i name="e_wo_entrp">   -353.84773937 </i>
    <i name="e_0_energy">   -353.84526690 </i>
   </energy>
  </scstep>
  <scstep>
   <time name="dav">   50.46   50.52</time>
   <time name="total">   51.12   51.19</time>
   <energy>
    <i name="e_fr_energy">   -349.92736781 </i>
    <i name="e_wo_entrp">   -349.91397984 </i>
    <i name="e_0_energy">   -349.92290515 </i>
   </energy>
  </scstep>
  <scstep>
   <time name="dav">   55.04   55.10</time>
   <time name="total">   55.68   55.75</time>
   <energy>
    <i name="e_fr_energy">   -328.86423679 </i>
    <i name="e_wo_entrp">   -328.85074011 </i>
    <i name="e_0_energy">   -328.85973790 </i>
   </energy>
  </scstep>
  <scstep>
   <time name="dav">   52.55   52.61</time>
   <time name="total">   53.21   53.28</time>
   <energy>
    <i name="e_fr_energy">   -314.66588730 </i>
    <i name="e_wo_entrp">   -314.65758390 </i>
    <i name="e_0_energy">   -314.66311950 </i>
   </energy>
  </scstep>
  <scstep>
   <time name="dav">   49.10   49.16</time>
   <time name="total">   49.75   49.81</time>
   <energy>
    <i name="e_fr_energy">   -315.67064528 </i>
    <i name="e_wo_entrp">   -315.65295889 </i>
    <i name="e_0_energy">   -315.66474982 </i>
   </energy>
  </scstep>
  <scstep>
   <time name="dav">   54.88   54.94</time>
   <time name="total">   55.54   55.62</time>
   <energy>
    <i name="e_fr_energy">   -315.28096402 </i>
    <i name="e_wo_entrp">   -315.26203260 </i>
    <i name="e_0_energy">   -315.27465354 </i>
   </energy>
  </scstep>
  <scstep>
   <time name="dav">   53.31   53.38</time>
   <time name="total">   53.96   54.03</time>
   <energy>
    <i name="e_fr_energy">   -315.60271977 </i>
    <i name="e_wo_entrp">   -315.58394478 </i>
    <i name="e_0_energy">   -315.59646144 </i>
   </energy>
  </scstep>
  <scstep>
   <time name="dav">   49.43   49.50</time>
   <time name="total">   50.10   50.18</time>
   <energy>
    <i name="e_fr_energy">   -312.52833081 </i>
    <i name="e_wo_entrp">   -312.51519190 </i>
    <i name="e_0_energy">   -312.52395117 </i>
   </energy>
  </scstep>
  <scstep>
   <time name="dav">   50.91   50.98</time>
   <time name="total">   51.56   51.63</time>
   <energy>
    <i name="e_fr_energy">   -308.38231162 </i>
    <i name="e_wo_entrp">   -308.36887852 </i>
    <i name="e_0_energy">   -308.37783392 </i>
   </energy>
  </scstep>
  <scstep>
   <time name="dav">   50.66   50.72</time>
   <time name="total">   51.32   51.39</time>
   <energy>
    <i name="e_fr_energy">   -306.72869720 </i>
    <i name="e_wo_entrp">   -306.70670956 </i>
    <i name="e_0_energy">   -306.72136798 </i>
   </energy>
  </scstep>
  <scstep>
   <time name="dav">   48.56   48.62</time>
   <time name="total">   49.21   49.27</time>
   <energy>
    <i name="e_fr_energy">   -306.54282619 </i>
    <i name="e_wo_entrp">   -306.52733643 </i>
    <i name="e_0_energy">   -306.53766294 </i>
   </energy>
  </scstep>
  <scstep>
   <time name="dav">   47.93   47.99</time>
   <time name="total">   48.61   48.67</time>
   <energy>
    <i name="e_fr_energy">   -305.96879558 </i>
    <i name="e_wo_entrp">   -305.94805161 </i>
    <i name="e_0_energy">   -305.96188092 </i>
   </energy>
  </scstep>
  <scstep>
   <time name="dav">   51.91   51.97</time>
   <time name="total">   52.56   52.62</time>
   <energy>
    <i name="e_fr_energy">   -306.08861251 </i>
    <i name="e_wo_entrp">   -306.06497388 </i>
    <i name="e_0_energy">   -306.08073297 </i>
   </energy>
  </scstep>
  <scstep>
   <time name="dav">   50.27   50.33</time>
   <time name="total">   50.94   51.01</time>
   <energy>
    <i name="e_fr_energy">   -306.27206904 </i>
    <i name="e_wo_entrp">   -306.25186401 </i>
    <i name="e_0_energy">   -306.26533403 </i>
   </energy>
  </scstep>
  <scstep>
   <time name="dav">   49.73   49.79</time>
   <time name="total">   50.38   50.45</time>
   <energy>
    <i name="e_fr_energy">   -305.70357591 </i>
    <i name="e_wo_entrp">   -305.68331656 </i>
    <i name="e_0_energy">   -305.69682279 </i>
   </energy>
  </scstep>
  <scstep>
   <time name="dav">   52.67   52.73</time>
   <time name="total">   53.33   53.40</time>
   <energy>
    <i name="e_fr_energy">   -305.91586267 </i>
    <i name="e_wo_entrp">   -305.90022495 </i>
    <i name="e_0_energy">   -305.91065010 </i>
   </energy>
  </scstep>
  <scstep>
   <time name="dav">   51.11   51.17</time>
   <time name="total">   51.76   51.82</time>
   <energy>
    <i name="e_fr_energy">   -305.05833857 </i>
    <i name="e_wo_entrp">   -305.04197186 </i>
    <i name="e_0_energy">   -305.05288300 </i>
   </energy>
  </scstep>
  <scstep>
   <time name="dav">   50.11   50.17</time>
   <time name="total">   50.77   50.84</time>
   <energy>
    <i name="e_fr_energy">   -304.95446432 </i>
    <i name="e_wo_entrp">   -304.93712987 </i>
    <i name="e_0_energy">   -304.94868617 </i>
   </energy>
  </scstep>
  <scstep>
   <time name="dav">   49.93   49.99</time>
   <time name="total">   50.58   50.64</time>
   <energy>
    <i name="e_fr_energy">   -304.97533058 </i>
    <i name="e_wo_entrp">   -304.95801243 </i>
    <i name="e_0_energy">   -304.96955787 </i>
   </energy>
  </scstep>
  <scstep>
   <time name="dav">   47.82   47.87</time>
   <time name="total">   48.48   48.54</time>
   <energy>
    <i name="e_fr_energy">   -304.71393279 </i>
    <i name="e_wo_entrp">   -304.69545768 </i>
    <i name="e_0_energy">   -304.70777442 </i>
   </energy>
  </scstep>
  <scstep>
   <time name="dav">   46.12   46.17</time>
   <time name="total">   46.77   46.83</time>
   <energy>
    <i name="e_fr_energy">   -304.47801617 </i>
    <i name="e_wo_entrp">   -304.45707570 </i>
    <i name="e_0_energy">   -304.47103601 </i>
   </energy>
  </scstep>
  <scstep>
   <time name="dav">   51.43   51.49</time>
   <time name="total">   52.09   52.17</time>
   <energy>
    <i name="e_fr_energy">   -304.40034548 </i>
    <i name="e_wo_entrp">   -304.37903161 </i>
    <i name="e_0_energy">   -304.39324086 </i>
   </energy>
  </scstep>
  <scstep>
   <time name="dav">   49.50   49.55</time>
   <time name="total">   50.15   50.21</time>
   <energy>
    <i name="e_fr_energy">   -304.34686998 </i>
    <i name="e_wo_entrp">   -304.32375566 </i>
    <i name="e_0_energy">   -304.33916521 </i>
   </energy>
  </scstep>
  <scstep>
   <time name="dav">   52.19   52.25</time>
   <time name="total">   52.85   52.92</time>
   <energy>
    <i name="e_fr_energy">   -304.34350916 </i>
    <i name="e_wo_entrp">   -304.32035832 </i>
    <i name="e_0_energy">   -304.33579221 </i>
   </energy>
  </scstep>
  <scstep>
   <time name="dav">   49.13   49.19</time>
   <time name="total">   49.78   49.84</time>
   <energy>
    <i name="e_fr_energy">   -304.33691328 </i>
    <i name="e_wo_entrp">   -304.31398352 </i>
    <i name="e_0_energy">   -304.32927003 </i>
   </energy>
  </scstep>
  <scstep>
   <time name="dav">   47.23   47.30</time>
   <time name="total">   47.89   47.96</time>
   <energy>
    <i name="e_fr_energy">   -304.33725382 </i>
    <i name="e_wo_entrp">   -304.31419502 </i>
    <i name="e_0_energy">   -304.32956755 </i>
   </energy>
  </scstep>
  <scstep>
   <time name="dav">   44.50   44.57</time>
   <time name="total">   45.15   45.22</time>
   <energy>
    <i name="e_fr_energy">   -304.33269759 </i>
    <i name="e_wo_entrp">   -304.30973096 </i>
    <i name="e_0_energy">   -304.32504205 </i>
   </energy>
  </scstep>
  <scstep>
   <time name="dav">   46.13   46.20</time>
   <time name="total">   46.79   46.87</time>
   <energy>
    <i name="e_fr_energy">   -304.33088904 </i>
    <i name="e_wo_entrp">   -304.30802144 </i>
    <i name="e_0_energy">   -304.32326651 </i>
   </energy>
  </scstep>
  <scstep>
   <time name="dav">   45.19   45.26</time>
   <time name="total">   45.84   45.91</time>
   <energy>
    <i name="e_fr_energy">   -304.33006987 </i>
    <i name="e_wo_entrp">   -304.30730257 </i>
    <i name="e_0_energy">   -304.32248077 </i>
   </energy>
  </scstep>
  <scstep>
   <time name="dav">   43.30   43.36</time>
   <time name="total">   43.97   44.04</time>
   <energy>
    <i name="e_fr_energy">   -304.32917437 </i>
    <i name="e_wo_entrp">   -304.30652811 </i>
    <i name="e_0_energy">   -304.32162561 </i>
   </energy>
  </scstep>
  <scstep>
   <time name="dav">   27.78   27.83</time>
   <time name="total">   28.45   28.49</time>
   <energy>
    <i name="e_fr_energy">   -304.32891804 </i>
    <i name="e_wo_entrp">   -304.30636300 </i>
    <i name="e_0_energy">   -304.32139969 </i>
   </energy>
  </scstep>
  <scstep>
   <time name="dav">   43.70   43.75</time>
   <time name="total">   44.36   44.42</time>
   <energy>
    <i name="e_fr_energy">   -304.32876825 </i>
    <i name="e_wo_entrp">   -304.30639010 </i>
    <i name="e_0_energy">   -304.32130887 </i>
   </energy>
  </scstep>
  <scstep>
   <time name="dav">   31.73   31.77</time>
   <time name="total">   32.38   32.42</time>
   <energy>
    <i name="e_fr_energy">   -304.32865868 </i>
    <i name="e_wo_entrp">   -304.30625623 </i>
    <i name="e_0_energy">   -304.32119120 </i>
   </energy>
  </scstep>
  <scstep>
   <time name="dav">   26.76   26.80</time>
   <time name="total">   26.85   26.89</time>
   <energy>
    <i name="alphaZ">   1104.47950323 </i>
    <i name="ewald"> -10196.18207334 </i>
    <i name="hartreedc">  -2631.69253128 </i>
    <i name="XCdc">   -945.43832024 </i>
    <i name="pawpsdc">  17501.69429090 </i>
    <i name="pawaedc"> -16014.87610296 </i>
    <i name="eentropy">     -0.02240674 </i>
    <i name="bandstr">   -573.86742903 </i>
    <i name="atom">  11451.57642151 </i>
    <i name="e_fr_energy">   -304.32864795 </i>
    <i name="e_wo_entrp">   -304.30624121 </i>
    <i name="e_0_energy">   -304.32117904 </i>
   </energy>
  </scstep>
  <structure>
   <crystal>
    <varray name="basis" >
     <v>      -3.16000000      -3.16000000      -3.16000000 </v>
     <v>       1.58000000       1.58000000      -7.90000000 </v>
     <v>       7.90000000      -7.90000000      -1.58000000 </v>
    </varray>
    <i name="volume">    473.31744000 </i>
    <varray name="rec_basis" >
     <v>      -0.13713080      -0.12658228      -0.05274262 </v>
     <v>       0.04219409       0.06329114      -0.10548523 </v>
     <v>       0.06329114      -0.06329114       0.00000000 </v>
    </varray>
   </crystal>
   <varray name="positions" >
    <v>       0.96666667       0.93333333       0.40000000 </v>
    <v>       0.63333333       0.26666667       0.40000000 </v>
    <v>       0.50000000       0.00000000       0.00000000 </v>
    <v>       0.00000000       0.00000000       0.00000000 </v>
    <v>       0.10000000       0.20000000       0.80000000 </v>
    <v>       0.90000000       0.80000000       0.20000000 </v>
    <v>       0.80000000       0.60000000       0.40000000 </v>
    <v>       0.73333333       0.46666667       0.20000000 </v>
    <v>       0.66666667       0.33333333       0.00000000 </v>
    <v>       0.36666667       0.73333333       0.60000000 </v>
    <v>       0.13333333       0.26666667       0.40000000 </v>
    <v>       0.83333333       0.66666667       0.00000000 </v>
    <v>       0.93333333       0.86666667       0.80000000 </v>
    <v>       0.56666667       0.13333333       0.20000000 </v>
    <v>       0.40000000       0.80000000       0.20000000 </v>
    <v>       0.43333333       0.86666667       0.80000000 </v>
    <v>       0.30000000       0.60000000       0.40000000 </v>
    <v>       0.86666667       0.73333333       0.60000000 </v>
    <v>       0.46666667       0.93333333       0.40000000 </v>
    <v>       0.16666667       0.33333333       0.00000000 </v>
    <v>       0.26666667       0.53333333       0.80000000 </v>
    <v>       0.20000000       0.40000000       0.60000000 </v>
    <v>       0.06666667       0.13333333       0.20000000 </v>
    <v>       0.76666667       0.53333333       0.80000000 </v>
    <v>       0.70000000       0.40000000       0.60000000 </v>
    <v>       0.60000000       0.20000000       0.80000000 </v>
    <v>       0.53333333       0.06666667       0.60000000 </v>
    <v>       0.33333333       0.66666667       0.00000000 </v>
    <v>       0.23333333       0.46666667       0.20000000 </v>
   </varray>
  </structure>
  <varray name="forces" >
   <v>       0.58048065      -0.14169524      -0.35807768 </v>
   <v>       0.41313323      -0.17047662       0.07406235 </v>
   <v>      -0.19584500       0.58533248      -0.26493763 </v>
   <v>       0.11856086       0.02992631      -0.04614678 </v>
   <v>      -0.52389059       1.09919495      -0.11868463 </v>
   <v>      -0.10534821      -0.49616880       0.23860552 </v>
   <v>      -0.41032257      -0.37048995       0.56568098 </v>
   <v>      -0.17250294       0.13503716       0.11555386 </v>
   <v>       0.00071080       0.55284747      -0.61055737 </v>
   <v>       0.06581642      -0.27609958      -0.04469167 </v>
   <v>       0.17668184      -0.00176838      -0.46873543 </v>
   <v>       0.09842183      -0.64335517       0.48863585 </v>
   <v>      -0.38212908       0.95768768      -0.56444754 </v>
   <v>      -0.11500372       0.32485372      -0.13808869 </v>
   <v>      -0.50953180      -0.03794591       0.73342916 </v>
   <v>      -1.10780760      -0.21862307       0.51792812 </v>
   <v>       0.40161466      -0.45825690      -0.12595041 </v>
   <v>       0.12060144       0.34812160       0.90082588 </v>
   <v>       0.36851316      -0.62905614       0.04141374 </v>
   <v>       0.08531589      -0.20943027      -0.47276452 </v>
   <v>      -0.45499437      -0.03401920      -0.20537184 </v>
   <v>      -0.41275183      -0.12535995       0.19533134 </v>
   <v>       0.70636997      -0.20000292      -0.84692999 </v>
   <v>      -0.03678770      -0.26152976       0.62942248 </v>
   <v>       0.51313602       0.04253392      -0.22552363 </v>
   <v>       0.41857959       0.33793302      -0.17166785 </v>
   <v>       0.35623652      -0.30982345      -0.28514682 </v>
   <v>      -0.18086636      -0.16680522       0.64847181 </v>
   <v>       0.18360891       0.33743824      -0.20163861 </v>
  </varray>
  <varray name="stress" >
   <v>     -19.35516224       0.26291936       1.42731332 </v>
   <v>       0.26291938     -28.03628306      -2.86865249 </v>
   <v>       1.42731338      -2.86865252     -23.08985059 </v>
  </varray>
  <energy>
   <i name="e_fr_energy">   -304.32864795 </i>
   <i name="e_wo_entrp">   -304.32117904 </i>
   <i name="e_0_energy">     -0.02240674 </i>
  </energy>
  <time name="totalsc"> 2655.87 2659.61</time>
 </calculation>
 <calculation>
  <scstep>
   <time name="dav">   34.12   34.16</time>
   <time name="total">   34.79   34.84</time>
   <energy>
    <i name="alphaZ">   1143.64512957 </i>
    <i name="ewald"> -10374.55953573 </i>
    <i name="hartreedc">  -2606.25812996 </i>
    <i name="XCdc">   -941.61142822 </i>
    <i name="pawpsdc">  17501.40908367 </i>
    <i name="pawaedc"> -16014.59061746 </i>
    <i name="eentropy">     -0.01789916 </i>
    <i name="bandstr">   -464.89126390 </i>
    <i name="atom">  11451.57642151 </i>
    <i name="e_fr_energy">   -305.29823970 </i>
    <i name="e_wo_entrp">   -305.28034053 </i>
    <i name="e_0_energy">   -305.29227331 </i>
   </energy>
  </scstep>
  <scstep>
   <time name="dav">   52.34   52.40</time>
   <time name="total">   52.99   53.06</time>
   <energy>
    <i name="e_fr_energy">   -307.12535702 </i>
    <i name="e_wo_entrp">   -307.12591442 </i>
    <i name="e_0_energy">   -307.12554282 </i>
   </energy>
  </scstep>
  <scstep>
   <time name="dav">   51.95   52.01</time>
   <time name="total">   52.60   52.67</time>
   <energy>
    <i name="e_fr_energy">   -305.89355589 </i>
    <i name="e_wo_entrp">   -305.88281991 </i>
    <i name="e_0_energy">   -305.88997723 </i>
   </energy>
  </scstep>
  <scstep>
   <time name="dav">   50.18   50.24</time>
   <time name="total">   50.84   50.92</time>
   <energy>
    <i name="e_fr_energy">   -305.63866726 </i>
    <i name="e_wo_entrp">   -305.62581306 </i>
    <i name="e_0_energy">   -305.63438253 </i>
   </energy>
  </scstep>
  <scstep>
   <time name="dav">   53.42   53.48</time>
   <time name="total">   54.07   54.14</time>
   <energy>
    <i name="e_fr_energy">   -305.14000638 </i>
    <i name="e_wo_entrp">   -305.12413748 </i>
    <i name="e_0_energy">   -305.13471674 </i>
   </energy>
  </scstep>
  <scstep>
   <time name="dav">   51.38   51.44</time>
   <time name="total">   52.04   52.11</time>
   <energy>
    <i name="e_fr_energy">   -305.02613501 </i>
    <i name="e_wo_entrp">   -305.01299200 </i>
    <i name="e_0_energy">   -305.02175400 </i>
   </energy>
  </scstep>
  <scstep>
   <time name="dav">   51.07   51.13</time>
   <time name="total">   51.72   51.78</time>
   <energy>
    <i name="e_fr_energy">   -304.90585425 </i>
    <i name="e_wo_entrp">   -304.88881541 </i>
    <i name="e_0_energy">   -304.90017464 </i>
   </energy>
  </scstep>
  <scstep>
   <time name="dav">   53.52   53.59</time>
   <time name="total">   54.18   54.26</time>
   <energy>
    <i name="e_fr_energy">   -304.89257165 </i>
    <i name="e_wo_entrp">   -304.87356174 </i>
    <i name="e_0_energy">   -304.88623501 </i>
   </energy>
  </scstep>
  <scstep>
   <time name="dav">   50.63   50.69</time>
   <time name="total">   51.29   51.35</time>
   <energy>
    <i name="e_fr_energy">   -304.86566516 </i>
    <i name="e_wo_entrp">   -304.84744928 </i>
    <i name="e_0_energy">   -304.85959320 </i>
   </energy>
  </scstep>
  <scstep>
   <time name="dav">   50.76   50.82</time>
   <time name="total">   51.42   51.49</time>
   <energy>
    <i name="e_fr_energy">   -304.86009230 </i>
    <i name="e_wo_entrp">   -304.84163322 </i>
    <i name="e_0_energy">   -304.85393928 </i>
   </energy>
  </scstep>
  <scstep>
   <time name="dav">   51.06   51.12</time>
   <time name="total">   51.71   51.77</time>
   <energy>
    <i name="e_fr_energy">   -304.85910805 </i>
    <i name="e_wo_entrp">   -304.84091704 </i>
    <i name="e_0_energy">   -304.85304438 </i>
   </energy>
  </scstep>
  <scstep>
   <time name="dav">   53.76   53.83</time>
   <time name="total">   54.42   54.51</time>
   <energy>
    <i name="e_fr_energy">   -304.86113323 </i>
    <i name="e_wo_entrp">   -304.84256938 </i>
    <i name="e_0_energy">   -304.85494528 </i>
   </energy>
  </scstep>
  <scstep>
   <time name="dav">   51.76   51.83</time>
   <time name="total">   52.41   52.48</time>
   <energy>
    <i name="e_fr_energy">   -304.86410393 </i>
    <i name="e_wo_entrp">   -304.84581954 </i>
    <i name="e_0_energy">   -304.85800913 </i>
   </energy>
  </scstep>
  <scstep>
   <time name="dav">   48.98   49.04</time>
   <time name="total">   49.64   49.71</time>
   <energy>
    <i name="e_fr_energy">   -304.86246070 </i>
    <i name="e_wo_entrp">   -304.84399617 </i>
    <i name="e_0_energy">   -304.85630586 </i>
   </energy>
  </scstep>
  <scstep>
   <time name="dav">   49.42   49.49</time>
   <time name="total">   50.07   50.13</time>
   <energy>
    <i name="e_fr_energy">   -304.86166166 </i>
    <i name="e_wo_entrp">   -304.84331487 </i>
    <i name="e_0_energy">   -304.85554606 </i>
   </energy>
  </scstep>
  <scstep>
   <time name="dav">   46.28   46.34</time>
   <time name="total">   46.94   47.01</time>
   <energy>
    <i name="e_fr_energy">   -304.86162709 </i>
    <i name="e_wo_entrp">   -304.84309661 </i>
    <i name="e_0_energy">   -304.85545026 </i>
   </energy>
  </scstep>
  <scstep>
   <time name="dav">   39.21   39.26</time>
   <time name="total">   39.28   39.33</time>
   <energy>
    <i name="alphaZ">   1143.64512957 </i>
    <i name="ewald"> -10374.55953573 </i>
    <i name="hartreedc">  -2547.85884494 </i>
    <i name="XCdc">   -943.26442099 </i>
    <i name="pawpsdc">  18260.77578965 </i>
    <i name="pawaedc"> -16775.41214213 </i>
    <i name="eentropy">     -0.01846773 </i>
    <i name="bandstr">   -519.74549295 </i>
    <i name="atom">  11451.57642151 </i>
    <i name="e_fr_energy">   -304.86156375 </i>
    <i name="e_wo_entrp">   -304.84309602 </i>
    <i name="e_0_energy">   -304.85540784 </i>
   </energy>
  </scstep>
  <structure>
   <crystal>
    <varray name="basis" >
     <v>      -3.13256695      -3.11241396      -3.12190387 </v>
     <v>       1.55963376       1.56957175      -7.81147474 </v>
     <v>       7.82272614      -7.78790323      -1.54539238 </v>
    </varray>
    <i name="volume">    457.10806393 </i>
    <varray name="rec_basis" >
     <v>      -0.13839313      -0.12840898      -0.05343289 </v>
     <v>       0.04266646       0.06401734      -0.10663494 </v>
     <v>       0.06390742      -0.06418394      -0.00013687 </v>
    </varray>
   </crystal>
   <varray name="positions" >
    <v>       0.96460286       0.93590450       0.40220504 </v>
    <v>       0.63145282       0.26661021       0.40178195 </v>
    <v>       0.49839531       0.00273680      -0.00238519 </v>
    <v>      -0.00084968       0.00056755       0.00027063 </v>
    <v>       0.09705540       0.20289377       0.79504418 </v>
    <v>       0.90311976       0.79705635       0.20119331 </v>
    <v>       0.80353763       0.59515485       0.39987838 </v>
    <v>       0.73335589       0.46613980       0.19906098 </v>
    <v>       0.66483944       0.33812986      -0.00168586 </v>
    <v>       0.36803102       0.73285171       0.60104398 </v>
    <v>       0.13336795       0.26940626       0.40054487 </v>
    <v>       0.83536766       0.66241602       0.00226489 </v>
    <v>       0.93144925       0.87168537       0.79590909 </v>
    <v>       0.56579507       0.13479384       0.19865697 </v>
    <v>       0.40173639       0.79511462       0.19856009 </v>
    <v>       0.44067931       0.86110846       0.79728502 </v>
    <v>       0.30046199       0.60005925       0.40262547 </v>
    <v>       0.86145086       0.73005755       0.59930531 </v>
    <v>       0.46796481       0.93195199       0.40304591 </v>
    <v>       0.16858410       0.33527338       0.00089996 </v>
    <v>       0.27040701       0.53334841       0.79871462 </v>
    <v>       0.20299910       0.39778304       0.59912250 </v>
    <v>       0.06536996       0.13847044       0.20276746 </v>
    <v>       0.76690559       0.52925685       0.80068621 </v>
    <v>       0.69691941       0.40232205       0.60143690 </v>
    <v>       0.59560402       0.20275746       0.80024624 </v>
    <v>       0.53359416       0.06789690       0.60203370 </v>
    <v>       0.33389848       0.66248919      -0.00004293 </v>
    <v>       0.23057109       0.46909684       0.19953031 </v>
   </varray>
  </structure>
  <varray name="forces" >
   <v>       0.62599067      -0.26243249      -0.31429849 </v>
   <v>       0.25835316      -0.23656247       0.05564664 </v>
   <v>      -0.21283540       0.30367514      -0.04549629 </v>
   <v>      -0.03181049       0.11788830      -0.11738626 </v>
   <v>      -0.50767951       0.86888498       0.19318698 </v>
   <v>      -0.01923686      -0.21389616       0.11363372 </v>
   <v>      -0.11495015      -0.25309058       0.20057491 </v>
   <v>      -0.01452433      -0.09101373       0.20329014 </v>
   <v>      -0.09893542       0.43641325      -0.31086007 </v>
   <v>       0.11899266      -0.13472372      -0.01745860 </v>
   <v>       0.24890975      -0.15051787      -0.11801000 </v>
   <v>      -0.09707058      -0.10274019      -0.02746673 </v>
   <v>      -0.46411877       0.76832795      -0.51925726 </v>
   <v>      -0.03935290       0.13635076      -0.03949735 </v>
   <v>      -0.20342651       0.03740215       0.20032905 </v>
   <v>      -0.46789096      -0.01389718       0.26888986 </v>
   <v>       0.23795010      -0.32995098      -0.10094406 </v>
   <v>       0.07072197       0.23710792       0.70645717 </v>
   <v>       0.23211189      -0.42495699      -0.00305540 </v>
   <v>      -0.07192639      -0.10688620      -0.32521810 </v>
   <v>      -0.29614779      -0.04266259      -0.07785630 </v>
   <v>      -0.28543358      -0.08656595       0.23936799 </v>
   <v>       0.43284882      -0.16276133      -0.54605117 </v>
   <v>      -0.08294588      -0.19522293       0.51758115 </v>
   <v>       0.44417935      -0.19845968      -0.04916111 </v>
   <v>       0.26012822       0.39544403      -0.22042765 </v>
   <v>       0.24099567      -0.40121317      -0.26067081 </v>
   <v>      -0.21459697      -0.12747972       0.57645863 </v>
   <v>       0.05170023       0.23353946      -0.18230057 </v>
  </varray>
  <varray name="stress" >
   <v>      41.32944084       0.99658949       1.23662997 </v>
   <v>       0.99658946      36.55067834      -1.03340668 </v>
   <v>       1.23662994      -1.03340668      41.96315163 </v>
  </varray>
  <energy>
   <i name="e_fr_energy">   -304.86156375 </i>
   <i name="e_wo_entrp">   -304.85540784 </i>
   <i name="e_0_energy">     -0.01846773 </i>
  </energy>
  <time name="totalsc">  869.67  870.84</time>
 </calculation>
 <calculation>
  <scstep>
   <time name="dav">   36.74   36.84</time>
   <time name="total">   37.39   37.50</time>
   <energy>
    <i name="alphaZ">   1146.89885604 </i>
    <i name="ewald"> -10388.83742523 </i>
    <i name="hartreedc">  -2546.11528323 </i>
    <i name="XCdc">   -942.95156531 </i>
    <i name="pawpsdc">  18260.39200441 </i>
    <i name="pawaedc"> -16774.93968670 </i>
    <i name="eentropy">     -0.01800249 </i>
    <i name="bandstr">   -510.87141240 </i>
    <i name="atom">  11451.57642151 </i>
    <i name="e_fr_energy">   -304.86609341 </i>
    <i name="e_wo_entrp">   -304.84809092 </i>
    <i name="e_0_energy">   -304.86009258 </i>
   </energy>
  </scstep>
  <scstep>
   <time name="dav">   51.67   51.80</time>
   <time name="total">   52.31   52.45</time>
   <energy>
    <i name="e_fr_energy">   -304.87827011 </i>
    <i name="e_wo_entrp">   -304.86156889 </i>
    <i name="e_0_energy">   -304.87270304 </i>
   </energy>
  </scstep>
  <scstep>
   <time name="dav">   51.86   51.99</time>
   <time name="total">   52.51   52.66</time>
   <energy>
    <i name="e_fr_energy">   -304.86982453 </i>
    <i name="e_wo_entrp">   -304.85169526 </i>
    <i name="e_0_energy">   -304.86378144 </i>
   </energy>
  </scstep>
  <scstep>
   <time name="dav">   50.47   50.60</time>
   <time name="total">   51.10   51.26</time>
   <energy>
    <i name="e_fr_energy">   -304.86911730 </i>
    <i name="e_wo_entrp">   -304.85081541 </i>
    <i name="e_0_energy">   -304.86301667 </i>
   </energy>
  </scstep>
  <scstep>
   <time name="dav">   51.92   52.06</time>
   <time name="total">   52.57   52.72</time>
   <energy>
    <i name="e_fr_energy">   -304.86615961 </i>
    <i name="e_wo_entrp">   -304.84821423 </i>
    <i name="e_0_energy">   -304.86017781 </i>
   </energy>
  </scstep>
  <scstep>
   <time name="dav">   48.70   48.82</time>
   <time name="total">   49.35   49.47</time>
   <energy>
    <i name="e_fr_energy">   -304.86499922 </i>
    <i name="e_wo_entrp">   -304.84714924 </i>
    <i name="e_0_energy">   -304.85904922 </i>
   </energy>
  </scstep>
  <scstep>
   <time name="dav">   47.51   47.64</time>
   <time name="total">   48.16   48.30</time>
   <energy>
    <i name="e_fr_energy">   -304.86413346 </i>
    <i name="e_wo_entrp">   -304.84617290 </i>
    <i name="e_0_energy">   -304.85814660 </i>
   </energy>
  </scstep>
  <scstep>
   <time name="dav">   49.09   49.21</time>
   <time name="total">   49.73   49.86</time>
   <energy>
    <i name="e_fr_energy">   -304.86409030 </i>
    <i name="e_wo_entrp">   -304.84602012 </i>
    <i name="e_0_energy">   -304.85806691 </i>
   </energy>
  </scstep>
  <scstep>
   <time name="dav">   45.38   45.50</time>
   <time name="total">   46.04   46.18</time>
   <energy>
    <i name="e_fr_energy">   -304.86392818 </i>
    <i name="e_wo_entrp">   -304.84591588 </i>
    <i name="e_0_energy">   -304.85792408 </i>
   </energy>
  </scstep>
  <scstep>
   <time name="dav">   33.47   33.52</time>
   <time name="total">   33.53   33.60</time>
   <energy>
    <i name="alphaZ">   1146.89885604 </i>
    <i name="ewald"> -10388.83742523 </i>
    <i name="hartreedc">  -2541.38464289 </i>
    <i name="XCdc">   -943.08768782 </i>
    <i name="pawpsdc">  18328.02815538 </i>
    <i name="pawaedc"> -16842.79797068 </i>
    <i name="eentropy">     -0.01800767 </i>
    <i name="bandstr">   -515.24155695 </i>
    <i name="atom">  11451.57642151 </i>
    <i name="e_fr_energy">   -304.86385831 </i>
    <i name="e_wo_entrp">   -304.84585064 </i>
    <i name="e_0_energy">   -304.85785576 </i>
   </energy>
  </scstep>
  <structure>
   <crystal>
    <varray name="basis" >
     <v>      -3.13034487      -3.10855949      -3.11881809 </v>
     <v>       1.55798410       1.56872706      -7.80430419 </v>
     <v>       7.81646695      -7.77882338      -1.54258916 </v>
    </varray>
    <i name="volume">    455.81125855 </i>
    <varray name="rec_basis" >
     <v>      -0.13849637      -0.12855926      -0.05348965 </v>
     <v>       0.04270519       0.06407690      -0.10672916 </v>
     <v>       0.06395787      -0.06425737      -0.00014824 </v>
    </varray>
   </crystal>
   <varray name="positions" >
    <v>       0.96443481       0.93611505       0.40238574 </v>
    <v>       0.63129948       0.26660558       0.40192784 </v>
    <v>       0.49826284       0.00296097      -0.00258077 </v>
    <v>      -0.00091918       0.00061403       0.00029276 </v>
    <v>       0.09681194       0.20313085       0.79463773 </v>
    <v>       0.90337587       0.79681524       0.20129131 </v>
    <v>       0.80382732       0.59475804       0.39986853 </v>
    <v>       0.73335729       0.46609667       0.19898397 </v>
    <v>       0.66468913       0.33852269      -0.00182401 </v>
    <v>       0.36814330       0.73281224       0.60112969 </v>
    <v>       0.13337116       0.26963059       0.40058968 </v>
    <v>       0.83553523       0.66206788       0.00245057 </v>
    <v>       0.93129321       0.87209644       0.79557377 </v>
    <v>       0.56572309       0.13491347       0.19854685 </v>
    <v>       0.40187784       0.79471456       0.19844197 </v>
    <v>       0.44127996       0.86065325       0.79706293 </v>
    <v>       0.30050104       0.60006405       0.40284077 </v>
    <v>       0.86102287       0.72978938       0.59924763 </v>
    <v>       0.46807252       0.93183881       0.40329569 </v>
    <v>       0.16874176       0.33543221       0.00097404 </v>
    <v>       0.27071302       0.53334961       0.79860964 </v>
    <v>       0.20324444       0.39760147       0.59905076 </v>
    <v>       0.06526515       0.13889109       0.20299447 </v>
    <v>       0.76692529       0.52892302       0.80074228 </v>
    <v>       0.69666766       0.40251222       0.60155450 </v>
    <v>       0.59524393       0.20298332       0.80026611 </v>
    <v>       0.53361651       0.06799760       0.60220052 </v>
    <v>       0.33394460       0.66214710      -0.00004661 </v>
    <v>       0.23034458       0.46929589       0.19949164 </v>
   </varray>
  </structure>
  <varray name="forces" >
   <v>       0.62845870      -0.27216458      -0.31217168 </v>
   <v>       0.23926212      -0.24613524       0.05670360 </v>
   <v>      -0.21262809       0.27957735      -0.02554842 </v>
   <v>      -0.04033302       0.12357627      -0.12467953 </v>
   <v>      -0.50762275       0.85033816       0.21942897 </v>
   <v>      -0.01044675      -0.19173909       0.10119187 </v>
   <v>      -0.08729259      -0.23982808       0.16698484 </v>
   <v>       0.00363956      -0.11333113       0.21170505 </v>
   <v>      -0.11054700       0.42338420      -0.28004706 </v>
   <v>       0.11918245      -0.11879146      -0.01468224 </v>
   <v>       0.24759942      -0.16279339      -0.08530696 </v>
   <v>      -0.11650620      -0.05702209      -0.07926042 </v>
   <v>      -0.47344020       0.75374978      -0.51617536 </v>
   <v>      -0.02594370       0.12107188      -0.02860591 </v>
   <v>      -0.16944063       0.04313835       0.15520655 </v>
   <v>      -0.40800070      -0.00139516       0.24613732 </v>
   <v>       0.23164934      -0.30508175      -0.10001505 </v>
   <v>       0.06514259       0.22870756       0.68642608 </v>
   <v>       0.22045189      -0.40690959      -0.00388742 </v>
   <v>      -0.08316629      -0.10170669      -0.31188228 </v>
   <v>      -0.28828062      -0.03965915      -0.06768763 </v>
   <v>      -0.27453141      -0.08018841       0.24401604 </v>
   <v>       0.40934544      -0.16196102      -0.51887056 </v>
   <v>      -0.08976344      -0.18543056       0.50656994 </v>
   <v>       0.43656874      -0.21993596      -0.03410945 </v>
   <v>       0.24079816       0.39990643      -0.22598571 </v>
   <v>       0.22823968      -0.40828699      -0.25535791 </v>
   <v>      -0.21306896      -0.12719738       0.56787306 </v>
   <v>       0.04067427       0.21610775      -0.17796975 </v>
  </varray>
  <varray name="stress" >
   <v>      47.07111300       1.10968817       1.19270794 </v>
   <v>       1.10968819      42.53114274      -0.92023058 </v>
   <v>       1.19270784      -0.92023063      48.13679927 </v>
  </varray>
  <energy>
   <i name="e_fr_energy">   -304.86385831 </i>
   <i name="e_wo_entrp">   -304.85785576 </i>
   <i name="e_0_energy">     -0.01800767 </i>
  </energy>
  <time name="totalsc">  492.17  493.48</time>
 </calculation>
 <calculation>
  <scstep>
   <time name="dav">   33.31   33.37</time>
   <time name="total">   33.97   34.04</time>
   <energy>
    <i name="alphaZ">   1137.26894622 </i>
    <i name="ewald"> -10396.89703406 </i>
    <i name="hartreedc">  -2498.58419961 </i>
    <i name="XCdc">   -944.16198510 </i>
    <i name="pawpsdc">  18327.43580728 </i>
    <i name="pawaedc"> -16842.18167004 </i>
    <i name="eentropy">     -0.01418609 </i>
    <i name="bandstr">   -539.46618103 </i>
    <i name="atom">  11451.57642151 </i>
    <i name="e_fr_energy">   -305.02408093 </i>
    <i name="e_wo_entrp">   -305.00989484 </i>
    <i name="e_0_energy">   -305.01935223 </i>
   </energy>
  </scstep>
  <scstep>
   <time name="dav">   50.09   50.16</time>
   <time name="total">   50.74   50.80</time>
   <energy>
    <i name="e_fr_energy">   -305.79303650 </i>
    <i name="e_wo_entrp">   -305.78250602 </i>
    <i name="e_0_energy">   -305.78952634 </i>
   </energy>
  </scstep>
  <scstep>
   <time name="dav">   51.90   51.96</time>
   <time name="total">   52.56   52.63</time>
   <energy>
    <i name="e_fr_energy">   -305.29945036 </i>
    <i name="e_wo_entrp">   -305.28549372 </i>
    <i name="e_0_energy">   -305.29479815 </i>
   </energy>
  </scstep>
  <scstep>
   <time name="dav">   49.50   49.56</time>
   <time name="total">   50.15   50.21</time>
   <energy>
    <i name="e_fr_energy">   -305.30979709 </i>
    <i name="e_wo_entrp">   -305.29700288 </i>
    <i name="e_0_energy">   -305.30553235 </i>
   </energy>
  </scstep>
  <scstep>
   <time name="dav">   49.27   49.33</time>
   <time name="total">   49.93   49.99</time>
   <energy>
    <i name="e_fr_energy">   -305.23652174 </i>
    <i name="e_wo_entrp">   -305.22386209 </i>
    <i name="e_0_energy">   -305.23230185 </i>
   </energy>
  </scstep>
  <scstep>
   <time name="dav">   48.55   48.60</time>
   <time name="total">   49.19   49.25</time>
   <energy>
    <i name="e_fr_energy">   -305.23445990 </i>
    <i name="e_wo_entrp">   -305.22111669 </i>
[...]
       <r>    4.7760    1.0000 </r>
       <r>    4.8107    1.0000 </r>
       <r>    4.8466    1.0000 </r>
       <r>    4.9006    1.0000 </r>
       <r>    4.9533    1.0000 </r>
       <r>    5.0383    1.0000 </r>
       <r>    5.0765    1.0000 </r>
       <r>    5.1471    1.0000 </r>
       <r>    5.2521    1.0000 </r>
       <r>    5.2705    1.0000 </r>
       <r>    5.3290    1.0000 </r>
       <r>    5.4076    1.0000 </r>
       <r>    5.4279    1.0000 </r>
       <r>    5.4654    1.0000 </r>
       <r>    5.5116    1.0000 </r>
       <r>    5.5587    1.0000 </r>
       <r>    5.5982    1.0000 </r>
       <r>    5.6707    1.0000 </r>
       <r>    5.7237    1.0000 </r>
       <r>    5.7931    1.0000 </r>
       <r>    5.8518    1.0002 </r>
       <r>    5.9218    1.0009 </r>
       <r>    5.9738    1.0027 </r>
       <r>    6.0151    1.0058 </r>
       <r>    6.0526    1.0107 </r>
       <r>    6.0989    1.0196 </r>
       <r>    6.1680    1.0340 </r>
       <r>    6.1962    1.0353 </r>
       <r>    6.2542    1.0112 </r>
       <r>    6.2818    0.9794 </r>
       <r>    6.3294    0.8824 </r>
       <r>    6.3729    0.7454 </r>
       <r>    6.4075    0.6111 </r>
       <r>    6.4674    0.3607 </r>
       <r>    6.5710    0.0454 </r>
       <r>    6.5911    0.0138 </r>
       <r>    6.7055   -0.0332 </r>
       <r>    6.7902   -0.0152 </r>
       <r>    6.8354   -0.0078 </r>
       <r>    6.9446   -0.0009 </r>
       <r>    7.0257   -0.0001 </r>
       <r>    7.0929   -0.0000 </r>
       <r>    7.1802   -0.0000 </r>
       <r>    7.2907   -0.0000 </r>
       <r>    7.3791   -0.0000 </r>
       <r>    7.4244   -0.0000 </r>
       <r>    7.5609   -0.0000 </r>
       <r>    7.8276   -0.0000 </r>
       <r>    7.8743   -0.0000 </r>
       <r>    8.0301   -0.0000 </r>
       <r>    8.1179   -0.0000 </r>
       <r>    8.2294   -0.0000 </r>
       <r>    8.2528   -0.0000 </r>
       <r>    8.3537   -0.0000 </r>
       <r>    8.4187   -0.0000 </r>
       <r>    8.4668   -0.0000 </r>
       <r>    8.5196   -0.0000 </r>
       <r>    8.5741   -0.0000 </r>
       <r>    8.6260   -0.0000 </r>
       <r>    8.6545   -0.0000 </r>
       <r>    8.7029   -0.0000 </r>
      </set>
     </set>
    </set>
   </array>
  </eigenvalues>
  <separator name="orbital magnetization" >
   <v name="MAGDIPOLOUT">      0.00000000      0.00000000      0.00000000</v>
  </separator>
  <dos>
   <i name="efermi">      6.43398678 </i>
   <total>
    <array>
     <dimension dim="1">gridpoints</dimension>
     <dimension dim="2">spin</dimension>
     <field>energy</field>
     <field>total</field>
     <field>integrated</field>
     <set>
      <set comment="spin 1">
       <r>   -50.6012     0.0000     0.0000 </r>
       <r>   -50.3939     0.0000     0.0000 </r>
       <r>   -50.1866     0.0000     0.0000 </r>
       <r>   -49.9792     0.0000     0.0000 </r>
       <r>   -49.7719     0.0000     0.0000 </r>
       <r>   -49.5645    -0.0000    -0.0000 </r>
       <r>   -49.3572    -0.0000    -0.0000 </r>
       <r>   -49.1499    -0.0000    -0.0000 </r>
       <r>   -48.9425    -0.0000    -0.0000 </r>
       <r>   -48.7352    -0.0000    -0.0000 </r>
       <r>   -48.5278    -0.0000    -0.0000 </r>
       <r>   -48.3205    -0.0063    -0.0013 </r>
       <r>   -48.1132    -0.3472    -0.0733 </r>
       <r>   -47.9058     0.7423     0.0806 </r>
       <r>   -47.6985    16.9168     3.5881 </r>
       <r>   -47.4912    17.4537     7.2069 </r>
       <r>   -47.2838    10.3699     9.3570 </r>
       <r>   -47.0765     3.4875    10.0801 </r>
       <r>   -46.8691    -0.3511    10.0073 </r>
       <r>   -46.6618    -0.0351    10.0000 </r>
       <r>   -46.4545    -0.0002    10.0000 </r>
       <r>   -46.2471    -0.0000    10.0000 </r>
       <r>   -46.0398    -0.0000    10.0000 </r>
       <r>   -45.8325     0.0000    10.0000 </r>
       <r>   -45.6251     0.0000    10.0000 </r>
       <r>   -45.4178     0.0000    10.0000 </r>
       <r>   -45.2104     0.0000    10.0000 </r>
       <r>   -45.0031     0.0000    10.0000 </r>
       <r>   -44.7958     0.0000    10.0000 </r>
       <r>   -44.5884     0.0000    10.0000 </r>
       <r>   -44.3811     0.0000    10.0000 </r>
       <r>   -44.1737     0.0000    10.0000 </r>
       <r>   -43.9664     0.0000    10.0000 </r>
       <r>   -43.7591     0.0000    10.0000 </r>
       <r>   -43.5517     0.0000    10.0000 </r>
       <r>   -43.3444     0.0000    10.0000 </r>
       <r>   -43.1371     0.0000    10.0000 </r>
       <r>   -42.9297     0.0000    10.0000 </r>
       <r>   -42.7224     0.0000    10.0000 </r>
       <r>   -42.5150     0.0000    10.0000 </r>
       <r>   -42.3077     0.0000    10.0000 </r>
       <r>   -42.1004     0.0000    10.0000 </r>
       <r>   -41.8930     0.0000    10.0000 </r>
       <r>   -41.6857     0.0000    10.0000 </r>
       <r>   -41.4783     0.0000    10.0000 </r>
       <r>   -41.2710     0.0000    10.0000 </r>
       <r>   -41.0637     0.0000    10.0000 </r>
       <r>   -40.8563     0.0000    10.0000 </r>
       <r>   -40.6490     0.0000    10.0000 </r>
       <r>   -40.4417     0.0000    10.0000 </r>
       <r>   -40.2343     0.0000    10.0000 </r>
       <r>   -40.0270     0.0000    10.0000 </r>
       <r>   -39.8196     0.0000    10.0000 </r>
       <r>   -39.6123     0.0000    10.0000 </r>
       <r>   -39.4050     0.0000    10.0000 </r>
       <r>   -39.1976     0.0000    10.0000 </r>
       <r>   -38.9903     0.0000    10.0000 </r>
       <r>   -38.7830     0.0000    10.0000 </r>
       <r>   -38.5756     0.0000    10.0000 </r>
       <r>   -38.3683     0.0000    10.0000 </r>
       <r>   -38.1609     0.0000    10.0000 </r>
       <r>   -37.9536     0.0000    10.0000 </r>
       <r>   -37.7463     0.0000    10.0000 </r>
       <r>   -37.5389     0.0000    10.0000 </r>
       <r>   -37.3316     0.0000    10.0000 </r>
       <r>   -37.1242     0.0000    10.0000 </r>
       <r>   -36.9169     0.0000    10.0000 </r>
       <r>   -36.7096     0.0000    10.0000 </r>
       <r>   -36.5022     0.0000    10.0000 </r>
       <r>   -36.2949     0.0000    10.0000 </r>
       <r>   -36.0876     0.0000    10.0000 </r>
       <r>   -35.8802     0.0000    10.0000 </r>
       <r>   -35.6729     0.0000    10.0000 </r>
       <r>   -35.4655     0.0000    10.0000 </r>
       <r>   -35.2582     0.0000    10.0000 </r>
       <r>   -35.0509     0.0000    10.0000 </r>
       <r>   -34.8435     0.0000    10.0000 </r>
       <r>   -34.6362     0.0000    10.0000 </r>
       <r>   -34.4288     0.0000    10.0000 </r>
       <r>   -34.2215     0.0000    10.0000 </r>
       <r>   -34.0142     0.0000    10.0000 </r>
       <r>   -33.8068     0.0000    10.0000 </r>
       <r>   -33.5995     0.0000    10.0000 </r>
       <r>   -33.3922     0.0000    10.0000 </r>
       <r>   -33.1848     0.0000    10.0000 </r>
       <r>   -32.9775     0.0000    10.0000 </r>
       <r>   -32.7701     0.0000    10.0000 </r>
       <r>   -32.5628     0.0000    10.0000 </r>
       <r>   -32.3555     0.0000    10.0000 </r>
       <r>   -32.1481     0.0000    10.0000 </r>
       <r>   -31.9408     0.0000    10.0000 </r>
       <r>   -31.7334     0.0000    10.0000 </r>
       <r>   -31.5261     0.0000    10.0000 </r>
       <r>   -31.3188     0.0000    10.0000 </r>
       <r>   -31.1114     0.0000    10.0000 </r>
       <r>   -30.9041     0.0000    10.0000 </r>
       <r>   -30.6968     0.0000    10.0000 </r>
       <r>   -30.4894     0.0000    10.0000 </r>
       <r>   -30.2821     0.0000    10.0000 </r>
       <r>   -30.0747     0.0000    10.0000 </r>
       <r>   -29.8674     0.0000    10.0000 </r>
       <r>   -29.6601     0.0000    10.0000 </r>
       <r>   -29.4527     0.0000    10.0000 </r>
       <r>   -29.2454     0.0000    10.0000 </r>
       <r>   -29.0381     0.0000    10.0000 </r>
       <r>   -28.8307     0.0000    10.0000 </r>
       <r>   -28.6234     0.0000    10.0000 </r>
       <r>   -28.4160     0.0000    10.0000 </r>
       <r>   -28.2087     0.0000    10.0000 </r>
       <r>   -28.0014     0.0000    10.0000 </r>
       <r>   -27.7940     0.0000    10.0000 </r>
       <r>   -27.5867     0.0000    10.0000 </r>
       <r>   -27.3793     0.0000    10.0000 </r>
       <r>   -27.1720     0.0000    10.0000 </r>
       <r>   -26.9647     0.0000    10.0000 </r>
       <r>   -26.7573     0.0000    10.0000 </r>
       <r>   -26.5500     0.0000    10.0000 </r>
       <r>   -26.3427     0.0000    10.0000 </r>
       <r>   -26.1353    -0.0000    10.0000 </r>
       <r>   -25.9280    -0.0000    10.0000 </r>
       <r>   -25.7206    -0.0000    10.0000 </r>
       <r>   -25.5133    -0.0000    10.0000 </r>
       <r>   -25.3060    -0.0000    10.0000 </r>
       <r>   -25.0986    -0.0000    10.0000 </r>
       <r>   -24.8913    -0.0009     9.9998 </r>
       <r>   -24.6839    -0.0653     9.9863 </r>
       <r>   -24.4766    -0.3681     9.9100 </r>
       <r>   -24.2693     4.5572    10.8549 </r>
       <r>   -24.0619    18.2779    14.6446 </r>
       <r>   -23.8546    35.2947    21.9625 </r>
       <r>   -23.6473    37.8453    29.8093 </r>
       <r>   -23.4399    33.3437    36.7227 </r>
       <r>   -23.2326    11.5952    39.1269 </r>
       <r>   -23.0252     2.6315    39.6725 </r>
       <r>   -22.8179     1.7067    40.0263 </r>
       <r>   -22.6106    -0.1051    40.0045 </r>
       <r>   -22.4032    -0.0216    40.0000 </r>
       <r>   -22.1959    -0.0002    40.0000 </r>
       <r>   -21.9885    -0.0000    40.0000 </r>
       <r>   -21.7812    -0.0000    40.0000 </r>
       <r>   -21.5739    -0.0000    40.0000 </r>
       <r>   -21.3665     0.0000    40.0000 </r>
       <r>   -21.1592     0.0000    40.0000 </r>
       <r>   -20.9519     0.0000    40.0000 </r>
       <r>   -20.7445     0.0000    40.0000 </r>
       <r>   -20.5372     0.0000    40.0000 </r>
       <r>   -20.3298     0.0000    40.0000 </r>
       <r>   -20.1225     0.0000    40.0000 </r>
       <r>   -19.9152     0.0000    40.0000 </r>
       <r>   -19.7078     0.0000    40.0000 </r>
       <r>   -19.5005     0.0000    40.0000 </r>
       <r>   -19.2932     0.0000    40.0000 </r>
       <r>   -19.0858     0.0000    40.0000 </r>
       <r>   -18.8785     0.0000    40.0000 </r>
       <r>   -18.6711     0.0000    40.0000 </r>
       <r>   -18.4638     0.0000    40.0000 </r>
       <r>   -18.2565     0.0000    40.0000 </r>
       <r>   -18.0491     0.0000    40.0000 </r>
       <r>   -17.8418     0.0000    40.0000 </r>
       <r>   -17.6344     0.0000    40.0000 </r>
       <r>   -17.4271     0.0000    40.0000 </r>
       <r>   -17.2198     0.0000    40.0000 </r>
       <r>   -17.0124     0.0000    40.0000 </r>
       <r>   -16.8051     0.0000    40.0000 </r>
       <r>   -16.5978     0.0000    40.0000 </r>
       <r>   -16.3904     0.0000    40.0000 </r>
       <r>   -16.1831     0.0000    40.0000 </r>
       <r>   -15.9757     0.0000    40.0000 </r>
       <r>   -15.7684     0.0000    40.0000 </r>
       <r>   -15.5611     0.0000    40.0000 </r>
       <r>   -15.3537     0.0000    40.0000 </r>
       <r>   -15.1464     0.0000    40.0000 </r>
       <r>   -14.9390     0.0000    40.0000 </r>
       <r>   -14.7317     0.0000    40.0000 </r>
       <r>   -14.5244     0.0000    40.0000 </r>
       <r>   -14.3170     0.0000    40.0000 </r>
       <r>   -14.1097     0.0000    40.0000 </r>
       <r>   -13.9024     0.0000    40.0000 </r>
       <r>   -13.6950     0.0000    40.0000 </r>
       <r>   -13.4877     0.0000    40.0000 </r>
       <r>   -13.2803     0.0000    40.0000 </r>
       <r>   -13.0730     0.0000    40.0000 </r>
       <r>   -12.8657     0.0000    40.0000 </r>
       <r>   -12.6583     0.0000    40.0000 </r>
       <r>   -12.4510     0.0000    40.0000 </r>
       <r>   -12.2437     0.0000    40.0000 </r>
       <r>   -12.0363     0.0000    40.0000 </r>
       <r>   -11.8290     0.0000    40.0000 </r>
       <r>   -11.6216     0.0000    40.0000 </r>
       <r>   -11.4143     0.0000    40.0000 </r>
       <r>   -11.2070     0.0000    40.0000 </r>
       <r>   -10.9996     0.0000    40.0000 </r>
       <r>   -10.7923     0.0000    40.0000 </r>
       <r>   -10.5849     0.0000    40.0000 </r>
       <r>   -10.3776     0.0000    40.0000 </r>
       <r>   -10.1703     0.0000    40.0000 </r>
       <r>    -9.9629     0.0000    40.0000 </r>
       <r>    -9.7556     0.0000    40.0000 </r>
       <r>    -9.5483     0.0000    40.0000 </r>
       <r>    -9.3409     0.0000    40.0000 </r>
       <r>    -9.1336     0.0000    40.0000 </r>
       <r>    -8.9262     0.0000    40.0000 </r>
       <r>    -8.7189     0.0000    40.0000 </r>
       <r>    -8.5116     0.0000    40.0000 </r>
       <r>    -8.3042     0.0000    40.0000 </r>
       <r>    -8.0969     0.0000    40.0000 </r>
       <r>    -7.8895     0.0000    40.0000 </r>
       <r>    -7.6822     0.0000    40.0000 </r>
       <r>    -7.4749     0.0000    40.0000 </r>
       <r>    -7.2675     0.0000    40.0000 </r>
       <r>    -7.0602     0.0000    40.0000 </r>
       <r>    -6.8529     0.0000    40.0000 </r>
       <r>    -6.6455     0.0000    40.0000 </r>
       <r>    -6.4382     0.0000    40.0000 </r>
       <r>    -6.2308     0.0000    40.0000 </r>
       <r>    -6.0235     0.0000    40.0000 </r>
       <r>    -5.8162     0.0000    40.0000 </r>
       <r>    -5.6088     0.0000    40.0000 </r>
       <r>    -5.4015     0.0000    40.0000 </r>
       <r>    -5.1941     0.0000    40.0000 </r>
       <r>    -4.9868     0.0000    40.0000 </r>
       <r>    -4.7795     0.0000    40.0000 </r>
       <r>    -4.5721     0.0000    40.0000 </r>
       <r>    -4.3648     0.0000    40.0000 </r>
       <r>    -4.1575     0.0000    40.0000 </r>
       <r>    -3.9501     0.0000    40.0000 </r>
       <r>    -3.7428     0.0000    40.0000 </r>
       <r>    -3.5354     0.0000    40.0000 </r>
       <r>    -3.3281     0.0000    40.0000 </r>
       <r>    -3.1208     0.0000    40.0000 </r>
       <r>    -2.9134     0.0000    40.0000 </r>
       <r>    -2.7061     0.0000    40.0000 </r>
       <r>    -2.4988     0.0000    40.0000 </r>
       <r>    -2.2914     0.0000    40.0000 </r>
       <r>    -2.0841    -0.0000    40.0000 </r>
       <r>    -1.8767    -0.0000    40.0000 </r>
       <r>    -1.6694    -0.0000    40.0000 </r>
       <r>    -1.4621    -0.0000    40.0000 </r>
       <r>    -1.2547    -0.0000    40.0000 </r>
       <r>    -1.0474    -0.0000    40.0000 </r>
       <r>    -0.8400    -0.0005    39.9999 </r>
       <r>    -0.6327    -0.0118    39.9974 </r>
       <r>    -0.4254     0.0314    40.0040 </r>
       <r>    -0.2180     0.5733    40.1228 </r>
       <r>    -0.0107     1.2114    40.3740 </r>
       <r>     0.1966     1.5200    40.6892 </r>
       <r>     0.4040     2.0871    41.1219 </r>
       <r>     0.6113     1.8517    41.5058 </r>
       <r>     0.8187     2.3577    41.9947 </r>
       <r>     1.0260     3.1649    42.6509 </r>
       <r>     1.2333     3.1218    43.2981 </r>
       <r>     1.4407     3.4796    44.0196 </r>
       <r>     1.6480     4.0571    44.8608 </r>
       <r>     1.8554     4.9284    45.8826 </r>
       <r>     2.0627     5.9094    47.1079 </r>
       <r>     2.2700     8.1679    48.8014 </r>
       <r>     2.4774    14.4910    51.8059 </r>
       <r>     2.6847    19.5498    55.8594 </r>
       <r>     2.8920    23.7622    60.7862 </r>
       <r>     3.0994    26.0838    66.1943 </r>
       <r>     3.3067    29.7372    72.3600 </r>
       <r>     3.5141    30.5951    78.7035 </r>
       <r>     3.7214    29.6503    84.8512 </r>
       <r>     3.9287    30.2398    91.1210 </r>
       <r>     4.1361    30.5308    97.4512 </r>
       <r>     4.3434    27.7823   103.2116 </r>
       <r>     4.5508    30.6977   109.5764 </r>
       <r>     4.7581    37.5171   117.3551 </r>
       <r>     4.9654    40.5585   125.7645 </r>
       <r>     5.1728    39.5867   133.9723 </r>
       <r>     5.3801    39.7512   142.2142 </r>
       <r>     5.5874    41.6996   150.8602 </r>
       <r>     5.7948    42.2799   159.6264 </r>
       <r>     6.0021    41.2281   168.1746 </r>
       <r>     6.2095    39.9369   176.4550 </r>
       <r>     6.4168    38.2294   184.3814 </r>
       <r>     6.6241    33.7087   191.3705 </r>
       <r>     6.8315    28.9270   197.3682 </r>
       <r>     7.0388    25.1583   202.5845 </r>
       <r>     7.2461    21.8742   207.1199 </r>
       <r>     7.4535    20.2432   211.3170 </r>
       <r>     7.6608    20.2230   215.5100 </r>
       <r>     7.8682    22.1546   220.1035 </r>
       <r>     8.0755    28.3144   225.9742 </r>
       <r>     8.2828    31.3606   232.4764 </r>
       <r>     8.4902    24.7303   237.6040 </r>
       <r>     8.6975    10.7488   239.8326 </r>
       <r>     8.9049     1.0508   240.0505 </r>
       <r>     9.1122    -0.2277   240.0033 </r>
       <r>     9.3195    -0.0157   240.0000 </r>
       <r>     9.5269    -0.0001   240.0000 </r>
       <r>     9.7342    -0.0000   240.0000 </r>
       <r>     9.9415    -0.0000   240.0000 </r>
       <r>    10.1489    -0.0000   240.0000 </r>
       <r>    10.3562     0.0000   240.0000 </r>
       <r>    10.5636     0.0000   240.0000 </r>
       <r>    10.7709     0.0000   240.0000 </r>
       <r>    10.9782     0.0000   240.0000 </r>
       <r>    11.1856     0.0000   240.0000 </r>
       <r>    11.3929     0.0000   240.0000 </r>
       <r>    11.6003     0.0000   240.0000 </r>
      </set>
     </set>
    </array>
   </total>
  </dos>
 </calculation>
 <structure name="finalpos" >
  <crystal>
   <varray name="basis" >
    <v>      -3.19928222      -3.15087166      -3.16394001 </v>
    <v>       1.52020227       1.64276571      -7.89723746 </v>
    <v>       7.72214303      -7.72223176      -1.45826603 </v>
   </varray>
   <i name="volume">    465.21591296 </i>
   <varray name="rec_basis" >
    <v>      -0.13623757      -0.12632143      -0.05250256 </v>
    <v>       0.04264228       0.06254688      -0.10540714 </v>
    <v>       0.06465986      -0.06464809      -0.00100106 </v>
   </varray>
  </crystal>
  <varray name="positions" >
   <v>       0.95770986       0.94593272       0.42443911 </v>
   <v>       0.62766765       0.27682308       0.40191319 </v>
   <v>       0.49415187       0.00514198      -0.00634195 </v>
   <v>      -0.00403577       0.00467768      -0.00268333 </v>
   <v>       0.07525080       0.18654241       0.77319145 </v>
   <v>       0.90292282       0.80447569       0.20481752 </v>
   <v>       0.80531439       0.59850723       0.39903373 </v>
   <v>       0.73176247       0.47497130       0.19817609 </v>
   <v>       0.66132037       0.34399539      -0.00730263 </v>
   <v>       0.36296905       0.71806535       0.60635117 </v>
   <v>       0.13043024       0.27722016       0.39871443 </v>
   <v>       0.83360023       0.66597621      -0.00056318 </v>
   <v>       0.93455808       0.87232758       0.78697835 </v>
   <v>       0.57016095       0.13969501       0.19736254 </v>
   <v>       0.40314235       0.80264067       0.19936126 </v>
   <v>       0.44717901       0.84988255       0.79364111 </v>
   <v>       0.29816843       0.60790692       0.40598757 </v>
   <v>       0.85331959       0.70630294       0.60229114 </v>
   <v>       0.47144391       0.93761018       0.41948131 </v>
   <v>       0.16786847       0.33720510      -0.00493093 </v>
   <v>       0.26834698       0.52696402       0.79363014 </v>
   <v>       0.21170651       0.37941313       0.59170031 </v>
   <v>       0.06695842       0.15202823       0.21132074 </v>
   <v>       0.76249658       0.50964137       0.80275747 </v>
   <v>       0.68652836       0.39895505       0.60723440 </v>
   <v>       0.57420755       0.20446831       0.79511565 </v>
   <v>       0.61181782       0.07025740       0.61381036 </v>
   <v>       0.33306395       0.65195020      -0.00069623 </v>
   <v>       0.22663572       0.48375545       0.19520922 </v>
  </varray>
 </structure>
</modeling>
