Nb - Mo - Ta - Ti - V SQS               
           1
    -3.160000   -3.160000   -3.160000
     1.580000    1.580000   -7.900000
     7.900000   -7.900000   -1.580000
   Nb   Mo   Ta   Ti   V 
   5   6   6   6   6
Direct configuration=     1
   0.96666667  0.93333333  0.40000000
   0.63333333  0.26666667  0.40000000
   0.50000000  0.00000000  0.00000000
   0.00000000  0.00000000  0.00000000
   0.10000000  0.20000000  0.80000000
   0.90000000  0.80000000  0.20000000
   0.80000000  0.60000000  0.40000000
   0.73333333  0.46666667  0.20000000
   0.66666667  0.33333333  0.00000000
   0.36666667  0.73333333  0.60000000
   0.13333333  0.26666667  0.40000000
   0.83333333  0.66666667  0.00000000
   0.93333333  0.86666667  0.80000000
   0.56666667  0.13333333  0.20000000
   0.40000000  0.80000000  0.20000000
   0.43333333  0.86666667  0.80000000
   0.30000000  0.60000000  0.40000000
   0.86666667  0.73333333  0.60000000
   0.46666667  0.93333333  0.40000000
   0.16666667  0.33333333  0.00000000
   0.26666667  0.53333333  0.80000000
   0.20000000  0.40000000  0.60000000
   0.06666667  0.13333333  0.20000000
   0.76666667  0.53333333  0.80000000
   0.70000000  0.40000000  0.60000000
   0.60000000  0.20000000  0.80000000
   0.53333333  0.06666667  0.60000000
   0.33333333  0.66666667  0.00000000
   0.23333333  0.46666667  0.20000000
Nb - Mo - Ta - Ti - V SQS               
           1
    -3.132567   -3.112414   -3.121904
     1.559634    1.569572   -7.811475
     7.822726   -7.787903   -1.545392
   Nb   Mo   Ta   Ti   V 
   5   6   6   6   6
Direct configuration=     2
   0.96460286  0.93590450  0.40220504
   0.63145282  0.26661021  0.40178195
   0.49839531  0.00273680 -0.00238519
  -0.00084968  0.00056755  0.00027063
   0.09705540  0.20289377  0.79504418
   0.90311976  0.79705635  0.20119331
   0.80353763  0.59515485  0.39987838
   0.73335589  0.46613980  0.19906098
   0.66483944  0.33812986 -0.00168586
   0.36803102  0.73285171  0.60104398
   0.13336795  0.26940626  0.40054487
   0.83536766  0.66241602  0.00226489
   0.93144925  0.87168537  0.79590909
   0.56579507  0.13479384  0.19865697
   0.40173639  0.79511462  0.19856009
   0.44067931  0.86110846  0.79728502
   0.30046199  0.60005925  0.40262547
   0.86145086  0.73005755  0.59930531
   0.46796481  0.93195199  0.40304591
   0.16858410  0.33527338  0.00089996
   0.27040701  0.53334841  0.79871462
   0.20299910  0.39778304  0.59912250
   0.06536996  0.13847044  0.20276746
   0.76690559  0.52925685  0.80068621
   0.69691941  0.40232205  0.60143690
   0.59560402  0.20275746  0.80024624
   0.53359416  0.06789690  0.60203370
   0.33389848  0.66248919 -0.00004293
   0.23057109  0.46909684  0.19953031
Nb - Mo - Ta - Ti - V SQS               
           1
    -3.130345   -3.108559   -3.118818
     1.557984    1.568727   -7.804304
     7.816467   -7.778823   -1.542589
   Nb   Mo   Ta   Ti   V 
   5   6   6   6   6
Direct configuration=     3
   0.96443481  0.93611505  0.40238574
   0.63129948  0.26660558  0.40192784
   0.49826284  0.00296097 -0.00258077
  -0.00091918  0.00061403  0.00029276
   0.09681194  0.20313085  0.79463773
   0.90337587  0.79681524  0.20129131
   0.80382732  0.59475804  0.39986853
   0.73335729  0.46609667  0.19898397
   0.66468913  0.33852269 -0.00182401
   0.36814330  0.73281224  0.60112969
   0.13337116  0.26963059  0.40058968
   0.83553523  0.66206788  0.00245057
   0.93129321  0.87209644  0.79557377
   0.56572309  0.13491347  0.19854685
   0.40187784  0.79471456  0.19844197
   0.44127996  0.86065325  0.79706293
   0.30050104  0.60006405  0.40284077
   0.86102287  0.72978938  0.59924763
   0.46807252  0.93183881  0.40329569
   0.16874176  0.33543221  0.00097404
   0.27071302  0.53334961  0.79860964
   0.20324444  0.39760147  0.59905076
   0.06526515  0.13889109  0.20299447
   0.76692529  0.52892302  0.80074228
   0.69666766  0.40251222  0.60155450
   0.59524393  0.20298332  0.80026611
   0.53361651  0.06799760  0.60220052
   0.33394460  0.66214710 -0.00004661
   0.23034458  0.46929589  0.19949164
Nb - Mo - Ta - Ti - V SQS               
           1
    -3.145185   -3.110534   -3.128260
     1.560385    1.577322   -7.830501
     7.844572   -7.784841   -1.537204
   Nb   Mo   Ta   Ti   V 
   5   6   6   6   6
Direct configuration=     4
   0.96284330  0.93808112  0.40445306
   0.63034726  0.26637001  0.40331740
   0.49741748  0.00444262 -0.00426075
  -0.00137934  0.00122972  0.00022903
   0.09451297  0.20464670  0.79075763
   0.90520376  0.79502150  0.20205793
   0.80608552  0.59183867  0.39998942
   0.73341449  0.46531611  0.19868151
   0.66339984  0.34169684 -0.00322605
   0.36877313  0.73257082  0.60189171
   0.13323088  0.27107142  0.40131874
   0.83698701  0.66008756  0.00343711
   0.93033908  0.87593088  0.79225111
   0.56512572  0.13576789  0.19775122
   0.40285433  0.79206311  0.19752520
   0.44547568  0.85727839  0.79533206
   0.30094860  0.60010969  0.40468462
   0.85723672  0.72725965  0.59872798
   0.46908142  0.93090306  0.40544022
   0.17038182  0.33675295  0.00141775
   0.27332805  0.53321890  0.79772718
   0.20527382  0.39579653  0.59841901
   0.06452419  0.14240683  0.20494515
   0.76720270  0.52576868  0.80117066
   0.69469054  0.40373997  0.60298081
   0.59188828  0.20534855  0.80019373
   0.53436673  0.06876501  0.60388513
   0.33448567  0.65880018 -0.00016745
   0.22862706  0.47104994  0.19906887
Nb - Mo - Ta - Ti - V SQS               
           1
    -3.165007   -3.113173   -3.140873
     1.563591    1.588802   -7.865493
     7.882112   -7.792878   -1.530011
   Nb   Mo   Ta   Ti   V 
   5   6   6   6   6
Direct configuration=     5
   0.96073291  0.94069806  0.40720770
   0.62908521  0.26605631  0.40516825
   0.49628397  0.00641571 -0.00649999
  -0.00199251  0.00204946  0.00014391
   0.09143331  0.20666648  0.78558449
   0.90764184  0.79263296  0.20308074
   0.80909378  0.58795183  0.40015147
   0.73348926  0.46427717  0.19827803
   0.66167635  0.34592291 -0.00509443
   0.36961549  0.73224901  0.60290790
   0.13304739  0.27298915  0.40229105
   0.83892510  0.65745072  0.00475252
   0.92905334  0.88103639  0.78782361
   0.56432648  0.13690568  0.19669059
   0.40415070  0.78853368  0.19630300
   0.45105625  0.85278520  0.79302795
   0.30155308  0.60016970  0.40714263
   0.85219119  0.72389368  0.59802992
   0.47043491  0.92965644  0.40829909
   0.17256840  0.33851035  0.00201161
   0.27680719  0.53304433  0.79655381
   0.20797395  0.39339347  0.59757829
   0.06354625  0.14708635  0.20754606
   0.76757398  0.52156964  0.80174024
   0.69206358  0.40537447  0.60488030
   0.58741843  0.20849810  0.80009485
   0.53537367  0.06978574  0.60613161
   0.33520564  0.65434487 -0.00032967
   0.22633755  0.47338549  0.19850446
Nb - Mo - Ta - Ti - V SQS               
           1
    -3.169646   -3.119960   -3.149727
     1.563268    1.589758   -7.882545
     7.881255   -7.798269   -1.533315
   Nb   Mo   Ta   Ti   V 
   5   6   6   6   6
Direct configuration=     6
   0.96026408  0.94064833  0.40816155
   0.62931672  0.26616596  0.40515168
   0.49713163  0.00540122 -0.00649880
  -0.00231722  0.00237385 -0.00034700
   0.09089234  0.20521179  0.78501198
   0.90672973  0.79339466  0.20298707
   0.80873961  0.58874660  0.40024740
   0.73319085  0.46404391  0.19917269
   0.66202320  0.34518318 -0.00526010
   0.36900097  0.73163396  0.60294320
   0.13277221  0.27241072  0.40276697
   0.83840832  0.65992964  0.00357457
   0.92954012  0.88202222  0.78696529
   0.56497737  0.13633736  0.19674116
   0.40444731  0.78959474  0.19635175
   0.44990197  0.85365534  0.79358047
   0.30158878  0.60066822  0.40707043
   0.85206109  0.72305012  0.59796001
   0.47103231  0.92953593  0.40828238
   0.17317211  0.33827144  0.00152037
   0.27637968  0.53321252  0.79645925
   0.20816253  0.39301370  0.59722863
   0.06359449  0.14710125  0.20785974
   0.76783306  0.52097643  0.80178172
   0.69176126  0.40506228  0.60575016
   0.58648153  0.20924537  0.79962164
   0.53719822  0.06931204  0.60688098
   0.33556501  0.65355732 -0.00055396
   0.22681741  0.47357324  0.19858875
Nb - Mo - Ta - Ti - V SQS               
           1
    -3.180580   -3.135955   -3.170593
     1.562505    1.592012   -7.922730
     7.879237   -7.810973   -1.541102
   Nb   Mo   Ta   Ti   V 
   5   6   6   6   6
Direct configuration=     7
   0.95915931  0.94053176  0.41040883
   0.62986103  0.26642372  0.40511260
   0.49912721  0.00301433 -0.00649648
  -0.00308040  0.00313708 -0.00150335
   0.08962420  0.20179044  0.78366316
   0.90458328  0.79518698  0.20276684
   0.80790485  0.59061630  0.40047366
   0.73248739  0.46349553  0.20128045
   0.66284078  0.34344292 -0.00565066
   0.36755678  0.73018770  0.60302647
   0.13212503  0.27105035  0.40388819
   0.83719082  0.66576085  0.00080009
   0.93068503  0.88434070  0.78494322
   0.56650919  0.13500009  0.19685998
   0.40514273  0.79209036  0.19646670
   0.44718426  0.85570297  0.79488269
   0.30167195  0.60184079  0.40690042
   0.85175691  0.72106600  0.59779520
   0.47243763  0.92925204  0.40824279
   0.17459358  0.33770901  0.00036281
   0.27537410  0.53360843  0.79623666
   0.20860759  0.39212025  0.59640475
   0.06370717  0.14713628  0.20859872
   0.76844347  0.51958090  0.80187923
   0.69104882  0.40432823  0.60779947
   0.58427766  0.21100375  0.79850728
   0.54148858  0.06819652  0.60864570
   0.33641227  0.65170458 -0.00108263
   0.22794545  0.47401451  0.19878719
Nb - Mo - Ta - Ti - V SQS               
           1
    -3.176275   -3.132654   -3.168322
     1.557357    1.589198   -7.912887
     7.855453   -7.791792   -1.537679
   Nb   Mo   Ta   Ti   V 
   5   6   6   6   6
Direct configuration=     8
   0.95872855  0.94053641  0.41135161
   0.62990207  0.26661098  0.40518574
   0.49952811  0.00254302 -0.00645624
  -0.00324163  0.00342793 -0.00187659
   0.08899739  0.20054267  0.78314297
   0.90409066  0.79579284  0.20266073
   0.80766873  0.59117629  0.40051359
   0.73231841  0.46372822  0.20175492
   0.66331414  0.34299316 -0.00572266
   0.36696086  0.72958687  0.60314403
   0.13189890  0.27065183  0.40425739
   0.83699376  0.66724703 -0.00008029
   0.93078657  0.88527981  0.78400960
   0.56717584  0.13452163  0.19686560
   0.40530436  0.79281197  0.19655280
   0.44657186  0.85613779  0.79522370
   0.30161516  0.60228032  0.40669365
   0.85158537  0.72024222  0.59779845
   0.47287910  0.92911696  0.40830515
   0.17484816  0.33763400 -0.00008721
   0.27497299  0.53381786  0.79608617
   0.20879800  0.39174166  0.59610084
   0.06376767  0.14723036  0.20897112
   0.76846688  0.51901119  0.80197347
   0.69067890  0.40411734  0.60858375
   0.58341228  0.21151994  0.79810240
   0.54361256  0.06772568  0.60930680
   0.33681045  0.65109268 -0.00122677
   0.22822057  0.47421466  0.19886527
Nb - Mo - Ta - Ti - V SQS               
           1
    -3.166799   -3.125391   -3.163324
     1.546028    1.583005   -7.891225
     7.803110   -7.749579   -1.530145
   Nb   Mo   Ta   Ti   V 
   5   6   6   6   6
Direct configuration=     9
   0.95777815  0.94054711  0.41343227
   0.62999218  0.26702373  0.40534721
   0.50041192  0.00150415 -0.00636763
  -0.00359669  0.00406890 -0.00270017
   0.08761856  0.19779267  0.78199465
   0.90300471  0.79712829  0.20242683
   0.80714775  0.59241060  0.40060193
   0.73194517  0.46424127  0.20280210
   0.66435774  0.34200171 -0.00588177
   0.36564844  0.72826289  0.60340335
   0.13140063  0.26977368  0.40507208
   0.83655900  0.67052234 -0.00202265
   0.93101043  0.88734926  0.78194951
   0.56864523  0.13346689  0.19687775
   0.40565949  0.79440236  0.19674303
   0.44522156  0.85709645  0.79597648
   0.30148979  0.60324899  0.40623749
   0.85120838  0.71842668  0.59780536
   0.47385188  0.92881912  0.40844267
   0.17540979  0.33746843 -0.00108041
   0.27408918  0.53427952  0.79575418
   0.20921840  0.39090710  0.59543000
   0.06390035  0.14743780  0.20979300
   0.76851901  0.51775557  0.80218124
   0.68986302  0.40365294  0.61031454
   0.58150551  0.21265778  0.79720918
   0.54829199  0.06668748  0.61076531
   0.33768871  0.64974388 -0.00154511
   0.22882639  0.47465574  0.19903761
Nb - Mo - Ta - Ti - V SQS               
           1
    -3.168383   -3.126605   -3.164159
     1.547922    1.584040   -7.894845
     7.811857   -7.756634   -1.531404
   Nb   Mo   Ta   Ti   V 
   5   6   6   6   6
Direct configuration=    10
   0.95793786  0.94054514  0.41308242
   0.62997721  0.26695453  0.40532004
   0.50026367  0.00167836 -0.00638245
  -0.00353727  0.00396147 -0.00256175
   0.08784874  0.19825368  0.78218784
   0.90318685  0.79690436  0.20246605
   0.80723530  0.59220364  0.40058700
   0.73200805  0.46415518  0.20262600
   0.66418267  0.34216799 -0.00585494
   0.36586811  0.72848476  0.60335979
   0.13148412  0.26992083  0.40493515
   0.83663205  0.66997333 -0.00169627
   0.93097286  0.88700245  0.78229577
   0.56839884  0.13364379  0.19687580
   0.40560036  0.79413575  0.19671097
   0.44544815  0.85693562  0.79584983
   0.30151088  0.60308661  0.40631413
   0.85127117  0.71873103  0.59780429
   0.47368888  0.92886910  0.40841958
   0.17531543  0.33749628 -0.00091340
   0.27423726  0.53420209  0.79580995
   0.20914764  0.39104707  0.59554284
   0.06387835  0.14740299  0.20965481
   0.76851007  0.51796606  0.80214638
   0.69000002  0.40373065  0.61002354
   0.58182498  0.21246697  0.79735925
   0.54750816  0.06686172  0.61052025
   0.33754122  0.64997007 -0.00149149
   0.22872502  0.47458182  0.19900862
Nb - Mo - Ta - Ti - V SQS               
           1
    -3.170935   -3.127931   -3.164474
     1.546698    1.586055   -7.894483
     7.805836   -7.750875   -1.528168
   Nb   Mo   Ta   Ti   V 
   5   6   6   6   6
Direct configuration=    11
   0.95767931  0.94076022  0.41396485
   0.62977019  0.26716444  0.40561584
   0.49975110  0.00228582 -0.00635982
  -0.00330773  0.00415386 -0.00264599
   0.08719094  0.19771926  0.78166995
   0.90352652  0.79712397  0.20239900
   0.80716786  0.59231644  0.40059097
   0.73217301  0.46486144  0.20238129
   0.66464371  0.34228507 -0.00581089
   0.36533392  0.72814245  0.60354762
   0.13145733  0.26973140  0.40516240
   0.83719725  0.66949305 -0.00199222
   0.93059988  0.88761679  0.78128769
   0.56874625  0.13353575  0.19688497
   0.40541290  0.79431223  0.19680593
   0.44567188  0.85659705  0.79577773
   0.30129642  0.60320079  0.40600626
   0.85114812  0.71804184  0.59798744
   0.47368485  0.92881757  0.40870100
   0.17499695  0.33766154 -0.00117451
   0.27382421  0.53438219  0.79558391
   0.20927826  0.39069597  0.59545367
   0.06409975  0.14759874  0.21000636
   0.76822311  0.51758963  0.80221901
   0.68970809  0.40356101  0.61046607
   0.58115825  0.21255082  0.79713924
   0.54969334  0.06656283  0.61082561
   0.33785500  0.64981757 -0.00150368
   0.22868602  0.47475361  0.19901031
Nb - Mo - Ta - Ti - V SQS               
           1
    -3.178591   -3.131911   -3.165418
     1.543026    1.592100   -7.893395
     7.787772   -7.733601   -1.518460
   Nb   Mo   Ta   Ti   V 
   5   6   6   6   6
Direct configuration=    12
   0.95690435  0.94140593  0.41661422
   0.62914959  0.26779424  0.40650401
   0.49821443  0.00410791 -0.00629163
  -0.00261944  0.00473106 -0.00289874
   0.08521831  0.19611537  0.78011461
   0.90454502  0.79778289  0.20219789
   0.80696568  0.59265478  0.40060296
   0.73266780  0.46698005  0.20164711
   0.66602615  0.34263653 -0.00567846
   0.36373217  0.72711542  0.60411119
   0.13137698  0.26916328  0.40584457
   0.83889171  0.66805233 -0.00288093
   0.92948149  0.88945887  0.77826145
   0.56978787  0.13321179  0.19691252
   0.40485091  0.79484162  0.19709109
   0.44634256  0.85558144  0.79556113
   0.30065334  0.60354298  0.40508197
   0.85077898  0.71597444  0.59853683
   0.47367283  0.92866319  0.40954584
   0.17404201  0.33815697 -0.00195840
   0.27258572  0.53492211  0.79490528
   0.20966976  0.38964270  0.59518575
   0.06476374  0.14818634  0.21106201
   0.76736257  0.51646031  0.80243677
   0.68883282  0.40305227  0.61179449
   0.57915910  0.21280189  0.79647858
   0.55624535  0.06566745  0.61174270
   0.33879575  0.64936021 -0.00154029
   0.22856913  0.47526895  0.19901549
Nb - Mo - Ta - Ti - V SQS               
           1
    -3.193904   -3.139871   -3.167305
     1.535682    1.604189   -7.891221
     7.751645   -7.699051   -1.499045
   Nb   Mo   Ta   Ti   V 
   5   6   6   6   6
Direct configuration=    13
   0.95535862  0.94270013  0.42192548
   0.62791122  0.26905435  0.40828489
   0.49514723  0.00775031 -0.00615337
  -0.00124482  0.00588563 -0.00340435
   0.08127758  0.19290391  0.77699391
   0.90657908  0.79910128  0.20179606
   0.80656220  0.59333123  0.40062731
   0.73365682  0.47121624  0.20017827
   0.66878689  0.34334089 -0.00541191
   0.36053340  0.72506083  0.60523886
   0.13121649  0.26802805  0.40721125
   0.84227385  0.66517160 -0.00466339
   0.92724804  0.89313732  0.77219697
   0.57186757  0.13256500  0.19696783
   0.40372921  0.79590015  0.19766311
   0.44768102  0.85355080  0.79512596
   0.29936901  0.60422538  0.40322932
   0.85004080  0.71184050  0.59963537
   0.47364913  0.92835561  0.41123918
   0.17213513  0.33914573 -0.00352958
   0.27011273  0.53599971  0.79354503
   0.21045070  0.38753640  0.59464755
   0.06609047  0.14936350  0.21317917
   0.76564363  0.51420140  0.80287147
   0.68708539  0.40203591  0.61445633
   0.57516706  0.21330114  0.79515365
   0.56932821  0.06388444  0.61358299
   0.34067394  0.64844645 -0.00161381
   0.22833606  0.47629940  0.19902645
Nb - Mo - Ta - Ti - V SQS               
           1
    -3.186508   -3.136026   -3.166393
     1.539229    1.598350   -7.892271
     7.769095   -7.715739   -1.508423
   Nb   Mo   Ta   Ti   V 
   5   6   6   6   6
Direct configuration=    14
   0.95610120  0.94207229  0.41934788
   0.62850664  0.26844521  0.40742028
   0.49662281  0.00599271 -0.00622198
  -0.00190690  0.00532779 -0.00316003
   0.08317664  0.19445866  0.77851100
   0.90559942  0.79846396  0.20198977
   0.80675624  0.59300474  0.40061517
   0.73317965  0.46917110  0.20088819
   0.66745740  0.34299930 -0.00554230
   0.36207388  0.72605371  0.60469366
   0.13129380  0.26857541  0.40654883
   0.84064678  0.66656236 -0.00379751
   0.92832363  0.89136611  0.77513788
   0.57086645  0.13287634  0.19694092
   0.40426881  0.79538912  0.19738516
   0.44703734  0.85453108  0.79533805
   0.29998759  0.60389769  0.40412815
   0.85039725  0.71383639  0.59910501
   0.47366024  0.92850301  0.41041772
   0.17305329  0.33867019 -0.00276737
   0.27130337  0.53548139  0.79420496
   0.21007549  0.38855354  0.59490980
   0.06545083  0.14879301  0.21215086
   0.76647185  0.51529274  0.80266231
   0.68792642  0.40252572  0.61316575
   0.57708925  0.21306279  0.79579714
   0.56302937  0.06473818  0.61268816
   0.33976996  0.64888689 -0.00157801
   0.22844795  0.47580189  0.19902056
Nb - Mo - Ta - Ti - V SQS               
           1
    -3.195020   -3.144179   -3.172664
     1.542678    1.605168   -7.909870
     7.772317   -7.720554   -1.508862
   Nb   Mo   Ta   Ti   V 
   5   6   6   6   6
Direct configuration=    15
   0.95601339  0.94245557  0.42068053
   0.62816090  0.26904128  0.40727524
   0.49686184  0.00631665 -0.00657019
  -0.00201941  0.00533376 -0.00325078
   0.08257937  0.19423905  0.77801062
   0.90573173  0.79858032  0.20194945
   0.80671506  0.59278389  0.40044673
   0.73400947  0.46916095  0.20064997
   0.66700944  0.34338888 -0.00548888
   0.36196391  0.72544383  0.60450565
   0.13120407  0.26872847  0.40650420
   0.84043837  0.66670968 -0.00382754
   0.92879831  0.89054534  0.77484283
   0.57122866  0.13356196  0.19732945
   0.40457965  0.79592532  0.19697952
   0.44712506  0.85395915  0.79534990
   0.29951535  0.60344561  0.40439351
   0.85037808  0.71279133  0.59944279
   0.47348072  0.92867845  0.41119699
   0.17265238  0.33873172 -0.00276160
   0.27042127  0.53560737  0.79407556
   0.21027592  0.38821678  0.59493201
   0.06595047  0.14925915  0.21251300
   0.76570109  0.51523324  0.80253293
   0.68747678  0.40210888  0.61299055
   0.57613657  0.21271381  0.79591900
   0.56587767  0.06490054  0.61222673
   0.34005932  0.64930662 -0.00143929
   0.22834123  0.47616573  0.19859114
Nb - Mo - Ta - Ti - V SQS               
           1
    -3.200370   -3.149302   -3.176604
     1.544845    1.609453   -7.920929
     7.774341   -7.723580   -1.509139
   Nb   Mo   Ta   Ti   V 
   5   6   6   6   6
Direct configuration=    16
   0.95595830  0.94269592  0.42151754
   0.62794437  0.26941486  0.40718423
   0.49701178  0.00651972 -0.00678884
  -0.00208992  0.00533748 -0.00330777
   0.08220501  0.19410127  0.77769632
   0.90581469  0.79865327  0.20192415
   0.80668921  0.59264544  0.40034091
   0.73452961  0.46915469  0.20050037
   0.66672876  0.34363302 -0.00545528
   0.36189485  0.72506151  0.60438749
   0.13114788  0.26882440  0.40647618
   0.84030779  0.66680200 -0.00384639
   0.92909565  0.89003090  0.77465742
   0.57145582  0.13399182  0.19757356
   0.40477467  0.79626144  0.19672482
   0.44717989  0.85360064  0.79535727
   0.29921921  0.60316218  0.40456011
   0.85036575  0.71213627  0.59965479
   0.47336815  0.92878846  0.41168643
   0.17240110  0.33877023 -0.00275797
   0.26986844  0.53568620  0.79399430
   0.21040145  0.38800571  0.59494592
   0.06626371  0.14955145  0.21274051
   0.76521799  0.51519584  0.80245166
   0.68719486  0.40184751  0.61288045
   0.57553935  0.21249493  0.79599547
   0.56766305  0.06500266  0.61193698
   0.34024077  0.64956978 -0.00135212
   0.22827449  0.47639376  0.19832149
Nb - Mo - Ta - Ti - V SQS               
           1
    -3.200717   -3.149576   -3.175600
     1.545022    1.611741   -7.920566
     7.764498   -7.714899   -1.507169
   Nb   Mo   Ta   Ti   V 
   5   6   6   6   6
Direct configuration=    17
   0.95593697  0.94288310  0.42235044
   0.62772736  0.26985361  0.40698022
   0.49726499  0.00662736 -0.00699650
  -0.00220046  0.00533459 -0.00336414
   0.08181257  0.19395309  0.77746282
   0.90585160  0.79876017  0.20194140
   0.80664228  0.59249736  0.40018894
   0.73501627  0.46910002  0.20038317
   0.66632198  0.34388823 -0.00543590
   0.36193087  0.72459618  0.60423731
   0.13106499  0.26902561  0.40636536
   0.84001467  0.66702813 -0.00381822
   0.92945425  0.88930151  0.77471996
   0.57165482  0.13448735  0.19780969
   0.40506487  0.79655964  0.19648176
   0.44718585  0.85326396  0.79532204
   0.29897465  0.60294196  0.40471013
   0.85036468  0.71145864  0.59985522
   0.47329824  0.92892400  0.41217781
   0.17216517  0.33879827 -0.00271842
   0.26929861  0.53573133  0.79396972
   0.21054679  0.38776896  0.59496606
   0.06662069  0.14986137  0.21294763
   0.76466303  0.51518006  0.80237939
   0.68689912  0.40156370  0.61264318
   0.57501529  0.21218698  0.79611286
   0.56951870  0.06516868  0.61157087
   0.34035152  0.64990336 -0.00125845
   0.22820627  0.47668611  0.19801567
Nb - Mo - Ta - Ti - V SQS               
           1
    -3.201760   -3.150400   -3.172590
     1.545555    1.618605   -7.919478
     7.734968   -7.688854   -1.501258
   Nb   Mo   Ta   Ti   V 
   5   6   6   6   6
Direct configuration=    18
   0.95587285  0.94344478  0.42485219
   0.62707688  0.27116959  0.40636765
   0.49802479  0.00695030 -0.00762016
  -0.00253204  0.00532587 -0.00353346
   0.08063525  0.19350837  0.77676141
   0.90596243  0.79908085  0.20199324
   0.80650143  0.59205313  0.39973243
   0.73647620  0.46893623  0.20003114
   0.66510193  0.34465363 -0.00537759
   0.36203854  0.72320035  0.60378603
   0.13081659  0.26962911  0.40603257
   0.83913556  0.66770633 -0.00373351
   0.93052927  0.88711374  0.77490749
   0.57225223  0.13597390  0.19851913
   0.40593583  0.79745420  0.19575182
   0.44720340  0.85225403  0.79521608
   0.29824070  0.60228130  0.40516065
   0.85036068  0.70942603  0.60045696
   0.47308845  0.92933063  0.41365376
   0.17145740  0.33888230 -0.00259961
   0.26758922  0.53586645  0.79389589
   0.21098256  0.38705887  0.59502643
   0.06769183  0.15079121  0.21356987
   0.76299820  0.51513250  0.80216232
   0.68601175  0.40071222  0.61193039
   0.57344283  0.21126302  0.79646532
   0.57508581  0.06566737  0.61047131
   0.34068405  0.65090405 -0.00097698
   0.22800204  0.47756297  0.19709722
Nb - Mo - Ta - Ti - V SQS               
           1
    -3.202217   -3.150761   -3.171270
     1.545789    1.621614   -7.919000
     7.722023   -7.677437   -1.498668
   Nb   Mo   Ta   Ti   V 
   5   6   6   6   6
Direct configuration=    19
   0.95584453  0.94369116  0.42595295
   0.62679243  0.27174610  0.40609837
   0.49835810  0.00709189 -0.00789448
  -0.00267735  0.00532197 -0.00360795
   0.08011912  0.19331321  0.77645274
   0.90601115  0.79922140  0.20201611
   0.80643957  0.59185838  0.39953151
   0.73711613  0.46886468  0.19987625
   0.66456746  0.34498883 -0.00535181
   0.36208521  0.72258864  0.60358724
   0.13070802  0.26989350  0.40588627
   0.83875049  0.66800338 -0.00369613
   0.93099950  0.88615522  0.77498961
   0.57251462  0.13662553  0.19883153
   0.40631812  0.79784631  0.19543085
   0.44721068  0.85181144  0.79516928
   0.29791862  0.60199170  0.40535873
   0.85035793  0.70853535  0.60072133
   0.47299640  0.92950894  0.41430318
   0.17114718  0.33891901 -0.00254734
   0.26684001  0.53592535  0.79386343
   0.21117325  0.38674778  0.59505287
   0.06816165  0.15119894  0.21384380
   0.76226846  0.51511133  0.80206680
   0.68562254  0.40033884  0.61161663
   0.57275309  0.21085787  0.79662020
   0.57752650  0.06588680  0.60998768
   0.34083020  0.65134267 -0.00085297
   0.22791307  0.47794711  0.19669330
Nb - Mo - Ta - Ti - V SQS               
           1
    -3.201443   -3.149742   -3.169147
     1.545788    1.622697   -7.915671
     7.717676   -7.673146   -1.496956
   Nb   Mo   Ta   Ti   V 
   5   6   6   6   6
Direct configuration=    20
   0.95601587  0.94360526  0.42635067
   0.62685992  0.27190668  0.40594722
   0.49809335  0.00719708 -0.00775138
  -0.00244906  0.00549336 -0.00359898
   0.07966617  0.19295456  0.77640667
   0.90604754  0.79964323  0.20222850
   0.80620124  0.59214822  0.39947214
   0.73695253  0.46912376  0.19983329
   0.66449084  0.34495979 -0.00544490
   0.36209893  0.72225337  0.60362642
   0.13074191  0.26998735  0.40578288
   0.83875823  0.66804884 -0.00370269
   0.93096671  0.88564367  0.77541103
   0.57257348  0.13664736  0.19868718
   0.40628473  0.79795864  0.19571566
   0.44709572  0.85186033  0.79485252
   0.29789623  0.60241496  0.40491363
   0.85046167  0.70812287  0.60073840
   0.47304210  0.92971193  0.41442954
   0.17101942  0.33888639 -0.00258489
   0.26661163  0.53568360  0.79407983
   0.21106520  0.38642782  0.59511376
   0.06845452  0.15111159  0.21382389
   0.76205672  0.51501640  0.80216592
   0.68568513  0.40000771  0.61126682
   0.57280411  0.21058530  0.79661740
   0.57876376  0.06602109  0.60994268
   0.34043248  0.65168354 -0.00095309
   0.22797559  0.47822865  0.19662988
Nb - Mo - Ta - Ti - V SQS               
           1
    -3.199123   -3.146687   -3.162775
     1.545785    1.625948   -7.905682
     7.704636   -7.660275   -1.491821
   Nb   Mo   Ta   Ti   V 
   5   6   6   6   6
Direct configuration=    21
   0.95653002  0.94334765  0.42754450
   0.62706260  0.27238851  0.40549353
   0.49729897  0.00751266 -0.00732182
  -0.00176377  0.00600776 -0.00357200
   0.07830652  0.19187814  0.77626827
   0.90615717  0.80090916  0.20286612
   0.80548626  0.59301788  0.39929397
   0.73646178  0.46990113  0.19970441
   0.66426085  0.34487262 -0.00572432
   0.36213980  0.72124728  0.60374397
   0.13084369  0.27026896  0.40547254
   0.83878148  0.66818525 -0.00372238
   0.93086787  0.88410870  0.77667590
   0.57275013  0.13671284  0.19825390
   0.40618464  0.79829581  0.19657061
   0.44675072  0.85200690  0.79390170
   0.29782938  0.60368495  0.40357766
   0.85077263  0.70688513  0.60078954
   0.47317945  0.93032113  0.41480886
   0.17063599  0.33878843 -0.00269761
   0.26592608  0.53495810  0.79472933
   0.21074064  0.38546764  0.59529645
   0.06933334  0.15084955  0.21376410
   0.76142122  0.51473149  0.80246340
   0.68587259  0.39901397  0.61021675
   0.57295699  0.20976737  0.79660891
   0.58247693  0.06642455  0.60980770
   0.33923922  0.65270626 -0.00125358
   0.22816346  0.47907351  0.19643959
Nb - Mo - Ta - Ti - V SQS               
           1
    -3.202285   -3.149257   -3.164371
     1.547152    1.629365   -7.911586
     7.711442   -7.667233   -1.491056
   Nb   Mo   Ta   Ti   V 
   5   6   6   6   6
Direct configuration=    22
   0.95687138  0.94328676  0.42779294
   0.62712150  0.27250335  0.40530077
   0.49708686  0.00746047 -0.00716415
  -0.00163064  0.00617268 -0.00351917
   0.07783484  0.19149582  0.77619399
   0.90605015  0.80138719  0.20305013
   0.80533504  0.59340263  0.39925986
   0.73620950  0.47027954  0.19963759
   0.66428750  0.34480368 -0.00587615
   0.36207254  0.72086817  0.60379178
   0.13092699  0.27037230  0.40535520
   0.83871008  0.66817695 -0.00369123
   0.93080990  0.88352279  0.77720394
   0.57277383  0.13674064  0.19813375
   0.40611491  0.79865656  0.19683472
   0.44657926  0.85220311  0.79359416
   0.29789451  0.60396497  0.40332990
   0.85092731  0.70650505  0.60081379
   0.47320453  0.93060754  0.41490371
   0.17045712  0.33875737 -0.00275865
   0.26581626  0.53458281  0.79494639
   0.21061905  0.38515845  0.59524857
   0.06956308  0.15065777  0.21370539
   0.76132089  0.51455134  0.80258036
   0.68601095  0.39866405  0.60984257
   0.57309222  0.20954115  0.79656513
   0.58366959  0.06659483  0.60990305
   0.33870524  0.65306513 -0.00139209
   0.22823227  0.47935024  0.19641374
Nb - Mo - Ta - Ti - V SQS               
           1
    -3.206265   -3.152491   -3.166380
     1.548872    1.633666   -7.919017
     7.720009   -7.675991   -1.490093
   Nb   Mo   Ta   Ti   V 
   5   6   6   6   6
Direct configuration=    23
   0.95730071  0.94321031  0.42810538
   0.62719560  0.27264771  0.40505837
   0.49682009  0.00739485 -0.00696589
  -0.00146314  0.00638011 -0.00345269