  29  29   0   0
  0.1679057E+02  0.5525242E-09  0.8287863E-09  0.1139058E-08  0.5000000E-15
  1.000000000000000E-004
  CAR 
 SQS with 1 vacancy for VFE and VRV      
     12.00863336    -50.53855629  301      6.61711279      1.00000000
    -50.539  0.0000E+00  0.0000E+00
    -50.330  0.0000E+00  0.0000E+00
    -50.122  0.0000E+00  0.0000E+00
    -49.913  0.0000E+00  0.0000E+00
    -49.705  0.0000E+00  0.0000E+00
    -49.496 -0.2974E-35 -0.6201E-36
    -49.288 -0.1264E-27 -0.2634E-28
    -49.079 -0.6005E-21 -0.1252E-21
    -48.871 -0.3071E-15 -0.6403E-16
    -48.662 -0.1782E-10 -0.3716E-11
    -48.454 -0.1113E-06 -0.2320E-07
    -48.245 -0.7246E-04 -0.1513E-04
    -48.037 -0.4287E-02 -0.9089E-03
    -47.828  0.4812E-02  0.9440E-04
    -47.620  0.2339E+00  0.4886E-01
    -47.411  0.3132E+00  0.1142E+00
    -47.203  0.2574E+00  0.1678E+00
    -46.994  0.1586E+00  0.2009E+00
    -46.786 -0.1609E-02  0.2005E+00
    -46.577 -0.2558E-02  0.2000E+00
    -46.369 -0.3274E-04  0.2000E+00
    -46.160 -0.3821E-07  0.2000E+00
    -45.952 -0.4633E-11  0.2000E+00
    -45.743 -0.6816E-16  0.2000E+00
    -45.535  0.0000E+00  0.2000E+00
    -45.326  0.0000E+00  0.2000E+00
    -45.118  0.0000E+00  0.2000E+00
    -44.909  0.0000E+00  0.2000E+00
    -44.701  0.0000E+00  0.2000E+00
    -44.492  0.0000E+00  0.2000E+00
    -44.284  0.0000E+00  0.2000E+00
    -44.075  0.0000E+00  0.2000E+00
    -43.867  0.0000E+00  0.2000E+00
    -43.658  0.0000E+00  0.2000E+00
    -43.450  0.0000E+00  0.2000E+00
    -43.241  0.0000E+00  0.2000E+00
    -43.033  0.0000E+00  0.2000E+00
    -42.824  0.0000E+00  0.2000E+00
    -42.616  0.0000E+00  0.2000E+00
    -42.407  0.0000E+00  0.2000E+00
    -42.199  0.0000E+00  0.2000E+00
    -41.990  0.0000E+00  0.2000E+00
    -41.782  0.0000E+00  0.2000E+00
    -41.573  0.0000E+00  0.2000E+00
    -41.365  0.0000E+00  0.2000E+00
    -41.156  0.0000E+00  0.2000E+00
    -40.948  0.0000E+00  0.2000E+00
    -40.739  0.0000E+00  0.2000E+00
    -40.531  0.0000E+00  0.2000E+00
    -40.323  0.0000E+00  0.2000E+00
    -40.114  0.0000E+00  0.2000E+00
    -39.906  0.0000E+00  0.2000E+00
    -39.697  0.0000E+00  0.2000E+00
    -39.489  0.0000E+00  0.2000E+00
    -39.280  0.0000E+00  0.2000E+00
    -39.072  0.0000E+00  0.2000E+00
    -38.863  0.0000E+00  0.2000E+00
    -38.655  0.0000E+00  0.2000E+00
    -38.446  0.0000E+00  0.2000E+00
    -38.238  0.0000E+00  0.2000E+00
    -38.029  0.0000E+00  0.2000E+00
    -37.821  0.0000E+00  0.2000E+00
    -37.612  0.0000E+00  0.2000E+00
    -37.404  0.0000E+00  0.2000E+00
    -37.195  0.0000E+00  0.2000E+00
    -36.987  0.0000E+00  0.2000E+00
    -36.778  0.0000E+00  0.2000E+00
    -36.570  0.0000E+00  0.2000E+00
    -36.361  0.0000E+00  0.2000E+00
    -36.153  0.0000E+00  0.2000E+00
    -35.944  0.0000E+00  0.2000E+00
    -35.736  0.0000E+00  0.2000E+00
    -35.527  0.0000E+00  0.2000E+00
    -35.319  0.0000E+00  0.2000E+00
    -35.110  0.0000E+00  0.2000E+00
    -34.902  0.0000E+00  0.2000E+00
    -34.693  0.0000E+00  0.2000E+00
    -34.485  0.0000E+00  0.2000E+00
    -34.276  0.0000E+00  0.2000E+00
    -34.068  0.0000E+00  0.2000E+00
    -33.859  0.0000E+00  0.2000E+00
    -33.651  0.0000E+00  0.2000E+00
    -33.442  0.0000E+00  0.2000E+00
    -33.234  0.0000E+00  0.2000E+00
    -33.025  0.0000E+00  0.2000E+00
    -32.817  0.0000E+00  0.2000E+00
    -32.608  0.0000E+00  0.2000E+00
    -32.400  0.0000E+00  0.2000E+00
    -32.191  0.0000E+00  0.2000E+00
    -31.983  0.0000E+00  0.2000E+00
    -31.774  0.0000E+00  0.2000E+00
    -31.566  0.0000E+00  0.2000E+00
    -31.357  0.0000E+00  0.2000E+00
    -31.149  0.0000E+00  0.2000E+00
    -30.940  0.0000E+00  0.2000E+00
    -30.732  0.0000E+00  0.2000E+00
    -30.523  0.0000E+00  0.2000E+00
    -30.315  0.0000E+00  0.2000E+00
    -30.106  0.0000E+00  0.2000E+00
    -29.898  0.0000E+00  0.2000E+00
    -29.689  0.0000E+00  0.2000E+00
    -29.481  0.0000E+00  0.2000E+00
    -29.273  0.0000E+00  0.2000E+00
    -29.064  0.0000E+00  0.2000E+00
    -28.856  0.0000E+00  0.2000E+00
    -28.647  0.0000E+00  0.2000E+00
    -28.439  0.0000E+00  0.2000E+00
    -28.230  0.0000E+00  0.2000E+00
    -28.022  0.0000E+00  0.2000E+00
    -27.813  0.0000E+00  0.2000E+00
    -27.605  0.0000E+00  0.2000E+00
    -27.396  0.0000E+00  0.2000E+00
    -27.188  0.0000E+00  0.2000E+00
    -26.979  0.0000E+00  0.2000E+00
    -26.771  0.0000E+00  0.2000E+00
    -26.562  0.0000E+00  0.2000E+00
    -26.354  0.0000E+00  0.2000E+00
    -26.145  0.0000E+00  0.2000E+00
    -25.937 -0.2356E-35  0.2000E+00
    -25.728 -0.8582E-28  0.2000E+00
    -25.520 -0.3505E-21  0.2000E+00
    -25.311 -0.1573E-15  0.2000E+00
    -25.103 -0.8139E-11  0.2000E+00
    -24.894 -0.4876E-07  0.2000E+00
    -24.686 -0.3434E-04  0.2000E+00
    -24.477 -0.2649E-02  0.1994E+00
    -24.269 -0.6533E-02  0.1981E+00
    -24.060  0.1649E+00  0.2325E+00
    -23.852  0.5240E+00  0.3417E+00
    -23.643  0.6911E+00  0.4858E+00
    -23.435  0.6275E+00  0.6166E+00
    -23.226  0.6600E+00  0.7542E+00
    -23.018  0.1466E+00  0.7848E+00
    -22.809  0.5986E-01  0.7972E+00
    -22.601  0.1555E-01  0.8005E+00
    -22.392 -0.2218E-02  0.8000E+00
    -22.184 -0.1322E-03  0.8000E+00
    -21.975 -0.5989E-06  0.8000E+00
    -21.767 -0.2748E-09  0.8000E+00
    -21.558 -0.1345E-13  0.8000E+00
    -21.350  0.0000E+00  0.8000E+00
    -21.141  0.0000E+00  0.8000E+00
    -20.933  0.0000E+00  0.8000E+00
    -20.724  0.0000E+00  0.8000E+00
    -20.516  0.0000E+00  0.8000E+00
    -20.307  0.0000E+00  0.8000E+00
    -20.099  0.0000E+00  0.8000E+00
    -19.890  0.0000E+00  0.8000E+00
    -19.682  0.0000E+00  0.8000E+00
    -19.473  0.0000E+00  0.8000E+00
    -19.265  0.0000E+00  0.8000E+00
    -19.056  0.0000E+00  0.8000E+00
    -18.848  0.0000E+00  0.8000E+00
    -18.639  0.0000E+00  0.8000E+00
    -18.431  0.0000E+00  0.8000E+00
    -18.223  0.0000E+00  0.8000E+00
    -18.014  0.0000E+00  0.8000E+00
    -17.806  0.0000E+00  0.8000E+00
    -17.597  0.0000E+00  0.8000E+00
    -17.389  0.0000E+00  0.8000E+00
    -17.180  0.0000E+00  0.8000E+00
    -16.972  0.0000E+00  0.8000E+00
    -16.763  0.0000E+00  0.8000E+00
    -16.555  0.0000E+00  0.8000E+00
    -16.346  0.0000E+00  0.8000E+00
    -16.138  0.0000E+00  0.8000E+00
    -15.929  0.0000E+00  0.8000E+00
    -15.721  0.0000E+00  0.8000E+00
    -15.512  0.0000E+00  0.8000E+00
    -15.304  0.0000E+00  0.8000E+00
    -15.095  0.0000E+00  0.8000E+00
    -14.887  0.0000E+00  0.8000E+00
    -14.678  0.0000E+00  0.8000E+00
    -14.470  0.0000E+00  0.8000E+00
    -14.261  0.0000E+00  0.8000E+00
    -14.053  0.0000E+00  0.8000E+00
    -13.844  0.0000E+00  0.8000E+00
    -13.636  0.0000E+00  0.8000E+00
    -13.427  0.0000E+00  0.8000E+00
    -13.219  0.0000E+00  0.8000E+00
    -13.010  0.0000E+00  0.8000E+00
    -12.802  0.0000E+00  0.8000E+00
    -12.593  0.0000E+00  0.8000E+00
    -12.385  0.0000E+00  0.8000E+00
    -12.176  0.0000E+00  0.8000E+00
    -11.968  0.0000E+00  0.8000E+00
    -11.759  0.0000E+00  0.8000E+00
    -11.551  0.0000E+00  0.8000E+00
    -11.342  0.0000E+00  0.8000E+00
    -11.134  0.0000E+00  0.8000E+00
    -10.925  0.0000E+00  0.8000E+00
    -10.717  0.0000E+00  0.8000E+00
    -10.508  0.0000E+00  0.8000E+00
    -10.300  0.0000E+00  0.8000E+00
    -10.091  0.0000E+00  0.8000E+00
     -9.883  0.0000E+00  0.8000E+00
     -9.674  0.0000E+00  0.8000E+00
     -9.466  0.0000E+00  0.8000E+00
     -9.257  0.0000E+00  0.8000E+00
     -9.049  0.0000E+00  0.8000E+00
     -8.840  0.0000E+00  0.8000E+00
     -8.632  0.0000E+00  0.8000E+00
     -8.423  0.0000E+00  0.8000E+00
     -8.215  0.0000E+00  0.8000E+00
     -8.006  0.0000E+00  0.8000E+00
     -7.798  0.0000E+00  0.8000E+00
     -7.589  0.0000E+00  0.8000E+00
     -7.381  0.0000E+00  0.8000E+00
     -7.173  0.0000E+00  0.8000E+00
     -6.964  0.0000E+00  0.8000E+00
     -6.756  0.0000E+00  0.8000E+00
     -6.547  0.0000E+00  0.8000E+00
     -6.339  0.0000E+00  0.8000E+00
     -6.130  0.0000E+00  0.8000E+00
     -5.922  0.0000E+00  0.8000E+00
     -5.713  0.0000E+00  0.8000E+00
     -5.505  0.0000E+00  0.8000E+00
     -5.296  0.0000E+00  0.8000E+00
     -5.088  0.0000E+00  0.8000E+00
     -4.879  0.0000E+00  0.8000E+00
     -4.671  0.0000E+00  0.8000E+00
     -4.462  0.0000E+00  0.8000E+00
     -4.254  0.0000E+00  0.8000E+00
     -4.045  0.0000E+00  0.8000E+00
     -3.837  0.0000E+00  0.8000E+00
     -3.628  0.0000E+00  0.8000E+00
     -3.420  0.0000E+00  0.8000E+00
     -3.211  0.0000E+00  0.8000E+00
     -3.003  0.0000E+00  0.8000E+00
     -2.794  0.0000E+00  0.8000E+00
     -2.586 -0.3521E-37  0.8000E+00
     -2.377 -0.1444E-29  0.8000E+00
     -2.169 -0.6619E-23  0.8000E+00
     -1.960 -0.3324E-17  0.8000E+00
     -1.752 -0.1892E-12  0.8000E+00
     -1.543 -0.1206E-08  0.8000E+00
     -1.335 -0.8501E-06  0.8000E+00
     -1.126 -0.6289E-04  0.8000E+00
     -0.918 -0.2324E-03  0.7999E+00
     -0.709  0.3866E-02  0.8007E+00
     -0.501  0.1599E-01  0.8041E+00
     -0.292  0.2942E-01  0.8102E+00
     -0.084  0.3726E-01  0.8180E+00
      0.125  0.2702E-01  0.8236E+00
      0.333  0.4246E-01  0.8325E+00
      0.542  0.6622E-01  0.8463E+00
      0.750  0.6260E-01  0.8593E+00
      0.959  0.5523E-01  0.8708E+00
      1.167  0.7573E-01  0.8866E+00
      1.376  0.8672E-01  0.9047E+00
      1.584  0.7777E-01  0.9209E+00
      1.793  0.1153E+00  0.9450E+00
      2.001  0.1698E+00  0.9804E+00
      2.210  0.2368E+00  0.1030E+01
      2.418  0.3437E+00  0.1101E+01
      2.627  0.4168E+00  0.1188E+01
      2.835  0.4949E+00  0.1291E+01
      3.044  0.5358E+00  0.1403E+01
      3.252  0.5655E+00  0.1521E+01
      3.461  0.6045E+00  0.1647E+01
      3.669  0.6001E+00  0.1772E+01
      3.877  0.5880E+00  0.1895E+01
      4.086  0.5455E+00  0.2009E+01
      4.294  0.4934E+00  0.2111E+01
      4.503  0.6287E+00  0.2242E+01
      4.711  0.7709E+00  0.2403E+01
      4.920  0.7935E+00  0.2569E+01
      5.128  0.7698E+00  0.2729E+01
      5.337  0.7303E+00  0.2881E+01
      5.545  0.7236E+00  0.3032E+01
      5.754  0.7320E+00  0.3185E+01
      5.962  0.7783E+00  0.3347E+01
      6.171  0.7831E+00  0.3510E+01
      6.379  0.7404E+00  0.3665E+01
      6.588  0.6586E+00  0.3802E+01
      6.796  0.5770E+00  0.3922E+01
      7.005  0.4800E+00  0.4022E+01
      7.213  0.3986E+00  0.4106E+01
      7.422  0.3372E+00  0.4176E+01
      7.630  0.3167E+00  0.4242E+01
      7.839  0.3175E+00  0.4308E+01
      8.047  0.3819E+00  0.4388E+01
      8.256  0.4491E+00  0.4481E+01
      8.464  0.5171E+00  0.4589E+01
      8.673  0.4650E+00  0.4686E+01
      8.881  0.3437E+00  0.4758E+01
      9.090  0.1824E+00  0.4796E+01
      9.298  0.2422E-01  0.4801E+01
      9.507 -0.3897E-02  0.4800E+01
      9.715 -0.3165E-03  0.4800E+01
      9.924 -0.2707E-05  0.4800E+01
     10.132 -0.2938E-08  0.4800E+01
     10.341 -0.3886E-12  0.4800E+01
     10.549 -0.6134E-17  0.4800E+01
     10.758  0.0000E+00  0.4800E+01
     10.966  0.0000E+00  0.4800E+01
     11.175  0.0000E+00  0.4800E+01
     11.383  0.0000E+00  0.4800E+01
     11.592  0.0000E+00  0.4800E+01
     11.800  0.0000E+00  0.4800E+01
     12.009  0.0000E+00  0.4800E+01
