   29   29   50    1
  0.1679057E+02  0.5525242E-09  0.8287863E-09  0.1139058E-08  0.5000000E-15
  1.000000000000000E-004
  CAR 
 SQS with 1 vacancy for VFE and VRV      
    191     63    120
 
  0.0000000E+00  0.0000000E+00  0.0000000E+00  0.8000000E-02
    1      -47.695502   1.000000
    2      -47.601336   1.000000
    3      -47.483500   1.000000
    4      -47.293687   1.000000
    5      -47.146491   1.000000
    6      -24.151152   1.000000
    7      -24.073950   1.000000
    8      -23.911465   1.000000
    9      -23.858982   1.000000
   10      -23.805749   1.000000
   11      -23.774068   1.000000
   12      -23.725792   1.000000
   13      -23.629606   1.000000
   14      -23.506722   1.000000
   15      -23.464610   1.000000
   16      -23.447243   1.000000
   17      -23.343560   1.000000
   18      -23.336292   1.000000
   19      -23.252000   1.000000
   20      -22.845112   1.000000
   21       -0.789159   1.000000
   22        0.613179   1.000000
   23        0.958743   1.000000
   24        1.839839   1.000000
   25        1.865031   1.000000
   26        1.929008   1.000000
   27        2.126264   1.000000
   28        2.158983   1.000000
   29        2.358187   1.000000
   30        2.395064   1.000000
   31        2.419374   1.000000
   32        2.471138   1.000000
   33        2.541130   1.000000
   34        2.702121   1.000000
   35        2.708450   1.000000
   36        2.766261   1.000000
   37        2.921167   1.000000
   38        3.047750   1.000000
   39        3.098581   1.000000
   40        3.206503   1.000000
   41        3.249632   1.000000
   42        3.322255   1.000000
   43        3.438429   1.000000
   44        3.445159   1.000000
   45        3.489389   1.000000
   46        3.514744   1.000000
   47        3.614544   1.000000
   48        3.709483   1.000000
   49        3.778698   1.000000
   50        3.868770   1.000000
   51        3.985443   1.000000
   52        4.026132   1.000000
   53        4.062811   1.000000
   54        4.185620   1.000000
   55        4.315785   1.000000
   56        4.336336   1.000000
   57        4.430282   1.000000
   58        4.492984   1.000000
   59        4.551182   1.000000
   60        4.617254   1.000000
   61        4.666083   1.000000
   62        4.695168   1.000000
   63        4.746556   1.000000
   64        4.787641   1.000000
   65        4.825414   1.000000
   66        4.883465   1.000000
   67        4.945546   1.000000
   68        5.015285   1.000000
   69        5.024710   1.000000
   70        5.118528   1.000000
   71        5.150097   1.000000
   72        5.216598   1.000000
   73        5.313882   1.000000
   74        5.394086   1.000000
   75        5.457666   1.000000
   76        5.500637   1.000000
   77        5.613251   1.000000
   78        5.750840   1.000000
   79        5.765493   1.000000
   80        5.813912   1.000000
   81        5.883985   1.000001
   82        5.921044   1.000005
   83        6.017831   1.000095
   84        6.061405   1.000305
   85        6.080965   1.000497
   86        6.156782   1.002682
   87        6.239522   1.011287
   88        6.325170   1.029405
   89        6.395011   1.033121
   90        6.439253   1.009500
   91        6.581064   0.649821
   92        6.683407   0.235841
   93        6.694082   0.199515
   94        6.742314   0.068657
   95        6.742898   0.067427
   96        6.829017  -0.030252
   97        6.945483  -0.021143
   98        7.033491  -0.006081
   99        7.224112  -0.000077
  100        7.294010  -0.000009
  101        7.444297  -0.000000
  102        7.526318  -0.000000
  103        7.558571  -0.000000
  104        7.693575  -0.000000
  105        7.980626  -0.000000
  106        8.082882  -0.000000
  107        8.217735  -0.000000
  108        8.361842  -0.000000
  109        8.484278  -0.000000
  110        8.546892  -0.000000
  111        8.632268  -0.000000
  112        8.738064  -0.000000
  113        8.825565  -0.000000
  114        8.836461  -0.000000
  115        8.911096  -0.000000
  116        8.940426  -0.000000
  117        8.973583  -0.000000
  118        9.005195  -0.000000
  119        9.025027  -0.000000
  120        9.043002  -0.000000
 
  0.2000000E+00 -0.1387779E-16  0.0000000E+00  0.1600000E-01
    1      -47.695271   1.000000
    2      -47.600447   1.000000
    3      -47.477806   1.000000
    4      -47.293320   1.000000
    5      -47.153132   1.000000
    6      -24.071537   1.000000
    7      -24.052968   1.000000
    8      -23.900720   1.000000
    9      -23.858987   1.000000
   10      -23.809262   1.000000
   11      -23.776232   1.000000
   12      -23.730822   1.000000
   13      -23.623171   1.000000
   14      -23.507065   1.000000
   15      -23.471343   1.000000
   16      -23.443472   1.000000
   17      -23.350894   1.000000
   18      -23.343448   1.000000
   19      -23.256792   1.000000
   20      -22.969364   1.000000
   21       -0.474756   1.000000
   22        0.872666   1.000000
   23        1.223795   1.000000
   24        1.864121   1.000000
   25        2.090117   1.000000
   26        2.158475   1.000000
   27        2.252790   1.000000
   28        2.391674   1.000000
   29        2.445205   1.000000
   30        2.557145   1.000000
   31        2.613477   1.000000
   32        2.638429   1.000000
   33        2.717399   1.000000
   34        2.891817   1.000000
   35        2.906619   1.000000
   36        2.970687   1.000000
   37        3.057672   1.000000
   38        3.135191   1.000000
   39        3.193107   1.000000
   40        3.275929   1.000000
   41        3.346934   1.000000
   42        3.401145   1.000000
   43        3.501566   1.000000
   44        3.564556   1.000000
   45        3.635928   1.000000
   46        3.703088   1.000000
   47        3.714983   1.000000
   48        3.780290   1.000000
   49        3.847897   1.000000
   50        4.002166   1.000000
   51        4.101061   1.000000
   52        4.113608   1.000000
   53        4.161485   1.000000
   54        4.270214   1.000000
   55        4.308231   1.000000
   56        4.401776   1.000000
   57        4.472790   1.000000
   58        4.583994   1.000000
   59        4.632867   1.000000
   60        4.661091   1.000000
   61        4.729078   1.000000
   62        4.757534   1.000000
   63        4.822421   1.000000
   64        4.854388   1.000000
   65        4.950606   1.000000
   66        5.009740   1.000000
   67        5.032124   1.000000
   68        5.070964   1.000000
   69        5.107068   1.000000
   70        5.181696   1.000000
   71        5.190061   1.000000
   72        5.282472   1.000000
   73        5.318557   1.000000
   74        5.329102   1.000000
   75        5.425417   1.000000
   76        5.467224   1.000000
   77        5.545101   1.000000
   78        5.569441   1.000000
   79        5.653986   1.000000
   80        5.751049   1.000000
   81        5.798311   1.000000
   82        5.930015   1.000007
   83        5.961356   1.000018
   84        6.010178   1.000077
   85        6.065156   1.000336
   86        6.112919   1.001054
   87        6.165064   1.003158
   88        6.237614   1.010975
   89        6.297457   1.023145
   90        6.339183   1.032144
   91        6.434881   1.013282
   92        6.511562   0.884959
   93        6.537022   0.810641
   94        6.618791   0.492900
   95        6.647995   0.371036
   96        6.705151   0.164498
   97        6.737889   0.078252
   98        6.790736  -0.005480
   99        6.995921  -0.011087
  100        7.010204  -0.008924
  101        7.168208  -0.000343
  102        7.231111  -0.000063
  103        7.332666  -0.000003
  104        7.458710  -0.000000
  105        7.555635  -0.000000
  106        7.716704  -0.000000
  107        7.799568  -0.000000
  108        7.847284  -0.000000
  109        8.006094  -0.000000
  110        8.047330  -0.000000
  111        8.111725  -0.000000
  112        8.234779  -0.000000
  113        8.349590  -0.000000
  114        8.378820  -0.000000
  115        8.448728  -0.000000
  116        8.504985  -0.000000
  117        8.610327  -0.000000
  118        8.719202  -0.000000
  119        8.798677  -0.000000
  120        8.958396  -0.000000
 
  0.4000000E+00 -0.2775558E-16  0.0000000E+00  0.1600000E-01
    1      -47.694896   1.000000
    2      -47.599054   1.000000
    3      -47.467993   1.000000
    4      -47.292727   1.000000
    5      -47.164428   1.000000
    6      -24.067607   1.000000
    7      -23.937759   1.000000
    8      -23.859007   1.000000
    9      -23.814975   1.000000
   10      -23.796860   1.000000
   11      -23.751827   1.000000
   12      -23.712508   1.000000
   13      -23.611642   1.000000
   14      -23.507952   1.000000
   15      -23.481964   1.000000
   16      -23.435525   1.000000
   17      -23.364694   1.000000
   18      -23.356574   1.000000
   19      -23.266917   1.000000
   20      -23.264415   1.000000
   21        0.333554   1.000000
   22        1.292703   1.000000
   23        1.802665   1.000000
   24        1.949885   1.000000
   25        2.146969   1.000000
   26        2.355899   1.000000
   27        2.427516   1.000000
   28        2.635117   1.000000
   29        2.737320   1.000000
   30        2.805520   1.000000
   31        2.918371   1.000000
   32        3.008365   1.000000
   33        3.064587   1.000000
   34        3.142586   1.000000
   35        3.226276   1.000000
   36        3.244358   1.000000
   37        3.307621   1.000000
   38        3.379827   1.000000
   39        3.417310   1.000000
   40        3.474946   1.000000
   41        3.567002   1.000000
   42        3.674072   1.000000
   43        3.691632   1.000000
   44        3.778190   1.000000
   45        3.855727   1.000000
   46        3.874474   1.000000
   47        3.986020   1.000000
   48        4.032070   1.000000
   49        4.099923   1.000000
   50        4.152453   1.000000
   51        4.229050   1.000000
   52        4.282799   1.000000
   53        4.343310   1.000000
   54        4.395887   1.000000
   55        4.473232   1.000000
   56        4.500430   1.000000
   57        4.579554   1.000000
   58        4.638969   1.000000
   59        4.668900   1.000000
   60        4.693359   1.000000
   61        4.768526   1.000000
   62        4.817204   1.000000
   63        4.875254   1.000000
   64        4.902733   1.000000
   65        4.949510   1.000000
   66        5.006065   1.000000
   67        5.079884   1.000000
   68        5.107832   1.000000
   69        5.137781   1.000000
   70        5.188162   1.000000
   71        5.240235   1.000000
   72        5.307548   1.000000
   73        5.376681   1.000000
   74        5.417458   1.000000
   75        5.455530   1.000000
   76        5.532465   1.000000
   77        5.585377   1.000000
   78        5.631701   1.000000
   79        5.660155   1.000000
   80        5.714841   1.000000
   81        5.750176   1.000000
   82        5.768082   1.000000
   83        5.826221   1.000000
   84        5.932733   1.000007
   85        5.963411   1.000019
   86        6.029344   1.000131
   87        6.068014   1.000361
   88        6.110409   1.000996
   89        6.134471   1.001691
   90        6.214709   1.007689
   91        6.243852   1.012016
   92        6.317209   1.027673
   93        6.380980   1.035140
   94        6.388101   1.034370
   95        6.480138   0.954482
   96        6.505529   0.900236
   97        6.579168   0.657396
   98        6.620395   0.486112
   99        6.718534   0.126023
  100        6.764704   0.027570
  101        6.817638  -0.025398
  102        6.881369  -0.034203
  103        6.950784  -0.019946
  104        6.969283  -0.015981
  105        7.125300  -0.000963
  106        7.302903  -0.000007
  107        7.358153  -0.000001
  108        7.411300  -0.000000
  109        7.512452  -0.000000
  110        7.626586  -0.000000
  111        7.694923  -0.000000
  112        7.790044  -0.000000
  113        7.956470  -0.000000
  114        8.006120  -0.000000
  115        8.101069  -0.000000
  116        8.249005  -0.000000
  117        8.297582  -0.000000
  118        8.356067  -0.000000
  119        8.377586  -0.000000
  120        8.504658  -0.000000
 
  0.0000000E+00  0.2000000E+00  0.1387779E-16  0.1600000E-01
    1      -47.695444   1.000000
    2      -47.601329   1.000000
    3      -47.483497   1.000000
    4      -47.293752   1.000000
    5      -47.146489   1.000000
    6      -24.151165   1.000000
    7      -24.070421   1.000000
    8      -23.911496   1.000000
    9      -23.858987   1.000000
   10      -23.805814   1.000000
   11      -23.774130   1.000000
   12      -23.725959   1.000000
   13      -23.629724   1.000000
   14      -23.506667   1.000000
   15      -23.464556   1.000000
   16      -23.447266   1.000000
   17      -23.343564   1.000000
   18      -23.336388   1.000000
   19      -23.256048   1.000000
   20      -22.845117   1.000000
   21       -0.652177   1.000000
   22        0.678650   1.000000
   23        1.013051   1.000000
   24        1.385186   1.000000
   25        1.820166   1.000000
   26        2.044851   1.000000
   27        2.115425   1.000000
   28        2.257634   1.000000
   29        2.313726   1.000000
   30        2.401337   1.000000
   31        2.478720   1.000000
   32        2.525453   1.000000
   33        2.583252   1.000000
   34        2.659345   1.000000
   35        2.704391   1.000000
   36        2.778449   1.000000
   37        2.864948   1.000000
   38        2.976327   1.000000
   39        3.039014   1.000000
   40        3.125283   1.000000
   41        3.287210   1.000000
   42        3.342472   1.000000
   43        3.426727   1.000000
   44        3.489223   1.000000
   45        3.554805   1.000000
   46        3.595351   1.000000
   47        3.665127   1.000000
   48        3.726380   1.000000
   49        3.756783   1.000000
   50        3.849183   1.000000
   51        3.961634   1.000000
   52        4.028011   1.000000
   53        4.079438   1.000000
   54        4.264846   1.000000
   55        4.300433   1.000000
   56        4.394389   1.000000
   57        4.428395   1.000000
   58        4.515197   1.000000
   59        4.595335   1.000000
   60        4.644652   1.000000
   61        4.665975   1.000000
   62        4.762982   1.000000
   63        4.800245   1.000000
   64        4.835208   1.000000
   65        4.864649   1.000000
   66        4.918696   1.000000
   67        4.996055   1.000000
   68        5.050747   1.000000
   69        5.065946   1.000000
   70        5.128475   1.000000
   71        5.247481   1.000000
   72        5.295883   1.000000
   73        5.360616   1.000000
   74        5.418506   1.000000
   75        5.461389   1.000000
   76        5.553462   1.000000
   77        5.625659   1.000000
   78        5.704612   1.000000
   79        5.750331   1.000000
   80        5.814503   1.000000
   81        5.833030   1.000000
   82        5.899657   1.000002
   83        5.946487   1.000011
   84        6.032155   1.000141
   85        6.063362   1.000321
   86        6.087960   1.000589
   87        6.138385   1.001838
   88        6.181146   1.004286
   89        6.296951   1.023028
   90        6.355744   1.034531
   91        6.391918   1.033745
   92        6.518794   0.865445
   93        6.618795   0.492881
   94        6.675525   0.264139
   95        6.749964   0.053231
   96        6.975569  -0.014730
   97        7.102971  -0.001579
   98        7.129976  -0.000865
   99        7.248551  -0.000038
  100        7.393372  -0.000000
  101        7.438844  -0.000000
  102        7.522619  -0.000000
  103        7.554633  -0.000000
  104        7.679147  -0.000000
  105        7.845461  -0.000000
  106        7.925024  -0.000000
  107        7.980095  -0.000000
  108        8.104356  -0.000000
  109        8.132276  -0.000000
  110        8.370420  -0.000000
  111        8.462976  -0.000000
  112        8.589935  -0.000000
  113        8.650953  -0.000000
  114        8.680724  -0.000000
  115        8.731530  -0.000000
  116        8.775789  -0.000000
  117        8.870135  -0.000000
  118        8.894316  -0.000000
  119        8.968216  -0.000000
  120        9.013667  -0.000000
 
  0.2000000E+00  0.2000000E+00 -0.4857226E-16  0.1600000E-01
    1      -47.695327   1.000000
    2      -47.600453   1.000000
    3      -47.477809   1.000000
    4      -47.293258   1.000000
    5      -47.153134   1.000000
    6      -24.074972   1.000000
    7      -24.052950   1.000000
    8      -23.900690   1.000000
    9      -23.858978   1.000000
   10      -23.809275   1.000000
   11      -23.776198   1.000000
   12      -23.730642   1.000000
   13      -23.623066   1.000000
   14      -23.507114   1.000000
   15      -23.471330   1.000000
   16      -23.443448   1.000000
   17      -23.350891   1.000000
   18      -23.343350   1.000000
   19      -23.252842   1.000000
   20      -22.969347   1.000000
   21       -0.466270   1.000000
   22        0.841134   1.000000
   23        1.236109   1.000000
   24        1.773447   1.000000
   25        2.051665   1.000000
   26        2.147042   1.000000
   27        2.205515   1.000000
   28        2.316145   1.000000
   29        2.409797   1.000000
   30        2.557599   1.000000
   31        2.599391   1.000000
   32        2.662609   1.000000
   33        2.708786   1.000000
   34        2.827751   1.000000
   35        2.895337   1.000000
   36        2.940597   1.000000
   37        2.985955   1.000000
   38        3.143539   1.000000
   39        3.216653   1.000000
   40        3.242993   1.000000
   41        3.353861   1.000000
   42        3.429246   1.000000
   43        3.521992   1.000000
   44        3.615365   1.000000
   45        3.654550   1.000000
   46        3.697338   1.000000
   47        3.770718   1.000000
   48        3.850330   1.000000
   49        3.858103   1.000000
   50        3.993430   1.000000
   51        4.048694   1.000000
   52        4.095641   1.000000
   53        4.227919   1.000000
   54        4.254963   1.000000
   55        4.339574   1.000000
   56        4.430206   1.000000
   57        4.498374   1.000000
   58        4.562185   1.000000
   59        4.650922   1.000000
   60        4.669960   1.000000
   61        4.703751   1.000000
   62        4.737632   1.000000
   63        4.786142   1.000000
   64        4.822278   1.000000
   65        4.878179   1.000000
   66        4.944216   1.000000
   67        4.997489   1.000000
   68        5.025705   1.000000
   69        5.068459   1.000000
   70        5.118929   1.000000
   71        5.190001   1.000000
   72        5.240892   1.000000
   73        5.289623   1.000000
   74        5.386022   1.000000
   75        5.421178   1.000000
   76        5.498129   1.000000
   77        5.581606   1.000000
   78        5.631006   1.000000
   79        5.666277   1.000000
   80        5.780525   1.000000
   81        5.815294   1.000000
   82        5.886660   1.000002
   83        5.970196   1.000024
   84        6.028965   1.000130
   85        6.051431   1.000236
   86        6.094737   1.000692
   87        6.146808   1.002191
   88        6.207046   1.006772
   89        6.326402   1.029664
   90        6.382537   1.035013
   91        6.452755   0.995413
   92        6.509153   0.891170
   93        6.562638   0.721296
   94        6.635668   0.421858
   95        6.704712   0.165831
   96        6.748985   0.055123
   97        6.812159  -0.022362
   98        6.946748  -0.020856
   99        6.965234  -0.016814
  100        7.011373  -0.008762
  101        7.084371  -0.002332
  102        7.202751  -0.000139
  103        7.332272  -0.000003
  104        7.403875  -0.000000
  105        7.531998  -0.000000
  106        7.689857  -0.000000
  107        7.814630  -0.000000
  108        7.916346  -0.000000
  109        8.221718  -0.000000
  110        8.342374  -0.000000
  111        8.412140  -0.000000
  112        8.530923  -0.000000
  113        8.583907  -0.000000
  114        8.698964  -0.000000
  115        8.740248  -0.000000
  116        8.771029  -0.000000
  117        8.837874  -0.000000
  118        8.883188  -0.000000
  119        8.921547  -0.000000
  120        9.004996  -0.000000
 
  0.4000000E+00  0.2000000E+00 -0.5551115E-16  0.1600000E-01
    1      -47.694987   1.000000
    2      -47.599064   1.000000
    3      -47.467999   1.000000
    4      -47.292625   1.000000
    5      -47.164432   1.000000
    6      -24.073248   1.000000
    7      -23.937722   1.000000
    8      -23.858994   1.000000
    9      -23.814976   1.000000
   10      -23.796857   1.000000
   11      -23.751530   1.000000
   12      -23.712412   1.000000
   13      -23.611453   1.000000
   14      -23.508034   1.000000
   15      -23.481966   1.000000
   16      -23.435492   1.000000
   17      -23.364683   1.000000
   18      -23.356424   1.000000
   19      -23.266820   1.000000
   20      -23.258001   1.000000
   21        0.257165   1.000000
   22        1.261418   1.000000
   23        1.670339   1.000000
   24        1.904216   1.000000
   25        2.019736   1.000000
   26        2.221536   1.000000
   27        2.421708   1.000000
   28        2.707679   1.000000
   29        2.780648   1.000000
   30        2.909866   1.000000
   31        2.961828   1.000000
   32        3.039354   1.000000
   33        3.110561   1.000000
   34        3.172990   1.000000
   35        3.253983   1.000000
   36        3.284000   1.000000
   37        3.347315   1.000000
   38        3.385096   1.000000
   39        3.414675   1.000000
   40        3.455681   1.000000
   41        3.479633   1.000000
   42        3.623422   1.000000
   43        3.714432   1.000000
   44        3.744776   1.000000
   45        3.834441   1.000000
   46        3.881403   1.000000
   47        3.908619   1.000000
   48        3.965003   1.000000
   49        4.021360   1.000000
   50        4.117870   1.000000
   51        4.187428   1.000000
   52        4.233860   1.000000
   53        4.334752   1.000000
   54        4.417979   1.000000
   55        4.459025   1.000000
   56        4.473208   1.000000
   57        4.550471   1.000000
   58        4.646309   1.000000
   59        4.687481   1.000000
   60        4.699572   1.000000
   61        4.778194   1.000000
   62        4.814871   1.000000
   63        4.871377   1.000000
   64        4.927866   1.000000
   65        5.002009   1.000000
   66        5.025893   1.000000
   67        5.061957   1.000000
   68        5.113092   1.000000
   69        5.153476   1.000000
   70        5.195121   1.000000
   71        5.250798   1.000000
   72        5.287016   1.000000
   73        5.341951   1.000000
   74        5.379579   1.000000
   75        5.429742   1.000000
   76        5.487759   1.000000
   77        5.584636   1.000000
   78        5.618992   1.000000
   79        5.633319   1.000000
   80        5.678264   1.000000
   81        5.732375   1.000000
   82        5.805265   1.000000
   83        5.860655   1.000001
   84        5.886630   1.000002
   85        5.947155   1.000012
   86        5.977064   1.000029
   87        6.038853   1.000169
   88        6.139625   1.001886
   89        6.151859   1.002429
   90        6.190617   1.005091
   91        6.233992   1.010400
   92        6.254855   1.014001
   93        6.367313   1.035370
   94        6.393195   1.033500
   95        6.474119   0.964991
   96        6.513744   0.879209
   97        6.536023   0.813846
   98        6.634912   0.425015
   99        6.698195   0.186176
  100        6.766464   0.024856
  101        6.846885  -0.034476
  102        6.901843  -0.030876
  103        6.993521  -0.011483
  104        7.085689  -0.002270
  105        7.184946  -0.000223
  106        7.469797  -0.000000
  107        7.535846  -0.000000
  108        7.716837  -0.000000
  109        7.763322  -0.000000
  110        7.910594  -0.000000
  111        7.962418  -0.000000
  112        8.092308  -0.000000
  113        8.145304  -0.000000
  114        8.198890  -0.000000
  115        8.249771  -0.000000
  116        8.300905  -0.000000
  117        8.416330  -0.000000
  118        8.442344  -0.000000
  119        8.544176  -0.000000
  120        8.568468  -0.000000
 
 -0.4000000E+00  0.2000000E+00 -0.3908332E-16  0.1600000E-01
    1      -47.694895   1.000000
    2      -47.599054   1.000000
    3      -47.467993   1.000000
    4      -47.292729   1.000000
    5      -47.164428   1.000000
    6      -24.067566   1.000000
    7      -23.937757   1.000000
    8      -23.859006   1.000000
    9      -23.815016   1.000000
   10      -23.796861   1.000000
   11      -23.751838   1.000000
   12      -23.712515   1.000000
   13      -23.611651   1.000000
   14      -23.507944   1.000000
   15      -23.481927   1.000000
   16      -23.435525   1.000000
   17      -23.364695   1.000000
   18      -23.356575   1.000000
   19      -23.266910   1.000000
   20      -23.264472   1.000000
   21        0.581632   1.000000
   22        1.234153   1.000000
   23        1.523220   1.000000
   24        2.011512   1.000000
   25        2.028690   1.000000
   26        2.286967   1.000000
   27        2.434139   1.000000
   28        2.651332   1.000000
   29        2.703002   1.000000
   30        2.860055   1.000000
   31        2.903676   1.000000
   32        3.010488   1.000000
   33        3.060233   1.000000
   34        3.134979   1.000000
   35        3.183015   1.000000
   36        3.247418   1.000000
   37        3.277798   1.000000
   38        3.336120   1.000000
   39        3.446942   1.000000
   40        3.496248   1.000000
   41        3.573094   1.000000
   42        3.615456   1.000000
   43        3.710066   1.000000
   44        3.773724   1.000000
   45        3.844482   1.000000
   46        3.990924   1.000000
   47        4.014423   1.000000
   48        4.078880   1.000000
   49        4.153432   1.000000
   50        4.196252   1.000000
   51        4.284484   1.000000
   52        4.316305   1.000000
   53        4.383378   1.000000
   54        4.449151   1.000000
   55        4.475593   1.000000
   56        4.509414   1.000000
   57        4.556286   1.000000
   58        4.579373   1.000000
   59        4.661483   1.000000
   60        4.705555   1.000000
   61        4.740834   1.000000
   62        4.776069   1.000000
   63        4.847149   1.000000
   64        4.871799   1.000000
   65        4.903003   1.000000
   66        4.956841   1.000000
   67        4.975207   1.000000
   68        5.060029   1.000000
   69        5.143554   1.000000
   70        5.209350   1.000000
   71        5.227796   1.000000
   72        5.332881   1.000000
   73        5.371363   1.000000
   74        5.429224   1.000000
   75        5.476720   1.000000
   76        5.540648   1.000000
   77        5.607841   1.000000
   78        5.636619   1.000000
   79        5.722237   1.000000
   80        5.741466   1.000000
   81        5.754594   1.000000
   82        5.824557   1.000000
   83        5.872304   1.000001
   84        5.914786   1.000004
   85        5.957060   1.000016
   86        5.969022   1.000023
   87        6.044085   1.000195
   88        6.083844   1.000533
   89        6.134531   1.001694
   90        6.200836   1.006092
   91        6.257376   1.014482
   92        6.312799   1.026680
   93        6.348325   1.033606
   94        6.418006   1.024658
   95        6.477511   0.959176
   96        6.535601   0.815193
   97        6.548826   0.771120
   98        6.619063   0.491746
   99        6.709659   0.151052
  100        6.733615   0.087989
  101        6.846724  -0.034454
  102        6.918090  -0.027433
  103        6.991142  -0.011884
  104        7.034446  -0.005982
  105        7.132801  -0.000810
  106        7.219186  -0.000088
  107        7.286526  -0.000012
  108        7.407433  -0.000000
  109        7.548725  -0.000000
  110        7.666282  -0.000000
  111        7.861347  -0.000000
  112        7.890574  -0.000000
  113        8.038761  -0.000000
  114        8.104295  -0.000000
  115        8.205108  -0.000000
  116        8.263789  -0.000000
  117        8.273574  -0.000000
  118        8.307788  -0.000000
  119        8.386838  -0.000000
  120        8.414191  -0.000000
 
 -0.2000000E+00  0.2000000E+00  0.1006140E-15  0.1600000E-01
    1      -47.695177   1.000000
    2      -47.600436   1.000000
    3      -47.477800   1.000000
    4      -47.293425   1.000000
    5      -47.153128   1.000000
    6      -24.065799   1.000000
    7      -24.052990   1.000000
    8      -23.900766   1.000000
    9      -23.858997   1.000000
   10      -23.809345   1.000000
   11      -23.776307   1.000000
   12      -23.731121   1.000000
   13      -23.623364   1.000000
   14      -23.506974   1.000000
   15      -23.471270   1.000000
   16      -23.443509   1.000000
   17      -23.350909   1.000000
   18      -23.343603   1.000000
   19      -23.263390   1.000000
   20      -22.969376   1.000000
   21       -0.229552   1.000000
   22        0.916991   1.000000
   23        1.236254   1.000000
   24        1.521114   1.000000
   25        1.941089   1.000000
   26        2.245707   1.000000
   27        2.367389   1.000000
   28        2.454398   1.000000
   29        2.553088   1.000000
   30        2.565498   1.000000
   31        2.633325   1.000000
   32        2.687080   1.000000
   33        2.759404   1.000000
   34        2.849274   1.000000
   35        2.881336   1.000000
   36        2.965748   1.000000
   37        2.998395   1.000000
   38        3.063653   1.000000
   39        3.098956   1.000000
   40        3.221358   1.000000
   41        3.264715   1.000000
   42        3.389953   1.000000
   43        3.494461   1.000000
   44        3.553768   1.000000
   45        3.636227   1.000000
   46        3.731626   1.000000
   47        3.789314   1.000000