 running on   32 total cores
 distrk:  each k-point on   32 cores,    1 groups
 distr:  one band on    4 cores,    8 groups
 using from now: INCAR     
 vasp.5.4.4.18Apr17-6-g9f103f2a35 (build Aug 09 2018 16:20:53) complex          
  
 POSCAR found :  5 types and      29 ions
 scaLAPACK will be used

 ----------------------------------------------------------------------------- 
|                                                                             |
|  ADVICE TO THIS USER RUNNING 'VASP/VAMP'   (HEAR YOUR MASTER'S VOICE ...):  |
|                                                                             |
|      You enforced a specific xc-type in the INCAR file,                     |
|      a different type was found on the POTCAR file                          |
|          I HOPE YOU KNOW, WHAT YOU ARE  DOING                               |
|                                                                             |
 ----------------------------------------------------------------------------- 

 LDA part: xc-table for Pade appr. of Perdew
 POSCAR found :  5 types and      29 ions
 POSCAR, INCAR and KPOINTS ok, starting setup
 FFT: planning ...
 WAVECAR not read
 entering main loop
       N       E                     dE             d eps       ncg     rms          rms(c)
DAV:   1     0.193893719741E+04    0.19389E+04   -0.86004E+04 15120   0.167E+03
DAV:   2     0.273650293953E+02   -0.19116E+04   -0.18409E+04 15120   0.483E+02
DAV:   3    -0.309768259327E+03   -0.33713E+03   -0.31696E+03 26744   0.171E+02
DAV:   4    -0.349471917663E+03   -0.39704E+02   -0.36382E+02 23824   0.543E+01
DAV:   5    -0.353521583299E+03   -0.40497E+01   -0.39652E+01 28424   0.195E+01    0.762E+01
DAV:   6    -0.345008815427E+03    0.85128E+01   -0.10678E+02 21328   0.310E+01    0.366E+01
DAV:   7    -0.356518115407E+03   -0.11509E+02   -0.32441E+02 21632   0.764E+01    0.285E+01
DAV:   8    -0.345710701385E+03    0.10807E+02   -0.10325E+02 22728   0.353E+01    0.189E+01
DAV:   9    -0.334433433451E+03    0.11277E+02   -0.19645E+01 21080   0.142E+01    0.116E+01
DAV:  10    -0.332036593459E+03    0.23968E+01   -0.92427E+00 22944   0.863E+00    0.749E+00
DAV:  11    -0.331349795286E+03    0.68680E+00   -0.36913E+00 22648   0.519E+00    0.448E+00
DAV:  12    -0.331201356274E+03    0.14844E+00   -0.13001E+00 22488   0.332E+00    0.299E+00
DAV:  13    -0.331176616645E+03    0.24740E-01   -0.10731E+00 22072   0.332E+00    0.197E+00
DAV:  14    -0.331129548519E+03    0.47068E-01   -0.60578E-01 22464   0.229E+00    0.112E+00
DAV:  15    -0.331115389510E+03    0.14159E-01   -0.21927E-01 23200   0.133E+00    0.745E-01
DAV:  16    -0.331116186909E+03   -0.79740E-03   -0.73781E-02 22400   0.782E-01    0.673E-01
DAV:  17    -0.331111473177E+03    0.47137E-02   -0.29646E-02 21944   0.498E-01    0.358E-01
DAV:  18    -0.331110140051E+03    0.13331E-02   -0.12809E-02 21880   0.344E-01    0.181E-01
DAV:  19    -0.331109897901E+03    0.24215E-03   -0.55388E-03 21208   0.234E-01    0.119E-01
DAV:  20    -0.331109777896E+03    0.12000E-03   -0.16367E-03 20512   0.121E-01    0.652E-02
DAV:  21    -0.331109763079E+03    0.14817E-04   -0.33243E-04 13440   0.694E-02
   1 F= -.33110976E+03 E0= -.33110165E+03  d E =-.331110E+03
 curvature:   0.00 expect dE= 0.000E+00 dE for cont linesearch  0.000E+00
 trial: gam= 0.00000 g(F)=  0.658E+00 g(S)=  0.561E+00 ort = 0.000E+00 (trialstep = 0.100E+01)
 search vector abs. value=  0.122E+01
 bond charge predicted
       N       E                     dE             d eps       ncg     rms          rms(c)
DAV:   1    -0.333234531797E+03   -0.21248E+01   -0.15149E+02 19552   0.514E+01    0.154E+01
DAV:   2    -0.333741703507E+03   -0.50717E+00   -0.31587E+01 23240   0.242E+01    0.105E+01
DAV:   3    -0.332106982003E+03    0.16347E+01   -0.16983E+01 22232   0.129E+01    0.756E+00
DAV:   4    -0.331955069464E+03    0.15191E+00   -0.10565E+01 23768   0.107E+01    0.636E+00
DAV:   5    -0.331455798511E+03    0.49927E+00   -0.61138E+00 22864   0.804E+00    0.326E+00
DAV:   6    -0.331259599304E+03    0.19620E+00   -0.11459E+00 23952   0.346E+00    0.182E+00
DAV:   7    -0.331282839802E+03   -0.23240E-01   -0.56429E-01 24632   0.218E+00    0.165E+00
DAV:   8    -0.331262504243E+03    0.20336E-01   -0.22071E-01 23600   0.151E+00    0.100E+00
DAV:   9    -0.331267683588E+03   -0.51793E-02   -0.80942E-02 22808   0.860E-01    0.691E-01
DAV:  10    -0.331272166191E+03   -0.44826E-02   -0.66346E-02 22976   0.744E-01    0.563E-01
DAV:  11    -0.331273181271E+03   -0.10151E-02   -0.37103E-02 22800   0.581E-01    0.335E-01
DAV:  12    -0.331272589903E+03    0.59137E-03   -0.13598E-02 23792   0.339E-01    0.162E-01
DAV:  13    -0.331272884331E+03   -0.29443E-03   -0.34211E-03 24072   0.164E-01    0.827E-02
DAV:  14    -0.331272905717E+03   -0.21386E-04   -0.96194E-04 20040   0.956E-02
   2 F= -.33127291E+03 E0= -.33126648E+03  d E =-.163143E+00
 trial-energy change:   -0.163143  1 .order   -0.137179   -1.218972    0.944614
 step:   0.5809(harm=  0.5634)  dis= 0.03072  next Energy=  -331.468924 (dE=-0.359E+00)
 bond charge predicted
       N       E                     dE             d eps       ncg     rms          rms(c)
DAV:   1    -0.331807713950E+03   -0.53483E+00   -0.26943E+01 19304   0.216E+01    0.650E+00
DAV:   2    -0.331898709077E+03   -0.90995E-01   -0.53047E+00 25944   0.976E+00    0.520E+00
DAV:   3    -0.331695419564E+03    0.20329E+00   -0.46815E+00 22744   0.712E+00    0.360E+00
DAV:   4    -0.331606100194E+03    0.89319E-01   -0.17927E+00 24312   0.416E+00    0.260E+00
DAV:   5    -0.331502110687E+03    0.10399E+00   -0.10057E+00 22736   0.297E+00    0.142E+00
DAV:   6    -0.331470756234E+03    0.31354E-01   -0.31465E-01 23296   0.179E+00    0.896E-01
DAV:   7    -0.331469433016E+03    0.13232E-02   -0.12599E-01 24552   0.100E+00    0.661E-01
DAV:   8    -0.331466233802E+03    0.31992E-02   -0.36624E-02 23448   0.628E-01    0.420E-01
DAV:   9    -0.331466926269E+03   -0.69247E-03   -0.14606E-02 22024   0.350E-01    0.322E-01
DAV:  10    -0.331467539944E+03   -0.61368E-03   -0.11274E-02 22784   0.309E-01    0.241E-01
DAV:  11    -0.331467875431E+03   -0.33549E-03   -0.59849E-03 23560   0.228E-01    0.131E-01
DAV:  12    -0.331467828500E+03    0.46932E-04   -0.23535E-03 23336   0.143E-01    0.722E-02
DAV:  13    -0.331467844583E+03   -0.16083E-04   -0.99094E-04 20776   0.902E-02
   3 F= -.33146784E+03 E0= -.33146053E+03  d E =-.358082E+00
 curvature:  -0.28 expect dE=-0.224E+00 dE for cont linesearch -0.474E-04
 trial: gam= 0.64031 g(F)=  0.373E+00 g(S)=  0.422E+00 ort = 0.143E-01 (trialstep = 0.851E+00)
 search vector abs. value=  0.131E+01
 bond charge predicted
       N       E                     dE             d eps       ncg     rms          rms(c)
DAV:   1    -0.331566431246E+03   -0.98603E-01   -0.10950E+02 15480   0.336E+01    0.407E+00
DAV:   2    -0.332190376928E+03   -0.62395E+00   -0.74859E+00 23536   0.110E+01    0.426E+00
DAV:   3    -0.332014016886E+03    0.17636E+00   -0.27846E+00 22984   0.532E+00    0.295E+00
DAV:   4    -0.331924001922E+03    0.90015E-01   -0.79120E-01 23080   0.283E+00    0.183E+00
DAV:   5    -0.331898637614E+03    0.25364E-01   -0.21792E-01 23080   0.144E+00    0.120E+00
DAV:   6    -0.331904456331E+03   -0.58187E-02   -0.20204E-01 23688   0.139E+00    0.105E+00
DAV:   7    -0.331888338790E+03    0.16118E-01   -0.12083E-01 23768   0.109E+00    0.541E-01
DAV:   8    -0.331885866853E+03    0.24719E-02   -0.35927E-02 24016   0.575E-01    0.361E-01
DAV:   9    -0.331885158223E+03    0.70863E-03   -0.13142E-02 22240   0.326E-01    0.252E-01
DAV:  10    -0.331885071005E+03    0.87219E-04   -0.43245E-03 21616   0.185E-01    0.163E-01
DAV:  11    -0.331885198969E+03   -0.12796E-03   -0.34974E-03 20848   0.176E-01    0.131E-01
DAV:  12    -0.331885052480E+03    0.14649E-03   -0.21089E-03 20416   0.147E-01    0.565E-02
DAV:  13    -0.331884992695E+03    0.59786E-04   -0.47097E-04 14480   0.814E-02
   4 F= -.33188499E+03 E0= -.33187883E+03  d E =-.417148E+00
 trial-energy change:   -0.417148  1 .order   -0.417925   -0.683899   -0.151950
 step:   1.0936(harm=  1.0936)  dis= 0.08208  next Energy=  -331.907471 (dE=-0.440E+00)
 bond charge predicted
       N       E                     dE             d eps       ncg     rms          rms(c)
DAV:   1    -0.331886347097E+03   -0.12946E-02   -0.89162E+00 15848   0.950E+00    0.110E+00
DAV:   2    -0.331930989396E+03   -0.44642E-01   -0.55969E-01 23712   0.303E+00    0.118E+00
DAV:   3    -0.331916728121E+03    0.14261E-01   -0.20602E-01 22720   0.145E+00    0.797E-01
DAV:   4    -0.331910501335E+03    0.62268E-02   -0.61798E-02 23504   0.780E-01    0.507E-01
DAV:   5    -0.331908491625E+03    0.20097E-02   -0.18417E-02 23368   0.421E-01    0.327E-01
DAV:   6    -0.331908873365E+03   -0.38174E-03   -0.16234E-02 23456   0.391E-01    0.288E-01
DAV:   7    -0.331907620087E+03    0.12533E-02   -0.87516E-03 23448   0.293E-01    0.147E-01
DAV:   8    -0.331907444286E+03    0.17580E-03   -0.25631E-03 21680   0.154E-01    0.975E-02
DAV:   9    -0.331907402850E+03    0.41437E-04   -0.87710E-04 18800   0.875E-02
   5 F= -.33190740E+03 E0= -.33190158E+03  d E =-.439558E+00
 curvature:  -0.89 expect dE=-0.130E+00 dE for cont linesearch -0.418E-04
 trial: gam= 0.08572 g(F)=  0.135E+00 g(S)=  0.112E-01 ort = 0.784E-02 (trialstep = 0.899E+00)
 search vector abs. value=  0.157E+00
 bond charge predicted
       N       E                     dE             d eps       ncg     rms          rms(c)
DAV:   1    -0.331943154492E+03   -0.35710E-01   -0.16137E+01 15320   0.139E+01    0.215E+00
DAV:   2    -0.332095116208E+03   -0.15196E+00   -0.17369E+00 22760   0.506E+00    0.250E+00
DAV:   3    -0.332019501120E+03    0.75615E-01   -0.80269E-01 22816   0.287E+00    0.127E+00
DAV:   4    -0.332007186989E+03    0.12314E-01   -0.18402E-01 23048   0.145E+00    0.847E-01
DAV:   5    -0.331997587203E+03    0.95998E-02   -0.98845E-02 22816   0.101E+00    0.448E-01
DAV:   6    -0.331996438597E+03    0.11486E-02   -0.40908E-02 23768   0.638E-01    0.366E-01
DAV:   7    -0.331994794647E+03    0.16440E-02   -0.20048E-02 24056   0.425E-01    0.193E-01
DAV:   8    -0.331994299498E+03    0.49515E-03   -0.35856E-03 21384   0.192E-01    0.121E-01
DAV:   9    -0.331994349294E+03   -0.49796E-04   -0.12375E-03 20192   0.103E-01    0.100E-01
DAV:  10    -0.331994376258E+03   -0.26964E-04   -0.96397E-04 18368   0.937E-02
   6 F= -.33199438E+03 E0= -.33198869E+03  d E =-.869734E-01
 trial-energy change:   -0.086973  1 .order   -0.087676   -0.131629   -0.043723
 step:   1.3820(harm=  1.3464)  dis= 0.03148  next Energy=  -332.006006 (dE=-0.986E-01)
 bond charge predicted
       N       E                     dE             d eps       ncg     rms          rms(c)
DAV:   1    -0.331991082109E+03    0.32672E-02   -0.46463E+00 15424   0.743E+00    0.115E+00
DAV:   2    -0.332032364280E+03   -0.41282E-01   -0.48005E-01 22648   0.267E+00    0.128E+00
DAV:   3    -0.332012226591E+03    0.20138E-01   -0.21490E-01 22736   0.147E+00    0.678E-01
DAV:   4    -0.332008639045E+03    0.35875E-02   -0.53791E-02 23072   0.772E-01    0.449E-01
DAV:   5    -0.332006018694E+03    0.26204E-02   -0.28994E-02 22784   0.541E-01    0.244E-01
DAV:   6    -0.332005634962E+03    0.38373E-03   -0.11933E-02 23800   0.341E-01    0.194E-01
DAV:   7    -0.332005175354E+03    0.45961E-03   -0.54615E-03 22608   0.221E-01    0.102E-01
DAV:   8    -0.332005049836E+03    0.12552E-03   -0.10331E-03 19024   0.105E-01    0.669E-02
DAV:   9    -0.332005051077E+03   -0.12412E-05   -0.32620E-04 12856   0.675E-02
   7 F= -.33200505E+03 E0= -.33199945E+03  d E =-.976482E-01
 curvature:  -0.72 expect dE=-0.142E+00 dE for cont linesearch -0.376E-04
 trial: gam= 1.38098 g(F)=  0.267E-01 g(S)=  0.171E+00 ort =-0.287E-02 (trialstep = 0.319E+00)
 search vector abs. value=  0.489E+00
 bond charge predicted
       N       E                     dE             d eps       ncg     rms          rms(c)
DAV:   1    -0.332047365854E+03   -0.42316E-01   -0.63506E+00 15376   0.926E+00    0.181E+00
DAV:   2    -0.332088554520E+03   -0.41189E-01   -0.76057E-01 22520   0.340E+00    0.143E+00
DAV:   3    -0.332071992605E+03    0.16562E-01   -0.38949E-01 22448   0.200E+00    0.109E+00
DAV:   4    -0.332056143084E+03    0.15850E-01   -0.13269E-01 22744   0.119E+00    0.592E-01
DAV:   5    -0.332051220167E+03    0.49229E-02   -0.63651E-02 22840   0.810E-01    0.357E-01
DAV:   6    -0.332049211749E+03    0.20084E-02   -0.21973E-02 23464   0.437E-01    0.170E-01
DAV:   7    -0.332049264646E+03   -0.52898E-04   -0.57277E-03 24048   0.229E-01    0.129E-01
DAV:   8    -0.332049202092E+03    0.62555E-04   -0.18046E-03 20584   0.124E-01    0.966E-02
DAV:   9    -0.332049227260E+03   -0.25169E-04   -0.40959E-04 13800   0.740E-02
   8 F= -.33204923E+03 E0= -.33204375E+03  d E =-.441762E-01
 trial-energy change:   -0.044176  1 .order   -0.044356   -0.061930   -0.026782
 step:   0.5623(harm=  0.5623)  dis= 0.02281  next Energy=  -332.059611 (dE=-0.546E-01)
 bond charge predicted
       N       E                     dE             d eps       ncg     rms          rms(c)
DAV:   1    -0.332056180330E+03   -0.69782E-02   -0.36866E+00 15320   0.706E+00    0.138E+00
DAV:   2    -0.332079433092E+03   -0.23253E-01   -0.43753E-01 22432   0.259E+00    0.107E+00
DAV:   3    -0.332070374629E+03    0.90585E-02   -0.22218E-01 22360   0.152E+00    0.815E-01
DAV:   4    -0.332061620080E+03    0.87545E-02   -0.77990E-02 22592   0.918E-01    0.449E-01
DAV:   5    -0.332058777054E+03    0.28430E-02   -0.36935E-02 22904   0.614E-01    0.271E-01
DAV:   6    -0.332057725008E+03    0.10520E-02   -0.12167E-02 23920   0.328E-01    0.141E-01
DAV:   7    -0.332057835728E+03   -0.11072E-03   -0.36559E-03 23776   0.182E-01    0.118E-01
DAV:   8    -0.332057738946E+03    0.96782E-04   -0.11219E-03 19656   0.106E-01    0.841E-02
DAV:   9    -0.332057786487E+03   -0.47541E-04   -0.25963E-04 12120   0.603E-02
   9 F= -.33205779E+03 E0= -.33205244E+03  d E =-.527354E-01
 curvature:  -0.71 expect dE=-0.334E-01 dE for cont linesearch -0.633E-04
 trial: gam= 0.21709 g(F)=  0.444E-01 g(S)=  0.269E-02 ort =-0.661E-02 (trialstep = 0.368E+00)
 search vector abs. value=  0.672E-01
 bond charge predicted
       N       E                     dE             d eps       ncg     rms          rms(c)
DAV:   1    -0.332067628499E+03   -0.98896E-02   -0.12719E+00 16128   0.368E+00    0.301E-01
DAV:   2    -0.332076656559E+03   -0.90281E-02   -0.92279E-02 22112   0.123E+00    0.438E-01
DAV:   3    -0.332073837064E+03    0.28195E-02   -0.23610E-02 21496   0.540E-01    0.185E-01
DAV:   4    -0.332073563171E+03    0.27389E-03   -0.41930E-03 22904   0.234E-01    0.138E-01
DAV:   5    -0.332073441024E+03    0.12215E-03   -0.17414E-03 20672   0.130E-01    0.978E-02
DAV:   6    -0.332073396592E+03    0.44432E-04   -0.83295E-04 18040   0.101E-01
  10 F= -.33207340E+03 E0= -.33206811E+03  d E =-.156101E-01
 ZBRENT: can't locate minimum, use default step
 trial-energy change:   -0.015610  1 .order   -0.015516   -0.016786   -0.014247
 step:   1.4711(harm=  2.4313)  dis= 0.02934  next Energy=  -332.113271 (dE=-0.555E-01)
 bond charge predicted
       N       E                     dE             d eps       ncg     rms          rms(c)
DAV:   1    -0.332058224014E+03    0.15217E-01   -0.11480E+01 16432   0.110E+01    0.860E-01
DAV:   2    -0.332131221444E+03   -0.72997E-01   -0.75264E-01 22736   0.353E+00    0.122E+00
DAV:   3    -0.332109335750E+03    0.21886E-01   -0.19082E-01 22312   0.149E+00    0.570E-01
DAV:   4    -0.332106316686E+03    0.30191E-02   -0.31440E-02 24296   0.612E-01    0.399E-01
DAV:   5    -0.332105478395E+03    0.83829E-03   -0.11801E-02 22464   0.340E-01    0.293E-01
DAV:   6    -0.332105013752E+03    0.46464E-03   -0.76068E-03 22096   0.293E-01    0.185E-01
DAV:   7    -0.332104562102E+03    0.45165E-03   -0.36067E-03 23552   0.201E-01    0.877E-02
DAV:   8    -0.332104458944E+03    0.10316E-03   -0.11532E-03 20336   0.107E-01    0.491E-02
DAV:   9    -0.332104462438E+03   -0.34944E-05   -0.46285E-04 15320   0.711E-02
  11 F= -.33210446E+03 E0= -.33209938E+03  d E =-.466760E-01
 curvature:  -1.40 expect dE=-0.321E-01 dE for cont linesearch -0.640E-02
 ZBRENT: increasing intervall
 opt :   3.6777  next Energy=  -332.096250 (dE=-0.385E-01)
 bond charge predicted
       N       E                     dE             d eps       ncg     rms          rms(c)
DAV:   1    -0.331918181981E+03    0.18628E+00   -0.46041E+01 16632   0.221E+01    0.195E+00
DAV:   2    -0.332204005509E+03   -0.28582E+00   -0.30467E+00 23976   0.719E+00    0.240E+00
DAV:   3    -0.332122875314E+03    0.81130E-01   -0.82144E-01 23032   0.290E+00    0.130E+00
DAV:   4    -0.332103799208E+03    0.19076E-01   -0.13091E-01 24136   0.118E+00    0.830E-01
DAV:   5    -0.332101796414E+03    0.20028E-02   -0.42148E-02 22888   0.644E-01    0.662E-01
DAV:   6    -0.332100391776E+03    0.14046E-02   -0.35005E-02 22608   0.600E-01    0.480E-01
DAV:   7    -0.332098569561E+03    0.18222E-02   -0.20086E-02 23552   0.486E-01    0.264E-01
DAV:   8    -0.332097123422E+03    0.14461E-02   -0.82255E-03 22776   0.310E-01    0.112E-01
DAV:   9    -0.332097140898E+03   -0.17475E-04   -0.31015E-03 22688   0.145E-01    0.793E-02
DAV:  10    -0.332097093411E+03    0.47486E-04   -0.78155E-04 17408   0.859E-02
  12 F= -.33209709E+03 E0= -.33209297E+03  d E =-.393069E-01
 curvature:   1.80 expect dE= 0.163E+00 dE for cont linesearch  0.164E-01
 ZBRENT: bracketing found
 ZBRENT: interpolating
 opt :   2.3859  next Energy=  -332.112470 (dE=-0.547E-01)
 bond charge predicted
       N       E                     dE             d eps       ncg     rms          rms(c)
DAV:   1    -0.332045136553E+03    0.52004E-01   -0.15678E+01 16432   0.129E+01    0.112E+00
DAV:   2    -0.332142430523E+03   -0.97294E-01   -0.99839E-01 21664   0.404E+00    0.140E+00
DAV:   3    -0.332119813801E+03    0.22617E-01   -0.26302E-01 22024   0.185E+00    0.695E-01
DAV:   4    -0.332115496306E+03    0.43175E-02   -0.46553E-02 24120   0.781E-01    0.498E-01
DAV:   5    -0.332114358157E+03    0.11381E-02   -0.16448E-02 22808   0.399E-01    0.376E-01
DAV:   6    -0.332113701658E+03    0.65650E-03   -0.10954E-02 22488   0.346E-01    0.225E-01
DAV:   7    -0.332112971087E+03    0.73057E-03   -0.56371E-03 23560   0.256E-01    0.119E-01
DAV:   8    -0.332112794152E+03    0.17694E-03   -0.21932E-03 21840   0.147E-01    0.726E-02
DAV:   9    -0.332112758116E+03    0.36036E-04   -0.66587E-04 17000   0.772E-02
  13 F= -.33211276E+03 E0= -.33210799E+03  d E =-.549716E-01
 curvature:  -0.88 expect dE=-0.323E-01 dE for cont linesearch -0.111E-04
 trial: gam= 0.64610 g(F)=  0.154E-01 g(S)=  0.212E-01 ort = 0.919E-03 (trialstep = 0.771E+00)
 search vector abs. value=  0.659E-01
 bond charge predicted
       N       E                     dE             d eps       ncg     rms          rms(c)
DAV:   1    -0.332126412960E+03   -0.13619E-01   -0.56362E+00 15928   0.911E+00    0.216E+00
DAV:   2    -0.332145059928E+03   -0.18647E-01   -0.65031E-01 22064   0.308E+00    0.126E+00
DAV:   3    -0.332154877462E+03   -0.98175E-02   -0.43903E-01 22480   0.211E+00    0.130E+00
DAV:   4    -0.332129457560E+03    0.25420E-01   -0.17992E-01 22632   0.139E+00    0.652E-01
DAV:   5    -0.332122265390E+03    0.71922E-02   -0.72904E-02 22792   0.856E-01    0.337E-01
DAV:   6    -0.332120645962E+03    0.16194E-02   -0.18163E-02 24320   0.418E-01    0.182E-01
DAV:   7    -0.332120725818E+03   -0.79856E-04   -0.45776E-03 23856   0.211E-01    0.137E-01
DAV:   8    -0.332120656984E+03    0.68834E-04   -0.18209E-03 20848   0.129E-01    0.103E-01
DAV:   9    -0.332120720969E+03   -0.63985E-04   -0.65184E-04 16528   0.839E-02
  14 F= -.33212072E+03 E0= -.33211643E+03  d E =-.796285E-02
 trial-energy change:   -0.007963  1 .order   -0.009469   -0.028742    0.009804
 step:   0.5369(harm=  0.5752)  dis= 0.01031  next Energy=  -332.122253 (dE=-0.950E-02)
 bond charge predicted
       N       E                     dE             d eps       ncg     rms          rms(c)
DAV:   1    -0.332122807869E+03   -0.21509E-02   -0.51717E-01 15304   0.277E+00    0.670E-01
DAV:   2    -0.332125090774E+03   -0.22829E-02   -0.67179E-02 22416   0.980E-01    0.394E-01
DAV:   3    -0.332125778522E+03   -0.68775E-03   -0.41556E-02 22656   0.642E-01    0.410E-01
DAV:   4    -0.332123429069E+03    0.23495E-02   -0.17853E-02 22088   0.439E-01    0.205E-01
DAV:   5    -0.332122761186E+03    0.66788E-03   -0.70401E-03 22496   0.273E-01    0.110E-01
DAV:   6    -0.332122565267E+03    0.19592E-03   -0.20144E-03 20856   0.144E-01    0.539E-02
DAV:   7    -0.332122548617E+03    0.16650E-04   -0.54773E-04 16200   0.791E-02
  15 F= -.33212255E+03 E0= -.33211809E+03  d E =-.979050E-02
 curvature:  -0.49 expect dE=-0.107E-01 dE for cont linesearch -0.447E-06
 trial: gam= 0.60341 g(F)=  0.120E-01 g(S)=  0.990E-02 ort = 0.245E-03 (trialstep = 0.725E+00)
 search vector abs. value=  0.462E-01
 bond charge predicted
       N       E                     dE             d eps       ncg     rms          rms(c)
DAV:   1    -0.332118946076E+03    0.36192E-02   -0.36042E+00 16328   0.600E+00    0.501E-01
DAV:   2    -0.332139377292E+03   -0.20431E-01   -0.24271E-01 22608   0.186E+00    0.474E-01
DAV:   3    -0.332137453462E+03    0.19238E-02   -0.41027E-02 23808   0.691E-01    0.332E-01
DAV:   4    -0.332136223836E+03    0.12296E-02   -0.11416E-02 23088   0.340E-01    0.207E-01
DAV:   5    -0.332135996854E+03    0.22698E-03   -0.38377E-03 21832   0.208E-01    0.158E-01
DAV:   6    -0.332135913036E+03    0.83818E-04   -0.40102E-03 22656   0.194E-01    0.128E-01
DAV:   7    -0.332135738786E+03    0.17425E-03   -0.21309E-03 22368   0.142E-01    0.765E-02
DAV:   8    -0.332135635380E+03    0.10341E-03   -0.57338E-04 15184   0.794E-02    0.317E-02
DAV:   9    -0.332135636899E+03   -0.15196E-05   -0.10339E-04  9744   0.443E-02
  16 F= -.33213564E+03 E0= -.33213158E+03  d E =-.130883E-01
 trial-energy change:   -0.013088  1 .order   -0.013048   -0.015963   -0.010133
 step:   1.9836(harm=  1.9836)  dis= 0.03362  next Energy=  -332.144401 (dE=-0.219E-01)
 bond charge predicted
       N       E                     dE             d eps       ncg     rms          rms(c)
DAV:   1    -0.332100593946E+03    0.35041E-01   -0.10950E+01 16552   0.104E+01    0.867E-01
DAV:   2    -0.332158447601E+03   -0.57854E-01   -0.69242E-01 23440   0.322E+00    0.875E-01
DAV:   3    -0.332150167867E+03    0.82797E-02   -0.13004E-01 24040   0.120E+00    0.584E-01
DAV:   4    -0.332146650048E+03    0.35178E-02   -0.33791E-02 23040   0.575E-01    0.375E-01
DAV:   5    -0.332145899991E+03    0.75006E-03   -0.11545E-02 21984   0.357E-01    0.282E-01
DAV:   6    -0.332145691354E+03    0.20864E-03   -0.12399E-02 23728   0.338E-01    0.229E-01
DAV:   7    -0.332145080649E+03    0.61070E-03   -0.63399E-03 23296   0.248E-01    0.132E-01
DAV:   8    -0.332144789886E+03    0.29076E-03   -0.19391E-03 20792   0.135E-01    0.555E-02
DAV:   9    -0.332144777536E+03    0.12350E-04   -0.31710E-04 13392   0.620E-02
  17 F= -.33214478E+03 E0= -.33214156E+03  d E =-.222289E-01
 curvature:  -2.08 expect dE=-0.208E-01 dE for cont linesearch -0.284E-05
 trial: gam= 0.48347 g(F)=  0.954E-02 g(S)=  0.445E-03 ort = 0.251E-03 (trialstep = 0.976E+00)
 search vector abs. value=  0.210E-01
 bond charge predicted
       N       E                     dE             d eps       ncg     rms          rms(c)
DAV:   1    -0.332139092542E+03    0.56973E-02   -0.30000E+00 16328   0.537E+00    0.433E-01
DAV:   2    -0.332154922672E+03   -0.15830E-01   -0.18908E-01 22160   0.162E+00    0.371E-01
DAV:   3    -0.332154089975E+03    0.83270E-03   -0.22703E-02 22808   0.536E-01    0.297E-01
DAV:   4    -0.332153210111E+03    0.87986E-03   -0.88970E-03 23448   0.290E-01    0.188E-01
DAV:   5    -0.332152976118E+03    0.23399E-03   -0.27747E-03 21768   0.169E-01    0.134E-01
DAV:   6    -0.332152995786E+03   -0.19668E-04   -0.27300E-03 22408   0.166E-01    0.115E-01
DAV:   7    -0.332152780470E+03    0.21532E-03   -0.14469E-03 20392   0.128E-01    0.533E-02
DAV:   8    -0.332152731169E+03    0.49301E-04   -0.33248E-04 13912   0.669E-02
  18 F= -.33215273E+03 E0= -.33215000E+03  d E =-.795363E-02
 trial-energy change:   -0.007954  1 .order   -0.007936   -0.009869   -0.006002
 step:   2.4922(harm=  2.4922)  dis= 0.03242  next Energy=  -332.157373 (dE=-0.126E-01)
 bond charge predicted
       N       E                     dE             d eps       ncg     rms          rms(c)
DAV:   1    -0.332124219189E+03    0.28561E-01   -0.72164E+00 16328   0.841E+00    0.689E-01
DAV:   2    -0.332163148138E+03   -0.38929E-01   -0.46217E-01 23008   0.258E+00    0.588E-01
DAV:   3    -0.332160687276E+03    0.24609E-02   -0.54525E-02 22688   0.815E-01    0.465E-01
DAV:   4    -0.332158534505E+03    0.21528E-02   -0.21319E-02 23512   0.449E-01    0.294E-01
DAV:   5    -0.332157966603E+03    0.56790E-03   -0.63787E-03 22184   0.263E-01    0.211E-01
DAV:   6    -0.332158043104E+03   -0.76502E-04   -0.66319E-03 23864   0.257E-01    0.184E-01
DAV:   7    -0.332157495369E+03    0.54774E-03   -0.35588E-03 22840   0.198E-01    0.833E-02
DAV:   8    -0.332157387782E+03    0.10759E-03   -0.93957E-04 19168   0.961E-02    0.433E-02
DAV:   9    -0.332157382776E+03    0.50054E-05   -0.27104E-04 12632   0.593E-02
  19 F= -.33215738E+03 E0= -.33215535E+03  d E =-.126052E-01
 curvature:  -2.59 expect dE=-0.285E-01 dE for cont linesearch -0.378E-05
 trial: gam= 1.09339 g(F)=  0.458E-02 g(S)=  0.642E-02 ort =-0.175E-03 (trialstep = 0.753E+00)
 search vector abs. value=  0.357E-01
 bond charge predicted
       N       E                     dE             d eps       ncg     rms          rms(c)
DAV:   1    -0.332153810065E+03    0.35777E-02   -0.31565E+00 16432   0.609E+00    0.104E+00
DAV:   2    -0.332166175607E+03   -0.12366E-01   -0.23642E-01 19408   0.174E+00    0.652E-01
DAV:   3    -0.332165866409E+03    0.30920E-03   -0.87831E-02 23008   0.107E+00    0.523E-01
DAV:   4    -0.332162088994E+03    0.37774E-02   -0.33292E-02 23256   0.623E-01    0.303E-01
DAV:   5    -0.332161238308E+03    0.85069E-03   -0.17932E-02 23472   0.415E-01    0.211E-01
DAV:   6    -0.332160476486E+03    0.76182E-03   -0.55013E-03 24064   0.225E-01    0.822E-02
DAV:   7    -0.332160461012E+03    0.15473E-04   -0.95456E-04 19632   0.103E-01
  20 F= -.33216046E+03 E0= -.33215891E+03  d E =-.307824E-02
 trial-energy change:   -0.003078  1 .order   -0.003232   -0.008129    0.001664
 step:   0.6247(harm=  0.6247)  dis= 0.00964  next Energy=  -332.160757 (dE=-0.337E-02)
 bond charge predicted
       N       E                     dE             d eps       ncg     rms          rms(c)
DAV:   1    -0.332160434857E+03    0.41628E-04   -0.90359E-02 16216   0.102E+00    0.192E-01
DAV:   2    -0.332160967963E+03   -0.53311E-03   -0.88211E-03 22888   0.335E-01    0.140E-01
DAV:   3    -0.332160860579E+03    0.10738E-03   -0.35507E-03 22152   0.191E-01    0.110E-01
DAV:   4    -0.332160740196E+03    0.12038E-03   -0.11289E-03 17656   0.117E-01    0.682E-02
DAV:   5    -0.332160683936E+03    0.56260E-04   -0.68795E-04 16496   0.896E-02
  21 F= -.33216068E+03 E0= -.33215907E+03  d E =-.330116E-02
 curvature:  -1.03 expect dE=-0.859E-02 dE for cont linesearch -0.168E-04
 trial: gam= 0.78607 g(F)=  0.433E-02 g(S)=  0.398E-02 ort =-0.761E-03 (trialstep = 0.727E+00)
 search vector abs. value=  0.292E-01
 bond charge predicted
       N       E                     dE             d eps       ncg     rms          rms(c)
DAV:   1    -0.332152960218E+03    0.77800E-02   -0.24175E+00 16192   0.469E+00    0.326E-01
DAV:   2    -0.332166244425E+03   -0.13284E-01   -0.14217E-01 21408   0.136E+00    0.292E-01
DAV:   3    -0.332166076598E+03    0.16783E-03   -0.16491E-02 24280   0.446E-01    0.239E-01
DAV:   4    -0.332165462768E+03    0.61383E-03   -0.43896E-03 23104   0.200E-01    0.140E-01
DAV:   5    -0.332165375853E+03    0.86916E-04   -0.10390E-03 20344   0.107E-01    0.106E-01
DAV:   6    -0.332165345913E+03    0.29940E-04   -0.14314E-03 20768   0.126E-01    0.822E-02
DAV:   7    -0.332165234571E+03    0.11134E-03   -0.78729E-04 18984   0.933E-02    0.327E-02
DAV:   8    -0.332165225028E+03    0.95429E-05   -0.11231E-04 10208   0.475E-02
  22 F= -.33216523E+03 E0= -.33216387E+03  d E =-.454109E-02
 trial-energy change:   -0.004541  1 .order   -0.004450   -0.005605   -0.003294
 step:   1.7635(harm=  1.7635)  dis= 0.02236  next Energy=  -332.167482 (dE=-0.680E-02)
 bond charge predicted
       N       E                     dE             d eps       ncg     rms          rms(c)
DAV:   1    -0.332142483915E+03    0.22751E-01   -0.49076E+00 16184   0.668E+00    0.474E-01
DAV:   2    -0.332169336060E+03   -0.26852E-01   -0.29057E-01 21872   0.194E+00    0.397E-01
DAV:   3    -0.332169271587E+03    0.64473E-04   -0.29743E-02 24208   0.588E-01    0.344E-01
DAV:   4    -0.332168024109E+03    0.12475E-02   -0.92278E-03 23464   0.293E-01    0.207E-01
DAV:   5    -0.332167864225E+03    0.15988E-03   -0.22858E-03 22080   0.156E-01    0.160E-01
DAV:   6    -0.332167854564E+03    0.96607E-05   -0.33362E-03 22512   0.186E-01    0.134E-01
DAV:   7    -0.332167543081E+03    0.31148E-03   -0.17865E-03 22400   0.138E-01    0.482E-02
DAV:   8    -0.332167520315E+03    0.22766E-04   -0.32054E-04 13776   0.618E-02
  23 F= -.33216752E+03 E0= -.33216652E+03  d E =-.683638E-02
 curvature:  -3.34 expect dE=-0.124E-01 dE for cont linesearch -0.154E-05
 trial: gam= 0.33269 g(F)=  0.351E-02 g(S)=  0.192E-03 ort =-0.116E-03 (trialstep = 0.934E+00)
 search vector abs. value=  0.685E-02
 bond charge predicted
       N       E                     dE             d eps       ncg     rms          rms(c)
DAV:   1    -0.332166131014E+03    0.14121E-02   -0.93251E-01 16552   0.306E+00    0.315E-01
DAV:   2    -0.332170630576E+03   -0.44996E-02   -0.56064E-02 20944   0.839E-01    0.248E-01
DAV:   3    -0.332170618628E+03    0.11949E-04   -0.11866E-02 23200   0.384E-01    0.213E-01
DAV:   4    -0.332170130107E+03    0.48852E-03   -0.38282E-03 22176   0.196E-01    0.120E-01
DAV:   5    -0.332170109106E+03    0.21002E-04   -0.17626E-03 20616   0.136E-01    0.951E-02
DAV:   6    -0.332170022184E+03    0.86922E-04   -0.12808E-03 20904   0.116E-01    0.548E-02
DAV:   7    -0.332169987086E+03    0.35098E-04   -0.43565E-04 14624   0.761E-02
  24 F= -.33216999E+03 E0= -.33216901E+03  d E =-.246677E-02
 trial-energy change:   -0.002467  1 .order   -0.002424   -0.003420   -0.001428
 step:   1.6043(harm=  1.6043)  dis= 0.00738  next Energy=  -332.170456 (dE=-0.294E-02)
 bond charge predicted
       N       E                     dE             d eps       ncg     rms          rms(c)
DAV:   1    -0.332168469238E+03    0.15529E-02   -0.47877E-01 16496   0.219E+00    0.226E-01
DAV:   2    -0.332170847174E+03   -0.23779E-02   -0.29067E-02 20760   0.604E-01    0.181E-01
DAV:   3    -0.332170805560E+03    0.41614E-04   -0.61124E-03 23240   0.283E-01    0.151E-01
DAV:   4    -0.332170571224E+03    0.23434E-03   -0.19250E-03 20664   0.139E-01    0.866E-02
DAV:   5    -0.332170564206E+03    0.70176E-05   -0.91335E-04 18272   0.984E-02
  25 F= -.33217056E+03 E0= -.33216963E+03  d E =-.304389E-02
 curvature:  -1.50 expect dE=-0.638E-02 dE for cont linesearch -0.118E-04
 trial: gam= 1.13206 g(F)=  0.112E-02 g(S)=  0.312E-02 ort = 0.232E-03 (trialstep = 0.540E+00)
 search vector abs. value=  0.136E-01
 bond charge predicted
       N       E                     dE             d eps       ncg     rms          rms(c)
DAV:   1    -0.332170293878E+03    0.27735E-03   -0.59352E-01 16072   0.263E+00    0.442E-01
DAV:   2    -0.332173145395E+03   -0.28515E-02   -0.52546E-02 21064   0.807E-01    0.288E-01
DAV:   3    -0.332172874508E+03    0.27089E-03   -0.18103E-02 22176   0.453E-01    0.230E-01
DAV:   4    -0.332172071344E+03    0.80316E-03   -0.60700E-03 21856   0.256E-01    0.103E-01
DAV:   5    -0.332172044908E+03    0.26436E-04   -0.23590E-03 21744   0.163E-01    0.945E-02
DAV:   6    -0.332171899226E+03    0.14568E-03   -0.12284E-03 19768   0.114E-01    0.412E-02
DAV:   7    -0.332171874921E+03    0.24305E-04   -0.20915E-04 11400   0.631E-02
  26 F= -.33217187E+03 E0= -.33217100E+03  d E =-.131071E-02
 trial-energy change:   -0.001311  1 .order   -0.001370   -0.002435   -0.000305
 step:   0.6176(harm=  0.6176)  dis= 0.00313  next Energy=  -332.171956 (dE=-0.139E-02)
 bond charge predicted
       N       E                     dE             d eps       ncg     rms          rms(c)
DAV:   1    -0.332171864806E+03    0.34420E-04   -0.12434E-02 17080   0.382E-01    0.619E-02
DAV:   2    -0.332171937526E+03   -0.72720E-04   -0.10244E-03 19216   0.121E-01    0.502E-02
DAV:   3    -0.332171913978E+03    0.23548E-04   -0.36127E-04 13560   0.755E-02
  27 F= -.33217191E+03 E0= -.33217106E+03  d E =-.134977E-02
 curvature:  -0.93 expect dE=-0.127E-02 dE for cont linesearch -0.427E-05
 trial: gam= 0.25426 g(F)=  0.124E-02 g(S)=  0.137E-03 ort = 0.250E-03 (trialstep = 0.556E+00)
 search vector abs. value=  0.238E-02
 bond charge predicted
       N       E                     dE             d eps       ncg     rms          rms(c)
DAV:   1    -0.332172145636E+03   -0.20811E-03   -0.10429E-01 16568   0.103E+00    0.679E-02
DAV:   2    -0.332172647086E+03   -0.50145E-03   -0.58023E-03 23192   0.297E-01    0.707E-02
DAV:   3    -0.332172617813E+03    0.29273E-04   -0.75212E-04 18160   0.929E-02
  28 F= -.33217262E+03 E0= -.33217179E+03  d E =-.703835E-03
 ZBRENT: can't locate minimum, use default step
 trial-energy change:   -0.000704  1 .order   -0.000712   -0.000798   -0.000626
 step:   2.2229(harm=  2.5733)  dis= 0.00538  next Energy=  -332.173762 (dE=-0.185E-02)
 bond charge predicted
       N       E                     dE             d eps       ncg     rms          rms(c)
DAV:   1    -0.332169576639E+03    0.30704E-02   -0.93702E-01 16504   0.308E+00    0.207E-01
DAV:   2    -0.332174101601E+03   -0.45250E-02   -0.52808E-02 22920   0.896E-01    0.222E-01
DAV:   3    -0.332173801935E+03    0.29967E-03   -0.76395E-03 24160   0.286E-01    0.151E-01
DAV:   4    -0.332173618813E+03    0.18312E-03   -0.18222E-03 21728   0.135E-01    0.104E-01
DAV:   5    -0.332173586068E+03    0.32745E-04   -0.10751E-03 18944   0.107E-01    0.884E-02
DAV:   6    -0.332173514232E+03    0.71837E-04   -0.81316E-04 17880   0.966E-02
  29 F= -.33217351E+03 E0= -.33217273E+03  d E =-.160025E-02
 curvature:  -2.06 expect dE=-0.204E-02 dE for cont linesearch -0.813E-08
 trial: gam= 0.76475 g(F)=  0.775E-03 g(S)=  0.211E-03 ort = 0.306E-05 (trialstep = 0.888E+00)
 search vector abs. value=  0.238E-02
 bond charge predicted
       N       E                     dE             d eps       ncg     rms          rms(c)
DAV:   1    -0.332173242915E+03    0.34315E-03   -0.26943E-01 16496   0.180E+00    0.258E-01
DAV:   2    -0.332174486861E+03   -0.12439E-02   -0.20854E-02 20464   0.519E-01    0.183E-01
DAV:   3    -0.332174265801E+03    0.22106E-03   -0.69006E-03 22320   0.294E-01    0.132E-01
DAV:   4    -0.332174013531E+03    0.25227E-03   -0.18876E-03 20544   0.149E-01    0.631E-02
DAV:   5    -0.332174010901E+03    0.26304E-05   -0.79232E-04 17368   0.983E-02
  30 F= -.33217401E+03 E0= -.33217326E+03  d E =-.496669E-03
 trial-energy change:   -0.000497  1 .order   -0.000555   -0.000877   -0.000233
 step:   1.2079(harm=  1.2079)  dis= 0.00221  next Energy=  -332.174111 (dE=-0.597E-03)
 bond charge predicted
       N       E                     dE             d eps       ncg     rms          rms(c)
DAV:   1    -0.332173830839E+03    0.18269E-03   -0.34887E-02 16624   0.647E-01    0.944E-02
DAV:   2    -0.332174073338E+03   -0.24250E-03   -0.31499E-03 21896   0.208E-01    0.892E-02
DAV:   3    -0.332173987836E+03    0.85503E-04   -0.12636E-03 18680   0.114E-01    0.526E-02
DAV:   4    -0.332173959670E+03    0.28165E-04   -0.22498E-04 11712   0.658E-02
  31 F= -.33217396E+03 E0= -.33217319E+03  d E =-.445439E-03
 curvature:  -1.45 expect dE=-0.200E-02 dE for cont linesearch -0.738E-06
 trial: gam= 1.30898 g(F)=  0.452E-03 g(S)=  0.926E-03 ort = 0.348E-04 (trialstep = 0.408E+00)
 search vector abs. value=  0.555E-02
 reached required accuracy - stopping structural energy minimisation
 writing wavefunctions
VASP is done!
