<?xml version="1.0" encoding="ISO-8859-1"?>
<modeling>
 <generator>
  <i name="program" type="string">vasp </i>
  <i name="version" type="string">5.4.4.18Apr17-6-g9f103f2a35  </i>
  <i name="subversion" type="string">(build Aug 09 2018 16:20:53) complex            parallel </i>
  <i name="platform" type="string">LinuxIFC </i>
  <i name="date" type="string">2020 04 12 </i>
  <i name="time" type="string">23:29:12 </i>
 </generator>
 <incar>
  <i type="string" name="SYSTEM"> SQS with 1 vacancy for VFE and VRV</i>
  <i type="string" name="PREC">normal</i>
  <i type="int" name="IALGO">    38</i>
  <i type="int" name="ICHARG">     2</i>
  <i type="int" name="IBRION">     2</i>
  <i type="int" name="NSW">    50</i>
  <i type="int" name="ISIF">     3</i>
  <i type="int" name="ISYM">     0</i>
  <i name="ENCUT">    600.00000000</i>
  <i type="string" name="LREAL"> Auto</i>
  <i type="int" name="ISMEAR">     1</i>
  <i name="SIGMA">      0.20000000</i>
  <v type="int" name="KPOINT_BSE">    -1     0     0     0</v>
  <i type="string" name="GGA"> PS</i>
 </incar>
 <structure name="primitive_cell" >
  <crystal>
   <varray name="basis" >
    <v>      -3.19000000      -3.19000000      -3.19000000 </v>
    <v>       1.59500000       1.59500000      -7.97500000 </v>
    <v>       7.97500000      -7.97500000      -1.59500000 </v>
   </varray>
   <i name="volume">    486.92638500 </i>
   <varray name="rec_basis" >
    <v>      -0.13584117      -0.12539185      -0.05224660 </v>
    <v>       0.04179728       0.06269592      -0.10449321 </v>
    <v>       0.06269592      -0.06269592       0.00000000 </v>
   </varray>
  </crystal>
  <varray name="positions" >
   <v>      -0.03333333      -0.06666667       0.40000000 </v>
   <v>       0.30000000      -0.40000000       0.40000000 </v>
   <v>      -0.10000000      -0.20000000       0.20000000 </v>
   <v>       0.06666667       0.13333333       0.20000000 </v>
   <v>       0.46666667      -0.06666667       0.40000000 </v>
   <v>      -0.13333333      -0.26666667      -0.40000000 </v>
   <v>      -0.36666667       0.26666667       0.40000000 </v>
   <v>       0.40000000      -0.20000000       0.20000000 </v>
   <v>      -0.20000000      -0.40000000       0.40000000 </v>
   <v>      -0.43333333       0.13333333       0.20000000 </v>
   <v>       0.36666667      -0.26666667      -0.40000000 </v>
   <v>       0.13333333       0.26666667       0.40000000 </v>
   <v>      -0.46666667       0.06666667      -0.40000000 </v>
   <v>       0.23333333       0.46666667       0.20000000 </v>
   <v>       0.20000000       0.40000000      -0.40000000 </v>
   <v>       0.00000000       0.00000000       0.00000000 </v>
   <v>      -0.06666667      -0.13333333      -0.20000000 </v>
   <v>      -0.30000000       0.40000000      -0.40000000 </v>
   <v>      -0.26666667       0.46666667       0.20000000 </v>
   <v>       0.33333333      -0.33333333       0.00000000 </v>
   <v>       0.43333333      -0.13333333      -0.20000000 </v>
   <v>      -0.50000000       0.00000000       0.00000000 </v>
   <v>       0.26666667      -0.46666667      -0.20000000 </v>
   <v>      -0.33333333       0.33333333       0.00000000 </v>
   <v>      -0.40000000       0.20000000      -0.20000000 </v>
   <v>      -0.16666667      -0.33333333       0.00000000 </v>
   <v>      -0.23333333      -0.46666667      -0.20000000 </v>
   <v>       0.16666667       0.33333333       0.00000000 </v>
   <v>       0.10000000       0.20000000      -0.20000000 </v>
  </varray>
 </structure>
 <varray name="primitive_index" >
  <v type="int" >        1 </v>
  <v type="int" >       17 </v>
  <v type="int" >        6 </v>
  <v type="int" >       23 </v>
  <v type="int" >       19 </v>
  <v type="int" >       18 </v>
  <v type="int" >        2 </v>
  <v type="int" >       15 </v>
  <v type="int" >        7 </v>
  <v type="int" >       14 </v>
  <v type="int" >       10 </v>
  <v type="int" >       11 </v>
  <v type="int" >       27 </v>
  <v type="int" >       29 </v>
  <v type="int" >       22 </v>
  <v type="int" >        4 </v>
  <v type="int" >       13 </v>
  <v type="int" >       25 </v>
  <v type="int" >        8 </v>
  <v type="int" >       28 </v>
  <v type="int" >       16 </v>
  <v type="int" >        3 </v>
  <v type="int" >       21 </v>
  <v type="int" >        9 </v>
  <v type="int" >       26 </v>
  <v type="int" >       12 </v>
  <v type="int" >       24 </v>
  <v type="int" >       20 </v>
  <v type="int" >        5 </v>
 </varray>
 <kpoints>
  <generation param="Gamma">
   <v type="int" name="divisions">       5        5        5 </v>
   <v name="usershift">      0.00000000       0.00000000       0.00000000 </v>
   <v name="genvec1">      0.20000000      -0.00000000      -0.00000000 </v>
   <v name="genvec2">      0.00000000       0.20000000       0.00000000 </v>
   <v name="genvec3">      0.00000000       0.00000000       0.20000000 </v>
   <v name="shift">      0.00000000       0.00000000       0.00000000 </v>
  </generation>
  <varray name="kpointlist" >
   <v>       0.00000000       0.00000000       0.00000000 </v>
   <v>       0.20000000      -0.00000000       0.00000000 </v>
   <v>       0.40000000      -0.00000000       0.00000000 </v>
   <v>       0.00000000       0.20000000       0.00000000 </v>
   <v>       0.20000000       0.20000000      -0.00000000 </v>
   <v>       0.40000000       0.20000000      -0.00000000 </v>
   <v>      -0.40000000       0.20000000      -0.00000000 </v>
   <v>      -0.20000000       0.20000000       0.00000000 </v>
   <v>       0.00000000       0.40000000       0.00000000 </v>
   <v>       0.20000000       0.40000000       0.00000000 </v>
   <v>       0.40000000       0.40000000      -0.00000000 </v>
   <v>      -0.40000000       0.40000000       0.00000000 </v>
   <v>      -0.20000000       0.40000000       0.00000000 </v>
   <v>       0.00000000       0.00000000       0.20000000 </v>
   <v>       0.20000000      -0.00000000       0.20000000 </v>
   <v>       0.40000000       0.00000000       0.20000000 </v>
   <v>      -0.40000000       0.00000000       0.20000000 </v>
   <v>      -0.20000000       0.00000000       0.20000000 </v>
   <v>       0.00000000       0.20000000       0.20000000 </v>
   <v>       0.20000000       0.20000000       0.20000000 </v>
   <v>       0.40000000       0.20000000       0.20000000 </v>
   <v>      -0.40000000       0.20000000       0.20000000 </v>
   <v>      -0.20000000       0.20000000       0.20000000 </v>
   <v>       0.00000000       0.40000000       0.20000000 </v>
   <v>       0.20000000       0.40000000       0.20000000 </v>
   <v>       0.40000000       0.40000000       0.20000000 </v>
   <v>      -0.40000000       0.40000000       0.20000000 </v>
   <v>      -0.20000000       0.40000000       0.20000000 </v>
   <v>       0.00000000      -0.40000000       0.20000000 </v>
   <v>       0.20000000      -0.40000000       0.20000000 </v>
   <v>       0.40000000      -0.40000000       0.20000000 </v>
   <v>      -0.40000000      -0.40000000       0.20000000 </v>
   <v>      -0.20000000      -0.40000000       0.20000000 </v>
   <v>       0.00000000      -0.20000000       0.20000000 </v>
   <v>       0.20000000      -0.20000000       0.20000000 </v>
   <v>       0.40000000      -0.20000000       0.20000000 </v>
   <v>      -0.40000000      -0.20000000       0.20000000 </v>
   <v>      -0.20000000      -0.20000000       0.20000000 </v>
   <v>       0.00000000       0.00000000       0.40000000 </v>
   <v>       0.20000000      -0.00000000       0.40000000 </v>
   <v>       0.40000000      -0.00000000       0.40000000 </v>
   <v>      -0.40000000       0.00000000       0.40000000 </v>
   <v>      -0.20000000       0.00000000       0.40000000 </v>
   <v>      -0.00000000       0.20000000       0.40000000 </v>
   <v>       0.20000000       0.20000000       0.40000000 </v>
   <v>       0.40000000       0.20000000       0.40000000 </v>
   <v>      -0.40000000       0.20000000       0.40000000 </v>
   <v>      -0.20000000       0.20000000       0.40000000 </v>
   <v>       0.00000000       0.40000000       0.40000000 </v>
   <v>       0.20000000       0.40000000       0.40000000 </v>
   <v>       0.40000000       0.40000000       0.40000000 </v>
   <v>      -0.40000000       0.40000000       0.40000000 </v>
   <v>      -0.20000000       0.40000000       0.40000000 </v>
   <v>       0.00000000      -0.40000000       0.40000000 </v>
   <v>       0.20000000      -0.40000000       0.40000000 </v>
   <v>       0.40000000      -0.40000000       0.40000000 </v>
   <v>      -0.40000000      -0.40000000       0.40000000 </v>
   <v>      -0.20000000      -0.40000000       0.40000000 </v>
   <v>       0.00000000      -0.20000000       0.40000000 </v>
   <v>       0.20000000      -0.20000000       0.40000000 </v>
   <v>       0.40000000      -0.20000000       0.40000000 </v>
   <v>      -0.40000000      -0.20000000       0.40000000 </v>
   <v>      -0.20000000      -0.20000000       0.40000000 </v>
  </varray>
  <varray name="weights" >
   <v>       0.00800000 </v>
   <v>       0.01600000 </v>
   <v>       0.01600000 </v>
   <v>       0.01600000 </v>
   <v>       0.01600000 </v>
   <v>       0.01600000 </v>
   <v>       0.01600000 </v>
   <v>       0.01600000 </v>
   <v>       0.01600000 </v>
   <v>       0.01600000 </v>
   <v>       0.01600000 </v>
   <v>       0.01600000 </v>
   <v>       0.01600000 </v>
   <v>       0.01600000 </v>
   <v>       0.01600000 </v>
   <v>       0.01600000 </v>
   <v>       0.01600000 </v>
   <v>       0.01600000 </v>
   <v>       0.01600000 </v>
   <v>       0.01600000 </v>
   <v>       0.01600000 </v>
   <v>       0.01600000 </v>
   <v>       0.01600000 </v>
   <v>       0.01600000 </v>
   <v>       0.01600000 </v>
   <v>       0.01600000 </v>
   <v>       0.01600000 </v>
   <v>       0.01600000 </v>
   <v>       0.01600000 </v>
   <v>       0.01600000 </v>
   <v>       0.01600000 </v>
   <v>       0.01600000 </v>
   <v>       0.01600000 </v>
   <v>       0.01600000 </v>
   <v>       0.01600000 </v>
   <v>       0.01600000 </v>
   <v>       0.01600000 </v>
   <v>       0.01600000 </v>
   <v>       0.01600000 </v>
   <v>       0.01600000 </v>
   <v>       0.01600000 </v>
   <v>       0.01600000 </v>
   <v>       0.01600000 </v>
   <v>       0.01600000 </v>
   <v>       0.01600000 </v>
   <v>       0.01600000 </v>
   <v>       0.01600000 </v>
   <v>       0.01600000 </v>
   <v>       0.01600000 </v>
   <v>       0.01600000 </v>
   <v>       0.01600000 </v>
   <v>       0.01600000 </v>
   <v>       0.01600000 </v>
   <v>       0.01600000 </v>
   <v>       0.01600000 </v>
   <v>       0.01600000 </v>
   <v>       0.01600000 </v>
   <v>       0.01600000 </v>
   <v>       0.01600000 </v>
   <v>       0.01600000 </v>
   <v>       0.01600000 </v>
   <v>       0.01600000 </v>
   <v>       0.01600000 </v>
  </varray>
 </kpoints>
 <parameters>
  <separator name="general" >
   <i type="string" name="SYSTEM">SQS with 1 vacancy for VFE and VRV</i>
   <i type="logical" name="LCOMPAT"> F  </i>
  </separator>
  <separator name="electronic" >
   <i type="string" name="PREC">normal</i>
   <i name="ENMAX">    600.00000000</i>
   <i name="ENAUG">    455.65900000</i>
   <i name="EDIFF">      0.00010000</i>
   <i type="int" name="IALGO">    38</i>
   <i type="int" name="IWAVPR">    11</i>
   <i type="int" name="NBANDS">   120</i>
   <i name="NELECT">    191.00000000</i>
   <i type="int" name="TURBO">     0</i>
   <i type="int" name="IRESTART">     0</i>
   <i type="int" name="NREBOOT">     0</i>
   <i type="int" name="NMIN">     0</i>
   <i name="EREF">      0.00000000</i>
   <separator name="electronic smearing" >
    <i type="int" name="ISMEAR">     1</i>
    <i name="SIGMA">      0.20000000</i>
    <i name="KSPACING">      0.50000000</i>
    <i type="logical" name="KGAMMA"> T  </i>
   </separator>
   <separator name="electronic projectors" >
    <i type="logical" name="LREAL"> T  </i>
    <v name="ROPT">     -0.00050000     -0.00050000     -0.00050000     -0.00050000     -0.00050000</v>
    <i type="int" name="LMAXPAW">  -100</i>
    <i type="int" name="LMAXMIX">     2</i>
    <i type="logical" name="NLSPLINE"> F  </i>
   </separator>
   <separator name="electronic startup" >
    <i type="int" name="ISTART">     0</i>
    <i type="int" name="ICHARG">     2</i>
    <i type="int" name="INIWAV">     1</i>
   </separator>
   <separator name="electronic spin" >
    <i type="int" name="ISPIN">     1</i>
    <i type="logical" name="LNONCOLLINEAR"> F  </i>
    <v name="MAGMOM">      1.00000000      1.00000000      1.00000000      1.00000000      1.00000000      1.00000000      1.00000000      1.00000000      1.00000000      1.00000000      1.00000000      1.00000000      1.00000000      1.00000000      1.00000000      1.00000000      1.00000000      1.00000000      1.00000000      1.00000000
      1.00000000      1.00000000      1.00000000      1.00000000      1.00000000      1.00000000      1.00000000      1.00000000      1.00000000</v>
    <i name="NUPDOWN">     -1.00000000</i>
    <i type="logical" name="LSORBIT"> F  </i>
    <v name="SAXIS">      0.00000000      0.00000000      1.00000000</v>
    <i type="logical" name="LSPIRAL"> F  </i>
    <v name="QSPIRAL">      0.00000000      0.00000000      0.00000000</v>
    <i type="logical" name="LZEROZ"> F  </i>
   </separator>
   <separator name="electronic exchange-correlation" >
    <i type="logical" name="LASPH"> F  </i>
    <i type="logical" name="LMETAGGA"> F  </i>
   </separator>
   <separator name="electronic convergence" >
    <i type="int" name="NELM">    60</i>
    <i type="int" name="NELMDL">    -5</i>
    <i type="int" name="NELMIN">     2</i>
    <i name="ENINI">    600.00000000</i>
    <separator name="electronic convergence detail" >
     <i type="logical" name="LDIAG"> T  </i>
     <i type="logical" name="LSUBROT"> F  </i>
     <i name="WEIMIN">      0.00100000</i>
     <i name="EBREAK">      0.00000021</i>
     <i name="DEPER">      0.30000000</i>
     <i type="int" name="NRMM">     4</i>
     <i name="TIME">      0.40000000</i>
    </separator>
   </separator>
   <separator name="electronic mixer" >
    <i name="AMIX">      0.40000000</i>
    <i name="BMIX">      1.00000000</i>
    <i name="AMIN">      0.10000000</i>
    <i name="AMIX_MAG">      1.60000000</i>
    <i name="BMIX_MAG">      1.00000000</i>
    <separator name="electronic mixer details" >
     <i type="int" name="IMIX">     4</i>
     <i type="logical" name="MIXFIRST"> F  </i>
     <i type="int" name="MAXMIX">   -45</i>
     <i name="WC">    100.00000000</i>
     <i type="int" name="INIMIX">     1</i>
     <i type="int" name="MIXPRE">     1</i>
     <i type="int" name="MREMOVE">     5</i>
    </separator>
   </separator>
   <separator name="electronic dipolcorrection" >
    <i type="logical" name="LDIPOL"> F  </i>
    <i type="logical" name="LMONO"> F  </i>
    <i type="int" name="IDIPOL">     0</i>
    <i name="EPSILON">      1.00000000</i>
    <v name="DIPOL">   -100.00000000   -100.00000000   -100.00000000</v>
    <i name="EFIELD">      0.00000000</i>
   </separator>
  </separator>
  <separator name="grids" >
   <i type="int" name="NGX">    36</i>
   <i type="int" name="NGY">    50</i>
   <i type="int" name="NGZ">    70</i>
   <i type="int" name="NGXF">    72</i>
   <i type="int" name="NGYF">   100</i>
   <i type="int" name="NGZF">   140</i>
   <i type="logical" name="ADDGRID"> F  </i>
  </separator>
  <separator name="ionic" >
   <i type="int" name="NSW">    50</i>
   <i type="int" name="IBRION">     2</i>
   <i type="int" name="MDALGO">     0</i>
   <i type="int" name="ISIF">     3</i>
   <i name="PSTRESS">      0.00000000</i>
   <i name="EDIFFG">      0.00100000</i>
   <i type="int" name="NFREE">     1</i>
   <i name="POTIM">      0.50000000</i>
   <i name="SMASS">     -3.00000000</i>
   <i name="SCALEE">      1.00000000</i>
  </separator>
  <separator name="ionic md" >
   <i name="TEBEG">      0.00010000</i>
   <i name="TEEND">      0.00010000</i>
   <i type="int" name="NBLOCK">     1</i>
   <i type="int" name="KBLOCK">    50</i>
   <i type="int" name="NPACO">   256</i>
   <i name="APACO">     16.00000000</i>
  </separator>
  <separator name="symmetry" >
   <i type="int" name="ISYM">     0</i>
   <i name="SYMPREC">      0.00001000</i>
  </separator>
  <separator name="dos" >
   <i type="int" name="LORBIT">     0</i>
   <v name="RWIGS">     -1.00000000     -1.00000000     -1.00000000     -1.00000000     -1.00000000</v>
   <i type="int" name="NEDOS">   301</i>
   <i name="EMIN">     10.00000000</i>
   <i name="EMAX">    -10.00000000</i>
   <i name="EFERMI">      0.00000000</i>
  </separator>
  <separator name="writing" >
   <i type="int" name="NWRITE">     2</i>
   <i type="logical" name="LWAVE"> T  </i>
   <i type="logical" name="LDOWNSAMPLE"> F  </i>
   <i type="logical" name="LCHARG"> T  </i>
   <i type="logical" name="LPARD"> F  </i>
   <i type="logical" name="LVTOT"> F  </i>
   <i type="logical" name="LVHAR"> F  </i>
   <i type="logical" name="LELF"> F  </i>
   <i type="logical" name="LOPTICS"> F  </i>
   <v name="STM">      0.00000000      0.00000000      0.00000000      0.00000000      0.00000000      0.00000000      0.00000000</v>
  </separator>
  <separator name="performance" >
   <i type="int" name="NPAR">     8</i>
   <i type="int" name="NSIM">     4</i>
   <i type="int" name="NBLK">    -1</i>
   <i type="logical" name="LPLANE"> T  </i>
   <i type="logical" name="LSCALAPACK"> T  </i>
   <i type="logical" name="LSCAAWARE"> F  </i>
   <i type="logical" name="LSCALU"> F  </i>
   <i type="logical" name="LASYNC"> F  </i>
   <i type="logical" name="LORBITALREAL"> F  </i>
  </separator>
  <separator name="miscellaneous" >
   <i type="int" name="IDIOT">     3</i>
   <i type="int" name="ISPECIAL">     0</i>
   <i type="logical" name="LMUSIC"> F  </i>
   <v name="POMASS">     92.91000000     95.94000000    180.94800000     47.88000000    183.85000000</v>
   <v name="DARWINR">      0.00000000      0.00000000      0.00000000      0.00000000      0.00000000</v>
   <v name="DARWINV">      1.00000000      1.00000000      1.00000000      1.00000000      1.00000000</v>
   <i type="logical" name="LCORR"> T  </i>
  </separator>
  <i type="logical" name="GGA_COMPAT"> T  </i>
  <i type="logical" name="LBERRY"> F  </i>
  <i type="int" name="ICORELEVEL">     0</i>
  <i type="logical" name="LDAU"> F  </i>
  <i type="int" name="I_CONSTRAINED_M">     0</i>
  <separator name="electronic exchange-correlation" >
   <i type="string" name="GGA">PS</i>
   <i type="int" name="VOSKOWN">     0</i>
   <i type="logical" name="LHFCALC"> F  </i>
   <i type="string" name="PRECFOCK"></i>
   <i type="logical" name="LSYMGRAD"> F  </i>
   <i type="logical" name="LHFONE"> F  </i>
   <i type="logical" name="LRHFCALC"> F  </i>
   <i type="logical" name="LTHOMAS"> F  </i>
   <i type="logical" name="LMODELHF"> F  </i>
   <i name="ENCUT4O">     -1.00000000</i>
   <i type="int" name="EXXOEP">     0</i>
   <i type="int" name="FOURORBIT">     0</i>
   <i name="AEXX">      0.00000000</i>
   <i name="HFALPHA">      0.00000000</i>
   <i name="MCALPHA">      0.00000000</i>
   <i name="ALDAX">      1.00000000</i>
   <i name="AGGAX">      1.00000000</i>
   <i name="ALDAC">      1.00000000</i>
   <i name="AGGAC">      1.00000000</i>
   <i type="int" name="NKREDX">     1</i>
   <i type="int" name="NKREDY">     1</i>
   <i type="int" name="NKREDZ">     1</i>
   <i type="logical" name="SHIFTRED"> F  </i>
   <i type="logical" name="ODDONLY"> F  </i>
   <i type="logical" name="EVENONLY"> F  </i>
   <i type="int" name="LMAXFOCK">     0</i>
   <i type="int" name="NMAXFOCKAE">     0</i>
   <i type="logical" name="LFOCKAEDFT"> F  </i>
   <i name="HFSCREEN">      0.00000000</i>
   <i name="HFSCREENC">      0.00000000</i>
   <i type="int" name="NBANDSGWLOW">     0</i>
  </separator>
  <separator name="vdW DFT" >
   <i type="logical" name="LUSE_VDW"> F  </i>
   <i name="Zab_VDW">     -0.84910000</i>
   <i name="PARAM1">      0.12340000</i>
   <i name="PARAM2">      1.00000000</i>
   <i name="PARAM3">      0.00000000</i>
  </separator>
  <separator name="model GW" >
   <i type="int" name="MODEL_GW">     0</i>
   <i name="MODEL_EPS0">     10.07433900</i>
   <i name="MODEL_ALPHA">      1.00000000</i>
  </separator>
  <separator name="linear response parameters" >
   <i type="logical" name="LEPSILON"> F  </i>
   <i type="logical" name="LRPA"> F  </i>
   <i type="logical" name="LNABLA"> F  </i>
   <i type="logical" name="LVEL"> F  </i>
   <i type="int" name="KINTER">     0</i>
   <i name="CSHIFT">      0.10000000</i>
   <i name="OMEGAMAX">     -1.00000000</i>
   <i name="DEG_THRESHOLD">      0.00200000</i>
   <i name="RTIME">     -0.10000000</i>
   <i name="WPLASMAI">      0.00000000</i>
   <v name="DFIELD">      0.00000000      0.00000000      0.00000000</v>
   <v name="WPLASMA">      0.00000000      0.00000000      0.00000000      0.00000000      0.00000000      0.00000000      0.00000000      0.00000000      0.00000000</v>
  </separator>
  <separator name="orbital magnetization" >
   <i type="logical" name="NUCIND"> F  </i>
   <v name="MAGPOS">      0.00000000      0.00000000      0.00000000</v>
   <i type="logical" name="LNICSALL"> T  </i>
   <i type="logical" name="ORBITALMAG"> F  </i>
   <i type="logical" name="LMAGBLOCH"> F  </i>
   <i type="logical" name="LCHIMAG"> F  </i>
   <i type="logical" name="LGAUGE"> T  </i>
   <i type="int" name="MAGATOM">     0</i>
   <v name="MAGDIPOL">      0.00000000      0.00000000      0.00000000</v>
   <v name="AVECCONST">      0.00000000      0.00000000      0.00000000</v>
  </separator>
  <separator name="response functions" >
   <i type="logical" name="LADDER"> F  </i>
   <i type="logical" name="LRPAFORCE"> F  </i>
   <i type="logical" name="LFXC"> F  </i>
   <i type="logical" name="LHARTREE"> T  </i>
   <i type="int" name="IBSE">     0</i>
   <v type="int" name="KPOINT">    -1     0     0     0</v>
   <i type="logical" name="LTCTE"> F  </i>
   <i type="logical" name="LTETE"> F  </i>
   <i type="logical" name="LTRIPLET"> F  </i>
   <i type="logical" name="LFXCEPS"> F  </i>
   <i type="logical" name="LFXHEG"> F  </i>
   <i type="int" name="NATURALO">     2</i>
   <i type="logical" name="L2ORDER"> F  </i>
   <i type="logical" name="LMP2LT"> F  </i>
   <i type="logical" name="LUSEW"> F  </i>
   <i name="ENCUTGW">     -2.00000000</i>
   <i name="ENCUTGWSOFT">     -2.00000000</i>
   <i name="ENCUTLF">     -1.00000000</i>
   <i type="int" name="LMAXMP2">    -1</i>
   <i name="SCISSOR">      0.00000000</i>
   <i type="int" name="NOMEGA">     0</i>
   <i type="int" name="NOMEGAR">     0</i>
   <i type="int" name="NBANDSGW">    -1</i>
   <i type="int" name="NBANDSO">    -1</i>
   <i type="int" name="NBANDSV">    -1</i>
   <i type="int" name="NELM">     1</i>
   <i type="int" name="NELMHF">     1</i>
   <i type="int" name="DIM">     3</i>
   <i type="int" name="ANTIRES">     0</i>
   <i name="OMEGAMAX">    -30.00000000</i>
   <i name="OMEGAMIN">    -30.00000000</i>
   <i name="OMEGATL">   -200.00000000</i>
   <i type="int" name="OMEGAGRID">   140</i>
   <i name="CSHIFT">     -0.10000000</i>
   <i type="logical" name="SELFENERGY"> F  </i>
   <i type="logical" name="LSPECTRAL"> F  </i>
   <i type="logical" name="LSPECTRALGW"> F  </i>
   <i type="logical" name="LSINGLES"> F  </i>
   <i type="logical" name="LFERMIGW"> F  </i>
   <i type="logical" name="ODDONLYGW"> F  </i>
   <i type="logical" name="EVENONLYGW"> F  </i>
   <i type="int" name="NKREDLFX">     1</i>
   <i type="int" name="NKREDLFY">     1</i>
   <i type="int" name="NKREDLFZ">     1</i>
   <i type="int" name="MAXMEM">  2800</i>
   <i type="int" name="TELESCOPE">     0</i>
   <i type="int" name="TAUPAR">     1</i>
   <i type="int" name="OMEGAPAR">    -1</i>
   <i name="LAMBDA">      1.00000000</i>
  </separator>
  <separator name="External order field" >
   <i name="OFIELD_KAPPA">      0.00000000</i>
   <v name="OFIELD_K">      0.00000000      0.00000000      0.00000000</v>
   <i name="OFIELD_Q6_NEAR">      0.00000000</i>
   <i name="OFIELD_Q6_FAR">      0.00000000</i>
   <i name="OFIELD_A">      0.00000000</i>
  </separator>
  <separator name="solvation model" >
   <i type="logical" name="LSOL"> F  </i>
  </separator>
 </parameters>
 <atominfo>
  <atoms>      29 </atoms>
  <types>       5 </types>
  <array name="atoms" >
   <dimension dim="1">ion</dimension>
   <field type="string">element</field>
   <field type="int">atomtype</field>
   <set>
    <rc><c>Nb</c><c>   1</c></rc>
    <rc><c>Nb</c><c>   1</c></rc>
    <rc><c>Nb</c><c>   1</c></rc>
    <rc><c>Nb</c><c>   1</c></rc>
    <rc><c>Nb</c><c>   1</c></rc>
    <rc><c>Mo</c><c>   2</c></rc>
    <rc><c>Mo</c><c>   2</c></rc>
    <rc><c>Mo</c><c>   2</c></rc>
    <rc><c>Mo</c><c>   2</c></rc>
    <rc><c>Mo</c><c>   2</c></rc>
    <rc><c>Mo</c><c>   2</c></rc>
    <rc><c>Ta</c><c>   3</c></rc>
    <rc><c>Ta</c><c>   3</c></rc>
    <rc><c>Ta</c><c>   3</c></rc>
    <rc><c>Ta</c><c>   3</c></rc>
    <rc><c>Ta</c><c>   3</c></rc>
    <rc><c>Ta</c><c>   3</c></rc>
    <rc><c>Ti</c><c>   4</c></rc>
    <rc><c>Ti</c><c>   4</c></rc>
    <rc><c>Ti</c><c>   4</c></rc>
    <rc><c>Ti</c><c>   4</c></rc>
    <rc><c>Ti</c><c>   4</c></rc>
    <rc><c>Ti</c><c>   4</c></rc>
    <rc><c>W </c><c>   5</c></rc>
    <rc><c>W </c><c>   5</c></rc>
    <rc><c>W </c><c>   5</c></rc>
    <rc><c>W </c><c>   5</c></rc>
    <rc><c>W </c><c>   5</c></rc>
    <rc><c>W </c><c>   5</c></rc>
   </set>
  </array>
  <array name="atomtypes" >
   <dimension dim="1">type</dimension>
   <field type="int">atomspertype</field>
   <field type="string">element</field>
   <field>mass</field>
   <field>valence</field>
   <field type="string">pseudopotential</field>
   <set>
    <rc><c>   5</c><c>Nb</c><c>     92.91000000</c><c>     13.00000000</c><c>  PAW_PBE Nb_sv 25May2007               </c></rc>
    <rc><c>   6</c><c>Mo</c><c>     95.94000000</c><c>      6.00000000</c><c>  PAW_PBE Mo 08Apr2002                  </c></rc>
    <rc><c>   6</c><c>Ta</c><c>    180.94800000</c><c>      5.00000000</c><c>  PAW_PBE Ta 17Jan2003                  </c></rc>
    <rc><c>   6</c><c>Ti</c><c>     47.88000000</c><c>      4.00000000</c><c>  PAW_PBE Ti 08Apr2002                  </c></rc>
    <rc><c>   6</c><c>W </c><c>    183.85000000</c><c>      6.00000000</c><c>  PAW_PBE W 08Apr2002                   </c></rc>
   </set>
  </array>
 </atominfo>
 <structure name="initialpos" >
  <crystal>
   <varray name="basis" >
    <v>      -3.19000000      -3.19000000      -3.19000000 </v>
    <v>       1.59500000       1.59500000      -7.97500000 </v>
    <v>       7.97500000      -7.97500000      -1.59500000 </v>
   </varray>
   <i name="volume">    486.92638500 </i>
   <varray name="rec_basis" >
    <v>      -0.13584117      -0.12539185      -0.05224660 </v>
    <v>       0.04179728       0.06269592      -0.10449321 </v>
    <v>       0.06269592      -0.06269592       0.00000000 </v>
   </varray>
  </crystal>
  <varray name="positions" >
   <v>       0.96666667       0.93333333       0.40000000 </v>
   <v>       0.63333333       0.26666667       0.40000000 </v>
   <v>       0.50000000       0.00000000       0.00000000 </v>
   <v>       0.00000000       0.00000000       0.00000000 </v>
   <v>       0.10000000       0.20000000       0.80000000 </v>
   <v>       0.90000000       0.80000000       0.20000000 </v>
   <v>       0.80000000       0.60000000       0.40000000 </v>
   <v>       0.73333333       0.46666667       0.20000000 </v>
   <v>       0.66666667       0.33333333       0.00000000 </v>
   <v>       0.36666667       0.73333333       0.60000000 </v>
   <v>       0.13333333       0.26666667       0.40000000 </v>
   <v>       0.83333333       0.66666667       0.00000000 </v>
   <v>       0.93333333       0.86666667       0.80000000 </v>
   <v>       0.56666667       0.13333333       0.20000000 </v>
   <v>       0.40000000       0.80000000       0.20000000 </v>
   <v>       0.43333333       0.86666667       0.80000000 </v>
   <v>       0.30000000       0.60000000       0.40000000 </v>
   <v>       0.86666667       0.73333333       0.60000000 </v>
   <v>       0.46666667       0.93333333       0.40000000 </v>
   <v>       0.16666667       0.33333333       0.00000000 </v>
   <v>       0.26666667       0.53333333       0.80000000 </v>
   <v>       0.20000000       0.40000000       0.60000000 </v>
   <v>       0.06666667       0.13333333       0.20000000 </v>
   <v>       0.76666667       0.53333333       0.80000000 </v>
   <v>       0.70000000       0.40000000       0.60000000 </v>
   <v>       0.60000000       0.20000000       0.80000000 </v>
   <v>       0.53333333       0.06666667       0.60000000 </v>
   <v>       0.33333333       0.66666667       0.00000000 </v>
   <v>       0.23333333       0.46666667       0.20000000 </v>
  </varray>
 </structure>
 <calculation>
  <scstep>
   <time name="dav">   18.36   18.39</time>
   <time name="total">   18.39   18.53</time>
   <energy>
    <i name="alphaZ">   1248.41475165 </i>
    <i name="ewald"> -10730.87593093 </i>
    <i name="hartreedc">  -2675.29025303 </i>
    <i name="XCdc">   -962.26508674 </i>
    <i name="pawpsdc">  11070.58973812 </i>
    <i name="pawaedc">  -9526.02277447 </i>
    <i name="eentropy">     -0.00137415 </i>
    <i name="bandstr">   1857.72814252 </i>
    <i name="atom">  11656.65998444 </i>
    <i name="e_fr_energy">   1938.93719741 </i>
    <i name="e_wo_entrp">   1938.93857156 </i>
    <i name="e_0_energy">   1938.93765546 </i>
   </energy>
  </scstep>
  <scstep>
   <time name="dav">   18.55   18.58</time>
   <time name="total">   18.56   18.58</time>
   <energy>
    <i name="e_fr_energy">     27.36502940 </i>
    <i name="e_wo_entrp">     27.36557119 </i>
    <i name="e_0_energy">     27.36520999 </i>
   </energy>
  </scstep>
  <scstep>
   <time name="dav">   29.29   29.33</time>
   <time name="total">   29.30   29.34</time>
   <energy>
    <i name="e_fr_energy">   -309.76825933 </i>
    <i name="e_wo_entrp">   -309.76057003 </i>
    <i name="e_0_energy">   -309.76569623 </i>
   </energy>
  </scstep>
  <scstep>
   <time name="dav">   26.49   26.53</time>
   <time name="total">   26.49   26.54</time>
   <energy>
    <i name="e_fr_energy">   -349.47191766 </i>
    <i name="e_wo_entrp">   -349.48102027 </i>
    <i name="e_0_energy">   -349.47495186 </i>
   </energy>
  </scstep>
  <scstep>
   <time name="dav">   30.83   30.89</time>
   <time name="total">   31.43   31.48</time>
   <energy>
    <i name="e_fr_energy">   -353.52158330 </i>
    <i name="e_wo_entrp">   -353.52770105 </i>
    <i name="e_0_energy">   -353.52362255 </i>
   </energy>
  </scstep>
  <scstep>
   <time name="dav">   24.23   24.26</time>
   <time name="total">   24.85   24.89</time>
   <energy>
    <i name="e_fr_energy">   -345.00881543 </i>
    <i name="e_wo_entrp">   -345.00229105 </i>
    <i name="e_0_energy">   -345.00664063 </i>
   </energy>
  </scstep>
  <scstep>
   <time name="dav">   24.68   24.71</time>
   <time name="total">   25.30   25.34</time>
   <energy>
    <i name="e_fr_energy">   -356.51811541 </i>
    <i name="e_wo_entrp">   -356.52613526 </i>
    <i name="e_0_energy">   -356.52078869 </i>
   </energy>
  </scstep>
  <scstep>
   <time name="dav">   25.82   25.85</time>
   <time name="total">   26.45   26.48</time>
   <energy>
    <i name="e_fr_energy">   -345.71070138 </i>
    <i name="e_wo_entrp">   -345.71826876 </i>
    <i name="e_0_energy">   -345.71322384 </i>
   </energy>
  </scstep>
  <scstep>
   <time name="dav">   24.45   24.48</time>
   <time name="total">   25.08   25.11</time>
   <energy>
    <i name="e_fr_energy">   -334.43343345 </i>
    <i name="e_wo_entrp">   -334.42598985 </i>
    <i name="e_0_energy">   -334.43095225 </i>
   </energy>
  </scstep>
  <scstep>
   <time name="dav">   26.10   26.13</time>
   <time name="total">   26.72   26.76</time>
   <energy>
    <i name="e_fr_energy">   -332.03659346 </i>
    <i name="e_wo_entrp">   -332.02089643 </i>
    <i name="e_0_energy">   -332.03136112 </i>
   </energy>
  </scstep>
  <scstep>
   <time name="dav">   25.45   25.48</time>
   <time name="total">   26.07   26.10</time>
   <energy>
    <i name="e_fr_energy">   -331.34979529 </i>
    <i name="e_wo_entrp">   -331.33102062 </i>
    <i name="e_0_energy">   -331.34353706 </i>
   </energy>
  </scstep>
  <scstep>
   <time name="dav">   25.35   25.38</time>
   <time name="total">   25.98   26.01</time>
   <energy>
    <i name="e_fr_energy">   -331.20135627 </i>
    <i name="e_wo_entrp">   -331.17868136 </i>
    <i name="e_0_energy">   -331.19379797 </i>
   </energy>
  </scstep>
  <scstep>
   <time name="dav">   25.05   25.08</time>
   <time name="total">   25.68   25.72</time>
   <energy>
    <i name="e_fr_energy">   -331.17661665 </i>
    <i name="e_wo_entrp">   -331.15505162 </i>
    <i name="e_0_energy">   -331.16942830 </i>
   </energy>
  </scstep>
  <scstep>
   <time name="dav">   25.34   25.37</time>
   <time name="total">   25.97   26.00</time>
   <energy>
    <i name="e_fr_energy">   -331.12954852 </i>
    <i name="e_wo_entrp">   -331.10421693 </i>
    <i name="e_0_energy">   -331.12110466 </i>
   </energy>
  </scstep>
  <scstep>
   <time name="dav">   26.23   26.26</time>
   <time name="total">   26.86   26.89</time>
   <energy>
    <i name="e_fr_energy">   -331.11538951 </i>
    <i name="e_wo_entrp">   -331.09085647 </i>
    <i name="e_0_energy">   -331.10721183 </i>
   </energy>
  </scstep>
  <scstep>
   <time name="dav">   25.21   25.24</time>
   <time name="total">   25.84   25.88</time>
   <energy>
    <i name="e_fr_energy">   -331.11618691 </i>
    <i name="e_wo_entrp">   -331.09228560 </i>
    <i name="e_0_energy">   -331.10821981 </i>
   </energy>
  </scstep>
  <scstep>
   <time name="dav">   24.74   24.77</time>
   <time name="total">   25.37   25.40</time>
   <energy>
    <i name="e_fr_energy">   -331.11147318 </i>
    <i name="e_wo_entrp">   -331.08687814 </i>
    <i name="e_0_energy">   -331.10327483 </i>
   </energy>
  </scstep>
  <scstep>
   <time name="dav">   24.69   24.72</time>
   <time name="total">   25.32   25.35</time>
   <energy>
    <i name="e_fr_energy">   -331.11014005 </i>
    <i name="e_wo_entrp">   -331.08594050 </i>
    <i name="e_0_energy">   -331.10207353 </i>
   </energy>
  </scstep>
  <scstep>
   <time name="dav">   24.05   24.08</time>
   <time name="total">   24.67   24.71</time>
   <energy>
    <i name="e_fr_energy">   -331.10989790 </i>
    <i name="e_wo_entrp">   -331.08555913 </i>
    <i name="e_0_energy">   -331.10178498 </i>
   </energy>
  </scstep>
  <scstep>
   <time name="dav">   23.41   23.43</time>
   <time name="total">   24.03   24.11</time>
   <energy>
    <i name="e_fr_energy">   -331.10977790 </i>
    <i name="e_wo_entrp">   -331.08543324 </i>
    <i name="e_0_energy">   -331.10166301 </i>
   </energy>
  </scstep>
  <scstep>
   <time name="dav">   16.98   17.00</time>
   <time name="total">   17.01   17.03</time>
   <energy>
    <i name="alphaZ">   1248.41475165 </i>
    <i name="ewald"> -10730.87593093 </i>
    <i name="hartreedc">  -2536.53238929 </i>
    <i name="XCdc">   -955.47577045 </i>
    <i name="pawpsdc">  19684.18323703 </i>
    <i name="pawaedc"> -18145.39940051 </i>
    <i name="eentropy">     -0.02434445 </i>
    <i name="bandstr">   -552.05990057 </i>
    <i name="atom">  11656.65998444 </i>
    <i name="e_fr_energy">   -331.10976308 </i>
    <i name="e_wo_entrp">   -331.08541863 </i>
    <i name="e_0_energy">   -331.10164826 </i>
   </energy>
  </scstep>
  <structure>
   <crystal>
    <varray name="basis" >
     <v>      -3.19000000      -3.19000000      -3.19000000 </v>
     <v>       1.59500000       1.59500000      -7.97500000 </v>
     <v>       7.97500000      -7.97500000      -1.59500000 </v>
    </varray>
    <i name="volume">    486.92638500 </i>
    <varray name="rec_basis" >
     <v>      -0.13584117      -0.12539185      -0.05224660 </v>
     <v>       0.04179728       0.06269592      -0.10449321 </v>
     <v>       0.06269592      -0.06269592       0.00000000 </v>
    </varray>
   </crystal>
   <varray name="positions" >
    <v>       0.96666667       0.93333333       0.40000000 </v>
    <v>       0.63333333       0.26666667       0.40000000 </v>
    <v>       0.50000000       0.00000000       0.00000000 </v>
    <v>       0.00000000       0.00000000       0.00000000 </v>
    <v>       0.10000000       0.20000000       0.80000000 </v>
    <v>       0.90000000       0.80000000       0.20000000 </v>
    <v>       0.80000000       0.60000000       0.40000000 </v>
    <v>       0.73333333       0.46666667       0.20000000 </v>
    <v>       0.66666667       0.33333333       0.00000000 </v>
    <v>       0.36666667       0.73333333       0.60000000 </v>
    <v>       0.13333333       0.26666667       0.40000000 </v>
    <v>       0.83333333       0.66666667       0.00000000 </v>
    <v>       0.93333333       0.86666667       0.80000000 </v>
    <v>       0.56666667       0.13333333       0.20000000 </v>
    <v>       0.40000000       0.80000000       0.20000000 </v>
    <v>       0.43333333       0.86666667       0.80000000 </v>
    <v>       0.30000000       0.60000000       0.40000000 </v>
    <v>       0.86666667       0.73333333       0.60000000 </v>
    <v>       0.46666667       0.93333333       0.40000000 </v>
    <v>       0.16666667       0.33333333       0.00000000 </v>
    <v>       0.26666667       0.53333333       0.80000000 </v>
    <v>       0.20000000       0.40000000       0.60000000 </v>
    <v>       0.06666667       0.13333333       0.20000000 </v>
    <v>       0.76666667       0.53333333       0.80000000 </v>
    <v>       0.70000000       0.40000000       0.60000000 </v>
    <v>       0.60000000       0.20000000       0.80000000 </v>
    <v>       0.53333333       0.06666667       0.60000000 </v>
    <v>       0.33333333       0.66666667       0.00000000 </v>
    <v>       0.23333333       0.46666667       0.20000000 </v>
   </varray>
  </structure>
  <varray name="forces" >
   <v>       0.54123922      -0.06811764      -0.32187136 </v>
   <v>       0.21180822      -0.29387597       0.18860307 </v>
   <v>      -0.00341965       0.37230106      -0.29364679 </v>
   <v>       0.23630945      -0.06245802      -0.12555232 </v>
   <v>      -0.50155485       0.90831432       0.04339625 </v>
   <v>       0.18305809      -0.40109813       0.09417452 </v>
   <v>      -0.38697466      -0.20346567       0.51971968 </v>
   <v>      -0.08328035       0.02248355       0.04344159 </v>
   <v>      -0.00513031       0.38408639      -0.54023925 </v>
   <v>       0.11657591      -0.03472663      -0.11279619 </v>
   <v>       0.15986242      -0.03770348      -0.30515073 </v>
   <v>       0.25431385      -0.59475787       0.38592520 </v>
   <v>      -0.43148737       1.09598728      -0.68277315 </v>
   <v>      -0.27443144       0.17016623       0.04600180 </v>
   <v>      -0.41891402      -0.12650836       0.47274055 </v>
   <v>      -1.09857556      -0.01903347       0.58335733 </v>
   <v>       0.40982001      -0.37304520      -0.31471217 </v>
   <v>       0.15313583       0.49816261       0.56402954 </v>
   <v>       0.32792089      -0.54705294       0.03316429 </v>
   <v>       0.22238681      -0.43494808      -0.38743068 </v>
   <v>      -0.30361815      -0.00931455      -0.18487225 </v>
   <v>      -0.52034836       0.05737896       0.42307730 </v>
   <v>       0.70392475      -0.26703267      -0.69160993 </v>
   <v>      -0.22174930      -0.17527873       0.59662990 </v>
   <v>       0.50821581      -0.18648298      -0.26965731 </v>
   <v>      -0.11745416       0.62825418      -0.04738670 </v>
   <v>       0.31067403      -0.34936422      -0.45457903 </v>
   <v>      -0.06558284      -0.28175339       0.81936201 </v>
   <v>       0.09327575       0.32888342      -0.08134515 </v>
  </varray>
  <varray name="stress" >
   <v>     -33.49385790       3.08853216       6.06201501 </v>
   <v>       3.08853221     -34.85165988      -3.25295379 </v>
   <v>       6.06201503      -3.25295401     -34.69025659 </v>
  </varray>
  <energy>
   <i name="e_fr_energy">   -331.10976308 </i>
   <i name="e_wo_entrp">   -331.10164826 </i>
   <i name="e_0_energy">     -0.02434445 </i>
  </energy>
  <time name="totalsc">  544.07  545.03</time>
 </calculation>
 <calculation>
  <scstep>
   <time name="dav">   22.87   22.90</time>
   <time name="total">   23.50   23.53</time>
   <energy>
    <i name="alphaZ">   1315.79321275 </i>
    <i name="ewald"> -10969.65189780 </i>
    <i name="hartreedc">  -2534.69386063 </i>
    <i name="XCdc">   -949.79258761 </i>
    <i name="pawpsdc">  19684.74945850 </i>
    <i name="pawaedc"> -18145.89646487 </i>
    <i name="eentropy">     -0.01674525 </i>
    <i name="bandstr">   -390.38563133 </i>
    <i name="atom">  11656.65998444 </i>
    <i name="e_fr_energy">   -333.23453180 </i>
    <i name="e_wo_entrp">   -333.21778655 </i>
    <i name="e_0_energy">   -333.22895005 </i>
   </energy>
  </scstep>
  <scstep>
   <time name="dav">   26.49   26.52</time>
   <time name="total">   27.11   27.14</time>
   <energy>
    <i name="e_fr_energy">   -333.74170351 </i>
    <i name="e_wo_entrp">   -333.73251563 </i>
    <i name="e_0_energy">   -333.73864088 </i>
   </energy>
  </scstep>
  <scstep>
   <time name="dav">   25.48   25.50</time>
   <time name="total">   26.10   26.14</time>
   <energy>
    <i name="e_fr_energy">   -332.10698200 </i>
    <i name="e_wo_entrp">   -332.10183457 </i>
    <i name="e_0_energy">   -332.10526619 </i>
   </energy>
  </scstep>
  <scstep>
   <time name="dav">   26.97   27.00</time>
   <time name="total">   27.59   27.62</time>
   <energy>
    <i name="e_fr_energy">   -331.95506946 </i>
    <i name="e_wo_entrp">   -331.93773141 </i>
    <i name="e_0_energy">   -331.94929011 </i>
   </energy>
  </scstep>
  <scstep>
   <time name="dav">   26.07   26.10</time>
   <time name="total">   26.69   26.73</time>
   <energy>
    <i name="e_fr_energy">   -331.45579851 </i>
    <i name="e_wo_entrp">   -331.44337602 </i>
    <i name="e_0_energy">   -331.45165768 </i>
   </energy>
  </scstep>
  <scstep>
   <time name="dav">   27.14   27.18</time>
   <time name="total">   27.76   27.81</time>
   <energy>
    <i name="e_fr_energy">   -331.25959930 </i>
    <i name="e_wo_entrp">   -331.23984514 </i>
    <i name="e_0_energy">   -331.25301458 </i>
   </energy>
  </scstep>
  <scstep>
   <time name="dav">   27.66   27.69</time>
   <time name="total">   28.28   28.32</time>
   <energy>
    <i name="e_fr_energy">   -331.28283980 </i>
    <i name="e_wo_entrp">   -331.26465530 </i>
    <i name="e_0_energy">   -331.27677830 </i>
   </energy>
  </scstep>
  <scstep>
   <time name="dav">   26.70   26.73</time>
   <time name="total">   27.32   27.53</time>
   <energy>
    <i name="e_fr_energy">   -331.26250424 </i>
    <i name="e_wo_entrp">   -331.24351529 </i>
    <i name="e_0_energy">   -331.25617459 </i>
   </energy>
  </scstep>
  <scstep>
   <time name="dav">   25.95   25.98</time>
   <time name="total">   26.57   26.61</time>
   <energy>
    <i name="e_fr_energy">   -331.26768359 </i>
    <i name="e_wo_entrp">   -331.24851265 </i>
    <i name="e_0_energy">   -331.26129327 </i>
   </energy>
  </scstep>
  <scstep>
   <time name="dav">   26.09   26.12</time>
   <time name="total">   26.71   26.74</time>
   <energy>
    <i name="e_fr_energy">   -331.27216619 </i>
    <i name="e_wo_entrp">   -331.25269187 </i>
    <i name="e_0_energy">   -331.26567475 </i>
   </energy>
  </scstep>
  <scstep>
   <time name="dav">   25.93   25.96</time>
   <time name="total">   26.55   26.59</time>
   <energy>
    <i name="e_fr_energy">   -331.27318127 </i>
    <i name="e_wo_entrp">   -331.25386698 </i>
    <i name="e_0_energy">   -331.26674317 </i>
   </energy>
  </scstep>
  <scstep>
   <time name="dav">   26.89   26.92</time>
   <time name="total">   27.50   27.54</time>
   <energy>
    <i name="e_fr_energy">   -331.27258990 </i>
    <i name="e_wo_entrp">   -331.25333082 </i>
    <i name="e_0_energy">   -331.26617021 </i>
   </energy>
  </scstep>
  <scstep>
   <time name="dav">   27.14   27.17</time>
   <time name="total">   27.76   27.79</time>
   <energy>
    <i name="e_fr_energy">   -331.27288433 </i>
    <i name="e_wo_entrp">   -331.25355800 </i>
    <i name="e_0_energy">   -331.26644222 </i>
   </energy>
  </scstep>
  <scstep>
   <time name="dav">   23.39   23.41</time>
   <time name="total">   23.44   23.47</time>
   <energy>
    <i name="alphaZ">   1315.79321275 </i>
    <i name="ewald"> -10969.65189780 </i>
    <i name="hartreedc">  -2452.70407216 </i>
    <i name="XCdc">   -951.87626001 </i>
    <i name="pawpsdc">  21413.81583042 </i>
    <i name="pawaedc"> -19876.12575438 </i>
    <i name="eentropy">     -0.01929038 </i>
    <i name="bandstr">   -467.16465860 </i>
    <i name="atom">  11656.65998444 </i>
    <i name="e_fr_energy">   -331.27290572 </i>
    <i name="e_wo_entrp">   -331.25361534 </i>
    <i name="e_0_energy">   -331.26647559 </i>
   </energy>
  </scstep>
  <structure>
   <crystal>
    <varray name="basis" >
     <v>      -3.15073946      -3.13352657      -3.13858247 </v>
     <v>       1.54603954       1.58250224      -7.83286494 </v>
     <v>       7.82261277      -7.81940336      -1.52946841 </v>
    </varray>
    <i name="volume">    461.99210949 </i>
    <varray name="rec_basis" >
     <v>      -0.13781343      -0.12751051      -0.05296283 </v>
     <v>       0.04274794       0.06357440      -0.10638551 </v>
     <v>       0.06387837      -0.06392250      -0.00030627 </v>
    </varray>
   </crystal>
   <varray name="positions" >
    <v>       0.96434309       0.93584122       0.40184307 </v>
    <v>       0.63324763       0.26525415       0.40152950 </v>
    <v>       0.49851041       0.00259946      -0.00113641 </v>
    <v>      -0.00085434       0.00092050       0.00090366 </v>
    <v>       0.09768287       0.20151720       0.79573568 </v>
    <v>       0.90098933       0.79868122       0.20176685 </v>
    <v>       0.80245683       0.59598437       0.39944496 </v>
    <v>       0.73363359       0.46634776       0.19968010 </v>
    <v>       0.66573854       0.33720806      -0.00117723 </v>
    <v>       0.36639708       0.73403197       0.60045763 </v>
    <v>       0.13328291       0.26841325       0.40059756 </v>
    <v>       0.83429183       0.66343510       0.00256812 </v>
    <v>       0.93125207       0.87255344       0.79537997 </v>
    <v>       0.56731979       0.13306275       0.19865526 </v>
    <v>       0.40231901       0.79638956       0.19911558 </v>
    <v>       0.43917744       0.86145320       0.79673480 </v>
    <v>       0.30036419       0.60128452       0.40236787 </v>
    <v>       0.86122797       0.73230558       0.59895643 </v>
    <v>       0.46774335       0.93217275       0.40264646 </v>
    <v>       0.16881692       0.33441925       0.00198819 </v>
    <v>       0.26917870       0.53362488       0.79910984 </v>
    <v>       0.20199655       0.39699157       0.59825260 </v>
    <v>       0.06541217       0.13743149       0.20293678 </v>
    <v>       0.76767636       0.52934841       0.79985944 </v>
    <v>       0.69847724       0.40182008       0.60210120 </v>
    <v>       0.59708870       0.20190227       0.79774452 </v>
    <v>       0.53455654       0.06852797       0.60199636 </v>
    <v>       0.33340230       0.66155180       0.00065383 </v>
    <v>       0.23093760       0.46825956       0.19928738 </v>
   </varray>
  </structure>
  <varray name="forces" >
   <v>       0.62326994      -0.25394923      -0.37641911 </v>
   <v>       0.05365101      -0.19526810       0.05336837 </v>
   <v>      -0.12741052       0.26249956      -0.01164481 </v>
   <v>      -0.00773053       0.06502210      -0.13649866 </v>
   <v>      -0.57789223       0.61973998       0.35493700 </v>
   <v>       0.18075414      -0.16429647      -0.03384140 </v>
   <v>      -0.03551711      -0.14842131       0.06807421 </v>
   <v>       0.03712694      -0.23051564       0.20669729 </v>
   <v>      -0.09907452       0.06549091      -0.11611813 </v>
   <v>       0.24287468       0.20296140      -0.16219987 </v>
   <v>       0.25342056      -0.27367176       0.06347770 </v>
   <v>       0.00130601       0.02745915      -0.10377874 </v>
   <v>      -0.63351353       0.63516706      -0.44808332 </v>
   <v>      -0.04366818      -0.04918982       0.12105442 </v>
   <v>       0.03174222      -0.07869826      -0.03767459 </v>
   <v>      -0.24771036       0.06084716       0.27164315 </v>
   <v>       0.28588982      -0.33167244      -0.12375757 </v>
   <v>      -0.06838983       0.34251761       0.40762224 </v>
   <v>       0.26569668      -0.33398233       0.01396098 </v>
   <v>       0.00765396      -0.24046685      -0.10794789 </v>
   <v>      -0.16009670       0.12179001       0.03561130 </v>
   <v>      -0.22566333       0.20594035       0.30776478 </v>
   <v>       0.47429712      -0.24226524      -0.46269606 </v>
   <v>      -0.21384872      -0.12276329       0.08107153 </v>
   <v>       0.01650810      -0.19628732       0.07873453 </v>
   <v>       0.04509798       0.33746440      -0.08149749 </v>
   <v>       0.01280986      -0.13263690      -0.15454770 </v>
   <v>      -0.16622483       0.11833947       0.28364131 </v>
   <v>       0.07464135      -0.07115421       0.00904650 </v>
  </varray>
  <varray name="stress" >
   <v>      82.27928009       1.93802300       3.22307328 </v>
   <v>       1.93802306      83.13431015      -1.97671088 </v>
   <v>       3.22307325      -1.97671091      85.56815327 </v>
  </varray>
  <energy>
   <i name="e_fr_energy">   -331.27290572 </i>
   <i name="e_wo_entrp">   -331.26647559 </i>
   <i name="e_0_energy">     -0.01929038 </i>
  </energy>
  <time name="totalsc">  390.97  391.92</time>
 </calculation>
 <calculation>
  <scstep>
   <time name="dav">   22.54   22.56</time>
   <time name="total">   23.15   23.33</time>
   <energy>
    <i name="alphaZ">   1286.97615657 </i>
    <i name="ewald"> -10869.23154408 </i>
    <i name="hartreedc">  -2453.63402280 </i>
    <i name="XCdc">   -954.23558067 </i>
    <i name="pawpsdc">  21413.43796577 </i>
    <i name="pawaedc"> -19875.72533083 </i>
    <i name="eentropy">     -0.02178617 </i>
    <i name="bandstr">   -536.03355618 </i>
    <i name="atom">  11656.65998444 </i>
    <i name="e_fr_energy">   -331.80771395 </i>
    <i name="e_wo_entrp">   -331.78592778 </i>
    <i name="e_0_energy">   -331.80045189 </i>
   </energy>
  </scstep>
  <scstep>
   <time name="dav">   28.96   29.00</time>
   <time name="total">   29.58   29.63</time>
   <energy>
    <i name="e_fr_energy">   -331.89870908 </i>
    <i name="e_wo_entrp">   -331.88358752 </i>
    <i name="e_0_energy">   -331.89366856 </i>
   </energy>
  </scstep>
  <scstep>
   <time name="dav">   26.30   26.33</time>
   <time name="total">   26.92   26.97</time>
   <energy>
    <i name="e_fr_energy">   -331.69541956 </i>
    <i name="e_wo_entrp">   -331.67351236 </i>
    <i name="e_0_energy">   -331.68811716 </i>
   </energy>
  </scstep>
  <scstep>
   <time name="dav">   28.12   28.16</time>
   <time name="total">   28.74   28.77</time>
   <energy>
    <i name="e_fr_energy">   -331.60610019 </i>
    <i name="e_wo_entrp">   -331.59051195 </i>
    <i name="e_0_energy">   -331.60090411 </i>
   </energy>
  </scstep>
  <scstep>
   <time name="dav">   25.91   25.94</time>
   <time name="total">   26.52   26.56</time>
   <energy>
    <i name="e_fr_energy">   -331.50211069 </i>
    <i name="e_wo_entrp">   -331.47798179 </i>
    <i name="e_0_energy">   -331.49406772 </i>
   </energy>
  </scstep>
  <scstep>
   <time name="dav">   26.21   26.24</time>
   <time name="total">   26.83   26.87</time>
   <energy>
    <i name="e_fr_energy">   -331.47075623 </i>
    <i name="e_wo_entrp">   -331.45012912 </i>
    <i name="e_0_energy">   -331.46388053 </i>
   </energy>
  </scstep>
  <scstep>
   <time name="dav">   27.46   27.49</time>
   <time name="total">   28.08   28.11</time>
   <energy>
    <i name="e_fr_energy">   -331.46943302 </i>
    <i name="e_wo_entrp">   -331.44785846 </i>
    <i name="e_0_energy">   -331.46224150 </i>
   </energy>
  </scstep>
  <scstep>
   <time name="dav">   26.56   26.59</time>
   <time name="total">   27.19   27.22</time>
   <energy>
    <i name="e_fr_energy">   -331.46623380 </i>
    <i name="e_wo_entrp">   -331.44428962 </i>
    <i name="e_0_energy">   -331.45891907 </i>
   </energy>
  </scstep>
  <scstep>
   <time name="dav">   25.17   25.20</time>
   <time name="total">   25.79   25.83</time>
   <energy>
    <i name="e_fr_energy">   -331.46692627 </i>
    <i name="e_wo_entrp">   -331.44509771 </i>
    <i name="e_0_energy">   -331.45965008 </i>
   </energy>
  </scstep>
  <scstep>
   <time name="dav">   25.87   25.90</time>
   <time name="total">   26.49   26.52</time>
   <energy>
    <i name="e_fr_energy">   -331.46753994 </i>
    <i name="e_wo_entrp">   -331.44571547 </i>
    <i name="e_0_energy">   -331.46026512 </i>
   </energy>
  </scstep>
  <scstep>
   <time name="dav">   26.41   26.44</time>
   <time name="total">   27.03   27.07</time>
   <energy>
    <i name="e_fr_energy">   -331.46787543 </i>
    <i name="e_wo_entrp">   -331.44587388 </i>
    <i name="e_0_energy">   -331.46054158 </i>
   </energy>
  </scstep>
  <scstep>
   <time name="dav">   26.29   26.32</time>
   <time name="total">   26.91   26.95</time>
   <energy>
    <i name="e_fr_energy">   -331.46782850 </i>
    <i name="e_wo_entrp">   -331.44588069 </i>
    <i name="e_0_energy">   -331.46051256 </i>
   </energy>
  </scstep>
  <scstep>
   <time name="dav">   23.84   23.86</time>
   <time name="total">   23.87   23.89</time>
   <energy>
    <i name="alphaZ">   1286.97615657 </i>
    <i name="ewald"> -10869.23154408 </i>
    <i name="hartreedc">  -2487.71575257 </i>
    <i name="XCdc">   -953.36856905 </i>
    <i name="pawpsdc">  20647.31462568 </i>
    <i name="pawaedc"> -19108.87551169 </i>
    <i name="eentropy">     -0.02193656 </i>
    <i name="bandstr">   -503.20529732 </i>
    <i name="atom">  11656.65998444 </i>
    <i name="e_fr_energy">   -331.46784458 </i>
    <i name="e_wo_entrp">   -331.44590802 </i>
    <i name="e_0_energy">   -331.46053240 </i>
   </energy>
  </scstep>
  <structure>
   <crystal>
    <varray name="basis" >
     <v>      -3.16719229      -3.15719276      -3.16012990 </v>
     <v>       1.56655729       1.58773965      -7.89242915 </v>
     <v>       7.88647333      -7.88460889      -1.55693058 </v>
    </varray>
    <i name="volume">    472.33670873 </i>
    <varray name="rec_basis" >
     <v>      -0.13698007      -0.12661394      -0.05266023 </v>
     <v>       0.04234449       0.06320360      -0.10558398 </v>
     <v>       0.06337721      -0.06340258      -0.00017520 </v>
    </varray>
   </crystal>
   <varray name="positions" >
    <v>       0.96533083       0.93476874       0.40105408 </v>
    <v>       0.63328213       0.26585445       0.40087735 </v>
    <v>       0.49914621       0.00149233      -0.00065268 </v>
    <v>      -0.00049138       0.00052651       0.00051699 </v>
    <v>       0.09867344       0.20087656       0.79755750 </v>
    <v>       0.90056621       0.79924108       0.20101268 </v>
    <v>       0.80141063       0.59769813       0.39968498 </v>
    <v>       0.73350603       0.46648427       0.19981698 </v>
    <v>       0.66613592       0.33555690      -0.00067759 </v>
    <v>       0.36651159       0.73373325       0.60026151 </v>
    <v>       0.13330438       0.26766724       0.40034050 </v>
    <v>       0.83388040       0.66480978       0.00147346 </v>
    <v>       0.93214411       0.87004919       0.79734934 </v>
    <v>       0.56704310       0.13318016       0.19922986 </v>
    <v>       0.40133191       0.79793096       0.19949602 </v>
    <v>       0.43669219       0.86368177       0.79813254 </v>
    <v>       0.30020737       0.60073293       0.40135457 </v>
    <v>       0.86354277       0.73274606       0.59940594 </v>
    <v>       0.46728227       0.93266379       0.40151622 </v>
    <v>       0.16790045       0.33395281       0.00113650 </v>
    <v>       0.26811081       0.53350163       0.79948876 </v>
    <v>       0.20114769       0.39827747       0.59900136 </v>
    <v>       0.06594451       0.13567884       0.20167834 </v>
    <v>       0.76724552       0.53104856       0.79992300 </v>
    <v>       0.69912375       0.40104057       0.60120221 </v>
    <v>       0.59833027       0.20109438       0.79870781 </v>
    <v>       0.53403477       0.06773080       0.60114085 </v>
    <v>       0.33337058       0.66373289       0.00037949 </v>
    <v>       0.23195820       0.46758129       0.19959144 </v>
   </varray>
  </structure>
  <varray name="forces" >
   <v>       0.59672892      -0.17786946      -0.35904270 </v>
   <v>       0.13052800      -0.24249217       0.11421399 </v>
   <v>      -0.07242682       0.31698651      -0.14207432 </v>
   <v>       0.10110574       0.01459190      -0.13394254 </v>
   <v>      -0.55095071       0.76883308       0.21930556 </v>
   <v>       0.18100281      -0.27043167       0.03217172 </v>
   <v>      -0.19950545      -0.17786704       0.27448555 </v>
   <v>      -0.02168654      -0.11198716       0.12535982 </v>
   <v>      -0.05058831       0.22109655      -0.32701645 </v>
   <v>       0.18814140       0.09876072      -0.15238169 </v>
   <v>       0.22303357      -0.16560540      -0.10908113 </v>
   <v>       0.11270763      -0.27360036       0.13463426 </v>
   <v>      -0.52507700       0.85408095      -0.55770245 </v>
   <v>      -0.15117591       0.04158159       0.08778618 </v>
   <v>      -0.16486097      -0.11358593       0.19642446 </v>
   <v>      -0.65127628       0.03001305       0.40354983 </v>
   <v>       0.34334169      -0.35735917      -0.19964431 </v>
   <v>       0.03132055       0.42418933       0.47988028 </v>
   <v>       0.29418943      -0.43854461       0.02270956 </v>
   <v>       0.11347941      -0.33920281      -0.24085234 </v>
   <v>      -0.23163088       0.05812076      -0.05776858 </v>
   <v>      -0.37102466       0.14396101       0.36612546 </v>
   <v>       0.58449096      -0.24805252      -0.57815181 </v>
   <v>      -0.22692805      -0.13558374       0.33790437 </v>
   <v>       0.25051817      -0.20997285      -0.08250347 </v>
   <v>      -0.05291843       0.48402452      -0.06520099 </v>
   <v>       0.16374655      -0.24496920      -0.30252903 </v>
   <v>      -0.12062145      -0.08244105       0.54565236 </v>
   <v>       0.07633663       0.13332519      -0.03231158 </v>
  </varray>
  <varray name="stress" >
   <v>      30.51650944       2.61106726       4.73560415 </v>
   <v>       2.61106722      30.17656442      -2.45780539 </v>
   <v>       4.73560407      -2.45780544      31.68855631 </v>
  </varray>
  <energy>
   <i name="e_fr_energy">   -331.46784458 </i>
   <i name="e_wo_entrp">   -331.46053240 </i>
   <i name="e_0_energy">     -0.02193656 </i>
  </energy>
  <time name="totalsc">  364.98  365.76</time>
 </calculation>
 <calculation>
  <scstep>
   <time name="dav">   18.90   18.92</time>
   <time name="total">   19.54   19.56</time>
   <energy>
    <i name="alphaZ">   1274.00745551 </i>
    <i name="ewald"> -10885.80856901 </i>
    <i name="hartreedc">  -2428.11036967 </i>
    <i name="XCdc">   -954.65824437 </i>
    <i name="pawpsdc">  20647.13156835 </i>
    <i name="pawaedc"> -19108.80166190 </i>
    <i name="eentropy">     -0.01647330 </i>
    <i name="bandstr">   -531.97012128 </i>
    <i name="atom">  11656.65998444 </i>
    <i name="e_fr_energy">   -331.56643125 </i>
    <i name="e_wo_entrp">   -331.54995794 </i>
    <i name="e_0_energy">   -331.56094014 </i>
   </energy>
  </scstep>
  <scstep>
   <time name="dav">   26.40   26.43</time>
   <time name="total">   27.02   27.05</time>
   <energy>
    <i name="e_fr_energy">   -332.19037693 </i>
    <i name="e_wo_entrp">   -332.17328303 </i>
    <i name="e_0_energy">   -332.18467896 </i>
   </energy>
  </scstep>
  <scstep>
   <time name="dav">   25.84   25.88</time>
   <time name="total">   26.46   26.52</time>
   <energy>
    <i name="e_fr_energy">   -332.01401689 </i>
    <i name="e_wo_entrp">   -332.00280756 </i>
    <i name="e_0_energy">   -332.01028044 </i>
   </energy>
  </scstep>
  <scstep>
   <time name="dav">   25.95   25.99</time>
   <time name="total">   26.57   26.61</time>
   <energy>
    <i name="e_fr_energy">   -331.92400192 </i>
    <i name="e_wo_entrp">   -331.90456036 </i>
    <i name="e_0_energy">   -331.91752140 </i>
   </energy>
  </scstep>
  <scstep>
   <time name="dav">   25.96   25.98</time>
   <time name="total">   26.58   26.61</time>
   <energy>
    <i name="e_fr_energy">   -331.89863761 </i>
    <i name="e_wo_entrp">   -331.88073143 </i>
    <i name="e_0_energy">   -331.89266889 </i>
   </energy>
  </scstep>
  <scstep>
   <time name="dav">   26.40   26.43</time>
   <time name="total">   27.03   27.06</time>
   <energy>
    <i name="e_fr_energy">   -331.90445633 </i>
    <i name="e_wo_entrp">   -331.88634638 </i>
    <i name="e_0_energy">   -331.89841968 </i>
   </energy>
  </scstep>
  <scstep>
   <time name="dav">   26.58   26.61</time>
   <time name="total">   27.22   27.31</time>
   <energy>
    <i name="e_fr_energy">   -331.88833879 </i>
    <i name="e_wo_entrp">   -331.86940434 </i>
    <i name="e_0_energy">   -331.88202731 </i>
   </energy>
  </scstep>
  <scstep>
   <time name="dav">   26.70   26.73</time>
   <time name="total">   27.32   27.35</time>
   <energy>
    <i name="e_fr_energy">   -331.88586685 </i>
    <i name="e_wo_entrp">   -331.86735369 </i>
    <i name="e_0_energy">   -331.87969580 </i>
   </energy>
  </scstep>
  <scstep>
   <time name="dav">   25.04   25.08</time>
   <time name="total">   25.66   25.71</time>
   <energy>
    <i name="e_fr_energy">   -331.88515822 </i>
    <i name="e_wo_entrp">   -331.86653414 </i>
    <i name="e_0_energy">   -331.87895020 </i>
   </energy>
  </scstep>
  <scstep>
   <time name="dav">   24.49   24.52</time>
   <time name="total">   25.12   25.15</time>
   <energy>
    <i name="e_fr_energy">   -331.88507100 </i>
    <i name="e_wo_entrp">   -331.86662874 </i>
    <i name="e_0_energy">   -331.87892358 </i>
   </energy>
  </scstep>
  <scstep>
   <time name="dav">   23.96   23.99</time>
   <time name="total">   24.58   24.62</time>
   <energy>
    <i name="e_fr_energy">   -331.88519897 </i>
    <i name="e_wo_entrp">   -331.86658773 </i>
    <i name="e_0_energy">   -331.87899522 </i>
   </energy>
  </scstep>
  <scstep>
   <time name="dav">   23.81   23.84</time>
   <time name="total">   24.44   24.47</time>
   <energy>
    <i name="e_fr_energy">   -331.88505248 </i>
    <i name="e_wo_entrp">   -331.86657336 </i>
    <i name="e_0_energy">   -331.87889277 </i>
   </energy>
  </scstep>
  <scstep>
   <time name="dav">   18.30   18.32</time>
   <time name="total">   18.35   18.38</time>
   <energy>
    <i name="alphaZ">   1274.00745551 </i>
    <i name="ewald"> -10885.80856901 </i>
    <i name="hartreedc">  -2440.33571829 </i>
    <i name="XCdc">   -954.24184974 </i>
    <i name="pawpsdc">  20294.36813272 </i>
    <i name="pawaedc"> -18756.52504994 </i>
    <i name="eentropy">     -0.01849935 </i>
    <i name="bandstr">   -519.99087904 </i>
    <i name="atom">  11656.65998444 </i>
    <i name="e_fr_energy">   -331.88499269 </i>
    <i name="e_wo_entrp">   -331.86649334 </i>
    <i name="e_0_energy">   -331.87882624 </i>
   </energy>
  </scstep>
  <structure>
   <crystal>
    <varray name="basis" >
     <v>      -3.19594260      -3.16671074      -3.17719618 </v>
     <v>       1.54636574       1.61068984      -7.91871004 </v>
     <v>       7.89316591      -7.88990895      -1.51874904 </v>
    </varray>
    <i name="volume">    477.14483881 </i>
    <varray name="rec_basis" >
     <v>      -0.13606798      -0.12607315      -0.05221502 </v>
     <v>       0.04245744       0.06273142      -0.10523234 </v>
     <v>       0.06328003      -0.06333685      -0.00052558 </v>
    </varray>
   </crystal>
   <varray name="positions" >
    <v>       0.96240057       0.93828194       0.40408760 </v>
    <v>       0.63351590       0.26418188       0.40268832 </v>
    <v>       0.49739343       0.00423328      -0.00228930 </v>
    <v>      -0.00131509       0.00182788       0.00124107 </v>
    <v>       0.09602522       0.20179306       0.79177418 </v>
    <v>       0.90142955       0.79799113       0.20315938 </v>
    <v>       0.80421361       0.59349063       0.39931907 </v>
    <v>       0.73410372       0.46543715       0.19987470 </v>
    <v>       0.66546639       0.33959017      -0.00202795 </v>
    <v>       0.36512222       0.73536149       0.60074745 </v>
    <v>       0.13311913       0.26905970       0.40168261 </v>
    <v>       0.83490680       0.66193730       0.00388999 </v>
    <v>       0.93071482       0.87700246       0.79122447 </v>
    <v>       0.56784509       0.13249460       0.19798719 </v>
    <v>       0.40369879       0.79451119       0.19887235 </v>
    <v>       0.44253517       0.85800722       0.79455740 </v>
    <v>       0.30076706       0.60197722       0.40448406 </v>
    <v>       0.85713692       0.73125441       0.59780283 </v>
    <v>       0.46845188       0.93130355       0.40487939 </v>
    <v>       0.17072807       0.33491372       0.00341258 </v>
    <v>       0.27061523       0.53365978       0.79824633 </v>
    <v>       0.20279063       0.39476247       0.59669521 </v>
    <v>       0.06450898       0.14081448       0.20546819 </v>
    <v>       0.76905104       0.52664558       0.79960313 </v>
    <v>       0.69814916       0.40229261       0.60355883 </v>
    <v>       0.59465203       0.20358439       0.79606936 </v>
    <v>       0.53571394       0.06971733       0.60330768 </v>
    <v>       0.33333748       0.65813137       0.00063275 </v>
    <v>       0.22958893       0.46907534       0.19905113 </v>
   </varray>
  </structure>
  <varray name="forces" >
   <v>       0.39543016      -0.19227015      -0.13709851 </v>
   <v>       0.06952347       0.02865333      -0.10232129 </v>
   <v>      -0.22463076       0.07388483       0.13934652 </v>
   <v>      -0.13690989       0.12124016       0.04263377 </v>
   <v>      -0.34498520       0.23849159       0.39984592 </v>
   <v>       0.09243315      -0.04415391      -0.06066928 </v>
   <v>       0.04986908      -0.08073827      -0.04177671 </v>
   <v>       0.17268797      -0.20089468       0.12325270 </v>
   <v>      -0.10762305      -0.06955662       0.08821313 </v>
   <v>       0.12266627       0.09994041       0.06619615 </v>
   <v>       0.11685238      -0.10996363       0.00894201 </v>
   <v>      -0.05321138       0.39289846      -0.34028771 </v>
   <v>      -0.36132906       0.22264718      -0.18819718 </v>
   <v>      -0.02838673      -0.09375765       0.05641984 </v>
   <v>       0.02189842       0.00623720      -0.08740747 </v>
   <v>       0.15463755      -0.06590237       0.04224901 </v>
   <v>       0.05359422      -0.10036233      -0.06995903 </v>
   <v>      -0.08986754       0.17669382       0.34557788 </v>
   <v>       0.09191767      -0.20082135      -0.03849834 </v>
   <v>      -0.11333137      -0.06620902       0.03685716 </v>
   <v>      -0.02955728       0.12456038       0.04734396 </v>
   <v>      -0.11661642       0.25573856       0.15602556 </v>
   <v>       0.33084180      -0.25223140      -0.26125434 </v>
   <v>      -0.08641388      -0.08317344      -0.13960560 </v>
   <v>      -0.02405223       0.00343543       0.13060191 </v>
   <v>       0.09618658       0.08377831      -0.01178201 </v>
   <v>      -0.09685297      -0.12925750      -0.01797414 </v>
   <v>      -0.08044183       0.15445914      -0.11956169 </v>
   <v>       0.12567087      -0.29336645      -0.06711222 </v>
  </varray>
  <varray name="stress" >
   <v>       7.66950249       2.18899688       1.81960474 </v>
   <v>       2.18899685       8.11403861      -0.50549594 </v>
   <v>       1.81960483      -0.50549588      11.76486388 </v>
  </varray>
  <energy>
   <i name="e_fr_energy">   -331.88499269 </i>
   <i name="e_wo_entrp">   -331.87882624 </i>
   <i name="e_0_energy">     -0.01849935 </i>
  </energy>
  <time name="totalsc">  344.23  344.76</time>
 </calculation>
 <calculation>
  <scstep>
   <time name="dav">   19.23   19.25</time>
   <time name="total">   19.85   19.87</time>
   <energy>
    <i name="alphaZ">   1270.34462232 </i>
    <i name="ewald"> -10888.22462618 </i>
    <i name="hartreedc">  -2425.35740157 </i>
    <i name="XCdc">   -954.60511942 </i>
    <i name="pawpsdc">  20293.86369244 </i>
    <i name="pawaedc"> -18756.03103472 </i>
    <i name="eentropy">     -0.01709219 </i>
    <i name="bandstr">   -528.51937220 </i>
    <i name="atom">  11656.65998444 </i>
    <i name="e_fr_energy">   -331.88634710 </i>
    <i name="e_wo_entrp">   -331.86925490 </i>
    <i name="e_0_energy">   -331.88064970 </i>
   </energy>
  </scstep>
  <scstep>
   <time name="dav">   26.52   26.55</time>
   <time name="total">   27.15   27.18</time>
   <energy>
    <i name="e_fr_energy">   -331.93098940 </i>
    <i name="e_wo_entrp">   -331.91256334 </i>
    <i name="e_0_energy">   -331.92484738 </i>
   </energy>
  </scstep>
  <scstep>
   <time name="dav">   25.58   25.63</time>
   <time name="total">   26.20   26.25</time>
   <energy>
    <i name="e_fr_energy">   -331.91672812 </i>
    <i name="e_wo_entrp">   -331.90088659 </i>
    <i name="e_0_energy">   -331.91144761 </i>
   </energy>
  </scstep>
  <scstep>
   <time name="dav">   26.27   26.32</time>
   <time name="total">   26.89   26.94</time>
   <energy>
    <i name="e_fr_energy">   -331.91050134 </i>
    <i name="e_wo_entrp">   -331.89267512 </i>
    <i name="e_0_energy">   -331.90455927 </i>
   </energy>
  </scstep>
  <scstep>
   <time name="dav">   26.11   26.15</time>
   <time name="total">   26.73   26.77</time>
   <energy>
    <i name="e_fr_energy">   -331.90849163 </i>
    <i name="e_wo_entrp">   -331.89116841 </i>
    <i name="e_0_energy">   -331.90271722 </i>
   </energy>
  </scstep>
  <scstep>
   <time name="dav">   26.16   26.20</time>
   <time name="total">   26.79   27.54</time>
   <energy>
    <i name="e_fr_energy">   -331.90887337 </i>
    <i name="e_wo_entrp">   -331.89158321 </i>
    <i name="e_0_energy">   -331.90310998 </i>
   </energy>
  </scstep>
  <scstep>
   <time name="dav">   26.21   26.25</time>
   <time name="total">   26.83   26.88</time>
   <energy>
    <i name="e_fr_energy">   -331.90762009 </i>
    <i name="e_wo_entrp">   -331.89010055 </i>
    <i name="e_0_energy">   -331.90178024 </i>
   </energy>
  </scstep>
  <scstep>
   <time name="dav">   24.53   24.58</time>
   <time name="total">   25.16   25.20</time>
   <energy>
    <i name="e_fr_energy">   -331.90744429 </i>
    <i name="e_wo_entrp">   -331.89000561 </i>
    <i name="e_0_energy">   -331.90163139 </i>
   </energy>
  </scstep>
  <scstep>
   <time name="dav">   21.84   21.87</time>
   <time name="total">   21.88   21.91</time>
   <energy>
    <i name="alphaZ">   1270.34462232 </i>
    <i name="ewald"> -10888.22462618 </i>
    <i name="hartreedc">  -2429.27830841 </i>
    <i name="XCdc">   -954.47875072 </i>
    <i name="pawpsdc">  20209.76776146 </i>
    <i name="pawaedc"> -18671.87418491 </i>
    <i name="eentropy">     -0.01747608 </i>
    <i name="bandstr">   -524.80642476 </i>
    <i name="atom">  11656.65998444 </i>
    <i name="e_fr_energy">   -331.90740285 </i>
    <i name="e_wo_entrp">   -331.88992677 </i>
    <i name="e_0_energy">   -331.90157749 </i>
   </energy>
  </scstep>
  <structure>
   <crystal>
    <varray name="basis" >
     <v>      -3.20415508      -3.16942954      -3.18207114 </v>
     <v>       1.54059805       1.61724553      -7.92621713 </v>
     <v>       7.89507764      -7.89142290      -1.50784255 </v>
    </varray>
    <i name="volume">    478.52060876 </i>
    <varray name="rec_basis" >
     <v>      -0.13580958      -0.12591959      -0.05208927 </v>
     <v>       0.04248943       0.06259722      -0.10513285 </v>
     <v>       0.06325282      -0.06331832      -0.00062503 </v>
    </varray>
   </crystal>
   <varray name="positions" >
    <v>       0.96156928       0.93928562       0.40495520 </v>
    <v>       0.63358401       0.26370782       0.40320401 </v>
    <v>       0.49689375       0.00501170      -0.00275493 </v>
    <v>      -0.00154896       0.00219920       0.00144848 </v>
    <v>       0.09526928       0.20204725       0.79012320 </v>
    <v>       0.90167649       0.79763778       0.20377145 </v>
    <v>       0.80501071       0.59229238       0.39921233 </v>
    <v>       0.73427383       0.46513912       0.19989057 </v>
    <v>       0.66527401       0.34073684      -0.00241050 </v>
    <v>       0.36472747       0.73582559       0.60088694 </v>
    <v>       0.13306690       0.26945768       0.40206672 </v>
    <v>       0.83520078       0.66112234       0.00457788 </v>
    <v>       0.93030265       0.87897488       0.78948111 </v>
    <v>       0.56807224       0.13229799       0.19763223 </v>
    <v>       0.40437163       0.79353690       0.19869250 </v>
    <v>       0.44419389       0.85638761       0.79353453 </v>
    <v>       0.30092753       0.60233510       0.40537849 </v>
    <v>       0.85531758       0.73082785       0.59734187 </v>
    <v>       0.46878660       0.93092021       0.40583871 </v>
    <v>       0.17153204       0.33518994       0.00406397 </v>
    <v>       0.27132547       0.53370338       0.79789268 </v>
    <v>       0.20325688       0.39375911       0.59603478 </v>
    <v>       0.06410200       0.14228095       0.20655345 </v>
    <v>       0.76956503       0.52539172       0.79950904 </v>
    <v>       0.69787351       0.40265178       0.60423214 </v>
    <v>       0.59360510       0.20429019       0.79531691 </v>
    <v>       0.53619140       0.07028540       0.60392829 </v>
    <v>       0.33333020       0.65653696       0.00070068 </v>
    <v>       0.22891535       0.46950004       0.19889725 </v>
   </varray>
  </structure>
  <varray name="forces" >
   <v>       0.33902152      -0.19510017      -0.06885196 </v>
   <v>       0.05035272       0.10653251      -0.16502886 </v>
   <v>      -0.26814126       0.00575826       0.21023254 </v>
   <v>      -0.18550709       0.14762336       0.08955058 </v>
   <v>      -0.29499579       0.08971155       0.44290983 </v>
   <v>       0.06469520       0.02185976      -0.08411223 </v>
   <v>       0.12230193      -0.04855846      -0.13365712 </v>
   <v>       0.21935602      -0.22118855       0.12029766 </v>
   <v>      -0.12211103      -0.15103277       0.21173020 </v>
   <v>       0.08531930       0.09688613       0.13252046 </v>
   <v>       0.08215219      -0.09894433       0.04994788 </v>
   <v>      -0.07934554       0.52828947      -0.44304168 </v>
   <v>      -0.30882711       0.06720344      -0.08752069 </v>
   <v>       0.00701675      -0.13684274       0.03774005 </v>
   <v>       0.09885726       0.02933337      -0.16472557 </v>
   <v>       0.36025769      -0.10814770      -0.08379907 </v>
   <v>      -0.02450632      -0.02261251      -0.01956858 </v>
   <v>      -0.12949291       0.11444055       0.30612810 </v>
   <v>       0.04264301      -0.13580917      -0.05789983 </v>
   <v>      -0.17447769       0.01459888       0.11974248 </v>
   <v>       0.02121577       0.15160579       0.07969738 </v>
   <v>      -0.03696158       0.29150975       0.08505656 </v>
   <v>       0.26329888      -0.25372911      -0.18985453 </v>
   <v>      -0.04646851      -0.06647907      -0.27414079 </v>
   <v>      -0.11312249       0.07613003       0.19919385 </v>
   <v>       0.14215039      -0.03344790      -0.00413189 </v>
   <v>      -0.18352716      -0.07723759       0.06929314 </v>
   <v>      -0.06715526       0.21620354      -0.30622182 </v>
   <v>       0.13600111      -0.40855632      -0.07148610 </v>
  </varray>
  <varray name="stress" >
   <v>       2.29568354       2.15435690       0.83915638 </v>
   <v>       2.15435694       2.98215934       0.22927847 </v>
   <v>       0.83915632       0.22927846       7.10123968 </v>
  </varray>
  <energy>
   <i name="e_fr_energy">   -331.90740285 </i>
   <i name="e_wo_entrp">   -331.90157749 </i>
   <i name="e_0_energy">     -0.01747608 </i>
  </energy>
  <time name="totalsc">  245.27  246.37</time>
 </calculation>
 <calculation>
  <scstep>
   <time name="dav">   18.58   18.60</time>
   <time name="total">   19.20   19.23</time>
   <energy>
    <i name="alphaZ">   1262.18780556 </i>
    <i name="ewald"> -10869.48186793 </i>
    <i name="hartreedc">  -2419.77972201 </i>
    <i name="XCdc">   -955.19289495 </i>
    <i name="pawpsdc">  20208.84352625 </i>
    <i name="pawaedc"> -18671.04952994 </i>
    <i name="eentropy">     -0.01517654 </i>
    <i name="bandstr">   -544.11527937 </i>
    <i name="atom">  11656.65998444 </i>
    <i name="e_fr_energy">   -331.94315449 </i>
    <i name="e_wo_entrp">   -331.92797795 </i>
    <i name="e_0_energy">   -331.93809564 </i>
   </energy>
  </scstep>
  <scstep>
   <time name="dav">   25.41   25.44</time>
   <time name="total">   26.03   26.06</time>
   <energy>
    <i name="e_fr_energy">   -332.09511621 </i>
    <i name="e_wo_entrp">   -332.07678767 </i>
    <i name="e_0_energy">   -332.08900670 </i>
   </energy>
  </scstep>
  <scstep>
   <time name="dav">   25.46   25.49</time>
   <time name="total">   26.08   26.12</time>
   <energy>
    <i name="e_fr_energy">   -332.01950112 </i>
    <i name="e_wo_entrp">   -332.00402188 </i>
    <i name="e_0_energy">   -332.01434137 </i>
   </energy>
  </scstep>
  <scstep>
   <time name="dav">   25.66   25.69</time>
   <time name="total">   26.28   26.31</time>
   <energy>
    <i name="e_fr_energy">   -332.00718699 </i>
    <i name="e_wo_entrp">   -331.99018734 </i>
    <i name="e_0_energy">   -332.00152044 </i>
   </energy>
  </scstep>
  <scstep>
   <time name="dav">   25.62   25.66</time>
   <time name="total">   26.25   26.29</time>
   <energy>
    <i name="e_fr_energy">   -331.99758720 </i>
    <i name="e_wo_entrp">   -331.98091817 </i>
    <i name="e_0_energy">   -331.99203086 </i>
   </energy>
  </scstep>
  <scstep>
   <time name="dav">   26.30   26.33</time>
   <time name="total">   26.94   26.98</time>
   <energy>
    <i name="e_fr_energy">   -331.99643860 </i>
    <i name="e_wo_entrp">   -331.97880222 </i>
    <i name="e_0_energy">   -331.99055981 </i>
   </energy>
  </scstep>
  <scstep>
   <time name="dav">   26.65   26.68</time>
   <time name="total">   27.27   27.30</time>
   <energy>
    <i name="e_fr_energy">   -331.99479465 </i>
    <i name="e_wo_entrp">   -331.97803593 </i>
    <i name="e_0_energy">   -331.98920841 </i>
   </energy>
  </scstep>
  <scstep>
   <time name="dav">   24.15   24.17</time>
   <time name="total">   24.77   24.80</time>
   <energy>
    <i name="e_fr_energy">   -331.99429950 </i>
    <i name="e_wo_entrp">   -331.97713100 </i>
    <i name="e_0_energy">   -331.98857667 </i>
   </energy>
  </scstep>
  <scstep>
   <time name="dav">   23.08   23.11</time>
   <time name="total">   23.70   23.75</time>
   <energy>
    <i name="e_fr_energy">   -331.99434929 </i>
    <i name="e_wo_entrp">   -331.97731115 </i>
    <i name="e_0_energy">   -331.98866991 </i>
   </energy>
  </scstep>
  <scstep>
   <time name="dav">   21.39   21.41</time>
   <time name="total">   21.42   21.45</time>
   <energy>
    <i name="alphaZ">   1262.18780556 </i>
    <i name="ewald"> -10869.48186793 </i>
    <i name="hartreedc">  -2429.59538194 </i>
    <i name="XCdc">   -954.92795054 </i>
    <i name="pawpsdc">  19979.56080419 </i>
    <i name="pawaedc"> -18441.44131208 </i>
    <i name="eentropy">     -0.01704890 </i>
    <i name="bandstr">   -534.93940905 </i>
    <i name="atom">  11656.65998444 </i>
    <i name="e_fr_energy">   -331.99437626 </i>
    <i name="e_wo_entrp">   -331.97732735 </i>
    <i name="e_0_energy">   -331.98869329 </i>
[...]
       <r>    4.6606    1.0000 </r>
       <r>    4.7008    1.0000 </r>
       <r>    4.7690    1.0000 </r>
       <r>    4.8084    1.0000 </r>
       <r>    4.8434    1.0000 </r>
       <r>    4.9096    1.0000 </r>
       <r>    4.9483    1.0000 </r>
       <r>    5.0085    1.0000 </r>
       <r>    5.0746    1.0000 </r>
       <r>    5.1599    1.0000 </r>
       <r>    5.1969    1.0000 </r>
       <r>    5.2208    1.0000 </r>
       <r>    5.2881    1.0000 </r>
       <r>    5.3535    1.0000 </r>
       <r>    5.4300    1.0000 </r>
       <r>    5.4868    1.0000 </r>
       <r>    5.5262    1.0000 </r>
       <r>    5.5782    1.0000 </r>
       <r>    5.6735    1.0000 </r>
       <r>    5.7052    1.0000 </r>
       <r>    5.7720    1.0000 </r>
       <r>    5.8240    1.0000 </r>
       <r>    5.8682    1.0000 </r>
       <r>    5.9552    1.0000 </r>
       <r>    6.0053    1.0001 </r>
       <r>    6.0278    1.0001 </r>
       <r>    6.0678    1.0004 </r>
       <r>    6.0891    1.0006 </r>
       <r>    6.1958    1.0056 </r>
       <r>    6.2270    1.0094 </r>
       <r>    6.2800    1.0192 </r>
       <r>    6.3290    1.0302 </r>
       <r>    6.3936    1.0334 </r>
       <r>    6.4321    1.0155 </r>
       <r>    6.4752    0.9632 </r>
       <r>    6.5446    0.7855 </r>
       <r>    6.6059    0.5473 </r>
       <r>    6.7051    0.1648 </r>
       <r>    6.8105   -0.0214 </r>
       <r>    6.9356   -0.0234 </r>
       <r>    7.0233   -0.0072 </r>
       <r>    7.0733   -0.0029 </r>
       <r>    7.2420   -0.0000 </r>
       <r>    7.2992   -0.0000 </r>
       <r>    7.4568   -0.0000 </r>
       <r>    7.5342   -0.0000 </r>
       <r>    7.7936   -0.0000 </r>
       <r>    7.9524   -0.0000 </r>
       <r>    8.0064   -0.0000 </r>
       <r>    8.1500   -0.0000 </r>
       <r>    8.4052   -0.0000 </r>
       <r>    8.5219   -0.0000 </r>
       <r>    8.5773   -0.0000 </r>
       <r>    8.6265   -0.0000 </r>
       <r>    8.7144   -0.0000 </r>
       <r>    8.8034   -0.0000 </r>
       <r>    8.8491   -0.0000 </r>
       <r>    8.8556   -0.0000 </r>
       <r>    8.9137   -0.0000 </r>
       <r>    8.9435   -0.0000 </r>
       <r>    8.9870   -0.0000 </r>
      </set>
     </set>
    </set>
   </array>
  </eigenvalues>
  <separator name="orbital magnetization" >
   <v name="MAGDIPOLOUT">      0.00000000      0.00000000      0.00000000</v>
  </separator>
  <dos>
   <i name="efermi">      6.61711279 </i>
   <total>
    <array>
     <dimension dim="1">gridpoints</dimension>
     <dimension dim="2">spin</dimension>
     <field>energy</field>
     <field>total</field>
     <field>integrated</field>
     <set>
      <set comment="spin 1">
       <r>   -50.5386     0.0000     0.0000 </r>
       <r>   -50.3301     0.0000     0.0000 </r>
       <r>   -50.1216     0.0000     0.0000 </r>
       <r>   -49.9131     0.0000     0.0000 </r>
       <r>   -49.7046     0.0000     0.0000 </r>
       <r>   -49.4961    -0.0000    -0.0000 </r>
       <r>   -49.2876    -0.0000    -0.0000 </r>
       <r>   -49.0791    -0.0000    -0.0000 </r>
       <r>   -48.8706    -0.0000    -0.0000 </r>
       <r>   -48.6621    -0.0000    -0.0000 </r>
       <r>   -48.4536    -0.0000    -0.0000 </r>
       <r>   -48.2452    -0.0036    -0.0008 </r>
       <r>   -48.0367    -0.2143    -0.0454 </r>
       <r>   -47.8282     0.2406     0.0047 </r>
       <r>   -47.6197    11.6954     2.4431 </r>
       <r>   -47.4112    15.6587     5.7078 </r>
       <r>   -47.2027    12.8678     8.3906 </r>
       <r>   -46.9942     7.9291    10.0438 </r>
       <r>   -46.7857    -0.0805    10.0270 </r>
       <r>   -46.5772    -0.1279    10.0003 </r>
       <r>   -46.3687    -0.0016    10.0000 </r>
       <r>   -46.1603    -0.0000    10.0000 </r>
       <r>   -45.9518    -0.0000    10.0000 </r>
       <r>   -45.7433    -0.0000    10.0000 </r>
       <r>   -45.5348     0.0000    10.0000 </r>
       <r>   -45.3263     0.0000    10.0000 </r>
       <r>   -45.1178     0.0000    10.0000 </r>
       <r>   -44.9093     0.0000    10.0000 </r>
       <r>   -44.7008     0.0000    10.0000 </r>
       <r>   -44.4923     0.0000    10.0000 </r>
       <r>   -44.2838     0.0000    10.0000 </r>
       <r>   -44.0753     0.0000    10.0000 </r>
       <r>   -43.8669     0.0000    10.0000 </r>
       <r>   -43.6584     0.0000    10.0000 </r>
       <r>   -43.4499     0.0000    10.0000 </r>
       <r>   -43.2414     0.0000    10.0000 </r>
       <r>   -43.0329     0.0000    10.0000 </r>
       <r>   -42.8244     0.0000    10.0000 </r>
       <r>   -42.6159     0.0000    10.0000 </r>
       <r>   -42.4074     0.0000    10.0000 </r>
       <r>   -42.1989     0.0000    10.0000 </r>
       <r>   -41.9904     0.0000    10.0000 </r>
       <r>   -41.7819     0.0000    10.0000 </r>
       <r>   -41.5735     0.0000    10.0000 </r>
       <r>   -41.3650     0.0000    10.0000 </r>
       <r>   -41.1565     0.0000    10.0000 </r>
       <r>   -40.9480     0.0000    10.0000 </r>
       <r>   -40.7395     0.0000    10.0000 </r>
       <r>   -40.5310     0.0000    10.0000 </r>
       <r>   -40.3225     0.0000    10.0000 </r>
       <r>   -40.1140     0.0000    10.0000 </r>
       <r>   -39.9055     0.0000    10.0000 </r>
       <r>   -39.6970     0.0000    10.0000 </r>
       <r>   -39.4886     0.0000    10.0000 </r>
       <r>   -39.2801     0.0000    10.0000 </r>
       <r>   -39.0716     0.0000    10.0000 </r>
       <r>   -38.8631     0.0000    10.0000 </r>
       <r>   -38.6546     0.0000    10.0000 </r>
       <r>   -38.4461     0.0000    10.0000 </r>
       <r>   -38.2376     0.0000    10.0000 </r>
       <r>   -38.0291     0.0000    10.0000 </r>
       <r>   -37.8206     0.0000    10.0000 </r>
       <r>   -37.6121     0.0000    10.0000 </r>
       <r>   -37.4036     0.0000    10.0000 </r>
       <r>   -37.1952     0.0000    10.0000 </r>
       <r>   -36.9867     0.0000    10.0000 </r>
       <r>   -36.7782     0.0000    10.0000 </r>
       <r>   -36.5697     0.0000    10.0000 </r>
       <r>   -36.3612     0.0000    10.0000 </r>
       <r>   -36.1527     0.0000    10.0000 </r>
       <r>   -35.9442     0.0000    10.0000 </r>
       <r>   -35.7357     0.0000    10.0000 </r>
       <r>   -35.5272     0.0000    10.0000 </r>
       <r>   -35.3187     0.0000    10.0000 </r>
       <r>   -35.1102     0.0000    10.0000 </r>
       <r>   -34.9018     0.0000    10.0000 </r>
       <r>   -34.6933     0.0000    10.0000 </r>
       <r>   -34.4848     0.0000    10.0000 </r>
       <r>   -34.2763     0.0000    10.0000 </r>
       <r>   -34.0678     0.0000    10.0000 </r>
       <r>   -33.8593     0.0000    10.0000 </r>
       <r>   -33.6508     0.0000    10.0000 </r>
       <r>   -33.4423     0.0000    10.0000 </r>
       <r>   -33.2338     0.0000    10.0000 </r>
       <r>   -33.0253     0.0000    10.0000 </r>
       <r>   -32.8169     0.0000    10.0000 </r>
       <r>   -32.6084     0.0000    10.0000 </r>
       <r>   -32.3999     0.0000    10.0000 </r>
       <r>   -32.1914     0.0000    10.0000 </r>
       <r>   -31.9829     0.0000    10.0000 </r>
       <r>   -31.7744     0.0000    10.0000 </r>
       <r>   -31.5659     0.0000    10.0000 </r>
       <r>   -31.3574     0.0000    10.0000 </r>
       <r>   -31.1489     0.0000    10.0000 </r>
       <r>   -30.9404     0.0000    10.0000 </r>
       <r>   -30.7319     0.0000    10.0000 </r>
       <r>   -30.5235     0.0000    10.0000 </r>
       <r>   -30.3150     0.0000    10.0000 </r>
       <r>   -30.1065     0.0000    10.0000 </r>
       <r>   -29.8980     0.0000    10.0000 </r>
       <r>   -29.6895     0.0000    10.0000 </r>
       <r>   -29.4810     0.0000    10.0000 </r>
       <r>   -29.2725     0.0000    10.0000 </r>
       <r>   -29.0640     0.0000    10.0000 </r>
       <r>   -28.8555     0.0000    10.0000 </r>
       <r>   -28.6470     0.0000    10.0000 </r>
       <r>   -28.4385     0.0000    10.0000 </r>
       <r>   -28.2301     0.0000    10.0000 </r>
       <r>   -28.0216     0.0000    10.0000 </r>
       <r>   -27.8131     0.0000    10.0000 </r>
       <r>   -27.6046     0.0000    10.0000 </r>
       <r>   -27.3961     0.0000    10.0000 </r>
       <r>   -27.1876     0.0000    10.0000 </r>
       <r>   -26.9791     0.0000    10.0000 </r>
       <r>   -26.7706     0.0000    10.0000 </r>
       <r>   -26.5621     0.0000    10.0000 </r>
       <r>   -26.3536     0.0000    10.0000 </r>
       <r>   -26.1452     0.0000    10.0000 </r>
       <r>   -25.9367    -0.0000    10.0000 </r>
       <r>   -25.7282    -0.0000    10.0000 </r>
       <r>   -25.5197    -0.0000    10.0000 </r>
       <r>   -25.3112    -0.0000    10.0000 </r>
       <r>   -25.1027    -0.0000    10.0000 </r>
       <r>   -24.8942    -0.0000    10.0000 </r>
       <r>   -24.6857    -0.0017     9.9996 </r>
       <r>   -24.4772    -0.1325     9.9720 </r>
       <r>   -24.2687    -0.3267     9.9039 </r>
       <r>   -24.0602     8.2433    11.6226 </r>
       <r>   -23.8518    26.1989    17.0848 </r>
       <r>   -23.6433    34.5526    24.2887 </r>
       <r>   -23.4348    31.3755    30.8302 </r>
       <r>   -23.2263    32.9986    37.7101 </r>
       <r>   -23.0178     7.3303    39.2384 </r>
       <r>   -22.8093     2.9930    39.8624 </r>
       <r>   -22.6008     0.7773    40.0245 </r>
       <r>   -22.3923    -0.1109    40.0014 </r>
       <r>   -22.1838    -0.0066    40.0000 </r>
       <r>   -21.9753    -0.0000    40.0000 </r>
       <r>   -21.7668    -0.0000    40.0000 </r>
       <r>   -21.5584    -0.0000    40.0000 </r>
       <r>   -21.3499     0.0000    40.0000 </r>
       <r>   -21.1414     0.0000    40.0000 </r>
       <r>   -20.9329     0.0000    40.0000 </r>
       <r>   -20.7244     0.0000    40.0000 </r>
       <r>   -20.5159     0.0000    40.0000 </r>
       <r>   -20.3074     0.0000    40.0000 </r>
       <r>   -20.0989     0.0000    40.0000 </r>
       <r>   -19.8904     0.0000    40.0000 </r>
       <r>   -19.6819     0.0000    40.0000 </r>
       <r>   -19.4735     0.0000    40.0000 </r>
       <r>   -19.2650     0.0000    40.0000 </r>
       <r>   -19.0565     0.0000    40.0000 </r>
       <r>   -18.8480     0.0000    40.0000 </r>
       <r>   -18.6395     0.0000    40.0000 </r>
       <r>   -18.4310     0.0000    40.0000 </r>
       <r>   -18.2225     0.0000    40.0000 </r>
       <r>   -18.0140     0.0000    40.0000 </r>
       <r>   -17.8055     0.0000    40.0000 </r>
       <r>   -17.5970     0.0000    40.0000 </r>
       <r>   -17.3885     0.0000    40.0000 </r>
       <r>   -17.1801     0.0000    40.0000 </r>
       <r>   -16.9716     0.0000    40.0000 </r>
       <r>   -16.7631     0.0000    40.0000 </r>
       <r>   -16.5546     0.0000    40.0000 </r>
       <r>   -16.3461     0.0000    40.0000 </r>
       <r>   -16.1376     0.0000    40.0000 </r>
       <r>   -15.9291     0.0000    40.0000 </r>
       <r>   -15.7206     0.0000    40.0000 </r>
       <r>   -15.5121     0.0000    40.0000 </r>
       <r>   -15.3036     0.0000    40.0000 </r>
       <r>   -15.0951     0.0000    40.0000 </r>
       <r>   -14.8867     0.0000    40.0000 </r>
       <r>   -14.6782     0.0000    40.0000 </r>
       <r>   -14.4697     0.0000    40.0000 </r>
       <r>   -14.2612     0.0000    40.0000 </r>
       <r>   -14.0527     0.0000    40.0000 </r>
       <r>   -13.8442     0.0000    40.0000 </r>
       <r>   -13.6357     0.0000    40.0000 </r>
       <r>   -13.4272     0.0000    40.0000 </r>
       <r>   -13.2187     0.0000    40.0000 </r>
       <r>   -13.0102     0.0000    40.0000 </r>
       <r>   -12.8018     0.0000    40.0000 </r>
       <r>   -12.5933     0.0000    40.0000 </r>
       <r>   -12.3848     0.0000    40.0000 </r>
       <r>   -12.1763     0.0000    40.0000 </r>
       <r>   -11.9678     0.0000    40.0000 </r>
       <r>   -11.7593     0.0000    40.0000 </r>
       <r>   -11.5508     0.0000    40.0000 </r>
       <r>   -11.3423     0.0000    40.0000 </r>
       <r>   -11.1338     0.0000    40.0000 </r>
       <r>   -10.9253     0.0000    40.0000 </r>
       <r>   -10.7168     0.0000    40.0000 </r>
       <r>   -10.5084     0.0000    40.0000 </r>
       <r>   -10.2999     0.0000    40.0000 </r>
       <r>   -10.0914     0.0000    40.0000 </r>
       <r>    -9.8829     0.0000    40.0000 </r>
       <r>    -9.6744     0.0000    40.0000 </r>
       <r>    -9.4659     0.0000    40.0000 </r>
       <r>    -9.2574     0.0000    40.0000 </r>
       <r>    -9.0489     0.0000    40.0000 </r>
       <r>    -8.8404     0.0000    40.0000 </r>
       <r>    -8.6319     0.0000    40.0000 </r>
       <r>    -8.4234     0.0000    40.0000 </r>
       <r>    -8.2150     0.0000    40.0000 </r>
       <r>    -8.0065     0.0000    40.0000 </r>
       <r>    -7.7980     0.0000    40.0000 </r>
       <r>    -7.5895     0.0000    40.0000 </r>
       <r>    -7.3810     0.0000    40.0000 </r>
       <r>    -7.1725     0.0000    40.0000 </r>
       <r>    -6.9640     0.0000    40.0000 </r>
       <r>    -6.7555     0.0000    40.0000 </r>
       <r>    -6.5470     0.0000    40.0000 </r>
       <r>    -6.3385     0.0000    40.0000 </r>
       <r>    -6.1301     0.0000    40.0000 </r>
       <r>    -5.9216     0.0000    40.0000 </r>
       <r>    -5.7131     0.0000    40.0000 </r>
       <r>    -5.5046     0.0000    40.0000 </r>
       <r>    -5.2961     0.0000    40.0000 </r>
       <r>    -5.0876     0.0000    40.0000 </r>
       <r>    -4.8791     0.0000    40.0000 </r>
       <r>    -4.6706     0.0000    40.0000 </r>
       <r>    -4.4621     0.0000    40.0000 </r>
       <r>    -4.2536     0.0000    40.0000 </r>
       <r>    -4.0451     0.0000    40.0000 </r>
       <r>    -3.8367     0.0000    40.0000 </r>
       <r>    -3.6282     0.0000    40.0000 </r>
       <r>    -3.4197     0.0000    40.0000 </r>
       <r>    -3.2112     0.0000    40.0000 </r>
       <r>    -3.0027     0.0000    40.0000 </r>
       <r>    -2.7942     0.0000    40.0000 </r>
       <r>    -2.5857    -0.0000    40.0000 </r>
       <r>    -2.3772    -0.0000    40.0000 </r>
       <r>    -2.1687    -0.0000    40.0000 </r>
       <r>    -1.9602    -0.0000    40.0000 </r>
       <r>    -1.7517    -0.0000    40.0000 </r>
       <r>    -1.5433    -0.0000    40.0000 </r>
       <r>    -1.3348    -0.0000    40.0000 </r>
       <r>    -1.1263    -0.0031    39.9993 </r>
       <r>    -0.9178    -0.0116    39.9969 </r>
       <r>    -0.7093     0.1933    40.0372 </r>
       <r>    -0.5008     0.7996    40.2039 </r>
       <r>    -0.2923     1.4711    40.5106 </r>
       <r>    -0.0838     1.8631    40.8991 </r>
       <r>     0.1247     1.3508    41.1807 </r>
       <r>     0.3332     2.1229    41.6233 </r>
       <r>     0.5416     3.3111    42.3136 </r>
       <r>     0.7501     3.1301    42.9663 </r>
       <r>     0.9586     2.7613    43.5420 </r>
       <r>     1.1671     3.7865    44.3314 </r>
       <r>     1.3756     4.3361    45.2355 </r>
       <r>     1.5841     3.8883    46.0461 </r>
       <r>     1.7926     5.7639    47.2479 </r>
       <r>     2.0011     8.4913    49.0182 </r>
       <r>     2.2096    11.8416    51.4871 </r>
       <r>     2.4181    17.1856    55.0701 </r>
       <r>     2.6266    20.8397    59.4150 </r>
       <r>     2.8350    24.7425    64.5736 </r>
       <r>     3.0435    26.7881    70.1586 </r>
       <r>     3.2520    28.2761    76.0539 </r>
       <r>     3.4605    30.2238    82.3553 </r>
       <r>     3.6690    30.0052    88.6111 </r>
       <r>     3.8775    29.3976    94.7402 </r>
       <r>     4.0860    27.2744   100.4267 </r>
       <r>     4.2945    24.6723   105.5706 </r>
       <r>     4.5030    31.4370   112.1249 </r>
       <r>     4.7115    38.5439   120.1610 </r>
       <r>     4.9200    39.6767   128.4332 </r>
       <r>     5.1284    38.4880   136.4576 </r>
       <r>     5.3369    36.5142   144.0704 </r>
       <r>     5.5454    36.1784   151.6133 </r>
       <r>     5.7539    36.5979   159.2436 </r>
       <r>     5.9624    38.9154   167.3571 </r>
       <r>     6.1709    39.1556   175.5207 </r>
       <r>     6.3794    37.0183   183.2387 </r>
       <r>     6.5879    32.9307   190.1044 </r>
       <r>     6.7964    28.8513   196.1196 </r>
       <r>     7.0049    23.9983   201.1230 </r>
       <r>     7.2133    19.9313   205.2785 </r>
       <r>     7.4218    16.8619   208.7941 </r>
       <r>     7.6303    15.8369   212.0959 </r>
       <r>     7.8388    15.8752   215.4058 </r>
       <r>     8.0473    19.0966   219.3872 </r>
       <r>     8.2558    22.4539   224.0687 </r>
       <r>     8.4643    25.8543   229.4590 </r>
       <r>     8.6728    23.2501   234.3065 </r>
       <r>     8.8813    17.1871   237.8898 </r>
       <r>     9.0898     9.1210   239.7915 </r>
       <r>     9.2983     1.2110   240.0440 </r>
       <r>     9.5067    -0.1948   240.0033 </r>
       <r>     9.7152    -0.0158   240.0000 </r>
       <r>     9.9237    -0.0001   240.0000 </r>
       <r>    10.1322    -0.0000   240.0000 </r>
       <r>    10.3407    -0.0000   240.0000 </r>
       <r>    10.5492    -0.0000   240.0000 </r>
       <r>    10.7577     0.0000   240.0000 </r>
       <r>    10.9662     0.0000   240.0000 </r>
       <r>    11.1747     0.0000   240.0000 </r>
       <r>    11.3832     0.0000   240.0000 </r>
       <r>    11.5917     0.0000   240.0000 </r>
       <r>    11.8001     0.0000   240.0000 </r>
       <r>    12.0086     0.0000   240.0000 </r>
      </set>
     </set>
    </array>
   </total>
  </dos>
 </calculation>
 <structure name="finalpos" >
  <crystal>
   <varray name="basis" >
    <v>      -3.21103487      -3.16634533      -3.17522275 </v>
    <v>       1.53953504       1.66929169      -7.95799762 </v>
    <v>       7.82292450      -7.83469118      -1.46393039 </v>
   </varray>
   <i name="volume">    477.79723272 </i>
   <varray name="rec_basis" >
    <v>      -0.13560602      -0.12557846      -0.05257570 </v>
    <v>       0.04236437       0.06182593      -0.10449526 </v>
    <v>       0.06383072      -0.06371275      -0.00101603 </v>
   </varray>
  </crystal>
  <varray name="positions" >
   <v>       0.96430395       0.94978700       0.43239837 </v>
   <v>       0.62980891       0.27163241       0.40193125 </v>
   <v>       0.50147258       0.00320802      -0.00364127 </v>
   <v>       0.00118072       0.00216730      -0.00028339 </v>
   <v>       0.09307415       0.19129023       0.78315319 </v>
   <v>       0.90351662       0.80357953       0.20648327 </v>
   <v>       0.80129275       0.59940097       0.39868875 </v>
   <v>       0.73579166       0.47137500       0.20071926 </v>
   <v>       0.67042507       0.33881815      -0.00327099 </v>
   <v>       0.35675265       0.72998074       0.60122754 </v>
   <v>       0.13260507       0.27214844       0.40123884 </v>
   <v>       0.83716285       0.66675709      -0.00034249 </v>
   <v>       0.93191646       0.87513605       0.78067060 </v>
   <v>       0.57531429       0.13514496       0.19901129 </v>
   <v>       0.40574505       0.80082557       0.19951435 </v>
   <v>       0.44225700       0.85172571       0.79484236 </v>
   <v>       0.29860205       0.60566302       0.40418586 </v>
   <v>       0.85156569       0.71566894       0.59671075 </v>
   <v>       0.47248923       0.93233596       0.40734646 </v>
   <v>       0.17485908       0.33328540       0.00162325 </v>
   <v>       0.26780469       0.52881155       0.79631105 </v>
   <v>       0.19524294       0.39111250       0.59081604 </v>
   <v>       0.07079536       0.14695173       0.21445249 </v>
   <v>       0.76970424       0.52142425       0.79869606 </v>
   <v>       0.69219826       0.39588008       0.60171172 </v>
   <v>       0.58918027       0.20004172       0.79445728 </v>
   <v>       0.53370000       0.06511994       0.60250557 </v>
   <v>       0.33505293       0.66027827      -0.00047630 </v>
   <v>       0.23285212       0.47378280       0.19931884 </v>
  </varray>
 </structure>
</modeling>
