SQS with 1 vacancy for VFE and VRV      
           1
    -3.190000   -3.190000   -3.190000
     1.595000    1.595000   -7.975000
     7.975000   -7.975000   -1.595000
   Nb   Mo   Ta   Ti   W 
   5   6   6   6   6
Direct configuration=     1
   0.96666667  0.93333333  0.40000000
   0.63333333  0.26666667  0.40000000
   0.50000000  0.00000000  0.00000000
   0.00000000  0.00000000  0.00000000
   0.10000000  0.20000000  0.80000000
   0.90000000  0.80000000  0.20000000
   0.80000000  0.60000000  0.40000000
   0.73333333  0.46666667  0.20000000
   0.66666667  0.33333333  0.00000000
   0.36666667  0.73333333  0.60000000
   0.13333333  0.26666667  0.40000000
   0.83333333  0.66666667  0.00000000
   0.93333333  0.86666667  0.80000000
   0.56666667  0.13333333  0.20000000
   0.40000000  0.80000000  0.20000000
   0.43333333  0.86666667  0.80000000
   0.30000000  0.60000000  0.40000000
   0.86666667  0.73333333  0.60000000
   0.46666667  0.93333333  0.40000000
   0.16666667  0.33333333  0.00000000
   0.26666667  0.53333333  0.80000000
   0.20000000  0.40000000  0.60000000
   0.06666667  0.13333333  0.20000000
   0.76666667  0.53333333  0.80000000
   0.70000000  0.40000000  0.60000000
   0.60000000  0.20000000  0.80000000
   0.53333333  0.06666667  0.60000000
   0.33333333  0.66666667  0.00000000
   0.23333333  0.46666667  0.20000000
SQS with 1 vacancy for VFE and VRV      
           1
    -3.150739   -3.133527   -3.138582
     1.546040    1.582502   -7.832865
     7.822613   -7.819403   -1.529468
   Nb   Mo   Ta   Ti   W 
   5   6   6   6   6
Direct configuration=     2
   0.96434309  0.93584122  0.40184307
   0.63324763  0.26525415  0.40152950
   0.49851041  0.00259946 -0.00113641
  -0.00085434  0.00092050  0.00090366
   0.09768287  0.20151720  0.79573568
   0.90098933  0.79868122  0.20176685
   0.80245683  0.59598437  0.39944496
   0.73363359  0.46634776  0.19968010
   0.66573854  0.33720806 -0.00117723
   0.36639708  0.73403197  0.60045763
   0.13328291  0.26841325  0.40059756
   0.83429183  0.66343510  0.00256812
   0.93125207  0.87255344  0.79537997
   0.56731979  0.13306275  0.19865526
   0.40231901  0.79638956  0.19911558
   0.43917744  0.86145320  0.79673480
   0.30036419  0.60128452  0.40236787
   0.86122797  0.73230558  0.59895643
   0.46774335  0.93217275  0.40264646
   0.16881692  0.33441925  0.00198819
   0.26917870  0.53362488  0.79910984
   0.20199655  0.39699157  0.59825260
   0.06541217  0.13743149  0.20293678
   0.76767636  0.52934841  0.79985944
   0.69847724  0.40182008  0.60210120
   0.59708870  0.20190227  0.79774452
   0.53455654  0.06852797  0.60199636
   0.33340230  0.66155180  0.00065383
   0.23093760  0.46825956  0.19928738
SQS with 1 vacancy for VFE and VRV      
           1
    -3.167192   -3.157193   -3.160130
     1.566557    1.587740   -7.892429
     7.886473   -7.884609   -1.556931
   Nb   Mo   Ta   Ti   W 
   5   6   6   6   6
Direct configuration=     3
   0.96533083  0.93476874  0.40105408
   0.63328213  0.26585445  0.40087735
   0.49914621  0.00149233 -0.00065268
  -0.00049138  0.00052651  0.00051699
   0.09867344  0.20087656  0.79755750
   0.90056621  0.79924108  0.20101268
   0.80141063  0.59769813  0.39968498
   0.73350603  0.46648427  0.19981698
   0.66613592  0.33555690 -0.00067759
   0.36651159  0.73373325  0.60026151
   0.13330438  0.26766724  0.40034050
   0.83388040  0.66480978  0.00147346
   0.93214411  0.87004919  0.79734934
   0.56704310  0.13318016  0.19922986
   0.40133191  0.79793096  0.19949602
   0.43669219  0.86368177  0.79813254
   0.30020737  0.60073293  0.40135457
   0.86354277  0.73274606  0.59940594
   0.46728227  0.93266379  0.40151622
   0.16790045  0.33395281  0.00113650
   0.26811081  0.53350163  0.79948876
   0.20114769  0.39827747  0.59900136
   0.06594451  0.13567884  0.20167834
   0.76724552  0.53104856  0.79992300
   0.69912375  0.40104057  0.60120221
   0.59833027  0.20109438  0.79870781
   0.53403477  0.06773080  0.60114085
   0.33337058  0.66373289  0.00037949
   0.23195820  0.46758129  0.19959144
SQS with 1 vacancy for VFE and VRV      
           1
    -3.195943   -3.166711   -3.177196
     1.546366    1.610690   -7.918710
     7.893166   -7.889909   -1.518749
   Nb   Mo   Ta   Ti   W 
   5   6   6   6   6
Direct configuration=     4
   0.96240057  0.93828194  0.40408760
   0.63351590  0.26418188  0.40268832
   0.49739343  0.00423328 -0.00228930
  -0.00131509  0.00182788  0.00124107
   0.09602522  0.20179306  0.79177418
   0.90142955  0.79799113  0.20315938
   0.80421361  0.59349063  0.39931907
   0.73410372  0.46543715  0.19987470
   0.66546639  0.33959017 -0.00202795
   0.36512222  0.73536149  0.60074745
   0.13311913  0.26905970  0.40168261
   0.83490680  0.66193730  0.00388999
   0.93071482  0.87700246  0.79122447
   0.56784509  0.13249460  0.19798719
   0.40369879  0.79451119  0.19887235
   0.44253517  0.85800722  0.79455740
   0.30076706  0.60197722  0.40448406
   0.85713692  0.73125441  0.59780283
   0.46845188  0.93130355  0.40487939
   0.17072807  0.33491372  0.00341258
   0.27061523  0.53365978  0.79824633
   0.20279063  0.39476247  0.59669521
   0.06450898  0.14081448  0.20546819
   0.76905104  0.52664558  0.79960313
   0.69814916  0.40229261  0.60355883
   0.59465203  0.20358439  0.79606936
   0.53571394  0.06971733  0.60330768
   0.33333748  0.65813137  0.00063275
   0.22958893  0.46907534  0.19905113
SQS with 1 vacancy for VFE and VRV      
           1
    -3.204155   -3.169430   -3.182071
     1.540598    1.617246   -7.926217
     7.895078   -7.891423   -1.507843
   Nb   Mo   Ta   Ti   W 
   5   6   6   6   6
Direct configuration=     5
   0.96156928  0.93928562  0.40495520
   0.63358401  0.26370782  0.40320401
   0.49689375  0.00501170 -0.00275493
  -0.00154896  0.00219920  0.00144848
   0.09526928  0.20204725  0.79012320
   0.90167649  0.79763778  0.20377145
   0.80501071  0.59229238  0.39921233
   0.73427383  0.46513912  0.19989057
   0.66527401  0.34073684 -0.00241050
   0.36472747  0.73582559  0.60088694
   0.13306690  0.26945768  0.40206672
   0.83520078  0.66112234  0.00457788
   0.93030265  0.87897488  0.78948111
   0.56807224  0.13229799  0.19763223
   0.40437163  0.79353690  0.19869250
   0.44419389  0.85638761  0.79353453
   0.30092753  0.60233510  0.40537849
   0.85531758  0.73082785  0.59734187
   0.46878660  0.93092021  0.40583871
   0.17153204  0.33518994  0.00406397
   0.27132547  0.53370338  0.79789268
   0.20325688  0.39375911  0.59603478
   0.06410200  0.14228095  0.20655345
   0.76956503  0.52539172  0.79950904
   0.69787351  0.40265178  0.60423214
   0.59360510  0.20429019  0.79531691
   0.53619140  0.07028540  0.60392829
   0.33333020  0.65653696  0.00070068
   0.22891535  0.46950004  0.19889725
SQS with 1 vacancy for VFE and VRV      
           1
    -3.214311   -3.177931   -3.195256
     1.538919    1.622160   -7.953027
     7.895639   -7.894982   -1.506994
   Nb   Mo   Ta   Ti   W 
   5   6   6   6   6
Direct configuration=     6
   0.96053006  0.94001314  0.40669853
   0.63310008  0.26469249  0.40321749
   0.49780855  0.00382085 -0.00365975
  -0.00153885  0.00196750  0.00059741
   0.09527661  0.19980713  0.78853167
   0.90144437  0.79808823  0.20408528
   0.80510999  0.59261570  0.39965085
   0.73397181  0.46429972  0.20110172
   0.66627884  0.33949930 -0.00245752
   0.36327112  0.73578871  0.60089565
   0.13299401  0.26923890  0.40268448
   0.83387697  0.66417314  0.00313912
   0.93182164  0.87961178  0.78789900
   0.56876500  0.13170478  0.19791373
   0.40421437  0.79424116  0.19883044
   0.44337685  0.85662645  0.79449772
   0.30129061  0.60243153  0.40565768
   0.85418740  0.72936842  0.59651742
   0.46951428  0.93077295  0.40663454
   0.17246435  0.33444968  0.00374864
   0.27041713  0.53380438  0.79742023
   0.20183774  0.39377641  0.59492070
   0.06423693  0.14340830  0.20832252
   0.77098428  0.52597838  0.79954147
   0.69758681  0.40185564  0.60392084
   0.59262789  0.20470363  0.79556034
   0.53768923  0.06960165  0.60383202
   0.33323469  0.65789153 -0.00004799
   0.23029393  0.46910187  0.20034578
SQS with 1 vacancy for VFE and VRV      
           1
    -3.219765   -3.182495   -3.202336
     1.538018    1.624799   -7.967422
     7.895940   -7.896892   -1.506539
   Nb   Mo   Ta   Ti   W 
   5   6   6   6   6
Direct configuration=     7
   0.95997311  0.94040310  0.40763445
   0.63284051  0.26521970  0.40322491
   0.49829900  0.00318303 -0.00414566
  -0.00153317  0.00184333  0.00014050
   0.09528201  0.19860773  0.78767686
   0.90131983  0.79832945  0.20425383
   0.80516288  0.59278882  0.39988632
   0.73381039  0.46385064  0.20175168
   0.66681737  0.33883660 -0.00248298
   0.36249160  0.73576929  0.60090024
   0.13295500  0.26912190  0.40301604
   0.83316699  0.66580634  0.00236737
   0.93263464  0.87995213  0.78704993
   0.56913608  0.13138711  0.19806474
   0.40412979  0.79461821  0.19890462
   0.44293923  0.85675463  0.79501477
   0.30148485  0.60248311  0.40580759
   0.85358338  0.72858731  0.59607447
   0.46990372  0.93069407  0.40706174
   0.17296384  0.33405315  0.00357926
   0.26993095  0.53385858  0.79716659
   0.20107832  0.39378582  0.59432258
   0.06430824  0.14401203  0.20927241
   0.77174363  0.52629211  0.79955908
   0.69743382  0.40142947  0.60375356
   0.59210455  0.20492521  0.79569105
   0.53849134  0.06923528  0.60378027
   0.33318297  0.65861655 -0.00044959
   0.23103179  0.46888864  0.20112334
SQS with 1 vacancy for VFE and VRV      
           1
    -3.215356   -3.176901   -3.199078
     1.532562    1.622973   -7.956974
     7.869852   -7.871721   -1.500869
   Nb   Mo   Ta   Ti   W 
   5   6   6   6   6
Direct configuration=     8
   0.95934329  0.94082079  0.40893596
   0.63249802  0.26587763  0.40326445
   0.49880140  0.00263196 -0.00453387
  -0.00142190  0.00173943 -0.00033926
   0.09517632  0.19729872  0.78664234
   0.90127437  0.79852968  0.20441879
   0.80503000  0.59314930  0.40014515
   0.73365724  0.46375121  0.20234742
   0.66748201  0.33825774 -0.00249565
   0.36150665  0.73567127  0.60096209
   0.13294745  0.26899246  0.40343154
   0.83278299  0.66730159  0.00152514
   0.93335408  0.88020181  0.78594955
   0.56969817  0.13100892  0.19823603
   0.40404271  0.79505058  0.19896476
   0.44271204  0.85686618  0.79542783
   0.30154105  0.60264178  0.40584989
   0.85291816  0.72744754  0.59560736
   0.47034984  0.93059946  0.40754015
   0.17344803  0.33369412  0.00334874
   0.26948969  0.53392211  0.79689384
   0.20014477  0.39377274  0.59365654
   0.06444542  0.14467260  0.21045992
   0.77233078  0.52648985  0.79954456
   0.69706952  0.40094463  0.60359682
   0.59156051  0.20508079  0.79581347
   0.53952569  0.06876166  0.60373971
   0.33323756  0.65933702 -0.00073749
   0.23172081  0.46881976  0.20180427
SQS with 1 vacancy for VFE and VRV      
           1
    -3.211996   -3.172639   -3.196596
     1.528405    1.621582   -7.949012
     7.849974   -7.852541   -1.496548
   Nb   Mo   Ta   Ti   W 
   5   6   6   6   6
Direct configuration=     9
   0.95886246  0.94113976  0.40993096
   0.63223644  0.26637974  0.40329478
   0.49918498  0.00221134 -0.00483071
  -0.00133692  0.00166008 -0.00070604
   0.09509615  0.19629974  0.78585123
   0.90123960  0.79868249  0.20454493
   0.80492847  0.59342444  0.40034307
   0.73354037  0.46367541  0.20280282
   0.66798939  0.33781592 -0.00250541
   0.36075505  0.73559662  0.60100929
   0.13294170  0.26889372  0.40374915
   0.83248952  0.66844257  0.00088152
   0.93390309  0.88039211  0.78510842
   0.57012723  0.13072025  0.19836693
   0.40397610  0.79538053  0.19901081
   0.44253861  0.85695137  0.79574360
   0.30158388  0.60276286  0.40588225
   0.85241091  0.72657785  0.59525001
   0.47069027  0.93052724  0.40790588
   0.17381766  0.33342006  0.00317247
   0.26915295  0.53397064  0.79668530
   0.19943241  0.39376283  0.59314731
   0.06454982  0.14517678  0.21136787
   0.77277879  0.52664066  0.79953353
   0.69679169  0.40057469  0.60347688
   0.59114528  0.20519961  0.79590705
   0.54031517  0.06840009  0.60370867
   0.33327900  0.65988678 -0.00095746
   0.23224659  0.46876716  0.20232486
SQS with 1 vacancy for VFE and VRV      
           1
    -3.212165   -3.172414   -3.195505
     1.529344    1.623162   -7.948842
     7.846878   -7.848763   -1.495708
   Nb   Mo   Ta   Ti   W 
   5   6   6   6   6
Direct configuration=    10
   0.95876164  0.94131348  0.41079036
   0.63218715  0.26650927  0.40337003
   0.49909600  0.00248573 -0.00466274
  -0.00112472  0.00179349 -0.00070887
   0.09490682  0.19607038  0.78535029
   0.90136384  0.79867818  0.20458597
   0.80453612  0.59380883  0.40036487
   0.73366887  0.46421844  0.20270271
   0.66826174  0.33795952 -0.00248375
   0.36020357  0.73561886  0.60108729
   0.13304217  0.26872922  0.40402209
   0.83319538  0.66809329  0.00081847
   0.93382010  0.88025591  0.78443155
   0.57045879  0.13060932  0.19845771
   0.40397930  0.79559148  0.19908411
   0.44291317  0.85687563  0.79548691
   0.30132944  0.60295606  0.40574259
   0.85225547  0.72588216  0.59521264
   0.47063991  0.93050519  0.40806458
   0.17385169  0.33345252  0.00306579
   0.26921198  0.53396583  0.79658941
   0.19909169  0.39367835  0.59304724
   0.06476034  0.14530474  0.21182755
   0.77255898  0.52640317  0.79944909
   0.69647113  0.40035983  0.60347064
   0.59096833  0.20515214  0.79590324
   0.54068885  0.06821831  0.60364602
   0.33343840  0.65983850 -0.00083422
   0.23213051  0.46900551  0.20211846
SQS with 1 vacancy for VFE and VRV      
           1
    -3.212674   -3.171739   -3.192230
     1.532161    1.627900   -7.948332
     7.837592   -7.837428   -1.493186
   Nb   Mo   Ta   Ti   W 
   5   6   6   6   6
Direct configuration=    11
   0.95845961  0.94183450  0.41336968
   0.63203942  0.26689781  0.40359588
   0.49882936  0.00330879 -0.00415860
  -0.00048793  0.00219371 -0.00071732
   0.09433841  0.19538234  0.78384677
   0.90173656  0.79866530  0.20470915
   0.80335938  0.59496174  0.40043031
   0.73405493  0.46584738  0.20240233
   0.66907900  0.33839034 -0.00241872
   0.35854907  0.73568539  0.60132135
   0.13334351  0.26823578  0.40484123
   0.83531273  0.66704581  0.00062923
   0.93357077  0.87984734  0.78240002
   0.57145347  0.13027666  0.19873017
   0.40398911  0.79622426  0.19930415
   0.44403676  0.85664858  0.79471651
   0.30056620  0.60353551  0.40532344
   0.85178840  0.72379531  0.59510039
   0.47048885  0.93043903  0.40854087
   0.17395379  0.33354992  0.00274559
   0.26938906  0.53395142  0.79630160
   0.19806936  0.39342485  0.59274687
   0.06539220  0.14568860  0.21320721
   0.77189927  0.52569071  0.79919564
   0.69550917  0.39971523  0.60345186
   0.59043741  0.20500971  0.79589176
   0.54180975  0.06767316  0.60345798
   0.33391662  0.65969372 -0.00046434
   0.23178243  0.46972045  0.20149900
SQS with 1 vacancy for VFE and VRV      
           1
    -3.213692   -3.170389   -3.185681
     1.537794    1.637376   -7.947311
     7.819019   -7.814759   -1.488142
   Nb   Mo   Ta   Ti   W 
   5   6   6   6   6
Direct configuration=    12
   0.95785802  0.94287572  0.41853520
   0.63174482  0.26767448  0.40404825
   0.49829792  0.00495407 -0.00314883
   0.00078668  0.00299429 -0.00073406
   0.09319912  0.19400653  0.78083553
   0.90248220  0.79863977  0.20495590
   0.80100781  0.59726595  0.40056146
   0.73483029  0.46910437  0.20180123
   0.67071472  0.33925221 -0.00228826
   0.35523974  0.73581730  0.60178984
   0.13394581  0.26724937  0.40648159
   0.83954598  0.66495298  0.00025034
   0.93307000  0.87903053  0.77833149
   0.57344269  0.12961221  0.19927589
   0.40401014  0.79748935  0.19974496
   0.44628344  0.85619544  0.79317381
   0.29904037  0.60469353  0.40448407
   0.85084983  0.71962282  0.59487500
   0.47018682  0.93030662  0.40949466
   0.17415804  0.33374473  0.00210440
   0.26974308  0.53392275  0.79572524
   0.19602363  0.39291740  0.59214511
   0.06665775  0.14645633  0.21597036
   0.77057801  0.52426592  0.79868778
   0.69358359  0.39842587  0.60341393
   0.58937506  0.20472459  0.79586867
   0.54405076  0.06658401  0.60308145
   0.33487315  0.65940455  0.00027643
   0.23108720  0.47114964  0.20025858
SQS with 1 vacancy for VFE and VRV      
           1
    -3.213096   -3.171179   -3.189515
     1.534496    1.631829   -7.947908
     7.829893   -7.828031   -1.491095
   Nb   Mo   Ta   Ti   W 
   5   6   6   6   6
Direct configuration=    13
   0.95820732  0.94226712  0.41550303
   0.63191628  0.26722025  0.40378263
   0.49860688  0.00399181 -0.00374174
   0.00003926  0.00252546 -0.00072447
   0.09386902  0.19481166  0.78260338
   0.90204546  0.79865444  0.20481100
   0.80238227  0.59591885  0.40048436
   0.73437258  0.46719865  0.20215352
   0.66975569  0.33874739 -0.00236512
   0.35717755  0.73574140  0.60151513
   0.13359366  0.26782630  0.40551881
   0.83706934  0.66617569  0.00047266
   0.93336565  0.87950833  0.78071981
   0.57227828  0.13000021  0.19895547
   0.40399618  0.79674927  0.19948603
   0.44496873  0.85645959  0.79407921
   0.29993292  0.60401660  0.40497674
   0.85140449  0.72206413  0.59500799
   0.47036353  0.93038425  0.40893485
   0.17403842  0.33363065  0.00248072
   0.26953598  0.53393936  0.79606352
   0.19722253  0.39321501  0.59249859
   0.06591471  0.14600688  0.21434821
   0.77135366  0.52509991  0.79898621
   0.69471285  0.39918089  0.60343655
   0.58999757  0.20489179  0.79588236
   0.54273971  0.06722031  0.60330242
   0.33431303  0.65957340 -0.00015844
   0.23149312  0.47031373  0.20098654
SQS with 1 vacancy for VFE and VRV      
           1
    -3.219125   -3.178365   -3.194603
     1.542030    1.641559   -7.971274
     7.843593   -7.844234   -1.493999
   Nb   Mo   Ta   Ti   W 
   5   6   6   6   6
Direct configuration=    14
   0.95846145  0.94254697  0.41744374
   0.63152800  0.26784627  0.40350028
   0.49910862  0.00412845 -0.00367315
   0.00017426  0.00275215 -0.00075522
   0.09373204  0.19438693  0.78214740
   0.90224726  0.79913864  0.20496357
   0.80178431  0.59630511  0.40017107
   0.73498636  0.46769954  0.20208445
   0.66998137  0.33897447 -0.00236754
   0.35643297  0.73556337  0.60144609
   0.13344980  0.26783323  0.40584101
   0.83752765  0.66606686  0.00031283
   0.93375861  0.87886128  0.78007665
   0.57296457  0.13058340  0.19930040
   0.40393332  0.79753834  0.19952873
   0.44472329  0.85616086  0.79404854
   0.29932602  0.60389847  0.40484035
   0.85135166  0.72062937  0.59517012
   0.46988738  0.93051497  0.40900926
   0.17415932  0.33358116  0.00229582
   0.26948567  0.53361292  0.79599894
   0.19694020  0.39313068  0.59242327
   0.06681263  0.14605908  0.21486322
   0.77098842  0.52468583  0.79884122
   0.69375132  0.39885553  0.60323871
   0.58970367  0.20455345  0.79587131
   0.54294521  0.06710787  0.60305156
   0.33508025  0.65966975 -0.00030133
   0.23144104  0.47064839  0.20062869
SQS with 1 vacancy for VFE and VRV      
           1
    -3.217293   -3.176181   -3.193057
     1.539740    1.638602   -7.964172
     7.839429   -7.839309   -1.493116
   Nb   Mo   Ta   Ti   W 
   5   6   6   6   6
Direct configuration=    15
   0.95838447  0.94246211  0.41685499
   0.63164556  0.26765666  0.40358590
   0.49895639  0.00408703 -0.00369395
   0.00013323  0.00268347 -0.00074589
   0.09377368  0.19451561  0.78228574
   0.90218591  0.79899195  0.20491727
   0.80196555  0.59618814  0.40026609
   0.73480001  0.46754778  0.20210540
   0.66991284  0.33890567 -0.00236681
   0.35665888  0.73561734  0.60146703
   0.13349347  0.26783113  0.40574326
   0.83738864  0.66609981  0.00036133
   0.93363955  0.87905729  0.78027180
   0.57275624  0.13040669  0.19919575
   0.40395215  0.79729931  0.19951575
   0.44479783  0.85625137  0.79405785
   0.29951014  0.60393429  0.40488172
   0.85136815  0.72106399  0.59512099
   0.47003179  0.93047540  0.40898667
   0.17412264  0.33359615  0.00235192
   0.26950102  0.53371181  0.79601854
   0.19702586  0.39315624  0.59244611
   0.06654029  0.14604320  0.21470700
   0.77109933  0.52481129  0.79888521
   0.69404307  0.39895414  0.60329872
   0.58979293  0.20465595  0.79587467
   0.54288288  0.06714193  0.60312767
   0.33484747  0.65964053 -0.00025797
   0.23145669  0.47054703  0.20073724
SQS with 1 vacancy for VFE and VRV      
           1
    -3.213912   -3.174652   -3.189624
     1.542734    1.644319   -7.966728
     7.831384   -7.835546   -1.491695
   Nb   Mo   Ta   Ti   W 
   5   6   6   6   6
Direct configuration=    16
   0.95880495  0.94264343  0.41855847
   0.63111337  0.26843381  0.40314660
   0.49982228  0.00389380 -0.00380853
   0.00009545  0.00277048 -0.00078758
   0.09377428  0.19418737  0.78232144
   0.90232698  0.79966272  0.20508299
   0.80165208  0.59622208  0.39979742
   0.73540570  0.46763908  0.20212336
   0.66989604  0.33906462 -0.00244132
   0.35638712  0.73520634  0.60127597
   0.13311670  0.26818177  0.40574871
   0.83722014  0.66647093  0.00020071
   0.93402315  0.87838482  0.78028073
   0.57327845  0.13133905  0.19945003
   0.40392791  0.79794614  0.19941766
   0.44414186  0.85584541  0.79431603
   0.29894919  0.60363062  0.40480155
   0.85133093  0.71989159  0.59538429
   0.46957742  0.93072000  0.40887736
   0.17428486  0.33348531  0.00224427
   0.26937465  0.53327188  0.79605777
   0.19701578  0.39307647  0.59244333
   0.06759006  0.14605550  0.21490925
   0.77083537  0.52448538  0.79880033
   0.69309585  0.39880961  0.60306020
   0.58970271  0.20416754  0.79578420
   0.54272604  0.06718542  0.60295187
   0.33560744  0.65984227 -0.00052163
   0.23158992  0.47081989  0.20052454
SQS with 1 vacancy for VFE and VRV      
           1
    -3.208038   -3.171995   -3.183659
     1.547936    1.654254   -7.971170
     7.817403   -7.829005   -1.489226
   Nb   Mo   Ta   Ti   W 
   5   6   6   6   6
Direct configuration=    17
   0.95953500  0.94295916  0.42152116
   0.63018946  0.26978309  0.40238289
   0.50132815  0.00355838 -0.00400804
   0.00002992  0.00292154 -0.00086006
   0.09377472  0.19361735  0.78238342
   0.90257335  0.80082769  0.20537137
   0.80110735  0.59628076  0.39898238
   0.73645934  0.46779776  0.20215452
   0.66986715  0.33934062 -0.00257086
   0.35591391  0.73449245  0.60094362
   0.13246197  0.26879061  0.40575838
   0.83692784  0.66711531 -0.00007851
   0.93468919  0.87721709  0.78029598
   0.57418810  0.13295841  0.19989245
   0.40388695  0.79906938  0.19924728
   0.44299996  0.85514040  0.79476507
   0.29797307  0.60310310  0.40466214
   0.85126392  0.71785571  0.59584188
   0.46878765  0.93114463  0.40868741
   0.17456691  0.33329281  0.00205699
   0.26915406  0.53250789  0.79612588
   0.19699811  0.39293795  0.59243845
   0.06941580  0.14607717  0.21526078
   0.77037578  0.52391932  0.79865266
   0.69144829  0.39855830  0.60264551
   0.58954504  0.20331930  0.79562672
   0.54245349  0.06726083  0.60264616
   0.33692987  0.66019264 -0.00098027
   0.23182232  0.47129368  0.20015466
SQS with 1 vacancy for VFE and VRV      
           1
    -3.207475   -3.168871   -3.180196
     1.548065    1.660412   -7.970663
     7.815688   -7.825711   -1.482859
   Nb   Mo   Ta   Ti   W 
   5   6   6   6   6
Direct configuration=    18
   0.95970569  0.94339452  0.42312989
   0.63008368  0.27003227  0.40244402
   0.50139302  0.00361926 -0.00388253
   0.00071243  0.00290897 -0.00078948
   0.09374381  0.19327497  0.78256304
   0.90256547  0.80144594  0.20551262
   0.80082952  0.59659829  0.39879527
   0.73642737  0.46834334  0.20182690
   0.67011251  0.33934161 -0.00279196
   0.35573100  0.73380357  0.60081107
   0.13215508  0.26920305  0.40537028
   0.83743940  0.66724157 -0.00013885
   0.93396032  0.87675046  0.78049545
   0.57436154  0.13350031  0.19963180
   0.40418626  0.79930933  0.19925424
   0.44346995  0.85475123  0.79467872
   0.29750206  0.60343717  0.40431565
   0.85094671  0.71714425  0.59604335
   0.46889063  0.93155779  0.40848910
   0.17478465  0.33325107  0.00206117
   0.26883302  0.53201273  0.79621176
   0.19642483  0.39269242  0.59244314
   0.07036904  0.14609100  0.21540341
   0.77027260  0.52362451  0.79867153
   0.69152965  0.39817971  0.60234240
   0.58984738  0.20275064  0.79548343
   0.54193222  0.06690768  0.60259099
   0.33627871  0.66038843 -0.00084685
   0.23217812  0.47177723  0.19988045
SQS with 1 vacancy for VFE and VRV      
           1
    -3.206602   -3.164020   -3.174821
     1.548264    1.669974   -7.969876
     7.813026   -7.820596   -1.472972
   Nb   Mo   Ta   Ti   W 
   5   6   6   6   6
Direct configuration=    19
   0.95997271  0.94407162  0.42562873
   0.62991970  0.27041905  0.40253908
   0.50149399  0.00371388 -0.00368754
   0.00177281  0.00288968 -0.00067970
   0.09369550  0.19274369  0.78284179
   0.90255414  0.80240563  0.20573237
   0.80039814  0.59709090  0.39850480
   0.73637814  0.46918986  0.20131840
   0.67049351  0.33934301 -0.00313529
   0.35544585  0.73273421  0.60060474
   0.13167851  0.26984279  0.40476768
   0.83823428  0.66743760 -0.00023237
   0.93282750  0.87602622  0.78080478
   0.57463147  0.13434122  0.19922734
   0.40465159  0.79968181  0.19926529
   0.44419958  0.85414723  0.79454449
   0.29677044  0.60395529  0.40377760
   0.85045315  0.71604012  0.59635574
   0.46905098  0.93219890  0.40818136
   0.17512287  0.33318635  0.00206769
   0.26833370  0.53124419  0.79634477
   0.19553387  0.39231121  0.59245012
   0.07185013  0.14611281  0.21562518
   0.77011194  0.52316693  0.79870064
   0.69165534  0.39759187  0.60187142
   0.59031626  0.20186797  0.79526063
   0.54112187  0.06635941  0.60250497
   0.33526741  0.66069227 -0.00063967
   0.23273128  0.47252761  0.19945495
SQS with 1 vacancy for VFE and VRV      
           1
    -3.210790   -3.166309   -3.176933
     1.549239    1.675283   -7.978207
     7.824460   -7.831205   -1.470259
   Nb   Mo   Ta   Ti   W 
   5   6   6   6   6
Direct configuration=    20
   0.96035858  0.94485120  0.42711903
   0.62981745  0.27052787  0.40251079
   0.50159575  0.00379912 -0.00361078
   0.00215488  0.00289121 -0.00055959
   0.09387994  0.19228844  0.78296187
   0.90258112  0.80291570  0.20588258
   0.80013705  0.59765024  0.39841165
   0.73628757  0.46981556  0.20100004
   0.67083588  0.33931876 -0.00330858
   0.35526786  0.73199060  0.60056411
   0.13163652  0.27029783  0.40421895
   0.83824255  0.66740906 -0.00018990
   0.93269703  0.87561337  0.78101242
   0.57500893  0.13461106  0.19904165
   0.40495039  0.79998637  0.19929382
   0.44407656  0.85359399  0.79445779
   0.29674805  0.60427093  0.40361697
   0.85016593  0.71558203  0.59645630
   0.46925759  0.93252655  0.40796820
   0.17534138  0.33325159  0.00207985
   0.26805125  0.53075464  0.79642356
   0.19502018  0.39202338  0.59221113
   0.07222649  0.14617169  0.21570664
   0.77000709  0.52283788  0.79872502
   0.69182920  0.39714670  0.60173406
   0.59038911  0.20150149  0.79513663
   0.54018511  0.06593338  0.60249780
   0.33504707  0.66086584 -0.00060645
   0.23287015  0.47290683  0.19924442
SQS with 1 vacancy for VFE and VRV      
           1
    -3.210078   -3.165920   -3.176574
     1.549073    1.674381   -7.976791
     7.822517   -7.829402   -1.470720
   Nb   Mo   Ta   Ti   W 
   5   6   6   6   6
Direct configuration=    21
   0.96029293  0.94471876  0.42686607
   0.62983480  0.27050940  0.40251559
   0.50157846  0.00378464 -0.00362381
   0.00209000  0.00289094 -0.00057998
   0.09384865  0.19236571  0.78294151
   0.90257650  0.80282911  0.20585706
   0.80018135  0.59755531  0.39842744
   0.73630293  0.46970938  0.20105404
   0.67077776  0.33932289 -0.00327917
   0.35529813  0.73211682  0.60057104
   0.13164366  0.27022064  0.40431206
   0.83824114  0.66741390 -0.00019711
   0.93271919  0.87568343  0.78097720
   0.57494484  0.13456526  0.19907314
   0.40489964  0.79993467  0.19928896
   0.44409749  0.85368790  0.79447253
   0.29675184  0.60421737  0.40364421
   0.85021472  0.71565978  0.59643926
   0.46922251  0.93247095  0.40800436
   0.17530428  0.33324051  0.00207778
   0.26809923  0.53083774  0.79641022
   0.19510742  0.39207227  0.59225171
   0.07216258  0.14616168  0.21569280
   0.77002491  0.52289373  0.79872090
   0.69179972  0.39722227  0.60175739
   0.59037677  0.20156371  0.79515769
   0.54034419  0.06600571  0.60249906
   0.33508447  0.66083638 -0.00061209
   0.23284656  0.47284248  0.19928013
SQS with 1 vacancy for VFE and VRV      
           1
    -3.210167   -3.165290   -3.175756
     1.547528    1.674131   -7.973217
     7.824031   -7.830732   -1.468775
   Nb   Mo   Ta   Ti   W 
   5   6   6   6   6
Direct configuration=    22
   0.96081477  0.94566787  0.42807054
   0.62970545  0.27060639  0.40238331
   0.50181648  0.00380862 -0.00364985
   0.00207652  0.00285710 -0.00044883
   0.09411215  0.19192055  0.78299216
   0.90268918  0.80312050  0.20598561
   0.80004792  0.59813664  0.39838390
   0.73616968  0.47028662  0.20086125
   0.67106829  0.33932076 -0.00337767
   0.35520611  0.73141283  0.60061016
   0.13178158  0.27073188  0.40368921
   0.83776900  0.66731755 -0.00010203
   0.93301213  0.87541543  0.78111839
   0.57542353  0.13464040  0.19897037
   0.40520755  0.80026009  0.19932426
   0.44351175  0.85308918  0.79444455
   0.29710761  0.60439268  0.40371402
   0.85001182  0.71545377  0.59647302
   0.46952172  0.93264073  0.40782265
   0.17545489  0.33340432  0.00206568
   0.26794455  0.53042313  0.79645372
   0.19490258  0.39175365  0.59180453
   0.07200689  0.14627416  0.21572538
   0.76988857  0.52254002  0.79873234
   0.69184812  0.39684819  0.60180249
   0.59028708  0.20132185  0.79502319
   0.53917877  0.06564493  0.60258744
   0.33530640  0.66093227 -0.00065372
   0.23279558  0.47311121  0.19919391
SQS with 1 vacancy for VFE and VRV      
           1
    -3.210294   -3.164391   -3.174591
     1.545324    1.673776   -7.968121
     7.826190   -7.832627   -1.466003
   Nb   Mo   Ta   Ti   W 
   5   6   6   6   6
Direct configuration=    23
   0.96155903  0.94702208  0.42978763
   0.62952098  0.27074470  0.40219475
   0.50215587  0.00384282 -0.00368696
   0.00205731  0.00280887 -0.00026188