  30  30   0   0
  0.1669312E+02  0.5577204E-09  0.8365806E-09  0.1149770E-08  0.5000000E-15
  1.000000000000000E-004
  CAR 
 Nb - Mo - Ta - Ti - V SQS               
     11.02564407    -50.68432495  301      6.18587595      1.00000000
    -50.684  0.0000E+00  0.0000E+00
    -50.479  0.0000E+00  0.0000E+00
    -50.273  0.0000E+00  0.0000E+00
    -50.067  0.0000E+00  0.0000E+00
    -49.862  0.0000E+00  0.0000E+00
    -49.656 -0.1217E-32 -0.2504E-33
    -49.450 -0.3501E-25 -0.7202E-26
    -49.244 -0.1169E-18 -0.2404E-19
    -49.039 -0.4523E-13 -0.9304E-14
    -48.833 -0.2125E-08 -0.4371E-09
    -48.627 -0.1170E-04 -0.2407E-05
    -48.422 -0.7340E-02 -0.1512E-02
    -48.216 -0.4641E+00 -0.9698E-01
    -48.010  0.7049E-01 -0.8248E-01
    -47.805  0.2755E+02  0.5584E+01
    -47.599  0.3007E+02  0.1177E+02
    -47.393  0.1753E+01  0.1213E+02
    -47.187 -0.6155E+00  0.1200E+02
    -46.982 -0.1965E-01  0.1200E+02
    -46.776 -0.6466E-04  0.1200E+02
    -46.570 -0.2455E-07  0.1200E+02
    -46.365 -0.1092E-11  0.1200E+02
    -46.159  0.0000E+00  0.1200E+02
    -45.953  0.0000E+00  0.1200E+02
    -45.748  0.0000E+00  0.1200E+02
    -45.542  0.0000E+00  0.1200E+02
    -45.336  0.0000E+00  0.1200E+02
    -45.130  0.0000E+00  0.1200E+02
    -44.925  0.0000E+00  0.1200E+02
    -44.719  0.0000E+00  0.1200E+02
    -44.513  0.0000E+00  0.1200E+02
    -44.308  0.0000E+00  0.1200E+02
    -44.102  0.0000E+00  0.1200E+02
    -43.896  0.0000E+00  0.1200E+02
    -43.691  0.0000E+00  0.1200E+02
    -43.485  0.0000E+00  0.1200E+02
    -43.279  0.0000E+00  0.1200E+02
    -43.073  0.0000E+00  0.1200E+02
    -42.868  0.0000E+00  0.1200E+02
    -42.662  0.0000E+00  0.1200E+02
    -42.456  0.0000E+00  0.1200E+02
    -42.251  0.0000E+00  0.1200E+02
    -42.045  0.0000E+00  0.1200E+02
    -41.839  0.0000E+00  0.1200E+02
    -41.634  0.0000E+00  0.1200E+02
    -41.428  0.0000E+00  0.1200E+02
    -41.222  0.0000E+00  0.1200E+02
    -41.016  0.0000E+00  0.1200E+02
    -40.811  0.0000E+00  0.1200E+02
    -40.605  0.0000E+00  0.1200E+02
    -40.399  0.0000E+00  0.1200E+02
    -40.194  0.0000E+00  0.1200E+02
    -39.988  0.0000E+00  0.1200E+02
    -39.782  0.0000E+00  0.1200E+02
    -39.577  0.0000E+00  0.1200E+02
    -39.371  0.0000E+00  0.1200E+02
    -39.165  0.0000E+00  0.1200E+02
    -38.959  0.0000E+00  0.1200E+02
    -38.754  0.0000E+00  0.1200E+02
    -38.548  0.0000E+00  0.1200E+02
    -38.342  0.0000E+00  0.1200E+02
    -38.137  0.0000E+00  0.1200E+02
    -37.931  0.0000E+00  0.1200E+02
    -37.725  0.0000E+00  0.1200E+02
    -37.520  0.0000E+00  0.1200E+02
    -37.314  0.0000E+00  0.1200E+02
    -37.108  0.0000E+00  0.1200E+02
    -36.902  0.0000E+00  0.1200E+02
    -36.697  0.0000E+00  0.1200E+02
    -36.491  0.0000E+00  0.1200E+02
    -36.285  0.0000E+00  0.1200E+02
    -36.080  0.0000E+00  0.1200E+02
    -35.874  0.0000E+00  0.1200E+02
    -35.668  0.0000E+00  0.1200E+02
    -35.463  0.0000E+00  0.1200E+02
    -35.257  0.0000E+00  0.1200E+02
    -35.051  0.0000E+00  0.1200E+02
    -34.845  0.0000E+00  0.1200E+02
    -34.640  0.0000E+00  0.1200E+02
    -34.434  0.0000E+00  0.1200E+02
    -34.228  0.0000E+00  0.1200E+02
    -34.023  0.0000E+00  0.1200E+02
    -33.817  0.0000E+00  0.1200E+02
    -33.611  0.0000E+00  0.1200E+02
    -33.406  0.0000E+00  0.1200E+02
    -33.200  0.0000E+00  0.1200E+02
    -32.994  0.0000E+00  0.1200E+02
    -32.788  0.0000E+00  0.1200E+02
    -32.583  0.0000E+00  0.1200E+02
    -32.377  0.0000E+00  0.1200E+02
    -32.171  0.0000E+00  0.1200E+02
    -31.966  0.0000E+00  0.1200E+02
    -31.760  0.0000E+00  0.1200E+02
    -31.554  0.0000E+00  0.1200E+02
    -31.349  0.0000E+00  0.1200E+02
    -31.143  0.0000E+00  0.1200E+02
    -30.937  0.0000E+00  0.1200E+02
    -30.731  0.0000E+00  0.1200E+02
    -30.526  0.0000E+00  0.1200E+02
    -30.320  0.0000E+00  0.1200E+02
    -30.114  0.0000E+00  0.1200E+02
    -29.909  0.0000E+00  0.1200E+02
    -29.703  0.0000E+00  0.1200E+02
    -29.497  0.0000E+00  0.1200E+02
    -29.292  0.0000E+00  0.1200E+02
    -29.086  0.0000E+00  0.1200E+02
    -28.880  0.0000E+00  0.1200E+02
    -28.674  0.0000E+00  0.1200E+02
    -28.469  0.0000E+00  0.1200E+02
    -28.263  0.0000E+00  0.1200E+02
    -28.057  0.0000E+00  0.1200E+02
    -27.852  0.0000E+00  0.1200E+02
    -27.646  0.0000E+00  0.1200E+02
    -27.440  0.0000E+00  0.1200E+02
    -27.235  0.0000E+00  0.1200E+02
    -27.029  0.0000E+00  0.1200E+02
    -26.823  0.0000E+00  0.1200E+02
    -26.617  0.0000E+00  0.1200E+02
    -26.412  0.0000E+00  0.1200E+02
    -26.206 -0.7137E-30  0.1200E+02
    -26.000 -0.7298E-23  0.1200E+02
    -25.795 -0.8852E-17  0.1200E+02
    -25.589 -0.1228E-11  0.1200E+02
    -25.383 -0.2058E-07  0.1200E+02
    -25.178 -0.4096E-04  0.1200E+02
    -24.972 -0.9869E-02  0.1200E+02
    -24.766 -0.2651E+00  0.1194E+02
    -24.560  0.7422E+00  0.1210E+02
    -24.355  0.1166E+02  0.1449E+02
    -24.149  0.2086E+02  0.1878E+02
    -23.943  0.5194E+02  0.2947E+02
    -23.738  0.5773E+02  0.4134E+02
    -23.532  0.2387E+02  0.4625E+02
    -23.326  0.8005E+01  0.4790E+02
    -23.121  0.6830E+00  0.4804E+02
    -22.915 -0.1846E+00  0.4800E+02
    -22.709 -0.1226E-01  0.4800E+02
    -22.503 -0.7813E-04  0.4800E+02
    -22.298 -0.5489E-07  0.4800E+02
    -22.092 -0.4382E-11  0.4800E+02
    -21.886  0.0000E+00  0.4800E+02
    -21.681  0.0000E+00  0.4800E+02
    -21.475  0.0000E+00  0.4800E+02
    -21.269  0.0000E+00  0.4800E+02
    -21.064  0.0000E+00  0.4800E+02
    -20.858  0.0000E+00  0.4800E+02
    -20.652  0.0000E+00  0.4800E+02
    -20.446  0.0000E+00  0.4800E+02
    -20.241  0.0000E+00  0.4800E+02
    -20.035  0.0000E+00  0.4800E+02
    -19.829  0.0000E+00  0.4800E+02
    -19.624  0.0000E+00  0.4800E+02
    -19.418  0.0000E+00  0.4800E+02
    -19.212  0.0000E+00  0.4800E+02
    -19.007  0.0000E+00  0.4800E+02
    -18.801  0.0000E+00  0.4800E+02
    -18.595  0.0000E+00  0.4800E+02
    -18.389  0.0000E+00  0.4800E+02
    -18.184  0.0000E+00  0.4800E+02
    -17.978  0.0000E+00  0.4800E+02
    -17.772  0.0000E+00  0.4800E+02
    -17.567  0.0000E+00  0.4800E+02
    -17.361  0.0000E+00  0.4800E+02
    -17.155  0.0000E+00  0.4800E+02
    -16.950  0.0000E+00  0.4800E+02
    -16.744  0.0000E+00  0.4800E+02
    -16.538  0.0000E+00  0.4800E+02
    -16.332  0.0000E+00  0.4800E+02
    -16.127  0.0000E+00  0.4800E+02
    -15.921  0.0000E+00  0.4800E+02
    -15.715  0.0000E+00  0.4800E+02
    -15.510  0.0000E+00  0.4800E+02
    -15.304  0.0000E+00  0.4800E+02
    -15.098  0.0000E+00  0.4800E+02
    -14.893  0.0000E+00  0.4800E+02
    -14.687  0.0000E+00  0.4800E+02
    -14.481  0.0000E+00  0.4800E+02
    -14.275  0.0000E+00  0.4800E+02
    -14.070  0.0000E+00  0.4800E+02
    -13.864  0.0000E+00  0.4800E+02
    -13.658  0.0000E+00  0.4800E+02
    -13.453  0.0000E+00  0.4800E+02
    -13.247  0.0000E+00  0.4800E+02
    -13.041  0.0000E+00  0.4800E+02
    -12.836  0.0000E+00  0.4800E+02
    -12.630  0.0000E+00  0.4800E+02
    -12.424  0.0000E+00  0.4800E+02
    -12.218  0.0000E+00  0.4800E+02
    -12.013  0.0000E+00  0.4800E+02
    -11.807  0.0000E+00  0.4800E+02
    -11.601  0.0000E+00  0.4800E+02
    -11.396  0.0000E+00  0.4800E+02
    -11.190  0.0000E+00  0.4800E+02
    -10.984  0.0000E+00  0.4800E+02
    -10.779  0.0000E+00  0.4800E+02
    -10.573  0.0000E+00  0.4800E+02
    -10.367  0.0000E+00  0.4800E+02
    -10.161  0.0000E+00  0.4800E+02
     -9.956  0.0000E+00  0.4800E+02
     -9.750  0.0000E+00  0.4800E+02
     -9.544  0.0000E+00  0.4800E+02
     -9.339  0.0000E+00  0.4800E+02
     -9.133  0.0000E+00  0.4800E+02
     -8.927  0.0000E+00  0.4800E+02
     -8.722  0.0000E+00  0.4800E+02
     -8.516  0.0000E+00  0.4800E+02
     -8.310  0.0000E+00  0.4800E+02
     -8.104  0.0000E+00  0.4800E+02
     -7.899  0.0000E+00  0.4800E+02
     -7.693  0.0000E+00  0.4800E+02
     -7.487  0.0000E+00  0.4800E+02
     -7.282  0.0000E+00  0.4800E+02
     -7.076  0.0000E+00  0.4800E+02
     -6.870  0.0000E+00  0.4800E+02
     -6.665  0.0000E+00  0.4800E+02
     -6.459  0.0000E+00  0.4800E+02
     -6.253  0.0000E+00  0.4800E+02
     -6.047  0.0000E+00  0.4800E+02
     -5.842  0.0000E+00  0.4800E+02
     -5.636  0.0000E+00  0.4800E+02
     -5.430  0.0000E+00  0.4800E+02
     -5.225  0.0000E+00  0.4800E+02
     -5.019  0.0000E+00  0.4800E+02
     -4.813  0.0000E+00  0.4800E+02
     -4.608  0.0000E+00  0.4800E+02
     -4.402  0.0000E+00  0.4800E+02
     -4.196  0.0000E+00  0.4800E+02
     -3.990  0.0000E+00  0.4800E+02
     -3.785  0.0000E+00  0.4800E+02
     -3.579  0.0000E+00  0.4800E+02
     -3.373  0.0000E+00  0.4800E+02
     -3.168  0.0000E+00  0.4800E+02
     -2.962  0.0000E+00  0.4800E+02
     -2.756  0.0000E+00  0.4800E+02
     -2.551  0.0000E+00  0.4800E+02
     -2.345  0.0000E+00  0.4800E+02
     -2.139 -0.2111E-30  0.4800E+02
     -1.933 -0.1699E-23  0.4800E+02
     -1.728 -0.1631E-17  0.4800E+02
     -1.522 -0.1802E-12  0.4800E+02
     -1.316 -0.2427E-08  0.4800E+02
     -1.111 -0.3871E-05  0.4800E+02
     -0.905 -0.7161E-03  0.4800E+02
     -0.699 -0.1283E-01  0.4800E+02
     -0.494  0.5194E-01  0.4801E+02
     -0.288  0.5317E+00  0.4812E+02
     -0.082  0.1309E+01  0.4839E+02
      0.124  0.2010E+01  0.4880E+02
      0.329  0.1718E+01  0.4915E+02
      0.535  0.1869E+01  0.4954E+02
      0.741  0.2976E+01  0.5015E+02
      0.946  0.3638E+01  0.5090E+02
      1.152  0.3123E+01  0.5154E+02
      1.358  0.3063E+01  0.5217E+02
      1.563  0.4868E+01  0.5317E+02
      1.769  0.4888E+01  0.5418E+02
      1.975  0.6220E+01  0.5546E+02
      2.181  0.7944E+01  0.5709E+02
      2.386  0.1031E+02  0.5921E+02
      2.592  0.1746E+02  0.6280E+02
      2.798  0.2308E+02  0.6755E+02
      3.003  0.2696E+02  0.7309E+02
      3.209  0.3096E+02  0.7946E+02
      3.415  0.3123E+02  0.8589E+02
      3.620  0.3272E+02  0.9262E+02
      3.826  0.3328E+02  0.9946E+02
      4.032  0.3098E+02  0.1058E+03
      4.238  0.2490E+02  0.1110E+03
      4.443  0.2529E+02  0.1162E+03
      4.649  0.3692E+02  0.1238E+03
      4.855  0.4501E+02  0.1330E+03
      5.060  0.4854E+02  0.1430E+03
      5.266  0.4733E+02  0.1527E+03
      5.472  0.4388E+02  0.1618E+03
      5.677  0.4638E+02  0.1713E+03
      5.883  0.5197E+02  0.1820E+03
      6.089  0.5421E+02  0.1931E+03
      6.295  0.4812E+02  0.2030E+03
      6.500  0.3959E+02  0.2112E+03
      6.706  0.2624E+02  0.2166E+03
      6.912  0.1563E+02  0.2198E+03
      7.117  0.1333E+02  0.2225E+03
      7.323  0.1610E+02  0.2259E+03
      7.529  0.1921E+02  0.2298E+03
      7.734  0.2163E+02  0.2343E+03
      7.940  0.1805E+02  0.2380E+03
      8.146  0.8706E+01  0.2398E+03
      8.352  0.1390E+01  0.2400E+03
      8.557 -0.1898E+00  0.2400E+03
      8.763 -0.2051E-01  0.2400E+03
      8.969 -0.2253E-03  0.2400E+03
      9.174 -0.3168E-06  0.2400E+03
      9.380 -0.5519E-10  0.2400E+03
      9.586 -0.1157E-14  0.2400E+03
      9.791  0.0000E+00  0.2400E+03
      9.997  0.0000E+00  0.2400E+03
     10.203  0.0000E+00  0.2400E+03
     10.409  0.0000E+00  0.2400E+03
     10.614  0.0000E+00  0.2400E+03
     10.820  0.0000E+00  0.2400E+03
     11.026  0.0000E+00  0.2400E+03
