   30   30    1    1
  0.1669312E+02  0.5577204E-09  0.8365805E-09  0.1149770E-08  0.5000000E-15
  1.000000000000000E-004
  CAR 
 Nb - Mo - Ta - Ti - V SQS               
    198     63    120
 
  0.0000000E+00  0.0000000E+00  0.0000000E+00  0.8000000E-02
    1      -47.879326   1.000000
    2      -47.859937   1.000000
    3      -47.823611   1.000000
    4      -47.781968   1.000000
    5      -47.753886   1.000000
    6      -47.657842   1.000000
    7      -24.521534   1.000000
    8      -24.390086   1.000000
    9      -24.252888   1.000000
   10      -24.214866   1.000000
   11      -24.019317   1.000000
   12      -24.012974   1.000000
   13      -24.009208   1.000000
   14      -23.965524   1.000000
   15      -23.951315   1.000000
   16      -23.934307   1.000000
   17      -23.916248   1.000000
   18      -23.873414   1.000000
   19      -23.828115   1.000000
   20      -23.813025   1.000000
   21      -23.695992   1.000000
   22      -23.679189   1.000000
   23      -23.547230   1.000000
   24      -23.340263   1.000000
   25       -0.478507   1.000000
   26        0.776712   1.000000
   27        1.129674   1.000000
   28        1.950436   1.000000
   29        2.120523   1.000000
   30        2.188922   1.000000
   31        2.316161   1.000000
   32        2.450017   1.000000
   33        2.480825   1.000000
   34        2.566798   1.000000
   35        2.612133   1.000000
   36        2.695409   1.000000
   37        2.756983   1.000000
   38        2.792278   1.000000
   39        2.927286   1.000000
   40        2.985100   1.000000
   41        3.051978   1.000000
   42        3.171873   1.000000
   43        3.271267   1.000000
   44        3.303645   1.000000
   45        3.353388   1.000000
   46        3.412999   1.000000
   47        3.482689   1.000000
   48        3.502048   1.000000
   49        3.615486   1.000000
   50        3.669964   1.000000
   51        3.750739   1.000000
   52        3.820059   1.000000
   53        3.884035   1.000000
   54        3.919283   1.000000
   55        4.057783   1.000000
   56        4.115826   1.000000
   57        4.193959   1.000000
   58        4.232854   1.000000
   59        4.392564   1.000000
   60        4.426703   1.000000
   61        4.502806   1.000000
   62        4.547958   1.000000
   63        4.555466   1.000000
   64        4.638414   1.000000
   65        4.643641   1.000000
   66        4.732902   1.000000
   67        4.749319   1.000000
   68        4.829164   1.000000
   69        4.850670   1.000000
   70        4.896225   1.000000
   71        4.948498   1.000000
   72        4.974280   1.000000
   73        5.036547   1.000000
   74        5.081054   1.000000
   75        5.093843   1.000000
   76        5.105158   1.000000
   77        5.130589   1.000000
   78        5.239315   1.000000
   79        5.301814   1.000000
   80        5.386247   1.000000
   81        5.531977   1.000019
   82        5.588717   1.000101
   83        5.638338   1.000375
   84        5.671354   1.000832
   85        5.707936   1.001869
   86        5.769188   1.006049
   87        5.827922   1.014828
   88        5.848654   1.019157
   89        5.871244   1.024308
   90        5.879549   1.026221
   91        5.895126   1.029655
   92        5.942406   1.035449
   93        5.968128   1.032054
   94        6.017923   0.999533
   95        6.169616   0.568549
   96        6.203633   0.425189
   97        6.275574   0.159492
   98        6.298019   0.098394
   99        6.324890   0.041860
  100        6.407003  -0.032902
  101        6.458762  -0.032990
  102        6.496473  -0.025241
  103        6.598959  -0.006435
  104        6.599228  -0.006405
  105        6.614676  -0.004885
  106        6.690675  -0.001040
  107        6.913870  -0.000002
  108        7.058089  -0.000000
  109        7.080706  -0.000000
  110        7.163838  -0.000000
  111        7.578395  -0.000000
  112        7.732590  -0.000000
  113        7.864106  -0.000000
  114        7.942321  -0.000000
  115        7.978340  -0.000000
  116        8.016094  -0.000000
  117        8.035326  -0.000000
  118        8.069912  -0.000000
  119        8.146814  -0.000000
  120        8.169357  -0.000000
 
  0.2000000E+00  0.0000000E+00 -0.1040834E-16  0.1600000E-01
    1      -47.877743   1.000000
    2      -47.855101   1.000000
    3      -47.821310   1.000000
    4      -47.781035   1.000000
    5      -47.753246   1.000000
    6      -47.667698   1.000000
    7      -24.438028   1.000000
    8      -24.377692   1.000000
    9      -24.246965   1.000000
   10      -24.209317   1.000000
   11      -24.021245   1.000000
   12      -24.014320   1.000000
   13      -24.004439   1.000000
   14      -23.966965   1.000000
   15      -23.950319   1.000000
   16      -23.937679   1.000000
   17      -23.918180   1.000000
   18      -23.875619   1.000000
   19      -23.836974   1.000000
   20      -23.815221   1.000000
   21      -23.700937   1.000000
   22      -23.683696   1.000000
   23      -23.548890   1.000000
   24      -23.452048   1.000000
   25       -0.178878   1.000000
   26        1.041321   1.000000
   27        1.383796   1.000000
   28        1.969947   1.000000
   29        2.324303   1.000000
   30        2.420929   1.000000
   31        2.475888   1.000000
   32        2.610355   1.000000
   33        2.637838   1.000000
   34        2.676480   1.000000
   35        2.800970   1.000000
   36        2.873188   1.000000
   37        2.925091   1.000000
   38        3.012164   1.000000
   39        3.074147   1.000000
   40        3.128344   1.000000
   41        3.173405   1.000000
   42        3.191050   1.000000
   43        3.281877   1.000000
   44        3.332921   1.000000
   45        3.453962   1.000000
   46        3.488568   1.000000
   47        3.559513   1.000000
   48        3.656718   1.000000
   49        3.689187   1.000000
   50        3.713135   1.000000
   51        3.821631   1.000000
   52        3.896266   1.000000
   53        3.935714   1.000000
   54        4.015441   1.000000
   55        4.074593   1.000000
   56        4.151823   1.000000
   57        4.220879   1.000000
   58        4.303975   1.000000
   59        4.422629   1.000000
   60        4.474417   1.000000
   61        4.533526   1.000000
   62        4.663531   1.000000
   63        4.674170   1.000000
   64        4.748514   1.000000
   65        4.781818   1.000000
   66        4.810336   1.000000
   67        4.855699   1.000000
   68        4.920411   1.000000
   69        4.933785   1.000000
   70        4.943330   1.000000
   71        5.016546   1.000000
   72        5.043490   1.000000
   73        5.101806   1.000000
   74        5.114970   1.000000
   75        5.198190   1.000000
   76        5.226255   1.000000
   77        5.242891   1.000000
   78        5.271664   1.000000
   79        5.311760   1.000000
   80        5.359756   1.000000
   81        5.363837   1.000000
   82        5.461897   1.000002
   83        5.508923   1.000009
   84        5.569714   1.000059
   85        5.602835   1.000149
   86        5.649678   1.000497
   87        5.677124   1.000950
   88        5.767245   1.005849
   89        5.853312   1.020194
   90        5.878807   1.026052
   91        5.910676   1.032613
   92        5.948832   1.035204
   93        5.979615   1.028079
   94        6.015050   1.002628
   95        6.108574   0.801578
   96        6.126059   0.740992
   97        6.166561   0.581307
   98        6.202529   0.429806
   99        6.265194   0.191853
  100        6.298756   0.096600
  101        6.327126   0.037963
  102        6.379996  -0.021801
  103        6.442316  -0.034988
  104        6.480244  -0.028887
  105        6.502715  -0.023797
  106        6.553613  -0.012989
  107        6.578770  -0.008952
  108        6.774669  -0.000127
  109        6.847353  -0.000015
  110        6.949033  -0.000000
  111        7.243255  -0.000000
  112        7.298485  -0.000000
  113        7.348932  -0.000000
  114        7.401807  -0.000000
  115        7.498453  -0.000000
  116        7.649527  -0.000000
  117        7.702211  -0.000000
  118        7.757117  -0.000000
  119        7.774963  -0.000000
  120        7.819820  -0.000000
 
  0.4000000E+00  0.0000000E+00 -0.2081668E-16  0.1600000E-01
    1      -47.875895   1.000000
    2      -47.847474   1.000000
    3      -47.815547   1.000000
    4      -47.778360   1.000000
    5      -47.751245   1.000000
    6      -47.686906   1.000000
    7      -24.399957   1.000000
    8      -24.265637   1.000000
    9      -24.223752   1.000000
   10      -24.109102   1.000000
   11      -24.026895   1.000000
   12      -24.017085   1.000000
   13      -23.993854   1.000000
   14      -23.968110   1.000000
   15      -23.949172   1.000000
   16      -23.937710   1.000000
   17      -23.921748   1.000000
   18      -23.879063   1.000000
   19      -23.856996   1.000000
   20      -23.819322   1.000000
   21      -23.762216   1.000000
   22      -23.703700   1.000000
   23      -23.673359   1.000000
   24      -23.544062   1.000000
   25        0.629474   1.000000
   26        1.552785   1.000000
   27        1.878967   1.000000
   28        2.094815   1.000000
   29        2.174619   1.000000
   30        2.554258   1.000000
   31        2.606643   1.000000
   32        2.782032   1.000000
   33        2.890796   1.000000
   34        2.988318   1.000000
   35        3.069313   1.000000
   36        3.098789   1.000000
   37        3.195658   1.000000
   38        3.222631   1.000000
   39        3.319051   1.000000
   40        3.373603   1.000000
   41        3.427888   1.000000
   42        3.465499   1.000000
   43        3.490489   1.000000
   44        3.572864   1.000000
   45        3.670407   1.000000
   46        3.687862   1.000000
   47        3.743004   1.000000
   48        3.770509   1.000000
   49        3.878676   1.000000
   50        3.908713   1.000000
   51        4.036915   1.000000
   52        4.087866   1.000000
   53        4.145953   1.000000
   54        4.227657   1.000000
   55        4.300183   1.000000
   56        4.354673   1.000000
   57        4.425350   1.000000
   58        4.467025   1.000000
   59        4.494748   1.000000
   60        4.550052   1.000000
   61        4.585423   1.000000
   62        4.626619   1.000000
   63        4.678533   1.000000
   64        4.710086   1.000000
   65        4.737007   1.000000
   66        4.823784   1.000000
   67        4.844445   1.000000
   68        4.872898   1.000000
   69        4.913383   1.000000
   70        4.965382   1.000000
   71        5.020661   1.000000
   72        5.064830   1.000000
   73        5.100576   1.000000
   74        5.144897   1.000000
   75        5.198635   1.000000
   76        5.248679   1.000000
   77        5.303754   1.000000
   78        5.329505   1.000000
   79        5.345388   1.000000
   80        5.382597   1.000000
   81        5.468830   1.000002
   82        5.521368   1.000014
   83        5.552320   1.000035
   84        5.592799   1.000113
   85        5.637532   1.000368
   86        5.684414   1.001121
   87        5.732256   1.003063
   88        5.767996   1.005926
   89        5.812555   1.012006
   90        5.834559   1.016155
   91        5.862960   1.022393
   92        5.892295   1.029056
   93        5.931316   1.035125
   94        5.954789   1.034646
   95        5.961488   1.033592
   96        6.043588   0.963804
   97        6.080554   0.884362
   98        6.117783   0.770445
   99        6.161735   0.601330
  100        6.172559   0.556210
  101        6.216825   0.370766
  102        6.259867   0.209407
  103        6.273068   0.167073
  104        6.352282   0.002206
  105        6.357907  -0.003876
  106        6.426255  -0.035375
  107        6.480088  -0.028921
  108        6.503904  -0.023522
  109        6.532923  -0.017039
  110        6.597855  -0.006556
  111        6.633678  -0.003429
  112        6.678465  -0.001364
  113        6.953045  -0.000000
  114        7.071389  -0.000000
  115        7.092799  -0.000000
  116        7.210444  -0.000000
  117        7.293434  -0.000000
  118        7.313964  -0.000000
  119        7.424679  -0.000000
  120        7.523933  -0.000000
 
 -0.1387779E-16  0.2000000E+00 -0.2081668E-16  0.1600000E-01
    1      -47.879210   1.000000
    2      -47.859822   1.000000
    3      -47.823601   1.000000
    4      -47.782159   1.000000
    5      -47.753938   1.000000
    6      -47.657840   1.000000
    7      -24.521538   1.000000
    8      -24.389201   1.000000
    9      -24.249886   1.000000
   10      -24.214103   1.000000
   11      -24.019437   1.000000
   12      -24.013083   1.000000
   13      -24.009218   1.000000
   14      -23.965573   1.000000
   15      -23.951291   1.000000
   16      -23.934216   1.000000
   17      -23.916187   1.000000
   18      -23.873363   1.000000
   19      -23.828131   1.000000
   20      -23.813085   1.000000
   21      -23.697889   1.000000
   22      -23.682288   1.000000
   23      -23.547535   1.000000
   24      -23.340273   1.000000
   25       -0.352573   1.000000
   26        0.839358   1.000000
   27        1.246552   1.000000
   28        1.463096   1.000000
   29        2.059145   1.000000
   30        2.264555   1.000000
   31        2.340601   1.000000
   32        2.482089   1.000000
   33        2.496015   1.000000
   34        2.579260   1.000000
   35        2.655219   1.000000
   36        2.724572   1.000000
   37        2.770827   1.000000
   38        2.833070   1.000000
   39        2.913358   1.000000
   40        2.943632   1.000000
   41        3.037736   1.000000
   42        3.106099   1.000000
   43        3.225416   1.000000
   44        3.303856   1.000000
   45        3.384459   1.000000
   46        3.449638   1.000000
   47        3.482894   1.000000
   48        3.590213   1.000000
   49        3.611279   1.000000
   50        3.688839   1.000000
   51        3.757100   1.000000
   52        3.832010   1.000000
   53        3.860126   1.000000
   54        3.905798   1.000000
   55        3.980457   1.000000
   56        4.059999   1.000000
   57        4.163668   1.000000
   58        4.326274   1.000000
   59        4.410908   1.000000
   60        4.470050   1.000000
   61        4.512419   1.000000
   62        4.610424   1.000000
   63        4.643617   1.000000
   64        4.692496   1.000000
   65        4.734640   1.000000
   66        4.767807   1.000000
   67        4.818448   1.000000
   68        4.874663   1.000000
   69        4.889342   1.000000
   70        4.921644   1.000000
   71        4.971769   1.000000
   72        5.002815   1.000000
   73        5.038166   1.000000
   74        5.094976   1.000000
   75        5.138861   1.000000
   76        5.161093   1.000000
   77        5.209514   1.000000
   78        5.225522   1.000000
   79        5.336750   1.000000
   80        5.363220   1.000000
   81        5.540980   1.000025
   82        5.561312   1.000046
   83        5.624661   1.000265
   84        5.656737   1.000589
   85        5.689119   1.001245
   86        5.714784   1.002155
   87        5.747097   1.004068
   88        5.797638   1.009623
   89        5.830333   1.015303
   90        5.853512   1.020239
   91        5.885210   1.027503
   92        5.930764   1.035087
   93        5.967154   1.032313
   94        5.999730   1.016365
   95        6.052667   0.947455
   96        6.063406   0.925479
   97        6.125512   0.742981
   98        6.192172   0.473374
   99        6.243192   0.268167
  100        6.454770  -0.033591
  101        6.535141  -0.016577
  102        6.556300  -0.012510
  103        6.596977  -0.006655
  104        6.695013  -0.000942
  105        6.736965  -0.000343
  106        6.761394  -0.000182
  107        6.888126  -0.000004
  108        7.069410  -0.000000
  109        7.125794  -0.000000
  110        7.177524  -0.000000
  111        7.314815  -0.000000
  112        7.361162  -0.000000
  113        7.472896  -0.000000
  114        7.726085  -0.000000
  115        7.798199  -0.000000
  116        7.922066  -0.000000
  117        7.947086  -0.000000
  118        8.000481  -0.000000
  119        8.052102  -0.000000
  120        8.085692  -0.000000
 
  0.2000000E+00  0.2000000E+00  0.1387779E-16  0.1600000E-01
    1      -47.877873   1.000000
    2      -47.855201   1.000000
    3      -47.821308   1.000000
    4      -47.780855   1.000000
    5      -47.753199   1.000000
    6      -47.667700   1.000000
    7      -24.438145   1.000000
    8      -24.378479   1.000000
    9      -24.250140   1.000000
   10      -24.209761   1.000000
   11      -24.021247   1.000000
   12      -24.014337   1.000000
   13      -24.004395   1.000000
   14      -23.967000   1.000000
   15      -23.950268   1.000000
   16      -23.937632   1.000000
   17      -23.918194   1.000000
   18      -23.875643   1.000000
   19      -23.836930   1.000000
   20      -23.815180   1.000000
   21      -23.699476   1.000000
   22      -23.680302   1.000000
   23      -23.548607   1.000000
   24      -23.452038   1.000000
   25       -0.174321   1.000000
   26        1.003171   1.000000
   27        1.412355   1.000000
   28        1.949522   1.000000
   29        2.288239   1.000000
   30        2.397589   1.000000
   31        2.437457   1.000000
   32        2.539976   1.000000
   33        2.583980   1.000000
   34        2.663810   1.000000
   35        2.724225   1.000000
   36        2.816605   1.000000
   37        2.918950   1.000000
   38        2.965870   1.000000
   39        3.035033   1.000000
   40        3.075379   1.000000
   41        3.152700   1.000000
   42        3.172321   1.000000
   43        3.361309   1.000000
   44        3.402408   1.000000
   45        3.450468   1.000000
   46        3.518131   1.000000
   47        3.589029   1.000000
   48        3.647497   1.000000
   49        3.742647   1.000000
   50        3.795714   1.000000
   51        3.818993   1.000000
   52        3.908062   1.000000
   53        3.997429   1.000000
   54        4.054919   1.000000
   55        4.111582   1.000000
   56        4.171398   1.000000
   57        4.267234   1.000000
   58        4.353174   1.000000
   59        4.431567   1.000000
   60        4.506248   1.000000
   61        4.559645   1.000000
   62        4.577031   1.000000
   63        4.663292   1.000000
   64        4.680488   1.000000
   65        4.715660   1.000000
   66        4.802145   1.000000
   67        4.831133   1.000000
   68        4.865666   1.000000
   69        4.909514   1.000000
   70        4.929037   1.000000
   71        4.963332   1.000000
   72        4.985056   1.000000
   73        5.008764   1.000000
   74        5.062494   1.000000
   75        5.094574   1.000000
   76        5.161231   1.000000
   77        5.230811   1.000000
   78        5.257216   1.000000
   79        5.324304   1.000000
   80        5.399710   1.000000
   81        5.448801   1.000001
   82        5.503766   1.000008
   83        5.570787   1.000061
   84        5.589192   1.000102
   85        5.627567   1.000286
   86        5.698169   1.001517
   87        5.743713   1.003817
   88        5.798876   1.009807
   89        5.821793   1.013659
   90        5.867535   1.023450
   91        5.897648   1.030176
   92        5.927883   1.034859
   93        5.960892   1.033706
   94        5.981926   1.027057
   95        6.076689   0.894276
   96        6.105694   0.810935
   97        6.175415   0.544197
   98        6.221152   0.353279
   99        6.295679   0.104178
  100        6.332727   0.028734
  101        6.379426  -0.021449
  102        6.424194  -0.035281
  103        6.475342  -0.029922
  104        6.522546  -0.019279
  105        6.557183  -0.012355
  106        6.584199  -0.008213
  107        6.644495  -0.002775
  108        6.695539  -0.000931
  109        6.778158  -0.000116
  110        6.843386  -0.000017
  111        6.924782  -0.000001
  112        7.225606  -0.000000
  113        7.588558  -0.000000
  114        7.689822  -0.000000
  115        7.759173  -0.000000
  116        7.790622  -0.000000
  117        7.933145  -0.000000
  118        7.997669  -0.000000
  119        8.032956  -0.000000
  120        8.091591  -0.000000
 
  0.4000000E+00  0.2000000E+00 -0.2775558E-16  0.1600000E-01
    1      -47.876139   1.000000
    2      -47.847632   1.000000
    3      -47.815497   1.000000
    4      -47.778068   1.000000
    5      -47.751185   1.000000
    6      -47.686908   1.000000
    7      -24.401099   1.000000
    8      -24.268541   1.000000
    9      -24.227228   1.000000
   10      -24.109082   1.000000
   11      -24.026882   1.000000
   12      -24.017084   1.000000
   13      -23.993799   1.000000
   14      -23.968119   1.000000
   15      -23.949150   1.000000
   16      -23.937647   1.000000
   17      -23.921779   1.000000
   18      -23.879123   1.000000
   19      -23.856914   1.000000
   20      -23.819278   1.000000
   21      -23.762192   1.000000
   22      -23.697476   1.000000
   23      -23.671451   1.000000
   24      -23.543685   1.000000
   25        0.536496   1.000000
   26        1.496498   1.000000
   27        1.847899   1.000000
   28        2.052786   1.000000
   29        2.193505   1.000000
   30        2.327477   1.000000
   31        2.653755   1.000000
   32        2.846135   1.000000
   33        2.913542   1.000000
   34        3.007120   1.000000
   35        3.078945   1.000000
   36        3.120189   1.000000
   37        3.203222   1.000000
   38        3.241000   1.000000
   39        3.264409   1.000000
   40        3.384058   1.000000
   41        3.457821   1.000000
   42        3.482645   1.000000
   43        3.558213   1.000000
   44        3.589866   1.000000
   45        3.639463   1.000000
   46        3.679223   1.000000
   47        3.750248   1.000000
   48        3.825460   1.000000
   49        3.877737   1.000000
   50        3.948501   1.000000
   51        3.994974   1.000000
   52        4.068942   1.000000
   53        4.127936   1.000000
   54        4.156725   1.000000
   55        4.217125   1.000000
   56        4.272523   1.000000
   57        4.323388   1.000000
   58        4.403576   1.000000
   59        4.467044   1.000000
   60        4.585947   1.000000
   61        4.610158   1.000000
   62        4.629544   1.000000
   63        4.691326   1.000000
   64        4.739724   1.000000
   65        4.777529   1.000000
   66        4.828673   1.000000
   67        4.862011   1.000000
   68        4.905949   1.000000
   69        4.943135   1.000000
   70        4.987232   1.000000
   71        5.035384   1.000000
   72        5.050941   1.000000
   73        5.087330   1.000000
   74        5.151062   1.000000
   75        5.180943   1.000000
   76        5.223940   1.000000
   77        5.244578   1.000000
   78        5.342534   1.000000
   79        5.383727   1.000000
   80        5.440870   1.000001
   81        5.461617   1.000002
   82        5.513769   1.000011
   83        5.562243   1.000048
   84        5.581032   1.000082
   85        5.607520   1.000169
   86        5.624107   1.000261
   87        5.702406   1.001662
   88        5.712130   1.002040
   89        5.763282   1.005457
   90        5.802414   1.010347
   91        5.827880   1.014820
   92        5.859126   1.021513
   93        5.883162   1.027042
   94        5.928272   1.034892
   95        5.948342   1.035235
   96        5.980210   1.027823
   97        6.018308   0.999105
   98        6.048445   0.955309
   99        6.065145   0.921648
  100        6.104081   0.816097
  101        6.147223   0.660217
  102        6.200494   0.438328
  103        6.237945   0.287740
  104        6.280741   0.144329
  105        6.322648   0.045888
  106        6.347946   0.007352
  107        6.469221  -0.031145
  108        6.571490  -0.010016
  109        6.617393  -0.004650
  110        6.698022  -0.000879
  111        6.767963  -0.000153
  112        7.096898  -0.000000
  113        7.212365  -0.000000
  114        7.272401  -0.000000
  115        7.347306  -0.000000
  116        7.458343  -0.000000
  117        7.520776  -0.000000
  118        7.579119  -0.000000
  119        7.644857  -0.000000
  120        7.684634  -0.000000
 
 -0.4000000E+00  0.2000000E+00 -0.1110223E-15  0.1600000E-01
    1      -47.875891   1.000000
    2      -47.847473   1.000000
    3      -47.815547   1.000000
    4      -47.778365   1.000000
    5      -47.751245   1.000000
    6      -47.686906   1.000000
    7      -24.399943   1.000000
    8      -24.265618   1.000000
    9      -24.223726   1.000000
   10      -24.109103   1.000000
   11      -24.026999   1.000000
   12      -24.017071   1.000000
   13      -23.993876   1.000000
   14      -23.968126   1.000000
   15      -23.949075   1.000000
   16      -23.937693   1.000000
   17      -23.921718   1.000000
   18      -23.879053   1.000000
   19      -23.856991   1.000000
   20      -23.819319   1.000000
   21      -23.762208   1.000000
   22      -23.703734   1.000000
   23      -23.673393   1.000000
   24      -23.544071   1.000000
   25        0.887498   1.000000
   26        1.532272   1.000000
   27        1.656368   1.000000
   28        1.943043   1.000000
   29        2.226240   1.000000
   30        2.452018   1.000000
   31        2.538312   1.000000
   32        2.672799   1.000000
   33        2.899986   1.000000
   34        3.003166   1.000000
   35        3.089160   1.000000
   36        3.148255   1.000000
   37        3.186493   1.000000
   38        3.260797   1.000000
   39        3.295173   1.000000
   40        3.356393   1.000000
   41        3.412039   1.000000
   42        3.452240   1.000000
   43        3.527321   1.000000
   44        3.588577   1.000000
   45        3.651564   1.000000
   46        3.738472   1.000000
   47        3.782847   1.000000
   48        3.857421   1.000000
   49        3.935606   1.000000
   50        3.989815   1.000000
   51        4.013371   1.000000
   52        4.076769   1.000000
   53        4.124246   1.000000
   54        4.225788   1.000000
   55        4.308220   1.000000
   56        4.412523   1.000000
   57        4.466775   1.000000
   58        4.500970   1.000000
   59        4.511143   1.000000
   60        4.541556   1.000000
   61        4.562141   1.000000
   62        4.627979   1.000000
   63        4.641432   1.000000
   64        4.715276   1.000000
   65        4.740517   1.000000
   66        4.798631   1.000000
   67        4.855731   1.000000
   68        4.901003   1.000000
   69        4.916363   1.000000
   70        4.942641   1.000000
   71        4.954474   1.000000
   72        5.056875   1.000000
   73        5.088773   1.000000
   74        5.120440   1.000000
   75        5.187991   1.000000
   76        5.208004   1.000000
   77        5.250478   1.000000
   78        5.276164   1.000000
   79        5.374316   1.000000
   80        5.423803   1.000000
   81        5.435501   1.000001
   82        5.498431   1.000007
   83        5.511871   1.000010
   84        5.555444   1.000039
   85        5.666348   1.000740
   86        5.694912   1.001414
   87        5.739627   1.003532
   88        5.760889   1.005230
   89        5.809816   1.011541
   90        5.829639   1.015165
   91        5.887823   1.028083
   92        5.898170   1.030283
   93        5.935321   1.035341
   94        5.971091   1.031196
   95        6.003245   1.013609
   96        6.052405   0.947955
   97        6.082944   0.878043
   98        6.114495   0.781770
   99        6.147269   0.660034
  100        6.189303   0.485501
  101        6.224989   0.337957
  102        6.258933   0.212546
  103        6.305661   0.080468
  104        6.343606   0.012914
  105        6.354880  -0.000685
  106        6.390841  -0.027515
  107        6.431524  -0.035456
  108        6.453077  -0.033826
  109        6.542968  -0.014997
  110        6.599848  -0.006338
  111        6.729772  -0.000411
  112        6.754607  -0.000218
  113        6.785636  -0.000094
  114        6.896637  -0.000003
  115        7.168841  -0.000000
  116        7.326590  -0.000000
  117        7.526143  -0.000000
  118        7.540995  -0.000000
  119        7.591925  -0.000000
  120        7.658269  -0.000000
 
 -0.2000000E+00  0.2000000E+00 -0.9714451E-16  0.1600000E-01
    1      -47.877524   1.000000
    2      -47.854933   1.000000
    3      -47.821314   1.000000
    4      -47.781342   1.000000
    5      -47.753323   1.000000
    6      -47.667696   1.000000
    7      -24.437847   1.000000
    8      -24.376429   1.000000
    9      -24.241742   1.000000
   10      -24.208349   1.000000
   11      -24.021442   1.000000
   12      -24.014342   1.000000
   13      -24.004532   1.000000
   14      -23.966999   1.000000
   15      -23.950273   1.000000
   16      -23.937598   1.000000
   17      -23.918093   1.000000
   18      -23.875538   1.000000
   19      -23.837028   1.000000
   20      -23.815287   1.000000
   21      -23.704849   1.000000
   22      -23.688035   1.000000
   23      -23.549341   1.000000
   24      -23.452055   1.000000
   25        0.051515   1.000000
   26        1.144236   1.000000
   27        1.389427   1.000000
   28        1.584676   1.000000
   29        2.137133   1.000000
   30        2.480411   1.000000
   31        2.573688   1.000000
   32        2.664707   1.000000
   33        2.701994   1.000000
   34        2.744886   1.000000
   35        2.875985   1.000000
   36        2.905335   1.000000
   37        2.916727   1.000000
   38        2.995791   1.000000
   39        3.017510   1.000000
   40        3.073508   1.000000
   41        3.121765   1.000000
   42        3.185162   1.000000
   43        3.261352   1.000000
   44        3.331733   1.000000
   45        3.405611   1.000000
   46        3.468763   1.000000
   47        3.546908   1.000000