       N       E                     dE             d eps       ncg     rms          rms(c)
DAV:   1    -0.318047241203E+03   -0.31805E+03   -0.13664E-02 25408   0.438E-01    0.117E-01
DAV:   2    -0.317981324540E+03    0.65917E-01   -0.21140E-02 24456   0.580E-01    0.372E-01
DAV:   3    -0.317979770516E+03    0.15540E-02   -0.85039E-03 23152   0.364E-01    0.671E-02
DAV:   4    -0.317979840826E+03   -0.70310E-04   -0.13466E-03 19584   0.153E-01    0.113E-01
DAV:   5    -0.317979750016E+03    0.90810E-04   -0.66520E-04 15848   0.124E-01
   1 F= -.31797975E+03 E0= -.31797627E+03  d E =-.104288E-01
