 vasp.5.4.4.18Apr17-6-g9f103f2a35 (build Aug 09 2018 16:20:53) complex          
  
 executed on             LinuxIFC date 2020.04.28  21:32:13
 running on   32 total cores
 distrk:  each k-point on   32 cores,    1 groups
 distr:  one band on NCORES_PER_BAND=   4 cores,    8 groups


--------------------------------------------------------------------------------------------------------


 INCAR:
 POTCAR:    PAW_PBE Nb_sv 25May2007               
 POTCAR:    PAW_PBE Mo 08Apr2002                  
 POTCAR:    PAW_PBE Ta 17Jan2003                  
 POTCAR:    PAW_PBE Ti 08Apr2002                  
 POTCAR:    PAW_PBE V 08Apr2002                   
 POTCAR:    PAW_PBE Nb_sv 25May2007               
   VRHFIN =Nb: 4p5s4d                                                           
   LEXCH  = PE                                                                  
   EATOM  =  1555.1913 eV,  114.3033 Ry                                         
                                                                                
   TITEL  = PAW_PBE Nb_sv 25May2007                                             
   LULTRA =        F    use ultrasoft PP ?                                      
   IUNSCR =        1    unscreen: 0-lin 1-nonlin 2-no                           
   RPACOR =    1.800    partial core radius                                     
   POMASS =   92.910; ZVAL   =   13.000    mass and valenz                      
   RCORE  =    2.400    outmost cutoff radius                                   
   RWIGS  =    2.400; RWIGS  =    1.270    wigner-seitz radius (au A)           
   ENMAX  =  293.235; ENMIN  =  219.927 eV                                      
   ICORE  =        3    local potential                                         
   LCOR   =        T    correct aug charges                                     
   LPAW   =        T    paw PP                                                  
   EAUG   =  455.659                                                            
   DEXC   =    0.000                                                            
   RMAX   =    2.456    core radius for proj-oper                               
   RAUG   =    1.300    factor for augmentation sphere                          
   RDEP   =    2.451    radius for radial grids                                 
   RDEPT  =    1.956    core radius for aug-charge                              
                                                                                
   Atomic configuration                                                         
   11 entries                                                                   
     n  l   j            E        occ.                                          
     1  0  0.50    -18805.2457   2.0000                                         
     2  0  0.50     -2630.2869   2.0000                                         
     2  1  1.50     -2348.4046   6.0000                                         
     3  0  0.50      -438.8757   2.0000                                         
     3  1  1.50      -346.7588   6.0000                                         
     3  2  2.50      -196.2560  10.0000                                         
     4  0  0.50       -58.3859   2.0000                                         
     5  0  0.50        -3.9816   1.0000                                         
     4  1  1.50       -34.5141   6.0000                                         
     4  2  2.50        -3.0408   4.0000                                         
     4  3  2.50        -1.3606   0.0000                                         
   Description                                                                  
     l       E           TYP  RCUT    TYP  RCUT                                 
     0    -58.3859094     23  2.200                                             
     0     -3.9816262     23  2.200                                             
     1    -34.5140738     23  2.200                                             
     1     13.6058260     23  2.200                                             
     2     -3.0408010     23  2.200                                             
     2     -0.1283038     23  2.200                                             
     3     -1.3605826     23  2.400                                             
  local pseudopotential read in
  partial core-charges read in
  partial kinetic energy density read in
  atomic valenz-charges read in
  non local Contribution for L=           0  read in
    real space projection operators read in
  non local Contribution for L=           0  read in
    real space projection operators read in
  non local Contribution for L=           1  read in
    real space projection operators read in
  non local Contribution for L=           1  read in
    real space projection operators read in
  non local Contribution for L=           2  read in
    real space projection operators read in
  non local Contribution for L=           2  read in
    real space projection operators read in
    PAW grid and wavefunctions read in
 
   number of l-projection  operators is LMAX  =           6
   number of lm-projection operators is LMMAX =          18
 
 POTCAR:    PAW_PBE Mo 08Apr2002                  
   VRHFIN =Mo: 4p5s4d                                                           
   LEXCH  = PE                                                                  
   EATOM  =   217.5176 eV,   15.9871 Ry                                         
                                                                                
   TITEL  = PAW_PBE Mo 08Apr2002                                                
   LULTRA =        F    use ultrasoft PP ?                                      
   IUNSCR =        1    unscreen: 0-lin 1-nonlin 2-no                           
   RPACOR =    2.200    partial core radius                                     
   POMASS =   95.940; ZVAL   =    6.000    mass and valenz                      
   RCORE  =    2.750    outmost cutoff radius                                   
   RWIGS  =    2.750; RWIGS  =    1.455    wigner-seitz radius (au A)           
   ENMAX  =  224.584; ENMIN  =  168.438 eV                                      
   RCLOC  =    2.111    cutoff for local pot                                    
   LCOR   =        T    correct aug charges                                     
   LPAW   =        T    paw PP                                                  
   EAUG   =  345.278                                                            
   DEXC   =    0.000                                                            
   RMAX   =    2.821    core radius for proj-oper                               
   RAUG   =    1.300    factor for augmentation sphere                          
   RDEP   =    2.815    radius for radial grids                                 
   RDEPT  =    2.211    core radius for aug-charge                              
                                                                                
   Atomic configuration                                                         
   12 entries                                                                   
     n  l   j            E        occ.                                          
     1  0  0.50    -19819.0341   2.0000                                         
     2  0  0.50     -2799.0127   2.0000                                         
     2  1  1.50     -2502.0276   6.0000                                         
     3  0  0.50      -476.4448   2.0000                                         
     3  1  1.50      -379.1496   6.0000                                         
     3  2  2.50      -220.9367  10.0000                                         
     4  0  0.50       -64.3378   2.0000                                         
     4  1  1.50       -38.4773   6.0000                                         
     4  2  2.50        -3.7535   5.0000                                         
     5  0  0.50        -4.0862   1.0000                                         
     5  1  0.50        -2.7701   0.0000                                         
     4  3  2.50        -1.3606   0.0000                                         
   Description                                                                  
     l       E           TYP  RCUT    TYP  RCUT                                 
     2     -3.7534765     23  2.500                                             
     2     -5.1140591     23  2.500                                             
     0     -4.0861560     23  2.600                                             
     0     13.6058260     23  2.600                                             
     1      5.4423304     23  2.750                                             
     1     27.2116520     23  2.750                                             
  local pseudopotential read in
  partial core-charges read in
  partial kinetic energy density read in
  atomic valenz-charges read in
  non local Contribution for L=           2  read in
    real space projection operators read in
  non local Contribution for L=           2  read in
    real space projection operators read in
  non local Contribution for L=           0  read in
    real space projection operators read in
  non local Contribution for L=           0  read in
    real space projection operators read in
  non local Contribution for L=           1  read in
    real space projection operators read in
  non local Contribution for L=           1  read in
    real space projection operators read in
    PAW grid and wavefunctions read in
 
   number of l-projection  operators is LMAX  =           6
   number of lm-projection operators is LMMAX =          18
 
 POTCAR:    PAW_PBE Ta 17Jan2003                  
   VRHFIN =Ta:  6s5d                                                            
   LEXCH  = PE                                                                  
   EATOM  =   130.6506 eV,    9.6025 Ry                                         
                                                                                
   TITEL  = PAW_PBE Ta 17Jan2003                                                
   LULTRA =        F    use ultrasoft PP ?                                      
   IUNSCR =        1    unscreen: 0-lin 1-nonlin 2-no                           
   RPACOR =    2.330    partial core radius                                     
   POMASS =  180.948; ZVAL   =    5.000    mass and valenz                      
   RCORE  =    2.900    outmost cutoff radius                                   
   RWIGS  =    2.840; RWIGS  =    1.503    wigner-seitz radius (au A)           
   ENMAX  =  223.667; ENMIN  =  167.750 eV                                      
   RCLOC  =    2.205    cutoff for local pot                                    
   LCOR   =        T    correct aug charges                                     
   LPAW   =        T    paw PP                                                  
   EAUG   =  332.075                                                            
   DEXC   =    0.000                                                            
   RMAX   =    2.970    core radius for proj-oper                               
   RAUG   =    1.300    factor for augmentation sphere                          
   RDEP   =    3.060    radius for radial grids                                 
   RDEPT  =    2.354    core radius for aug-charge                              
                                                                                
   Atomic configuration                                                         
   16 entries                                                                   
     n  l   j            E        occ.                                          
     1  0  0.50    -67341.2807   2.0000                                         
     2  0  0.50    -11566.9376   2.0000                                         
     2  1  1.50    -10134.1182   6.0000                                         
     3  0  0.50     -2648.5620   2.0000                                         
     3  1  1.50     -2222.6012   6.0000                                         
     3  2  2.50     -1726.3120  10.0000                                         
     4  0  0.50      -538.6961   2.0000                                         
     4  1  1.50      -399.0129   6.0000                                         
     4  2  2.50      -220.3959  10.0000                                         
     4  3  3.50       -23.0374  14.0000                                         
     5  0  0.50       -71.2901   2.0000                                         
     5  1  1.50       -37.8225   6.0000                                         
     5  2  2.50        -2.6455   4.0000                                         
     6  0  0.50        -4.9623   1.0000                                         
     6  1  1.50        -1.3606   0.0000                                         
     5  3  2.50        -1.3606   0.0000                                         
   Description                                                                  
     l       E           TYP  RCUT    TYP  RCUT                                 
     2     -2.6455043     23  2.500                                             
     2     -0.6258895     23  2.500                                             
     0     -4.9622780     23  2.500                                             
     0      4.7531321     23  2.500                                             
     1     -1.3605826     23  2.900                                             
     1     27.2116520     23  2.900                                             
  local pseudopotential read in
  partial core-charges read in
  partial kinetic energy density read in
  atomic valenz-charges read in
  non local Contribution for L=           2  read in
    real space projection operators read in
  non local Contribution for L=           2  read in
    real space projection operators read in
  non local Contribution for L=           0  read in
    real space projection operators read in
  non local Contribution for L=           0  read in
    real space projection operators read in
  non local Contribution for L=           1  read in
    real space projection operators read in
  non local Contribution for L=           1  read in
    real space projection operators read in
    PAW grid and wavefunctions read in
 
   number of l-projection  operators is LMAX  =           6
   number of lm-projection operators is LMMAX =          18
 
 POTCAR:    PAW_PBE Ti 08Apr2002                  
   VRHFIN =Ti: d3 s1                                                            
   LEXCH  = PE                                                                  
   EATOM  =    94.7928 eV,    6.9671 Ry                                         
                                                                                
   TITEL  = PAW_PBE Ti 08Apr2002                                                
   LULTRA =        F    use ultrasoft PP ?                                      
   IUNSCR =        1    unscreen: 0-lin 1-nonlin 2-no                           
   RPACOR =    2.200    partial core radius                                     
   POMASS =   47.880; ZVAL   =    4.000    mass and valenz                      
   RCORE  =    2.800    outmost cutoff radius                                   
   RWIGS  =    2.500; RWIGS  =    1.323    wigner-seitz radius (au A)           
   ENMAX  =  178.330; ENMIN  =  133.747 eV                                      
   RCLOC  =    2.215    cutoff for local pot                                    
   LCOR   =        T    correct aug charges                                     
   LPAW   =        T    paw PP                                                  
   EAUG   =  328.883                                                            
   DEXC   =    0.000                                                            
   RMAX   =    2.868    core radius for proj-oper                               
   RAUG   =    1.300    factor for augmentation sphere                          
   RDEP   =    2.885    radius for radial grids                                 
   RDEPT  =    2.320    core radius for aug-charge                              
                                                                                
   Atomic configuration                                                         
    9 entries                                                                   
     n  l   j            E        occ.                                          
     1  0  0.50     -4865.3608   2.0000                                         
     2  0  0.50      -533.1367   2.0000                                         
     2  1  1.50      -440.5031   6.0000                                         
     3  0  0.50       -59.3186   2.0000                                         
     3  1  1.50       -35.7012   6.0000                                         
     3  2  2.50        -1.9157   3.0000                                         
     4  0  0.50        -3.7291   1.0000                                         
     4  1  1.50        -4.0817   0.0000                                         
     4  3  2.50        -1.3606   0.0000                                         
   Description                                                                  
     l       E           TYP  RCUT    TYP  RCUT                                 
     2     -1.9156924     23  2.800                                             
     2     -0.4062961     23  2.800                                             
     0     -3.7290832     23  2.800                                             
     0     20.4087390     23  2.800                                             
     1     -5.4423304     23  2.800                                             
  local pseudopotential read in
  partial core-charges read in
  partial kinetic energy density read in
  atomic valenz-charges read in
  non local Contribution for L=           2  read in
    real space projection operators read in
  non local Contribution for L=           2  read in
    real space projection operators read in
  non local Contribution for L=           0  read in
    real space projection operators read in
  non local Contribution for L=           0  read in
    real space projection operators read in
  non local Contribution for L=           1  read in
    real space projection operators read in
    PAW grid and wavefunctions read in
 
   number of l-projection  operators is LMAX  =           5
   number of lm-projection operators is LMMAX =          15
 
 POTCAR:    PAW_PBE V 08Apr2002                   
   VRHFIN =V: p6 d4 s1                                                          
   LEXCH  = PE                                                                  
   EATOM  =   170.8679 eV,   12.5584 Ry                                         
                                                                                
   TITEL  = PAW_PBE V 08Apr2002                                                 
   LULTRA =        F    use ultrasoft PP ?                                      
   IUNSCR =        1    unscreen: 0-lin 1-nonlin 2-no                           
   RPACOR =    2.000    partial core radius                                     
   POMASS =   50.941; ZVAL   =    5.000    mass and valenz                      
   RCORE  =    2.700    outmost cutoff radius                                   
   RWIGS  =    2.500; RWIGS  =    1.323    wigner-seitz radius (au A)           
   ENMAX  =  192.543; ENMIN  =  144.408 eV                                      
   RCLOC  =    1.779    cutoff for local pot                                    
   LCOR   =        T    correct aug charges                                     
   LPAW   =        T    paw PP                                                  
   EAUG   =  358.662                                                            
   DEXC   =    0.000                                                            
   RMAX   =    2.768    core radius for proj-oper                               
   RAUG   =    1.300    factor for augmentation sphere                          
   RDEP   =    2.762    radius for radial grids                                 
   RDEPT  =    2.240    core radius for aug-charge                              
                                                                                
   Atomic configuration                                                         
    9 entries                                                                   
     n  l   j            E        occ.                                          
     1  0  0.50     -5360.7193   2.0000                                         
     2  0  0.50      -598.4546   2.0000                                         
     2  1  1.50      -499.0155   6.0000                                         
     3  0  0.50       -66.5711   2.0000                                         
     3  1  1.50       -40.5282   6.0000                                         
     3  2  2.50        -2.4291   4.0000                                         
     4  0  0.50        -3.8743   1.0000                                         
     4  1  0.50        -2.7212   0.0000                                         
     4  3  2.50        -1.3606   0.0000                                         
   Description                                                                  
     l       E           TYP  RCUT    TYP  RCUT                                 
     2     -2.4290901     23  2.700                                             
     2     -3.7896727     23  2.700                                             
     0     -3.8742752     23  2.700                                             
     0     27.2116520     23  2.700                                             
     1     -2.7211652     23  2.700                                             
     1     27.2116520     23  2.700                                             
  local pseudopotential read in
  partial core-charges read in
  partial kinetic energy density read in
  atomic valenz-charges read in
  non local Contribution for L=           2  read in
    real space projection operators read in
  non local Contribution for L=           2  read in
    real space projection operators read in
  non local Contribution for L=           0  read in
    real space projection operators read in
  non local Contribution for L=           0  read in
    real space projection operators read in
  non local Contribution for L=           1  read in
    real space projection operators read in
  non local Contribution for L=           1  read in
    real space projection operators read in
    PAW grid and wavefunctions read in
 
   number of l-projection  operators is LMAX  =           6
   number of lm-projection operators is LMMAX =          18
 
 Optimization of the real space projectors (new method)

 maximal supplied QI-value         = 15.68
 optimisation between [QCUT,QGAM] = [ 12.55, 25.10] = [ 44.09,176.36] Ry 
 Optimized for a Real-space Cutoff    1.56 Angstroem

   l    n(q)    QCUT    max X(q) W(low)/X(q) W(high)/X(q)  e(spline) 
   0     12    12.548    10.201    0.21E-04    0.36E-05    0.83E-07
   0     12    12.548     8.174    0.31E-04    0.62E-05    0.15E-06
   1     11    12.548     3.488    0.79E-05    0.23E-04    0.21E-06
   1     11    12.548     4.917    0.56E-04    0.13E-03    0.11E-05
   2     11    12.548   153.744    0.25E-03    0.10E-03    0.15E-05
   2     11    12.548   126.342    0.25E-03    0.10E-03    0.15E-05
 Optimization of the real space projectors (new method)

 maximal supplied QI-value         = 13.61
 optimisation between [QCUT,QGAM] = [ 12.52, 25.04] = [ 43.88,175.51] Ry 
 Optimized for a Real-space Cutoff    1.56 Angstroem

   l    n(q)    QCUT    max X(q) W(low)/X(q) W(high)/X(q)  e(spline) 
   2     11    12.518    80.908    0.42E-03    0.30E-03    0.14E-05
   2     11    12.518    79.000    0.42E-03    0.30E-03    0.14E-05
   0     12    12.518    52.066    0.58E-04    0.50E-04    0.55E-06
   0     12    12.518    24.514    0.48E-04    0.41E-04    0.46E-06
   1     11    12.518    16.033    0.62E-04    0.13E-03    0.37E-06
   1     11    12.518    11.179    0.47E-04    0.10E-03    0.31E-06
 Optimization of the real space projectors (new method)

 maximal supplied QI-value         = 12.85
 optimisation between [QCUT,QGAM] = [ 12.46, 25.06] = [ 43.51,175.83] Ry 
 Optimized for a Real-space Cutoff    1.56 Angstroem

   l    n(q)    QCUT    max X(q) W(low)/X(q) W(high)/X(q)  e(spline) 
   2     11    12.465    62.315    0.36E-03    0.20E-03    0.15E-05
   2     11    12.465    52.185    0.36E-03    0.20E-03    0.15E-05
   0     12    12.465   103.837    0.22E-04    0.37E-05    0.56E-06
   0     12    12.465    59.728    0.20E-04    0.34E-05    0.51E-06
   1     11    12.465    13.958    0.44E-03    0.81E-03    0.81E-05
   1     11    12.465     8.441    0.31E-03    0.56E-03    0.56E-05
 Optimization of the real space projectors (new method)

 maximal supplied QI-value         = 13.42
 optimisation between [QCUT,QGAM] = [ 12.48, 25.09] = [ 43.60,176.28] Ry 
 Optimized for a Real-space Cutoff    1.56 Angstroem

   l    n(q)    QCUT    max X(q) W(low)/X(q) W(high)/X(q)  e(spline) 
   2     11    12.478    49.363    0.45E-03    0.34E-03    0.89E-06
   2     11    12.478    47.669    0.44E-03    0.33E-03    0.87E-06
   0     12    12.478    26.374    0.17E-03    0.37E-04    0.21E-05
   0     12    12.478    11.549    0.13E-03    0.31E-04    0.17E-05
   1     11    12.478     9.492    0.91E-05    0.64E-04    0.34E-06
 Optimization of the real space projectors (new method)

 maximal supplied QI-value         = 13.98
 optimisation between [QCUT,QGAM] = [ 12.45, 25.03] = [ 43.38,175.46] Ry 
 Optimized for a Real-space Cutoff    1.56 Angstroem

   l    n(q)    QCUT    max X(q) W(low)/X(q) W(high)/X(q)  e(spline) 
   2     11    12.446    96.114    0.19E-03    0.47E-04    0.85E-06
   2     11    12.446    88.986    0.19E-03    0.46E-04    0.86E-06
   0     12    12.446    20.919    0.37E-04    0.64E-04    0.43E-06
   0     12    12.446     9.593    0.25E-04    0.48E-04    0.33E-06
   1     11    12.446    11.615    0.75E-04    0.30E-04    0.59E-06
   1     11    12.446     7.031    0.53E-04    0.23E-04    0.40E-06

 ----------------------------------------------------------------------------- 
|                                                                             |
|  ADVICE TO THIS USER RUNNING 'VASP/VAMP'   (HEAR YOUR MASTER'S VOICE ...):  |
|                                                                             |
|      You enforced a specific xc-type in the INCAR file,                     |
|      a different type was found on the POTCAR file                          |
|          I HOPE YOU KNOW, WHAT YOU ARE  DOING                               |
|                                                                             |
 ----------------------------------------------------------------------------- 

  PAW_PBE Nb_sv 25May2007               :
 energy of atom  1       EATOM=-1555.1913
 kinetic energy error for atom=    0.0037 (will be added to EATOM!!)
  PAW_PBE Mo 08Apr2002                  :
 energy of atom  2       EATOM= -217.5176
 kinetic energy error for atom=    0.0005 (will be added to EATOM!!)
  PAW_PBE Ta 17Jan2003                  :
 energy of atom  3       EATOM= -130.6506
 kinetic energy error for atom=    0.0004 (will be added to EATOM!!)
  PAW_PBE Ti 08Apr2002                  :
 energy of atom  4       EATOM=  -94.7928
 kinetic energy error for atom=    0.0001 (will be added to EATOM!!)
  PAW_PBE V 08Apr2002                   :
 energy of atom  5       EATOM= -170.8679
 kinetic energy error for atom=    0.0002 (will be added to EATOM!!)
 
 
 POSCAR: Nb - Mo - Ta - Ti - V SQS-30 BCC        
  positions in direct lattice
  No initial velocities read in
 exchange correlation table for  LEXCH =       14
   RHO(1)=    0.500       N(1)  =     2000
   RHO(2)=  100.500       N(2)  =     4000

 VTST: version 3.2, (02/03/18)

 CHAIN: initializing optimizer
 
 OPT: Using VASP Conjugate-Gradient optimizer
 CHAIN: Read ICHAIN            0
 
 POSCAR: Nb - Mo - Ta - Ti - V SQS-30 BCC        
  positions in direct lattice
  No initial velocities read in
 


--------------------------------------------------------------------------------------------------------


 ion  position               nearest neighbor table
   1  0.967  0.933  0.400-  18 2.79   7 2.79  24 2.79  20 2.79  20 2.79  19 2.79   6 2.79   2 2.79
                            16 3.22   8 3.22  15 3.22  11 3.22  12 3.22
   2  0.633  0.267  0.400-  18 2.79  26 2.79   9 2.79  12 2.79  12 2.79  28 2.79  15 2.79   1 2.79
                             8 3.22
   3  0.500  0.000  0.000-  13 2.79  21 2.79  17 2.79  15 2.79   4 2.79   4 2.79  27 2.79  16 2.79
                            14 3.22  10 3.22   7 3.22
   4  0.000  0.000  0.000-  10 2.79  29 2.79  24 2.79  14 2.79   3 2.79   3 2.79   7 2.79   5 2.79
                            15 3.22  13 3.22  17 3.22  16 3.22
   5  0.100  0.200  0.800-  25 2.79  17 2.79   6 2.79  21 2.79  23 2.79  27 2.79  27 2.79   4 2.79
                            10 3.22  14 3.22
   6  0.033  0.067  0.600-  26 2.79   5 2.79  14 2.79  28 2.79  28 2.79  12 2.79   1 2.79  11 2.79
                            17 3.22
   7  0.900  0.800  0.200-  30 2.79  15 2.79   1 2.79  13 2.79   8 2.79  16 2.79  16 2.79   4 2.79
                             9 3.22  20 3.22  24 3.22  29 3.22  18 3.22   3 3.22
   8  0.800  0.600  0.400-  20 2.79  12 2.79   9 2.79  19 2.79   7 2.79  18 2.79  18 2.79  26 2.79
                            30 3.22   1 3.22  11 3.22   2 3.22  16 3.22  23 3.22
   9  0.733  0.467  0.200-  16 2.79   8 2.79   2 2.79  30 2.79  30 2.79  13 2.79  10 2.79  24 2.79
                             7 3.22  18 3.22  12 3.22  29 3.22  21 3.22  15 3.22
  10  0.667  0.333  0.000-   4 2.79  27 2.79  21 2.79  21 2.79  25 2.79  15 2.79   9 2.79  29 2.79
                             3 3.22   5 3.22  22 3.22  24 3.22  13 3.22  30 3.22
  11  0.367  0.733  0.600-  26 2.79  18 2.79  22 2.79  19 2.79  19 2.79  20 2.79  17 2.79   6 2.79
                             8 3.22  23 3.22  25 3.22   1 3.22  28 3.22  14 3.22
  12  0.133  0.267  0.400-   8 2.79  23 2.79  30 2.79   2 2.79   2 2.79   6 2.79  24 2.79  20 2.79
                            26 3.22  18 3.22   9 3.22  28 3.22  15 3.22   1 3.22
  13  0.833  0.667  0.000-   3 2.79   7 2.79  29 2.79  29 2.79   9 2.79  14 2.79  25 2.79  21 2.79
                             4 3.22  16 3.22  30 3.22  17 3.22  10 3.22  22 3.22
  14  0.933  0.867  0.800-  27 2.79   4 2.79   6 2.79  17 2.79  13 2.79  17 2.79  19 2.79  22 2.79
                             3 3.22   5 3.22  28 3.22  29 3.22  11 3.22  25 3.22
  15  0.567  0.133  0.200-   7 2.79   3 2.79  24 2.79  20 2.79  10 2.79  24 2.79   2 2.79  30 2.79
                             4 3.22  16 3.22   1 3.22  21 3.22  12 3.22   9 3.22
  16  0.400  0.800  0.200-   9 2.79  24 2.79  20 2.79  29 2.79  18 2.79   7 2.79   7 2.79   3 2.79
                            30 3.22   1 3.22  13 3.22  15 3.22   8 3.22   4 3.22
  17  0.433  0.867  0.800-   5 2.79   3 2.79  28 2.79  14 2.79  29 2.79  14 2.79  11 2.79  25 2.79
                            27 3.22   4 3.22   6 3.22  13 3.22  19 3.22  22 3.22
  18  0.300  0.600  0.400-   1 2.79   2 2.79  30 2.79  11 2.79  16 2.79   8 2.79   8 2.79  23 2.79
                            20 3.22   9 3.22  19 3.22  12 3.22   7 3.22  26 3.22
  19  0.867  0.733  0.600-  23 2.79   8 2.79  25 2.79  11 2.79  11 2.79   1 2.79  14 2.79  28 2.79
                            18 3.22  17 3.22
  20  0.467  0.933  0.400-   8 2.79  16 2.79  15 2.79   1 2.79   1 2.79  11 2.79  28 2.79  12 2.79
                             7 3.22  18 3.22
  21  0.167  0.333  0.000-   3 2.79   5 2.79  10 2.79  10 2.79  22 2.79  24 2.79  30 2.79  13 2.79
                            15 3.22   9 3.22
  22  0.267  0.533  0.800-  27 2.79  23 2.79  11 2.79  25 2.79  25 2.79  21 2.79  29 2.79  14 2.79
                            10 3.22  13 3.22  17 3.22
  23  0.200  0.400  0.600-  28 2.79  19 2.79  22 2.79  12 2.79   5 2.79  26 2.79  26 2.79  18 2.79
                            11 3.22   8 3.22
  24  0.067  0.133  0.200-  16 2.79   4 2.79  15 2.79   1 2.79  15 2.79  21 2.79  12 2.79   9 2.79
                             7 3.22  10 3.22
  25  0.767  0.533  0.800-   5 2.79  26 2.79  19 2.79  22 2.79  22 2.79  10 2.79  13 2.79  17 2.79
                            11 3.22  14 3.22
  26  0.700  0.400  0.600-   6 2.79  11 2.79  25 2.79   2 2.79  27 2.79  23 2.79  23 2.79   8 2.79
                            12 3.22  18 3.22
  27  0.600  0.200  0.800-  22 2.79  14 2.79  28 2.79  10 2.79  26 2.79   5 2.79   5 2.79   3 2.79
                            17 3.22
  28  0.533  0.067  0.600-  23 2.79  27 2.79  17 2.79   6 2.79   6 2.79   2 2.79  20 2.79  19 2.79
                            14 3.22  12 3.22  11 3.22
  29  0.333  0.667  0.000-   4 2.79  16 2.79  13 2.79  13 2.79  30 2.79  17 2.79  22 2.79  10 2.79
                             7 3.22   9 3.22  14 3.22
  30  0.233  0.467  0.200-   7 2.79  18 2.79  12 2.79   9 2.79   9 2.79  29 2.79  21 2.79  15 2.79
                            16 3.22   8 3.22  13 3.22  10 3.22
 
  LATTYP: Found a triclinic cell.
 ALAT       =     5.5772036004
 B/A-ratio  =     2.8722813233
 C/A-ratio  =     2.0615528128
 COS(alpha) =     0.0140733444
 COS(beta)  =     0.0808452083
 COS(gamma) =     0.8703882798
  
  Lattice vectors:
  
 A1 = (   3.2200000000,   3.2200000000,   3.2200000000)
 A2 = (  11.2700000000,  11.2700000000,   1.6100000000)
 A3 = (  -8.0500000000,   8.0500000000,   1.6100000000)


Analysis of symmetry for initial positions (statically):
=====================================================================
 Subroutine PRICEL returns:
 Original cell was already a primitive cell.
 

 Routine SETGRP: Setting up the symmetry group for a 
 triclinic supercell.


 Subroutine GETGRP returns: Found  1 space group operations
 (whereof  1 operations were pure point group operations)
 out of a pool of  2 trial point group operations.


The static configuration has the point symmetry C_1 .


Analysis of symmetry for dynamics (positions and initial velocities):
=====================================================================
 Subroutine PRICEL returns:
 Original cell was already a primitive cell.
 

 Routine SETGRP: Setting up the symmetry group for a 
 triclinic supercell.


 Subroutine GETGRP returns: Found  1 space group operations
 (whereof  1 operations were pure point group operations)
 out of a pool of  2 trial point group operations.


The dynamic configuration has the point symmetry C_1 .


 Subroutine INISYM returns: Found  1 space group operations
 (whereof  1 operations are pure point group operations),
 and found     1 'primitive' translations

 
 
 KPOINTS: k-points                                

Automatic generation of k-mesh.
Space group operators:
 irot       det(A)        alpha          n_x          n_y          n_z        tau_x        tau_y        tau_z
    1     1.000000     0.000000     1.000000     0.000000     0.000000     0.000000     0.000000     0.000000
 
 Subroutine IBZKPT returns following result:
 ===========================================
 
 Found     63 irreducible k-points:
 
 Following reciprocal coordinates:
            Coordinates               Weight
  0.000000  0.000000  0.000000      1.000000
  0.200000  0.000000 -0.000000      2.000000
  0.400000  0.000000 -0.000000      2.000000
 -0.000000  0.200000 -0.000000      2.000000
  0.200000  0.200000  0.000000      2.000000
  0.400000  0.200000 -0.000000      2.000000
 -0.400000  0.200000 -0.000000      2.000000
 -0.200000  0.200000 -0.000000      2.000000
 -0.000000  0.400000 -0.000000      2.000000
  0.200000  0.400000 -0.000000      2.000000
  0.400000  0.400000  0.000000      2.000000
 -0.400000  0.400000 -0.000000      2.000000
 -0.200000  0.400000  0.000000      2.000000
  0.000000  0.000000  0.200000      2.000000
  0.200000  0.000000  0.200000      2.000000
  0.400000  0.000000  0.200000      2.000000
 -0.400000  0.000000  0.200000      2.000000
 -0.200000  0.000000  0.200000      2.000000
 -0.000000  0.200000  0.200000      2.000000
  0.200000  0.200000  0.200000      2.000000
  0.400000  0.200000  0.200000      2.000000
 -0.400000  0.200000  0.200000      2.000000
 -0.200000  0.200000  0.200000      2.000000
 -0.000000  0.400000  0.200000      2.000000
  0.200000  0.400000  0.200000      2.000000
  0.400000  0.400000  0.200000      2.000000
 -0.400000  0.400000  0.200000      2.000000
 -0.200000  0.400000  0.200000      2.000000
  0.000000 -0.400000  0.200000      2.000000
  0.200000 -0.400000  0.200000      2.000000
  0.400000 -0.400000  0.200000      2.000000
 -0.400000 -0.400000  0.200000      2.000000
 -0.200000 -0.400000  0.200000      2.000000
  0.000000 -0.200000  0.200000      2.000000
  0.200000 -0.200000  0.200000      2.000000
  0.400000 -0.200000  0.200000      2.000000
 -0.400000 -0.200000  0.200000      2.000000
 -0.200000 -0.200000  0.200000      2.000000
  0.000000  0.000000  0.400000      2.000000
  0.200000  0.000000  0.400000      2.000000
  0.400000  0.000000  0.400000      2.000000
 -0.400000  0.000000  0.400000      2.000000
 -0.200000  0.000000  0.400000      2.000000
 -0.000000  0.200000  0.400000      2.000000
  0.200000  0.200000  0.400000      2.000000
  0.400000  0.200000  0.400000      2.000000
 -0.400000  0.200000  0.400000      2.000000
 -0.200000  0.200000  0.400000      2.000000
 -0.000000  0.400000  0.400000      2.000000
  0.200000  0.400000  0.400000      2.000000
  0.400000  0.400000  0.400000      2.000000
 -0.400000  0.400000  0.400000      2.000000
 -0.200000  0.400000  0.400000      2.000000
  0.000000 -0.400000  0.400000      2.000000
  0.200000 -0.400000  0.400000      2.000000
  0.400000 -0.400000  0.400000      2.000000
 -0.400000 -0.400000  0.400000      2.000000
 -0.200000 -0.400000  0.400000      2.000000
  0.000000 -0.200000  0.400000      2.000000
  0.200000 -0.200000  0.400000      2.000000
  0.400000 -0.200000  0.400000      2.000000
 -0.400000 -0.200000  0.400000      2.000000
 -0.200000 -0.200000  0.400000      2.000000
 
 Following cartesian coordinates:
            Coordinates               Weight
  0.000000  0.000000  0.000000      1.000000
 -0.086667 -0.080000 -0.033333      2.000000
 -0.173333 -0.160000 -0.066667      2.000000
  0.026667  0.040000 -0.066667      2.000000
 -0.060000 -0.040000 -0.100000      2.000000
 -0.146667 -0.120000 -0.133333      2.000000
  0.200000  0.200000  0.000000      2.000000
  0.113333  0.120000 -0.033333      2.000000
  0.053333  0.080000 -0.133333      2.000000
 -0.033333  0.000000 -0.166667      2.000000
 -0.120000 -0.080000 -0.200000      2.000000
  0.226667  0.240000 -0.066667      2.000000
  0.140000  0.160000 -0.100000      2.000000
  0.040000 -0.040000  0.000000      2.000000
 -0.046667 -0.120000 -0.033333      2.000000
 -0.133333 -0.200000 -0.066667      2.000000
  0.213333  0.120000  0.066667      2.000000
  0.126667  0.040000  0.033333      2.000000
  0.066667  0.000000 -0.066667      2.000000
 -0.020000 -0.080000 -0.100000      2.000000
 -0.106667 -0.160000 -0.133333      2.000000
  0.240000  0.160000  0.000000      2.000000
  0.153333  0.080000 -0.033333      2.000000
  0.093333  0.040000 -0.133333      2.000000
  0.006667 -0.040000 -0.166667      2.000000
 -0.080000 -0.120000 -0.200000      2.000000
  0.266667  0.200000 -0.066667      2.000000
  0.180000  0.120000 -0.100000      2.000000
 -0.013333 -0.120000  0.133333      2.000000
 -0.100000 -0.200000  0.100000      2.000000
 -0.186667 -0.280000  0.066667      2.000000
  0.160000  0.040000  0.200000      2.000000
  0.073333 -0.040000  0.166667      2.000000
  0.013333 -0.080000  0.066667      2.000000
 -0.073333 -0.160000  0.033333      2.000000
 -0.160000 -0.240000  0.000000      2.000000
  0.186667  0.080000  0.133333      2.000000
  0.100000  0.000000  0.100000      2.000000
  0.080000 -0.080000  0.000000      2.000000
 -0.006667 -0.160000 -0.033333      2.000000
 -0.093333 -0.240000 -0.066667      2.000000
  0.253333  0.080000  0.066667      2.000000
  0.166667 -0.000000  0.033333      2.000000
  0.106667 -0.040000 -0.066667      2.000000
  0.020000 -0.120000 -0.100000      2.000000
 -0.066667 -0.200000 -0.133333      2.000000
  0.280000  0.120000  0.000000      2.000000
  0.193333  0.040000 -0.033333      2.000000
  0.133333  0.000000 -0.133333      2.000000
  0.046667 -0.080000 -0.166667      2.000000
 -0.040000 -0.160000 -0.200000      2.000000
  0.306667  0.160000 -0.066667      2.000000
  0.220000  0.080000 -0.100000      2.000000
  0.026667 -0.160000  0.133333      2.000000
 -0.060000 -0.240000  0.100000      2.000000
 -0.146667 -0.320000  0.066667      2.000000
  0.200000  0.000000  0.200000      2.000000
  0.113333 -0.080000  0.166667      2.000000
  0.053333 -0.120000  0.066667      2.000000
 -0.033333 -0.200000  0.033333      2.000000
 -0.120000 -0.280000  0.000000      2.000000
  0.226667  0.040000  0.133333      2.000000
  0.140000 -0.040000  0.100000      2.000000
 


--------------------------------------------------------------------------------------------------------




 Dimension of arrays:
   k-points           NKPTS =     63   k-points in BZ     NKDIM =     63   number of bands    NBANDS=    120
   number of dos      NEDOS =    301   number of ions     NIONS =     30
   non local maximal  LDIM  =      6   non local SUM 2l+1 LMDIM =     18
   total plane-waves  NPLWV = 126000
   max r-space proj   IRMAX =   4053   max aug-charges    IRDMAX=  17574
   dimension x,y,z NGX =    36 NGY =   50 NGZ =   70
   dimension x,y,z NGXF=    72 NGYF=  100 NGZF=  140
   support grid    NGXF=    72 NGYF=  100 NGZF=  140
   ions per type =               6   6   6   6   6
   NGX,Y,Z   is equivalent  to a cutoff of  10.73,  9.94, 10.12 a.u.
   NGXF,Y,Z  is equivalent  to a cutoff of  21.46, 19.87, 20.24 a.u.

 SYSTEM =  Nb - Mo - Ta - Ti - V SQS               
 POSCAR =  Nb - Mo - Ta - Ti - V SQS-30 BCC        

 Startparameter for this run:
   NWRITE =      2    write-flag & timer
   PREC   = normal    normal or accurate (medium, high low for compatibility)
   ISTART =      1    job   : 0-new  1-cont  2-samecut
   ICHARG =      1    charge: 1-file 2-atom 10-const
   ISPIN  =      1    spin polarized calculation?
   LNONCOLLINEAR =      F non collinear calculations
   LSORBIT =      F    spin-orbit coupling
   INIWAV =      1    electr: 0-lowe 1-rand  2-diag
   LASPH  =      F    aspherical Exc in radial PAW
   METAGGA=      F    non-selfconsistent MetaGGA calc.

 Electronic Relaxation 1
   ENCUT  =  600.0 eV  44.10 Ry    6.64 a.u.  11.14 16.71 22.96*2*pi/ulx,y,z
   ENINI  =  600.0     initial cutoff
   ENAUG  =  455.7 eV  augmentation charge cutoff
   NELM   =    100;   NELMIN=  2; NELMDL=  0     # of ELM steps 
   EDIFF  = 0.1E-03   stopping-criterion for ELM
   LREAL  =      T    real-space projection
   NLSPLINE    = F    spline interpolate recip. space projectors
   LCOMPAT=      F    compatible to vasp.4.4
   GGA_COMPAT  = T    GGA compatible to vasp.4.4-vasp.4.6
   LMAXPAW     = -100 max onsite density
   LMAXMIX     =    2 max onsite mixed and CHGCAR
   VOSKOWN=      0    Vosko Wilk Nusair interpolation
   ROPT   =   -0.00050  -0.00050  -0.00050  -0.00050
   ROPT   =   -0.00050
 Ionic relaxation
   EDIFFG = 0.1E-02   stopping-criterion for IOM
   NSW    =      0    number of steps for IOM
   NBLOCK =      1;   KBLOCK =      1    inner block; outer block 
   IBRION =     -1    ionic relax: 0-MD 1-quasi-New 2-CG
   NFREE  =      1    steps in history (QN), initial steepest desc. (CG)
   ISIF   =      2    stress and relaxation
   IWAVPR =     10    prediction:  0-non 1-charg 2-wave 3-comb
   ISYM   =      2    0-nonsym 1-usesym 2-fastsym
   LCORR  =      T    Harris-Foulkes like correction to forces

   POTIM  = 0.5000    time-step for ionic-motion
   TEIN   =    0.0    initial temperature
   TEBEG  =    0.0;   TEEND  =   0.0 temperature during run
   SMASS  =  -3.00    Nose mass-parameter (am)
   estimated Nose-frequenzy (Omega)   =  0.10E-29 period in steps =****** mass=  -0.711E-27a.u.
   SCALEE = 1.0000    scale energy and forces
   NPACO  =    256;   APACO  = 16.0  distance and # of slots for P.C.
   PSTRESS=    0.0 pullay stress

  Mass of Ions in am
   POMASS =  92.91 95.94180.95 47.88 50.94
  Ionic Valenz
   ZVAL   =  13.00  6.00  5.00  4.00  5.00
  Atomic Wigner-Seitz radii
   RWIGS  =  -1.00 -1.00 -1.00 -1.00 -1.00
  virtual crystal weights 
   VCA    =   1.00  1.00  1.00  1.00  1.00
   NELECT =     198.0000    total number of electrons
   NUPDOWN=      -1.0000    fix difference up-down

 DOS related values:
   EMIN   =  10.00;   EMAX   =-10.00  energy-range for DOS
   EFERMI =   0.00
   ISMEAR =     1;   SIGMA  =   0.20  broadening in eV -4-tet -1-fermi 0-gaus

 Electronic relaxation 2 (details)
   IALGO  =     38    algorithm
   LDIAG  =      T    sub-space diagonalisation (order eigenvalues)
   LSUBROT=      F    optimize rotation matrix (better conditioning)
   TURBO    =      0    0=normal 1=particle mesh
   IRESTART =      0    0=no restart 2=restart with 2 vectors
   NREBOOT  =      0    no. of reboots
   NMIN     =      0    reboot dimension
   EREF     =   0.00    reference energy to select bands
   IMIX   =      4    mixing-type and parameters
     AMIX     =   0.40;   BMIX     =  1.00
     AMIX_MAG =   1.60;   BMIX_MAG =  1.00
     AMIN     =   0.10
     WC   =   100.;   INIMIX=   1;  MIXPRE=   1;  MAXMIX= -45

 Intra band minimization:
   WEIMIN = 0.0000     energy-eigenvalue tresh-hold
   EBREAK =  0.21E-06  absolut break condition
   DEPER  =   0.30     relativ break condition  

   TIME   =   0.40     timestep for ELM

  volume/ion in A,a.u.               =      16.69       112.65
  Fermi-wavevector in a.u.,A,eV,Ry     =   1.201555  2.270609 19.643195  1.443734
  Thomas-Fermi vector in A             =   2.337360
 
 Write flags
   LWAVE        =      T    write WAVECAR
   LDOWNSAMPLE  =      F    k-point downsampling of WAVECAR
   LCHARG       =      T    write CHGCAR
   LVTOT        =      F    write LOCPOT, total local potential
   LVHAR        =      F    write LOCPOT, Hartree potential only
   LELF         =      F    write electronic localiz. function (ELF)
   LORBIT       =      0    0 simple, 1 ext, 2 COOP (PROOUT), +10 PAW based schemes


 Dipole corrections
   LMONO  =      F    monopole corrections only (constant potential shift)
   LDIPOL =      F    correct potential (dipole corrections)
   IDIPOL =      0    1-x, 2-y, 3-z, 4-all directions 
   EPSILON=  1.0000000 bulk dielectric constant

 Exchange correlation treatment:
   GGA     =    PS    GGA type
   LEXCH   =    14    internal setting for exchange type
   VOSKOWN=      0    Vosko Wilk Nusair interpolation
   LHFCALC =     F    Hartree Fock is set to
   LHFONE  =     F    Hartree Fock one center treatment
   AEXX    =    0.0000 exact exchange contribution

 Linear response parameters
   LEPSILON=     F    determine dielectric tensor
   LRPA    =     F    only Hartree local field effects (RPA)
   LNABLA  =     F    use nabla operator in PAW spheres
   LVEL    =     F    velocity operator in full k-point grid
   LINTERFAST=   F  fast interpolation
   KINTER  =     0    interpolate to denser k-point grid
   CSHIFT  =0.1000    complex shift for real part using Kramers Kronig
   OMEGAMAX=  -1.0    maximum frequency
   DEG_THRESHOLD= 0.2000000E-02 threshold for treating states as degnerate
   RTIME   =   -0.100 relaxation time in fs
  (WPLASMAI=    0.000 imaginary part of plasma frequency in eV, 0.658/RTIME)
   DFIELD  = 0.0000000 0.0000000 0.0000000 field for delta impulse in time
 
 Orbital magnetization related:
   ORBITALMAG=     F  switch on orbital magnetization
   LCHIMAG   =     F  perturbation theory with respect to B field
   DQ        =  0.001000  dq finite difference perturbation B field
   LLRAUG    =     F  two centre corrections for induced B field



--------------------------------------------------------------------------------------------------------


 Static calculation
 charge density and potential will be updated during run
 non-spin polarized calculation
 Variant of blocked Davidson
 Davidson routine will perform the subspace rotation
 perform sub-space diagonalisation
    after iterative eigenvector-optimisation
 modified Broyden-mixing scheme, WC =      100.0
 initial mixing is a Kerker type mixing with AMIX =  0.4000 and BMIX =      1.0000
 Hartree-type preconditioning will be used
 using additional bands           21
 real space projection scheme for non local part
 use partial core corrections
 calculate Harris-corrections to forces 
   (improved forces if not selfconsistent)
 use gradient corrections 
 use of overlap-Matrix (Vanderbilt PP)
 Methfessel and Paxton  Order N= 1 SIGMA  =   0.20


--------------------------------------------------------------------------------------------------------


  energy-cutoff  :      600.00
  volume of cell :      500.79
      direct lattice vectors                 reciprocal lattice vectors
    -3.220000000 -3.220000000 -3.220000000    -0.134575569 -0.124223602 -0.051759834
     1.610000000  1.610000000 -8.050000000     0.041407867  0.062111801 -0.103519669
     8.050000000 -8.050000000 -1.610000000     0.062111801 -0.062111801  0.000000000

  length of vectors
     5.577203600  8.365805401 11.497699770     0.190318595  0.127627619  0.087839352


 
 old parameters found on file WAVECAR:
  energy-cutoff  :      600.00
  volume of cell :      500.79
      direct lattice vectors                 reciprocal lattice vectors
    -3.220000000 -3.220000000 -3.220000000    -0.134575569 -0.124223602 -0.051759834
     1.610000000  1.610000000 -8.050000000     0.041407867  0.062111801 -0.103519669
     8.050000000 -8.050000000 -1.610000000     0.062111801 -0.062111801  0.000000000

  length of vectors

 
 k-points in units of 2pi/SCALE and weight: k-points                                
   0.00000000  0.00000000  0.00000000       0.008
  -0.08666667 -0.08000000 -0.03333333       0.016
  -0.17333333 -0.16000000 -0.06666667       0.016
   0.02666667  0.04000000 -0.06666667       0.016
  -0.06000000 -0.04000000 -0.10000000       0.016
  -0.14666667 -0.12000000 -0.13333333       0.016
   0.20000000  0.20000000  0.00000000       0.016
   0.11333333  0.12000000 -0.03333333       0.016
   0.05333333  0.08000000 -0.13333333       0.016
  -0.03333333  0.00000000 -0.16666667       0.016
  -0.12000000 -0.08000000 -0.20000000       0.016
   0.22666667  0.24000000 -0.06666667       0.016
   0.14000000  0.16000000 -0.10000000       0.016
   0.04000000 -0.04000000  0.00000000       0.016
  -0.04666667 -0.12000000 -0.03333333       0.016
  -0.13333333 -0.20000000 -0.06666667       0.016
   0.21333333  0.12000000  0.06666667       0.016
   0.12666667  0.04000000  0.03333333       0.016
   0.06666667  0.00000000 -0.06666667       0.016
  -0.02000000 -0.08000000 -0.10000000       0.016
  -0.10666667 -0.16000000 -0.13333333       0.016
   0.24000000  0.16000000  0.00000000       0.016
   0.15333333  0.08000000 -0.03333333       0.016
   0.09333333  0.04000000 -0.13333333       0.016
   0.00666667 -0.04000000 -0.16666667       0.016
  -0.08000000 -0.12000000 -0.20000000       0.016
   0.26666667  0.20000000 -0.06666667       0.016
   0.18000000  0.12000000 -0.10000000       0.016
  -0.01333333 -0.12000000  0.13333333       0.016
  -0.10000000 -0.20000000  0.10000000       0.016
  -0.18666667 -0.28000000  0.06666667       0.016
   0.16000000  0.04000000  0.20000000       0.016
   0.07333333 -0.04000000  0.16666667       0.016
   0.01333333 -0.08000000  0.06666667       0.016
  -0.07333333 -0.16000000  0.03333333       0.016
  -0.16000000 -0.24000000  0.00000000       0.016
   0.18666667  0.08000000  0.13333333       0.016
   0.10000000  0.00000000  0.10000000       0.016
   0.08000000 -0.08000000  0.00000000       0.016
  -0.00666667 -0.16000000 -0.03333333       0.016
  -0.09333333 -0.24000000 -0.06666667       0.016
   0.25333333  0.08000000  0.06666667       0.016
   0.16666667 -0.00000000  0.03333333       0.016
   0.10666667 -0.04000000 -0.06666667       0.016
   0.02000000 -0.12000000 -0.10000000       0.016
  -0.06666667 -0.20000000 -0.13333333       0.016
   0.28000000  0.12000000  0.00000000       0.016
   0.19333333  0.04000000 -0.03333333       0.016
   0.13333333  0.00000000 -0.13333333       0.016
   0.04666667 -0.08000000 -0.16666667       0.016
  -0.04000000 -0.16000000 -0.20000000       0.016
   0.30666667  0.16000000 -0.06666667       0.016
   0.22000000  0.08000000 -0.10000000       0.016
   0.02666667 -0.16000000  0.13333333       0.016
  -0.06000000 -0.24000000  0.10000000       0.016
  -0.14666667 -0.32000000  0.06666667       0.016
   0.20000000  0.00000000  0.20000000       0.016
   0.11333333 -0.08000000  0.16666667       0.016
   0.05333333 -0.12000000  0.06666667       0.016
  -0.03333333 -0.20000000  0.03333333       0.016
  -0.12000000 -0.28000000  0.00000000       0.016
   0.22666667  0.04000000  0.13333333       0.016
   0.14000000 -0.04000000  0.10000000       0.016
 
 k-points in reciprocal lattice and weights: k-points                                
   0.00000000  0.00000000  0.00000000       0.008
   0.20000000  0.00000000 -0.00000000       0.016
   0.40000000  0.00000000 -0.00000000       0.016
  -0.00000000  0.20000000 -0.00000000       0.016
   0.20000000  0.20000000  0.00000000       0.016
   0.40000000  0.20000000 -0.00000000       0.016
  -0.40000000  0.20000000 -0.00000000       0.016
  -0.20000000  0.20000000 -0.00000000       0.016
  -0.00000000  0.40000000 -0.00000000       0.016
   0.20000000  0.40000000 -0.00000000       0.016
   0.40000000  0.40000000  0.00000000       0.016
  -0.40000000  0.40000000 -0.00000000       0.016
  -0.20000000  0.40000000  0.00000000       0.016
   0.00000000  0.00000000  0.20000000       0.016
   0.20000000  0.00000000  0.20000000       0.016
   0.40000000  0.00000000  0.20000000       0.016
  -0.40000000  0.00000000  0.20000000       0.016
  -0.20000000  0.00000000  0.20000000       0.016
  -0.00000000  0.20000000  0.20000000       0.016
   0.20000000  0.20000000  0.20000000       0.016
   0.40000000  0.20000000  0.20000000       0.016
  -0.40000000  0.20000000  0.20000000       0.016
  -0.20000000  0.20000000  0.20000000       0.016
  -0.00000000  0.40000000  0.20000000       0.016
   0.20000000  0.40000000  0.20000000       0.016
   0.40000000  0.40000000  0.20000000       0.016
  -0.40000000  0.40000000  0.20000000       0.016
  -0.20000000  0.40000000  0.20000000       0.016
   0.00000000 -0.40000000  0.20000000       0.016
   0.20000000 -0.40000000  0.20000000       0.016
   0.40000000 -0.40000000  0.20000000       0.016
  -0.40000000 -0.40000000  0.20000000       0.016
  -0.20000000 -0.40000000  0.20000000       0.016
   0.00000000 -0.20000000  0.20000000       0.016
   0.20000000 -0.20000000  0.20000000       0.016
   0.40000000 -0.20000000  0.20000000       0.016
  -0.40000000 -0.20000000  0.20000000       0.016
  -0.20000000 -0.20000000  0.20000000       0.016
   0.00000000  0.00000000  0.40000000       0.016
   0.20000000  0.00000000  0.40000000       0.016
   0.40000000  0.00000000  0.40000000       0.016
  -0.40000000  0.00000000  0.40000000       0.016
  -0.20000000  0.00000000  0.40000000       0.016
  -0.00000000  0.20000000  0.40000000       0.016
   0.20000000  0.20000000  0.40000000       0.016
   0.40000000  0.20000000  0.40000000       0.016
  -0.40000000  0.20000000  0.40000000       0.016
  -0.20000000  0.20000000  0.40000000       0.016
  -0.00000000  0.40000000  0.40000000       0.016
   0.20000000  0.40000000  0.40000000       0.016
   0.40000000  0.40000000  0.40000000       0.016
  -0.40000000  0.40000000  0.40000000       0.016
  -0.20000000  0.40000000  0.40000000       0.016
   0.00000000 -0.40000000  0.40000000       0.016
   0.20000000 -0.40000000  0.40000000       0.016
   0.40000000 -0.40000000  0.40000000       0.016
  -0.40000000 -0.40000000  0.40000000       0.016
  -0.20000000 -0.40000000  0.40000000       0.016
   0.00000000 -0.20000000  0.40000000       0.016
   0.20000000 -0.20000000  0.40000000       0.016
   0.40000000 -0.20000000  0.40000000       0.016
  -0.40000000 -0.20000000  0.40000000       0.016
  -0.20000000 -0.20000000  0.40000000       0.016
 
 position of ions in fractional coordinates (direct lattice) 
   0.96666667  0.93333333  0.40000000
   0.63333333  0.26666667  0.40000000
   0.50000000  0.00000000  0.00000000
   0.00000000  0.00000000  0.00000000
   0.10000000  0.20000000  0.80000000
   0.03333333  0.06666667  0.60000000
   0.90000000  0.80000000  0.20000000
   0.80000000  0.60000000  0.40000000
   0.73333333  0.46666667  0.20000000
   0.66666667  0.33333333  0.00000000
   0.36666667  0.73333333  0.60000000
   0.13333333  0.26666667  0.40000000
   0.83333333  0.66666667  0.00000000
   0.93333333  0.86666667  0.80000000
   0.56666667  0.13333333  0.20000000
   0.40000000  0.80000000  0.20000000
   0.43333333  0.86666667  0.80000000
   0.30000000  0.60000000  0.40000000
   0.86666667  0.73333333  0.60000000
   0.46666667  0.93333333  0.40000000
   0.16666667  0.33333333  0.00000000
   0.26666667  0.53333333  0.80000000
   0.20000000  0.40000000  0.60000000
   0.06666667  0.13333333  0.20000000
   0.76666667  0.53333333  0.80000000
   0.70000000  0.40000000  0.60000000
   0.60000000  0.20000000  0.80000000
   0.53333333  0.06666667  0.60000000
   0.33333333  0.66666667  0.00000000
   0.23333333  0.46666667  0.20000000
 
 position of ions in cartesian coordinates  (Angst):
   1.60999998 -4.83000002-11.26999998
   1.61000002 -4.82999998 -4.83000002
  -1.61000000 -1.61000000 -1.61000000
   0.00000000  0.00000000  0.00000000
   6.44000000 -6.44000000 -3.22000000
   4.83000002 -4.82999998 -1.61000002
   0.00000000 -3.22000000 -9.66000000
   1.61000000 -4.83000000 -8.05000000
   0.00000002 -3.21999998 -6.44000002
  -1.61000002 -1.61000002 -4.82999998
   4.82999998 -4.83000002 -8.04999998
   3.22000002 -3.21999998 -3.22000002
  -1.60999998 -1.60999998 -8.05000002
   4.83000002 -8.04999998-11.27000002
  -0.00000002 -3.22000002 -3.21999998
   1.61000000 -1.61000000 -8.05000000
   6.44000002 -6.43999998 -9.66000002
   3.22000000 -3.22000000 -6.44000000
   3.21999998 -6.44000002 -9.65999998
   3.21999998 -3.22000002 -9.65999998
  -0.00000002 -0.00000002 -3.21999998
   6.43999998 -6.44000002 -6.43999998
   4.83000000 -4.83000000 -4.83000000
   1.60999998 -1.61000002 -1.60999998
   4.82999998 -8.05000002 -8.04999998
   3.22000000 -6.44000000 -6.44000000
   4.83000000 -8.05000000 -4.83000000
   3.22000002 -6.43999998 -3.22000002
   0.00000002  0.00000002 -6.44000002
   1.61000002 -1.60999998 -4.83000002
 


--------------------------------------------------------------------------------------------------------


 k-point  1 :   0.0000 0.0000 0.0000  plane waves:   16679
 k-point  2 :   0.2000 0.0000-0.0000  plane waves:   16718
 k-point  3 :   0.4000 0.0000-0.0000  plane waves:   16724
 k-point  4 :  -0.0000 0.2000-0.0000  plane waves:   16684
 k-point  5 :   0.2000 0.2000 0.0000  plane waves:   16713
 k-point  6 :   0.4000 0.2000-0.0000  plane waves:   16729
 k-point  7 :  -0.4000 0.2000-0.0000  plane waves:   16694
 k-point  8 :  -0.2000 0.2000-0.0000  plane waves:   16706
 k-point  9 :  -0.0000 0.4000-0.0000  plane waves:   16712
 k-point 10 :   0.2000 0.4000-0.0000  plane waves:   16695
 k-point 11 :   0.4000 0.4000 0.0000  plane waves:   16715
 k-point 12 :  -0.4000 0.4000-0.0000  plane waves:   16705
 k-point 13 :  -0.2000 0.4000 0.0000  plane waves:   16683
 k-point 14 :   0.0000 0.0000 0.2000  plane waves:   16684
 k-point 15 :   0.2000 0.0000 0.2000  plane waves:   16721
 k-point 16 :   0.4000 0.0000 0.2000  plane waves:   16717
 k-point 17 :  -0.4000 0.0000 0.2000  plane waves:   16719
 k-point 18 :  -0.2000 0.0000 0.2000  plane waves:   16738
 k-point 19 :  -0.0000 0.2000 0.2000  plane waves:   16680
 k-point 20 :   0.2000 0.2000 0.2000  plane waves:   16737
 k-point 21 :   0.4000 0.2000 0.2000  plane waves:   16726
 k-point 22 :  -0.4000 0.2000 0.2000  plane waves:   16719
 k-point 23 :  -0.2000 0.2000 0.2000  plane waves:   16702
 k-point 24 :  -0.0000 0.4000 0.2000  plane waves:   16721
 k-point 25 :   0.2000 0.4000 0.2000  plane waves:   16702
 k-point 26 :   0.4000 0.4000 0.2000  plane waves:   16732
 k-point 27 :  -0.4000 0.4000 0.2000  plane waves:   16706
 k-point 28 :  -0.2000 0.4000 0.2000  plane waves:   16698
 k-point 29 :   0.0000-0.4000 0.2000  plane waves:   16717
 k-point 30 :   0.2000-0.4000 0.2000  plane waves:   16674
 k-point 31 :   0.4000-0.4000 0.2000  plane waves:   16710
 k-point 32 :  -0.4000-0.4000 0.2000  plane waves:   16731
 k-point 33 :  -0.2000-0.4000 0.2000  plane waves:   16705
 k-point 34 :   0.0000-0.2000 0.2000  plane waves:   16700
 k-point 35 :   0.2000-0.2000 0.2000  plane waves:   16713
 k-point 36 :   0.4000-0.2000 0.2000  plane waves:   16715
 k-point 37 :  -0.4000-0.2000 0.2000  plane waves:   16714
 k-point 38 :  -0.2000-0.2000 0.2000  plane waves:   16709
 k-point 39 :   0.0000 0.0000 0.4000  plane waves:   16691
 k-point 40 :   0.2000 0.0000 0.4000  plane waves:   16713
 k-point 41 :   0.4000 0.0000 0.4000  plane waves:   16721
 k-point 42 :  -0.4000 0.0000 0.4000  plane waves:   16744
 k-point 43 :  -0.2000 0.0000 0.4000  plane waves:   16697
 k-point 44 :  -0.0000 0.2000 0.4000  plane waves:   16674
 k-point 45 :   0.2000 0.2000 0.4000  plane waves:   16725
 k-point 46 :   0.4000 0.2000 0.4000  plane waves:   16744
 k-point 47 :  -0.4000 0.2000 0.4000  plane waves:   16723
 k-point 48 :  -0.2000 0.2000 0.4000  plane waves:   16699
 k-point 49 :  -0.0000 0.4000 0.4000  plane waves:   16719
 k-point 50 :   0.2000 0.4000 0.4000  plane waves:   16719
 k-point 51 :   0.4000 0.4000 0.4000  plane waves:   16733
 k-point 52 :  -0.4000 0.4000 0.4000  plane waves:   16736
 k-point 53 :  -0.2000 0.4000 0.4000  plane waves:   16699
 k-point 54 :   0.0000-0.4000 0.4000  plane waves:   16725
 k-point 55 :   0.2000-0.4000 0.4000  plane waves:   16693
 k-point 56 :   0.4000-0.4000 0.4000  plane waves:   16721
 k-point 57 :  -0.4000-0.4000 0.4000  plane waves:   16721
 k-point 58 :  -0.2000-0.4000 0.4000  plane waves:   16718
 k-point 59 :   0.0000-0.2000 0.4000  plane waves:   16688
 k-point 60 :   0.2000-0.2000 0.4000  plane waves:   16704
 k-point 61 :   0.4000-0.2000 0.4000  plane waves:   16716
 k-point 62 :  -0.4000-0.2000 0.4000  plane waves:   16721
 k-point 63 :  -0.2000-0.2000 0.4000  plane waves:   16715

 maximum and minimum number of plane-waves per node :      4220     4138

 maximum number of plane-waves:     16744
 maximum index in each direction: 
   IXMAX=   11   IYMAX=   17   IZMAX=   22
   IXMIN=  -11   IYMIN=  -17   IZMIN=  -23


 real space projection operators:
  total allocation   :      15867.38 KBytes
  max/ min on nodes  :       3971.06       3963.00


 parallel 3D FFT for wavefunctions:
    minimum data exchange during FFTs selected (reduces bandwidth)
 parallel 3D FFT for charge:
    minimum data exchange during FFTs selected (reduces bandwidth)


 total amount of memory used by VASP MPI-rank0   109617. kBytes
=======================================================================

   base      :      30000. kBytes
   nonlr-proj:       6936. kBytes
   fftplans  :       2332. kBytes
   grid      :       4665. kBytes
   one-center:        124. kBytes
   wavefun   :      65560. kBytes
 
     INWAV:  cpu time    5.6174: real time    9.0031
 Broyden mixing: mesh for mixing (old mesh)
   NGX = 23   NGY = 33   NGZ = 45
  (NGX  = 72   NGY  =100   NGZ  =140)
  gives a total of  34155 points

 initial charge density was supplied:
 number of electron     198.0000008 magnetization 
 keeping initial charge density in first step


--------------------------------------------------------------------------------------------------------


 Maximum index for non-local projection operator          988
 Maximum index for augmentation-charges         1369 (set IRDMAX)


--------------------------------------------------------------------------------------------------------


 First call to EWALD:  gamma=   0.223
 Maximum number of real-space cells 4x 3x 2
 Maximum number of reciprocal cells 2x 3x 4

    FEWALD:  cpu time    0.0031: real time    0.0036


--------------------------------------- Iteration      1(   1)  ---------------------------------------


    POTLOK:  cpu time    0.0410: real time    0.0465
    SETDIJ:  cpu time    0.0093: real time    0.0093
     EDDAV:  cpu time   28.2736: real time   28.3073
       DOS:  cpu time    0.0042: real time    0.0042
    CHARGE:  cpu time    0.5949: real time    0.5954
    MIXING:  cpu time    0.0020: real time    0.0016
    --------------------------------------------
      LOOP:  cpu time   28.9249: real time   28.9643

 eigenvalue-minimisations  : 25408
 total energy-change (2. order) :-0.3180472E+03  (-0.1366449E-02)
 number of electron     198.0000008 magnetization 
 augmentation part       33.8056341 magnetization 

 Broyden mixing:
  rms(total) = 0.11699E-01    rms(broyden)= 0.11698E-01
  rms(prec ) = 0.14825E-01
  weight for this iteration     100.00

 Free energy of the ion-electron system (eV)
  ---------------------------------------------------
  alpha Z        PSCENC =      1162.56809534
  Ewald energy   TEWEN  =    -11319.52619319
  -Hartree energ DENC   =     -3001.85617370
  -exchange      EXHF   =         0.00000000
  -V(xc)+E(xc)   XCENC  =      -890.85918527
  PAW double counting   =     17978.64666614   -16468.84565514
  entropy T*S    EENTRO =        -0.01064627
  eigenvalues    EBANDS =      -784.07208563
  atomic energy  EATOM  =     13005.90793652
  Solvation  Ediel_sol  =         0.00000000
  ---------------------------------------------------
  free energy    TOTEN  =      -318.04724120 eV

  energy without entropy =     -318.03659493  energy(sigma->0) =     -318.04369245


--------------------------------------------------------------------------------------------------------




--------------------------------------- Iteration      1(   2)  ---------------------------------------


    POTLOK:  cpu time    0.0442: real time    0.0529
    SETDIJ:  cpu time    0.0108: real time    0.0108
     EDDAV:  cpu time   27.5374: real time   27.5684
       DOS:  cpu time    0.0041: real time    0.0041
    CHARGE:  cpu time    0.5948: real time    0.5954
    MIXING:  cpu time    0.0013: real time    0.0013
    --------------------------------------------
      LOOP:  cpu time   28.1926: real time   28.2329

 eigenvalue-minimisations  : 24456
 total energy-change (2. order) : 0.6591666E-01  (-0.2113957E-02)
 number of electron     198.0000008 magnetization 
 augmentation part       33.7620017 magnetization 

 Broyden mixing:
  rms(total) = 0.37168E-01    rms(broyden)= 0.37168E-01
  rms(prec ) = 0.60499E-01
  weight for this iteration     100.00

 eigenvalues of (default mixing * dielectric matrix)
  average eigenvalue GAMMA=   0.2040
  0.2040

 Free energy of the ion-electron system (eV)
  ---------------------------------------------------
  alpha Z        PSCENC =      1162.56809534
  Ewald energy   TEWEN  =    -11319.52619319
  -Hartree energ DENC   =     -3002.01391334
  -exchange      EXHF   =         0.00000000
  -V(xc)+E(xc)   XCENC  =      -890.85555781
  PAW double counting   =     17979.05346442   -16469.32201776
  entropy T*S    EENTRO =        -0.01118920
  eigenvalues    EBANDS =      -783.78194953
  atomic energy  EATOM  =     13005.90793652
  Solvation  Ediel_sol  =         0.00000000
  ---------------------------------------------------
  free energy    TOTEN  =      -317.98132454 eV

  energy without entropy =     -317.97013534  energy(sigma->0) =     -317.97759481


--------------------------------------------------------------------------------------------------------




--------------------------------------- Iteration      1(   3)  ---------------------------------------


    POTLOK:  cpu time    0.0227: real time    0.0244
    SETDIJ:  cpu time    0.0052: real time    0.0052
     EDDAV:  cpu time   26.2435: real time   26.2726
       DOS:  cpu time    0.0040: real time    0.0040
    CHARGE:  cpu time    0.5942: real time    0.5946
    MIXING:  cpu time    0.0008: real time    0.0008
    --------------------------------------------
      LOOP:  cpu time   26.8704: real time   26.9016

 eigenvalue-minimisations  : 23152
 total energy-change (2. order) : 0.1554024E-02  (-0.8503935E-03)
 number of electron     198.0000008 magnetization 
 augmentation part       33.7943285 magnetization 

 Broyden mixing:
  rms(total) = 0.67127E-02    rms(broyden)= 0.67126E-02
  rms(prec ) = 0.11120E-01
  weight for this iteration     100.00

 eigenvalues of (default mixing * dielectric matrix)
  average eigenvalue GAMMA=   0.3709
  0.5789  0.1629

 Free energy of the ion-electron system (eV)
  ---------------------------------------------------
  alpha Z        PSCENC =      1162.56809534
  Ewald energy   TEWEN  =    -11319.52619319
  -Hartree energ DENC   =     -3001.97995246
  -exchange      EXHF   =         0.00000000
  -V(xc)+E(xc)   XCENC  =      -890.85574448
  PAW double counting   =     17979.28978636   -16469.53506360
  entropy T*S    EENTRO =        -0.01035990
  eigenvalues    EBANDS =      -783.83827511
  atomic energy  EATOM  =     13005.90793652
  Solvation  Ediel_sol  =         0.00000000
  ---------------------------------------------------
  free energy    TOTEN  =      -317.97977052 eV

  energy without entropy =     -317.96941061  energy(sigma->0) =     -317.97631722


--------------------------------------------------------------------------------------------------------




--------------------------------------- Iteration      1(   4)  ---------------------------------------


    POTLOK:  cpu time    0.0221: real time    0.0395
    SETDIJ:  cpu time    0.0055: real time    0.0055
     EDDAV:  cpu time   22.9407: real time   22.9656
       DOS:  cpu time    0.0041: real time    0.0041
    CHARGE:  cpu time    0.5995: real time    0.6000
    MIXING:  cpu time    0.0012: real time    0.0012
    --------------------------------------------
      LOOP:  cpu time   23.5731: real time   23.6159

 eigenvalue-minimisations  : 19584
 total energy-change (2. order) :-0.7030994E-04  (-0.1346605E-03)
 number of electron     198.0000008 magnetization 
 augmentation part       33.7907707 magnetization 

 Broyden mixing:
  rms(total) = 0.11252E-01    rms(broyden)= 0.11252E-01
  rms(prec ) = 0.20155E-01
  weight for this iteration     100.00

 eigenvalues of (default mixing * dielectric matrix)
  average eigenvalue GAMMA=   0.3191
  0.6344  0.1919  0.1310

 Free energy of the ion-electron system (eV)
  ---------------------------------------------------
  alpha Z        PSCENC =      1162.56809534
  Ewald energy   TEWEN  =    -11319.52619319
  -Hartree energ DENC   =     -3001.99212653
  -exchange      EXHF   =         0.00000000
  -V(xc)+E(xc)   XCENC  =      -890.85409523
  PAW double counting   =     17979.40826660   -16469.65031840
  entropy T*S    EENTRO =        -0.01052011
  eigenvalues    EBANDS =      -783.83088583
  atomic energy  EATOM  =     13005.90793652
  Solvation  Ediel_sol  =         0.00000000
  ---------------------------------------------------
  free energy    TOTEN  =      -317.97984083 eV

  energy without entropy =     -317.96932072  energy(sigma->0) =     -317.97633412


--------------------------------------------------------------------------------------------------------




--------------------------------------- Iteration      1(   5)  ---------------------------------------


    POTLOK:  cpu time    0.0446: real time    0.0716
    SETDIJ:  cpu time    0.0095: real time    0.0096
     EDDAV:  cpu time   19.5093: real time   19.5323
       DOS:  cpu time    0.0040: real time    0.0040
    --------------------------------------------
      LOOP:  cpu time   19.5673: real time   19.6175

 eigenvalue-minimisations  : 15848
 total energy-change (2. order) : 0.9081045E-04  (-0.6651956E-04)
 number of electron     198.0000008 magnetization 
 augmentation part       33.7907707 magnetization 

 Free energy of the ion-electron system (eV)
  ---------------------------------------------------
  alpha Z        PSCENC =      1162.56809534
  Ewald energy   TEWEN  =    -11319.52619319
  -Hartree energ DENC   =     -3002.00976861
  -exchange      EXHF   =         0.00000000
  -V(xc)+E(xc)   XCENC  =      -890.85375079
  PAW double counting   =     17979.43416837   -16469.67453329
  entropy T*S    EENTRO =        -0.01042877
  eigenvalues    EBANDS =      -783.81527559
  atomic energy  EATOM  =     13005.90793652
  Solvation  Ediel_sol  =         0.00000000
  ---------------------------------------------------
  free energy    TOTEN  =      -317.97975002 eV

  energy without entropy =     -317.96932125  energy(sigma->0) =     -317.97627376


--------------------------------------------------------------------------------------------------------




 average (electrostatic) potential at core
  the test charge radii are     1.0703  1.2296  1.2538  1.2598  1.2064
  (the norm of the test charge is              1.0000)
       1 -81.4249       2 -81.4549       3 -81.2906       4 -81.4268       5 -81.4285
       6 -81.4474       7 -36.3318       8 -36.4446       9 -36.4355      10 -36.3756
      11 -36.2394      12 -36.3515      13 -34.2929      14 -34.1240      15 -34.2518
      16 -34.2808      17 -34.1428      18 -34.2470      19 -22.7710      20 -22.7088
      21 -22.8037      22 -22.8757      23 -22.8602      24 -22.7018      25 -39.1451
      26 -39.2075      27 -39.1207      28 -39.1745      29 -39.1278      30 -39.2618
 
 
 
 E-fermi :   6.1859     XC(G=0): -12.3441     alpha+bet :-14.4892


 k-point     1 :       0.0000    0.0000    0.0000
  band No.  band energies     occupation 
      1     -47.8793      2.00000
      2     -47.8599      2.00000
      3     -47.8236      2.00000
      4     -47.7820      2.00000
      5     -47.7539      2.00000
      6     -47.6578      2.00000
      7     -24.5215      2.00000
      8     -24.3901      2.00000
      9     -24.2529      2.00000
     10     -24.2149      2.00000
     11     -24.0193      2.00000
     12     -24.0130      2.00000
     13     -24.0092      2.00000
     14     -23.9655      2.00000
     15     -23.9513      2.00000
     16     -23.9343      2.00000
     17     -23.9162      2.00000
     18     -23.8734      2.00000
     19     -23.8281      2.00000
     20     -23.8130      2.00000
     21     -23.6960      2.00000
     22     -23.6792      2.00000
     23     -23.5472      2.00000
     24     -23.3403      2.00000
     25      -0.4785      2.00000
     26       0.7767      2.00000
     27       1.1297      2.00000
     28       1.9504      2.00000
     29       2.1205      2.00000
     30       2.1889      2.00000
     31       2.3162      2.00000
     32       2.4500      2.00000
     33       2.4808      2.00000
     34       2.5668      2.00000
     35       2.6121      2.00000
     36       2.6954      2.00000
     37       2.7570      2.00000
     38       2.7923      2.00000
     39       2.9273      2.00000
     40       2.9851      2.00000
     41       3.0520      2.00000
     42       3.1719      2.00000
     43       3.2713      2.00000
     44       3.3036      2.00000
     45       3.3534      2.00000
     46       3.4130      2.00000
     47       3.4827      2.00000
     48       3.5020      2.00000
     49       3.6155      2.00000
     50       3.6700      2.00000
     51       3.7507      2.00000
     52       3.8201      2.00000
     53       3.8840      2.00000
     54       3.9193      2.00000
     55       4.0578      2.00000
     56       4.1158      2.00000
     57       4.1940      2.00000
     58       4.2329      2.00000
     59       4.3926      2.00000
     60       4.4267      2.00000
     61       4.5028      2.00000
     62       4.5480      2.00000
     63       4.5555      2.00000
     64       4.6384      2.00000
     65       4.6436      2.00000
     66       4.7329      2.00000
     67       4.7493      2.00000
     68       4.8292      2.00000
     69       4.8507      2.00000
     70       4.8962      2.00000
     71       4.9485      2.00000
     72       4.9743      2.00000
     73       5.0365      2.00000
     74       5.0811      2.00000
     75       5.0938      2.00000
     76       5.1052      2.00000
     77       5.1306      2.00000
     78       5.2393      2.00000
     79       5.3018      2.00000
     80       5.3862      2.00000
     81       5.5320      2.00004
     82       5.5887      2.00020
     83       5.6383      2.00075
     84       5.6714      2.00166
     85       5.7079      2.00374
     86       5.7692      2.01210
     87       5.8279      2.02966
     88       5.8487      2.03831
     89       5.8712      2.04862
     90       5.8795      2.05244
     91       5.8951      2.05931
     92       5.9424      2.07090
     93       5.9681      2.06411
     94       6.0179      1.99907
     95       6.1696      1.13710
     96       6.2036      0.85038
     97       6.2756      0.31898
     98       6.2980      0.19679
     99       6.3249      0.08372
    100       6.4070     -0.06580
    101       6.4588     -0.06598
    102       6.4965     -0.05048
    103       6.5990     -0.01287
    104       6.5992     -0.01281
    105       6.6147     -0.00977
    106       6.6907     -0.00208
    107       6.9139     -0.00000
    108       7.0581     -0.00000
    109       7.0807     -0.00000
    110       7.1638     -0.00000
    111       7.5784     -0.00000
    112       7.7326     -0.00000
    113       7.8641     -0.00000
    114       7.9423     -0.00000
    115       7.9783     -0.00000
    116       8.0161     -0.00000
    117       8.0353     -0.00000
    118       8.0699     -0.00000
    119       8.1468     -0.00000
    120       8.1694     -0.00000

 k-point     2 :       0.2000    0.0000   -0.0000
  band No.  band energies     occupation 
      1     -47.8777      2.00000
      2     -47.8551      2.00000
      3     -47.8213      2.00000
      4     -47.7810      2.00000
      5     -47.7532      2.00000
      6     -47.6677      2.00000
      7     -24.4380      2.00000
      8     -24.3777      2.00000
      9     -24.2470      2.00000
     10     -24.2093      2.00000
     11     -24.0212      2.00000
     12     -24.0143      2.00000
     13     -24.0044      2.00000
     14     -23.9670      2.00000
     15     -23.9503      2.00000
     16     -23.9377      2.00000
     17     -23.9182      2.00000
     18     -23.8756      2.00000
     19     -23.8370      2.00000
     20     -23.8152      2.00000
     21     -23.7009      2.00000
     22     -23.6837      2.00000
     23     -23.5489      2.00000
     24     -23.4520      2.00000
     25      -0.1789      2.00000
     26       1.0413      2.00000
     27       1.3838      2.00000
     28       1.9699      2.00000
     29       2.3243      2.00000
     30       2.4209      2.00000
     31       2.4759      2.00000
     32       2.6104      2.00000
     33       2.6378      2.00000
     34       2.6765      2.00000
     35       2.8010      2.00000
     36       2.8732      2.00000
     37       2.9251      2.00000
     38       3.0122      2.00000
     39       3.0741      2.00000
[...]
    114       7.3914     -0.00000
    115       7.4492     -0.00000
    116       7.5030     -0.00000
    117       7.5675     -0.00000
    118       7.6351     -0.00000
    119       7.6716     -0.00000
    120       7.7056     -0.00000

 k-point    63 :      -0.2000   -0.2000    0.4000
  band No.  band energies     occupation 
      1     -47.8777      2.00000
      2     -47.8555      2.00000
      3     -47.8211      2.00000
      4     -47.7809      2.00000
      5     -47.7532      2.00000
      6     -47.6677      2.00000
      7     -24.4376      2.00000
      8     -24.3788      2.00000
      9     -24.2501      2.00000
     10     -24.2104      2.00000
     11     -24.0212      2.00000
     12     -24.0137      2.00000
     13     -24.0043      2.00000
     14     -23.9671      2.00000
     15     -23.9505      2.00000
     16     -23.9382      2.00000
     17     -23.9185      2.00000
     18     -23.8747      2.00000
     19     -23.8371      2.00000
     20     -23.8151      2.00000
     21     -23.6991      2.00000
     22     -23.6801      2.00000
     23     -23.5491      2.00000
     24     -23.4521      2.00000
     25       0.0718      2.00000
     26       0.3460      2.00000
     27       1.9059      2.00000
     28       2.1153      2.00000
     29       2.2047      2.00000
     30       2.3712      2.00000
     31       2.4860      2.00000
     32       2.5132      2.00000
     33       2.6371      2.00000
     34       2.7122      2.00000
     35       2.7441      2.00000
     36       2.8334      2.00000
     37       2.8769      2.00000
     38       2.9204      2.00000
     39       3.0109      2.00000
     40       3.0945      2.00000
     41       3.1190      2.00000
     42       3.1609      2.00000
     43       3.2488      2.00000
     44       3.3082      2.00000
     45       3.4347      2.00000
     46       3.4587      2.00000
     47       3.6387      2.00000
     48       3.6820      2.00000
     49       3.7633      2.00000
     50       3.7959      2.00000
     51       3.8451      2.00000
     52       3.9019      2.00000
     53       3.9340      2.00000
     54       4.0248      2.00000
     55       4.0824      2.00000
     56       4.1621      2.00000
     57       4.2999      2.00000
     58       4.3815      2.00000
     59       4.4576      2.00000
     60       4.5393      2.00000
     61       4.5618      2.00000
     62       4.6131      2.00000
     63       4.6281      2.00000
     64       4.6731      2.00000
     65       4.7315      2.00000
     66       4.7614      2.00000
     67       4.8099      2.00000
     68       4.8668      2.00000
     69       4.9096      2.00000
     70       4.9235      2.00000
     71       5.0262      2.00000
     72       5.0753      2.00000
     73       5.1104      2.00000
     74       5.1335      2.00000
     75       5.2196      2.00000
     76       5.2592      2.00000
     77       5.2935      2.00000
     78       5.3206      2.00000
     79       5.3753      2.00000
     80       5.4086      2.00000
     81       5.4764      2.00001
     82       5.5090      2.00002
     83       5.5657      2.00011
     84       5.6073      2.00034
     85       5.6449      2.00088
     86       5.6707      2.00164
     87       5.7311      2.00598
     88       5.7418      2.00737
     89       5.7836      2.01542
     90       5.8169      2.02554
     91       5.8355      2.03270
     92       5.8630      2.04479
     93       5.9204      2.06809
     94       5.9479      2.07052
     95       5.9660      2.06519
     96       5.9961      2.03801
     97       6.0178      1.99932
     98       6.0596      1.86699
     99       6.0778      1.78279
    100       6.2071      0.82118
    101       6.2528      0.46740
    102       6.3641     -0.01963
    103       6.3905     -0.05470
    104       6.4556     -0.06694
    105       6.4797     -0.05800
    106       6.5629     -0.02275
    107       6.6453     -0.00546
    108       6.7207     -0.00103
    109       7.0429     -0.00000
    110       7.1404     -0.00000
    111       7.1840     -0.00000
    112       7.2303     -0.00000
    113       7.2899     -0.00000
    114       7.7567     -0.00000
    115       7.8136     -0.00000
    116       7.8699     -0.00000
    117       7.9601     -0.00000
    118       7.9887     -0.00000
    119       8.0510     -0.00000
    120       8.0866     -0.00000


--------------------------------------------------------------------------------------------------------


 soft charge-density along one line, spin component           1
         0         1         2         3         4         5         6         7         8         9
 total charge-density along one line
 
 pseudopotential strength for first ion, spin component:           1
  5.562 -21.162   0.002   0.001  -0.000  -0.005  -0.002   0.001
-21.162  10.023   0.003   0.002  -0.001  -0.000  -0.000   0.000
  0.002   0.003 -10.659  -0.001   0.004   6.951   0.001  -0.004
  0.001   0.002  -0.001 -10.657  -0.006   0.001   6.949   0.007
 -0.000  -0.001   0.004  -0.006 -10.660  -0.004   0.007   6.952
 -0.005  -0.000   6.951   0.001  -0.004   7.337  -0.001   0.002
 -0.002  -0.000   0.001   6.949   0.007  -0.001   7.338  -0.004
  0.001   0.000  -0.004   0.007   6.952   0.002  -0.004   7.337
  0.002   0.001  -0.000  -0.000   0.002   0.001   0.000  -0.003
 -0.001  -0.000   0.001   0.002  -0.000  -0.001  -0.003   0.000
  0.001   0.000  -0.001   0.001   0.000   0.001  -0.001  -0.000
 -0.004  -0.002  -0.000  -0.001   0.001   0.000   0.001  -0.001
 -0.000  -0.000  -0.002   0.000  -0.000   0.002  -0.000   0.001
  0.003   0.001  -0.001  -0.000   0.002   0.001   0.001  -0.003
 -0.001  -0.000   0.001   0.003  -0.000  -0.002  -0.004   0.001
  0.001   0.001  -0.001   0.001   0.000   0.002  -0.002  -0.000
 -0.006  -0.002  -0.000  -0.001   0.001   0.001   0.001  -0.002
 -0.000  -0.000  -0.002   0.000  -0.000   0.003  -0.000   0.001
 total augmentation occupancy for first ion, spin component:           1
  1.996  -0.037  -0.000  -0.000   0.000  -0.000  -0.000   0.000   0.006  -0.004   0.001  -0.009  -0.001  -0.005   0.003  -0.001
 -0.037   1.508  -0.002  -0.001   0.003   0.002  -0.000  -0.004   0.015  -0.023  -0.017  -0.035  -0.004  -0.006   0.009   0.007
 -0.000  -0.002   1.998   0.000  -0.000  -0.026  -0.001   0.001   0.007  -0.005  -0.000   0.006  -0.003  -0.004   0.002   0.001
 -0.000  -0.001   0.000   1.998  -0.000  -0.001  -0.026   0.001   0.004  -0.001   0.001   0.007   0.001  -0.003   0.001  -0.001
  0.000   0.003  -0.000  -0.000   1.998   0.001   0.001  -0.026  -0.005   0.005  -0.001  -0.001   0.001   0.003  -0.003   0.000
 -0.000   0.002  -0.026  -0.001   0.001   0.064   0.001  -0.000  -0.006   0.005  -0.000  -0.005   0.002   0.003  -0.002   0.000
 -0.000  -0.000  -0.001  -0.026   0.001   0.001   0.064  -0.004   0.000  -0.005  -0.003  -0.006   0.000   0.000   0.001   0.001
  0.000  -0.004   0.001   0.001  -0.026  -0.000  -0.004   0.064   0.003  -0.004   0.004  -0.001  -0.004  -0.001   0.001  -0.002
  0.006   0.015   0.007   0.004  -0.005  -0.006   0.000   0.003   2.503  -0.241  -0.044  -0.018  -0.008  -0.924   0.105   0.017
 -0.004  -0.023  -0.005  -0.001   0.005   0.005  -0.005  -0.004  -0.241   2.525  -0.016   0.032   0.024   0.105  -0.927   0.006
  0.001  -0.017  -0.000   0.001  -0.001  -0.000  -0.003   0.004  -0.044  -0.016   2.292  -0.013   0.015   0.016   0.006  -0.925
 -0.009  -0.035   0.006   0.007  -0.001  -0.005  -0.006  -0.001  -0.018   0.032  -0.013   2.510  -0.028   0.005  -0.010   0.016
 -0.001  -0.004  -0.003   0.001   0.001   0.002   0.000  -0.004  -0.008   0.024   0.015  -0.028   2.302   0.002  -0.010  -0.007
 -0.005  -0.006  -0.004  -0.003   0.003   0.003   0.000  -0.001  -0.924   0.105   0.016   0.005   0.002   0.356  -0.045  -0.006
  0.003   0.009   0.002   0.001  -0.003  -0.002   0.001   0.001   0.105  -0.927   0.006  -0.010  -0.010  -0.045   0.356  -0.002
 -0.001   0.007   0.001  -0.001   0.000   0.000   0.001  -0.002   0.017   0.006  -0.925   0.016  -0.007  -0.006  -0.002   0.383
  0.008   0.036  -0.003  -0.004   0.001   0.002   0.003  -0.001   0.005  -0.010   0.016  -0.920   0.030  -0.002   0.004  -0.011
  0.001   0.005   0.003  -0.000  -0.000  -0.000  -0.000   0.003   0.002  -0.010  -0.007   0.031  -0.930  -0.000   0.004   0.004


------------------------ aborting loop because EDIFF is reached ----------------------------------------


    CHARGE:  cpu time    0.5940: real time    0.5946
    FORLOC:  cpu time    0.0064: real time    0.0064
    FORNL :  cpu time    4.0232: real time    4.0269
    STRESS:  cpu time   12.1404: real time   12.1515
    FORCOR:  cpu time    0.0295: real time    0.0304
    FORHAR:  cpu time    0.0108: real time    0.0108
    MIXING:  cpu time    0.0010: real time    0.0010
    OFIELD:  cpu time    0.0010: real time    0.0001

  FORCE on cell =-STRESS in cart. coord.  units (eV):
  Direction    XX          YY          ZZ          XY          YZ          ZX
  --------------------------------------------------------------------------------------
  Alpha Z  1162.56810  1162.56810  1162.56810
  Ewald   -3733.53463 -3421.79171 -4164.22893  -126.71887   438.02598   303.04289
  Hartree  1054.92225  1299.05068   647.84780  -107.71270   396.03679   297.60765
  E(xc)    -881.37904  -881.13718  -881.27448    -0.07215    -0.05048    -0.38351
  Local    -388.75833  -945.21532   449.15047   234.39839  -834.16423  -598.93730
  n-local  -280.68172  -280.93687  -280.56766     0.48992     0.13307     1.25259
  augment   332.55434   332.52291   332.33423    -0.00202     0.00030    -0.30261
  Kinetic  2704.46292  2704.20253  2703.85577    -1.32991    -0.03396    -1.85071
  Fock        0.00000     0.00000     0.00000     0.00000     0.00000     0.00000
  -------------------------------------------------------------------------------------
  Total     -29.84612   -30.73686   -30.31471    -0.94735    -0.05254     0.42899
  in kB     -95.48598   -98.33571   -96.98512    -3.03084    -0.16808     1.37245
  external pressure =      -96.94 kB  Pullay stress =        0.00 kB


 VOLUME and BASIS-vectors are now :
 -----------------------------------------------------------------------------
  energy-cutoff  :      600.00
  volume of cell :      500.79
      direct lattice vectors                 reciprocal lattice vectors
    -3.220000000 -3.220000000 -3.220000000    -0.134575569 -0.124223602 -0.051759834
     1.610000000  1.610000000 -8.050000000     0.041407867  0.062111801 -0.103519669
     8.050000000 -8.050000000 -1.610000000     0.062111801 -0.062111801  0.000000000

  length of vectors
     5.577203600  8.365805401 11.497699770     0.190318595  0.127627619  0.087839352


 FORCES acting on ions
    electron-ion (+dipol)            ewald-force                    non-local-force                 convergence-correction
 -----------------------------------------------------------------------------------------------
   0.146E+03 0.400E+02 -.188E+03   -.146E+03 -.392E+02 0.188E+03   0.336E+00 -.224E+00 -.100E+00   0.187E+00 -.120E+00 0.905E-02
   -.786E+02 -.183E+03 0.108E+03   0.785E+02 0.183E+03 -.108E+03   0.782E-01 -.509E-01 -.216E+00   0.218E+00 -.179E+00 0.275E-01
   -.241E+02 0.787E+02 -.267E+02   0.241E+02 -.785E+02 0.269E+02   0.994E-01 0.335E-02 -.278E+00   -.144E+00 0.123E+00 0.108E-01
   -.591E+02 0.102E+03 -.775E+02   0.595E+02 -.102E+03 0.776E+02   -.499E-01 0.276E-02 -.158E+00   -.152E+00 0.112E+00 0.450E-01
   -.226E+02 -.106E+03 0.246E+03   0.226E+02 0.107E+03 -.246E+03   0.813E-01 0.315E+00 -.270E+00   -.151E+00 0.132E+00 -.307E-02
   0.341E+01 0.747E+02 -.268E+02   -.415E+01 -.746E+02 0.266E+02   0.327E+00 0.744E-01 -.184E-01   0.138E+00 -.225E-01 -.472E-01
   0.115E+02 0.466E+02 -.898E+02   -.113E+02 -.469E+02 0.897E+02   -.107E+00 -.203E+00 0.160E+00   -.181E-01 -.147E-01 0.138E-01
   -.159E+02 0.582E+01 0.124E+02   0.155E+02 -.593E+01 -.121E+02   -.253E+00 -.558E-01 0.238E+00   0.535E-01 -.687E-01 0.815E-02
   0.389E+02 -.487E+02 0.414E+02   -.390E+02 0.490E+02 -.413E+02   -.533E-01 0.509E-02 -.101E+00   0.185E-01 0.943E-02 -.756E-02
   -.812E+02 -.619E+02 0.104E+03   0.811E+02 0.621E+02 -.105E+03   0.238E+00 0.761E-01 -.195E+00   -.406E-01 0.743E-01 0.196E-02
   0.310E+02 0.904E+02 -.689E+02   -.310E+02 -.905E+02 0.693E+02   -.123E+00 -.186E+00 -.164E+00   0.209E-01 -.396E-01 -.506E-02
   0.369E+02 -.496E+02 0.837E+02   -.371E+02 0.499E+02 -.840E+02   0.270E+00 0.116E-01 -.269E+00   0.667E-01 -.776E-01 -.196E-01
   0.535E+02 0.361E+02 -.776E+02   -.533E+02 -.361E+02 0.776E+02   0.398E-01 -.450E+00 0.401E+00   -.374E-01 0.362E-01 -.765E-02
   0.511E+02 0.220E+02 -.128E+03   -.507E+02 -.220E+02 0.128E+03   -.106E+00 0.245E+00 0.827E-01   -.197E-01 0.501E-01 -.109E-01
   -.368E+02 -.352E+02 0.123E+02   0.364E+02 0.355E+02 -.123E+02   0.454E-01 0.167E+00 -.740E-01   0.146E-01 0.147E-02 -.773E-02
   0.302E+00 0.587E+02 -.440E+02   -.675E+00 -.587E+02 0.443E+02   -.345E+00 -.148E+00 0.358E+00   -.794E-02 0.163E-02 0.205E-01
   0.974E+02 0.462E+02 -.951E+02   -.978E+02 -.463E+02 0.956E+02   -.386E+00 -.604E-01 0.952E-01   -.349E-01 0.381E-01 -.237E-01
   -.522E+01 0.513E+01 -.364E+01   0.540E+01 -.513E+01 0.321E+01   0.104E+00 -.245E+00 0.146E+00   0.329E-01 -.437E-01 0.189E-01
   -.162E+02 0.454E+02 -.627E+02   0.163E+02 -.452E+02 0.629E+02   -.140E+00 0.714E-01 0.203E+00   0.293E-01 -.803E-02 -.572E-02
   0.295E+02 0.910E+01 -.368E+02   -.291E+02 -.934E+01 0.369E+02   0.367E-01 -.177E+00 0.767E-01   0.442E-01 -.493E-01 -.173E-01
   -.528E+02 -.169E+02 0.917E+02   0.530E+02 0.166E+02 -.920E+02   -.175E+00 0.653E-01 -.106E+00   -.378E-01 0.302E-01 -.151E-01
   -.667E+01 -.822E+01 0.198E+02   0.661E+01 0.816E+01 -.201E+02   -.220E+00 0.415E-01 -.486E-01   -.339E-01 0.161E-01 0.849E-02
   -.268E+02 -.235E+02 0.743E+02   0.264E+02 0.236E+02 -.738E+02   0.796E-01 -.447E-01 0.299E-01   0.615E-02 -.396E-01 0.191E-01
   0.429E+01 -.525E+01 0.535E+02   -.389E+01 0.500E+01 -.540E+02   0.215E+00 0.106E+00 -.244E+00   0.302E-02 -.659E-02 -.118E-02
   -.220E+02 -.347E+02 0.455E+02   0.220E+02 0.343E+02 -.454E+02   0.186E+00 -.501E-02 0.383E+00   -.422E-01 0.392E-01 0.146E-01
   -.800E+02 -.332E+02 0.877E+02   0.806E+02 0.334E+02 -.883E+02   -.680E-01 0.809E-01 0.142E+00   0.234E-01 -.398E-01 0.333E-01
   -.188E+02 -.734E+02 0.586E+02   0.188E+02 0.735E+02 -.588E+02   0.875E-01 0.347E-01 -.285E-01   -.619E-01 0.631E-01 0.875E-02
   -.183E+02 0.267E+02 -.343E+02   0.184E+02 -.272E+02 0.340E+02   0.163E-01 0.919E-01 -.142E+00   0.324E-01 -.270E-01 -.282E-01
   0.463E+02 0.331E+02 -.841E+02   -.465E+02 -.332E+02 0.844E+02   -.624E-01 -.148E+00 0.187E+00   -.271E-01 0.330E-01 0.522E-02
   0.148E+02 -.407E+02 0.479E+01   -.146E+02 0.408E+02 -.483E+01   0.115E+00 0.619E-01 -.102E+00   -.194E-02 -.182E-03 -.164E-01
 -----------------------------------------------------------------------------------------------
   -.347E+00 0.522E+00 -.140E-01   -.817E-13 0.284E-13 -.995E-13   0.267E+00 -.543E+00 -.128E-01   0.776E-01 0.238E-01 0.287E-01
 
 
 POSITION                                       TOTAL-FORCE (eV/Angst)
 -----------------------------------------------------------------------------------
      1.61000     -4.83000    -11.27000        -0.008703      0.444675      0.243334
      1.61000     -4.83000     -4.83000         0.252939     -0.083106     -0.000450
     -1.61000     -1.61000     -1.61000        -0.132668      0.303188     -0.144638
      0.00000      0.00000      0.00000         0.248232     -0.013807     -0.001253
      6.44000     -6.44000     -3.22000        -0.057515      0.583726     -0.391128
      4.83000     -4.83000     -1.61000        -0.277130      0.221652     -0.299504
      0.00000     -3.22000     -9.66000         0.038469     -0.494274      0.135451
      1.61000     -4.83000     -8.05000        -0.602795     -0.237484      0.583896
      0.00000     -3.22000     -6.44000        -0.113210      0.307713      0.025972
     -1.61000     -1.61000     -4.83000         0.172189      0.379155     -0.526985
      4.83000     -4.83000     -8.05000        -0.084019     -0.297637      0.247313
      3.22000     -3.22000     -3.22000         0.150642      0.179968     -0.605554
     -1.61000     -1.61000     -8.05000         0.186225     -0.419876      0.365509
      4.83000     -8.05000    -11.27000         0.286166      0.300066     -0.116574
     -0.00000     -3.22000     -3.22000        -0.322122      0.442468     -0.117559
      1.61000     -1.61000     -8.05000        -0.726395     -0.142384      0.722524
      6.44000     -6.44000     -9.66000        -0.768474     -0.082585      0.604806
      3.22000     -3.22000     -6.44000         0.315336     -0.281325     -0.274381
      3.22000     -6.44000     -9.66000         0.049991      0.238800      0.431864
      3.22000     -3.22000     -9.66000         0.520645     -0.465391      0.146963
     -0.00000     -0.00000     -3.22000        -0.020709     -0.172747     -0.359077
      6.44000     -6.44000     -6.44000        -0.309602      0.000286     -0.304324
      4.83000     -4.83000     -4.83000        -0.276038     -0.030835      0.520619
      1.61000     -1.61000     -1.61000         0.616429     -0.150759     -0.784657
      4.83000     -8.05000     -8.05000         0.111342     -0.399212      0.511253
      3.22000     -6.44000     -6.44000         0.492147      0.178571     -0.395281
      4.83000     -8.05000     -4.83000         0.024011      0.175179     -0.136538
      3.22000     -6.44000     -3.22000         0.188331     -0.455613     -0.429266
      0.00000      0.00000     -6.44000        -0.226076     -0.215311      0.509034
      1.61000     -1.61000     -4.83000         0.272362      0.186898     -0.161369
 -----------------------------------------------------------------------------------
    total drift:                               -0.002646      0.002617      0.002001


--------------------------------------------------------------------------------------------------------



  FREE ENERGIE OF THE ION-ELECTRON SYSTEM (eV)
  ---------------------------------------------------
  free  energy   TOTEN  =      -317.97975002 eV

  energy  without entropy=     -317.96932125  energy(sigma->0) =     -317.97627376
 


--------------------------------------------------------------------------------------------------------


    POTLOK:  cpu time    0.0266: real time    0.0276


--------------------------------------------------------------------------------------------------------


 stress matrix after NEB project (eV)
    -29.84612     -0.94735      0.42899
     -0.94735    -30.73686     -0.05254
      0.42899     -0.05254    -30.31471
  FORCES: max atom, RMS     1.034390    0.600777
  FORCE total and by dimension    3.290591    0.784657
  Stress total and by dimension   52.504246   30.736864
 writing wavefunctions
     LOOP+:  cpu time  152.0133: real time  157.2471
    4ORBIT:  cpu time    0.0000: real time    0.0000

 total amount of memory used by VASP MPI-rank0   109617. kBytes
=======================================================================

   base      :      30000. kBytes
   nonlr-proj:       6936. kBytes
   fftplans  :       2332. kBytes
   grid      :       4665. kBytes
   one-center:        124. kBytes
   wavefun   :      65560. kBytes
 
  
  
 General timing and accounting informations for this job:
 ========================================================
  
                  Total CPU time used (sec):      161.650
                            User time (sec):      159.209
                          System time (sec):        2.441
                         Elapsed time (sec):      171.244
  
                   Maximum memory used (kb):      155944.
                   Average memory used (kb):           0.
  
                          Minor page faults:        33774
                          Major page faults:            0
                 Voluntary context switches:         1537
