<?xml version="1.0" encoding="ISO-8859-1"?>
<modeling>
 <generator>
  <i name="program" type="string">vasp </i>
  <i name="version" type="string">5.4.4.18Apr17-6-g9f103f2a35  </i>
  <i name="subversion" type="string">(build Aug 09 2018 16:20:53) complex            parallel </i>
  <i name="platform" type="string">LinuxIFC </i>
  <i name="date" type="string">2020 04 28 </i>
  <i name="time" type="string">21:32:13 </i>
 </generator>
 <incar>
  <i type="string" name="SYSTEM"> Nb - Mo - Ta - Ti - V SQS</i>
  <i type="string" name="PREC">normal</i>
  <i type="int" name="ICHARG">     1</i>
  <i type="int" name="NELM">   100</i>
  <i type="int" name="IBRION">     2</i>
  <i name="ENCUT">    600.00000000</i>
  <i type="string" name="LREAL"> Auto</i>
  <i type="int" name="ISMEAR">     1</i>
  <i name="SIGMA">      0.20000000</i>
  <v type="int" name="KPOINT_BSE">    -1     0     0     0</v>
  <i type="int" name="NELM">   100</i>
  <i type="string" name="GGA"> PS</i>
 </incar>
 <structure name="primitive_cell" >
  <crystal>
   <varray name="basis" >
    <v>      -3.22000000      -3.22000000      -3.22000000 </v>
    <v>       1.61000000       1.61000000      -8.05000000 </v>
    <v>       8.05000000      -8.05000000      -1.61000000 </v>
   </varray>
   <i name="volume">    500.79372000 </i>
   <varray name="rec_basis" >
    <v>      -0.13457557      -0.12422360      -0.05175983 </v>
    <v>       0.04140787       0.06211180      -0.10351967 </v>
    <v>       0.06211180      -0.06211180       0.00000000 </v>
   </varray>
  </crystal>
  <varray name="positions" >
   <v>      -0.03333333      -0.06666667       0.40000000 </v>
   <v>       0.30000000      -0.40000000       0.40000000 </v>
   <v>      -0.10000000      -0.20000000       0.20000000 </v>
   <v>       0.06666667       0.13333333       0.20000000 </v>
   <v>       0.46666667      -0.06666667       0.40000000 </v>
   <v>      -0.13333333      -0.26666667      -0.40000000 </v>
   <v>       0.03333333       0.06666667      -0.40000000 </v>
   <v>      -0.36666667       0.26666667       0.40000000 </v>
   <v>       0.40000000      -0.20000000       0.20000000 </v>
   <v>      -0.20000000      -0.40000000       0.40000000 </v>
   <v>      -0.43333333       0.13333333       0.20000000 </v>
   <v>       0.36666667      -0.26666667      -0.40000000 </v>
   <v>       0.13333333       0.26666667       0.40000000 </v>
   <v>      -0.46666667       0.06666667      -0.40000000 </v>
   <v>       0.23333333       0.46666667       0.20000000 </v>
   <v>       0.20000000       0.40000000      -0.40000000 </v>
   <v>       0.00000000       0.00000000       0.00000000 </v>
   <v>      -0.06666667      -0.13333333      -0.20000000 </v>
   <v>      -0.30000000       0.40000000      -0.40000000 </v>
   <v>      -0.26666667       0.46666667       0.20000000 </v>
   <v>       0.33333333      -0.33333333       0.00000000 </v>
   <v>       0.43333333      -0.13333333      -0.20000000 </v>
   <v>      -0.50000000       0.00000000       0.00000000 </v>
   <v>       0.26666667      -0.46666667      -0.20000000 </v>
   <v>      -0.33333333       0.33333333       0.00000000 </v>
   <v>      -0.40000000       0.20000000      -0.20000000 </v>
   <v>      -0.16666667      -0.33333333       0.00000000 </v>
   <v>      -0.23333333      -0.46666667      -0.20000000 </v>
   <v>       0.16666667       0.33333333       0.00000000 </v>
   <v>       0.10000000       0.20000000      -0.20000000 </v>
  </varray>
 </structure>
 <varray name="primitive_index" >
  <v type="int" >        1 </v>
  <v type="int" >       18 </v>
  <v type="int" >        7 </v>
  <v type="int" >       24 </v>
  <v type="int" >       20 </v>
  <v type="int" >       19 </v>
  <v type="int" >        6 </v>
  <v type="int" >        2 </v>
  <v type="int" >       16 </v>
  <v type="int" >        8 </v>
  <v type="int" >       15 </v>
  <v type="int" >       11 </v>
  <v type="int" >       12 </v>
  <v type="int" >       28 </v>
  <v type="int" >       30 </v>
  <v type="int" >       23 </v>
  <v type="int" >        4 </v>
  <v type="int" >       14 </v>
  <v type="int" >       26 </v>
  <v type="int" >        9 </v>
  <v type="int" >       29 </v>
  <v type="int" >       17 </v>
  <v type="int" >        3 </v>
  <v type="int" >       22 </v>
  <v type="int" >       10 </v>
  <v type="int" >       27 </v>
  <v type="int" >       13 </v>
  <v type="int" >       25 </v>
  <v type="int" >       21 </v>
  <v type="int" >        5 </v>
 </varray>
 <kpoints>
  <generation param="Gamma">
   <v type="int" name="divisions">       5        5        5 </v>
   <v name="usershift">      0.00000000       0.00000000       0.00000000 </v>
   <v name="genvec1">      0.20000000       0.00000000       0.00000000 </v>
   <v name="genvec2">     -0.00000000       0.20000000       0.00000000 </v>
   <v name="genvec3">      0.00000000       0.00000000       0.20000000 </v>
   <v name="shift">      0.00000000       0.00000000       0.00000000 </v>
  </generation>
  <varray name="kpointlist" >
   <v>       0.00000000       0.00000000       0.00000000 </v>
   <v>       0.20000000       0.00000000      -0.00000000 </v>
   <v>       0.40000000       0.00000000      -0.00000000 </v>
   <v>      -0.00000000       0.20000000      -0.00000000 </v>
   <v>       0.20000000       0.20000000       0.00000000 </v>
   <v>       0.40000000       0.20000000      -0.00000000 </v>
   <v>      -0.40000000       0.20000000      -0.00000000 </v>
   <v>      -0.20000000       0.20000000      -0.00000000 </v>
   <v>      -0.00000000       0.40000000      -0.00000000 </v>
   <v>       0.20000000       0.40000000      -0.00000000 </v>
   <v>       0.40000000       0.40000000       0.00000000 </v>
   <v>      -0.40000000       0.40000000      -0.00000000 </v>
   <v>      -0.20000000       0.40000000       0.00000000 </v>
   <v>       0.00000000       0.00000000       0.20000000 </v>
   <v>       0.20000000       0.00000000       0.20000000 </v>
   <v>       0.40000000       0.00000000       0.20000000 </v>
   <v>      -0.40000000       0.00000000       0.20000000 </v>
   <v>      -0.20000000       0.00000000       0.20000000 </v>
   <v>      -0.00000000       0.20000000       0.20000000 </v>
   <v>       0.20000000       0.20000000       0.20000000 </v>
   <v>       0.40000000       0.20000000       0.20000000 </v>
   <v>      -0.40000000       0.20000000       0.20000000 </v>
   <v>      -0.20000000       0.20000000       0.20000000 </v>
   <v>      -0.00000000       0.40000000       0.20000000 </v>
   <v>       0.20000000       0.40000000       0.20000000 </v>
   <v>       0.40000000       0.40000000       0.20000000 </v>
   <v>      -0.40000000       0.40000000       0.20000000 </v>
   <v>      -0.20000000       0.40000000       0.20000000 </v>
   <v>       0.00000000      -0.40000000       0.20000000 </v>
   <v>       0.20000000      -0.40000000       0.20000000 </v>
   <v>       0.40000000      -0.40000000       0.20000000 </v>
   <v>      -0.40000000      -0.40000000       0.20000000 </v>
   <v>      -0.20000000      -0.40000000       0.20000000 </v>
   <v>       0.00000000      -0.20000000       0.20000000 </v>
   <v>       0.20000000      -0.20000000       0.20000000 </v>
   <v>       0.40000000      -0.20000000       0.20000000 </v>
   <v>      -0.40000000      -0.20000000       0.20000000 </v>
   <v>      -0.20000000      -0.20000000       0.20000000 </v>
   <v>       0.00000000       0.00000000       0.40000000 </v>
   <v>       0.20000000       0.00000000       0.40000000 </v>
   <v>       0.40000000       0.00000000       0.40000000 </v>
   <v>      -0.40000000       0.00000000       0.40000000 </v>
   <v>      -0.20000000       0.00000000       0.40000000 </v>
   <v>      -0.00000000       0.20000000       0.40000000 </v>
   <v>       0.20000000       0.20000000       0.40000000 </v>
   <v>       0.40000000       0.20000000       0.40000000 </v>
   <v>      -0.40000000       0.20000000       0.40000000 </v>
   <v>      -0.20000000       0.20000000       0.40000000 </v>
   <v>      -0.00000000       0.40000000       0.40000000 </v>
   <v>       0.20000000       0.40000000       0.40000000 </v>
   <v>       0.40000000       0.40000000       0.40000000 </v>
   <v>      -0.40000000       0.40000000       0.40000000 </v>
   <v>      -0.20000000       0.40000000       0.40000000 </v>
   <v>       0.00000000      -0.40000000       0.40000000 </v>
   <v>       0.20000000      -0.40000000       0.40000000 </v>
   <v>       0.40000000      -0.40000000       0.40000000 </v>
   <v>      -0.40000000      -0.40000000       0.40000000 </v>
   <v>      -0.20000000      -0.40000000       0.40000000 </v>
   <v>       0.00000000      -0.20000000       0.40000000 </v>
   <v>       0.20000000      -0.20000000       0.40000000 </v>
   <v>       0.40000000      -0.20000000       0.40000000 </v>
   <v>      -0.40000000      -0.20000000       0.40000000 </v>
   <v>      -0.20000000      -0.20000000       0.40000000 </v>
  </varray>
  <varray name="weights" >
   <v>       0.00800000 </v>
   <v>       0.01600000 </v>
   <v>       0.01600000 </v>
   <v>       0.01600000 </v>
   <v>       0.01600000 </v>
   <v>       0.01600000 </v>
   <v>       0.01600000 </v>
   <v>       0.01600000 </v>
   <v>       0.01600000 </v>
   <v>       0.01600000 </v>
   <v>       0.01600000 </v>
   <v>       0.01600000 </v>
   <v>       0.01600000 </v>
   <v>       0.01600000 </v>
   <v>       0.01600000 </v>
   <v>       0.01600000 </v>
   <v>       0.01600000 </v>
   <v>       0.01600000 </v>
   <v>       0.01600000 </v>
   <v>       0.01600000 </v>
   <v>       0.01600000 </v>
   <v>       0.01600000 </v>
   <v>       0.01600000 </v>
   <v>       0.01600000 </v>
   <v>       0.01600000 </v>
   <v>       0.01600000 </v>
   <v>       0.01600000 </v>
   <v>       0.01600000 </v>
   <v>       0.01600000 </v>
   <v>       0.01600000 </v>
   <v>       0.01600000 </v>
   <v>       0.01600000 </v>
   <v>       0.01600000 </v>
   <v>       0.01600000 </v>
   <v>       0.01600000 </v>
   <v>       0.01600000 </v>
   <v>       0.01600000 </v>
   <v>       0.01600000 </v>
   <v>       0.01600000 </v>
   <v>       0.01600000 </v>
   <v>       0.01600000 </v>
   <v>       0.01600000 </v>
   <v>       0.01600000 </v>
   <v>       0.01600000 </v>
   <v>       0.01600000 </v>
   <v>       0.01600000 </v>
   <v>       0.01600000 </v>
   <v>       0.01600000 </v>
   <v>       0.01600000 </v>
   <v>       0.01600000 </v>
   <v>       0.01600000 </v>
   <v>       0.01600000 </v>
   <v>       0.01600000 </v>
   <v>       0.01600000 </v>
   <v>       0.01600000 </v>
   <v>       0.01600000 </v>
   <v>       0.01600000 </v>
   <v>       0.01600000 </v>
   <v>       0.01600000 </v>
   <v>       0.01600000 </v>
   <v>       0.01600000 </v>
   <v>       0.01600000 </v>
   <v>       0.01600000 </v>
  </varray>
 </kpoints>
 <parameters>
  <separator name="general" >
   <i type="string" name="SYSTEM">Nb - Mo - Ta - Ti - V SQS</i>
   <i type="logical" name="LCOMPAT"> F  </i>
  </separator>
  <separator name="electronic" >
   <i type="string" name="PREC">normal</i>
   <i name="ENMAX">    600.00000000</i>
   <i name="ENAUG">    455.65900000</i>
   <i name="EDIFF">      0.00010000</i>
   <i type="int" name="IALGO">    38</i>
   <i type="int" name="IWAVPR">    10</i>
   <i type="int" name="NBANDS">   120</i>
   <i name="NELECT">    198.00000000</i>
   <i type="int" name="TURBO">     0</i>
   <i type="int" name="IRESTART">     0</i>
   <i type="int" name="NREBOOT">     0</i>
   <i type="int" name="NMIN">     0</i>
   <i name="EREF">      0.00000000</i>
   <separator name="electronic smearing" >
    <i type="int" name="ISMEAR">     1</i>
    <i name="SIGMA">      0.20000000</i>
    <i name="KSPACING">      0.50000000</i>
    <i type="logical" name="KGAMMA"> T  </i>
   </separator>
   <separator name="electronic projectors" >
    <i type="logical" name="LREAL"> T  </i>
    <v name="ROPT">     -0.00050000     -0.00050000     -0.00050000     -0.00050000     -0.00050000</v>
    <i type="int" name="LMAXPAW">  -100</i>
    <i type="int" name="LMAXMIX">     2</i>
    <i type="logical" name="NLSPLINE"> F  </i>
   </separator>
   <separator name="electronic startup" >
    <i type="int" name="ISTART">     1</i>
    <i type="int" name="ICHARG">     1</i>
    <i type="int" name="INIWAV">     1</i>
   </separator>
   <separator name="electronic spin" >
    <i type="int" name="ISPIN">     1</i>
    <i type="logical" name="LNONCOLLINEAR"> F  </i>
    <v name="MAGMOM">      1.00000000      1.00000000      1.00000000      1.00000000      1.00000000      1.00000000      1.00000000      1.00000000      1.00000000      1.00000000      1.00000000      1.00000000      1.00000000      1.00000000      1.00000000      1.00000000      1.00000000      1.00000000      1.00000000      1.00000000
      1.00000000      1.00000000      1.00000000      1.00000000      1.00000000      1.00000000      1.00000000      1.00000000      1.00000000      1.00000000</v>
    <i name="NUPDOWN">     -1.00000000</i>
    <i type="logical" name="LSORBIT"> F  </i>
    <v name="SAXIS">      0.00000000      0.00000000      1.00000000</v>
    <i type="logical" name="LSPIRAL"> F  </i>
    <v name="QSPIRAL">      0.00000000      0.00000000      0.00000000</v>
    <i type="logical" name="LZEROZ"> F  </i>
   </separator>
   <separator name="electronic exchange-correlation" >
    <i type="logical" name="LASPH"> F  </i>
    <i type="logical" name="LMETAGGA"> F  </i>
   </separator>
   <separator name="electronic convergence" >
    <i type="int" name="NELM">   100</i>
    <i type="int" name="NELMDL">     0</i>
    <i type="int" name="NELMIN">     2</i>
    <i name="ENINI">    600.00000000</i>
    <separator name="electronic convergence detail" >
     <i type="logical" name="LDIAG"> T  </i>
     <i type="logical" name="LSUBROT"> F  </i>
     <i name="WEIMIN">      0.00000000</i>
     <i name="EBREAK">      0.00000021</i>
     <i name="DEPER">      0.30000000</i>
     <i type="int" name="NRMM">     4</i>
     <i name="TIME">      0.40000000</i>
    </separator>
   </separator>
   <separator name="electronic mixer" >
    <i name="AMIX">      0.40000000</i>
    <i name="BMIX">      1.00000000</i>
    <i name="AMIN">      0.10000000</i>
    <i name="AMIX_MAG">      1.60000000</i>
    <i name="BMIX_MAG">      1.00000000</i>
    <separator name="electronic mixer details" >
     <i type="int" name="IMIX">     4</i>
     <i type="logical" name="MIXFIRST"> F  </i>
     <i type="int" name="MAXMIX">   -45</i>
     <i name="WC">    100.00000000</i>
     <i type="int" name="INIMIX">     1</i>
     <i type="int" name="MIXPRE">     1</i>
     <i type="int" name="MREMOVE">     5</i>
    </separator>
   </separator>
   <separator name="electronic dipolcorrection" >
    <i type="logical" name="LDIPOL"> F  </i>
    <i type="logical" name="LMONO"> F  </i>
    <i type="int" name="IDIPOL">     0</i>
    <i name="EPSILON">      1.00000000</i>
    <v name="DIPOL">   -100.00000000   -100.00000000   -100.00000000</v>
    <i name="EFIELD">      0.00000000</i>
   </separator>
  </separator>
  <separator name="grids" >
   <i type="int" name="NGX">    36</i>
   <i type="int" name="NGY">    50</i>
   <i type="int" name="NGZ">    70</i>
   <i type="int" name="NGXF">    72</i>
   <i type="int" name="NGYF">   100</i>
   <i type="int" name="NGZF">   140</i>
   <i type="logical" name="ADDGRID"> F  </i>
  </separator>
  <separator name="ionic" >
   <i type="int" name="NSW">     0</i>
   <i type="int" name="IBRION">    -1</i>
   <i type="int" name="MDALGO">     0</i>
   <i type="int" name="ISIF">     2</i>
   <i name="PSTRESS">      0.00000000</i>
   <i name="EDIFFG">      0.00100000</i>
   <i type="int" name="NFREE">     1</i>
   <i name="POTIM">      0.50000000</i>
   <i name="SMASS">     -3.00000000</i>
   <i name="SCALEE">      1.00000000</i>
  </separator>
  <separator name="ionic md" >
   <i name="TEBEG">      0.00010000</i>
   <i name="TEEND">      0.00010000</i>
   <i type="int" name="NBLOCK">     1</i>
   <i type="int" name="KBLOCK">     1</i>
   <i type="int" name="NPACO">   256</i>
   <i name="APACO">     16.00000000</i>
  </separator>
  <separator name="symmetry" >
   <i type="int" name="ISYM">     2</i>
   <i name="SYMPREC">      0.00001000</i>
  </separator>
  <separator name="dos" >
   <i type="int" name="LORBIT">     0</i>
   <v name="RWIGS">     -1.00000000     -1.00000000     -1.00000000     -1.00000000     -1.00000000</v>
   <i type="int" name="NEDOS">   301</i>
   <i name="EMIN">     10.00000000</i>
   <i name="EMAX">    -10.00000000</i>
   <i name="EFERMI">      0.00000000</i>
  </separator>
  <separator name="writing" >
   <i type="int" name="NWRITE">     2</i>
   <i type="logical" name="LWAVE"> T  </i>
   <i type="logical" name="LDOWNSAMPLE"> F  </i>
   <i type="logical" name="LCHARG"> T  </i>
   <i type="logical" name="LPARD"> F  </i>
   <i type="logical" name="LVTOT"> F  </i>
   <i type="logical" name="LVHAR"> F  </i>
   <i type="logical" name="LELF"> F  </i>
   <i type="logical" name="LOPTICS"> F  </i>
   <v name="STM">      0.00000000      0.00000000      0.00000000      0.00000000      0.00000000      0.00000000      0.00000000</v>
  </separator>
  <separator name="performance" >
   <i type="int" name="NPAR">     8</i>
   <i type="int" name="NSIM">     4</i>
   <i type="int" name="NBLK">    -1</i>
   <i type="logical" name="LPLANE"> T  </i>
   <i type="logical" name="LSCALAPACK"> T  </i>
   <i type="logical" name="LSCAAWARE"> F  </i>
   <i type="logical" name="LSCALU"> F  </i>
   <i type="logical" name="LASYNC"> F  </i>
   <i type="logical" name="LORBITALREAL"> F  </i>
  </separator>
  <separator name="miscellaneous" >
   <i type="int" name="IDIOT">     3</i>
   <i type="int" name="ISPECIAL">     0</i>
   <i type="logical" name="LMUSIC"> F  </i>
   <v name="POMASS">     92.91000000     95.94000000    180.94800000     47.88000000     50.94100000</v>
   <v name="DARWINR">      0.00000000      0.00000000      0.00000000      0.00000000      0.00000000</v>
   <v name="DARWINV">      1.00000000      1.00000000      1.00000000      1.00000000      1.00000000</v>
   <i type="logical" name="LCORR"> T  </i>
  </separator>
  <i type="logical" name="GGA_COMPAT"> T  </i>
  <i type="logical" name="LBERRY"> F  </i>
  <i type="int" name="ICORELEVEL">     0</i>
  <i type="logical" name="LDAU"> F  </i>
  <i type="int" name="I_CONSTRAINED_M">     0</i>
  <separator name="electronic exchange-correlation" >
   <i type="string" name="GGA">PS</i>
   <i type="int" name="VOSKOWN">     0</i>
   <i type="logical" name="LHFCALC"> F  </i>
   <i type="string" name="PRECFOCK"></i>
   <i type="logical" name="LSYMGRAD"> F  </i>
   <i type="logical" name="LHFONE"> F  </i>
   <i type="logical" name="LRHFCALC"> F  </i>
   <i type="logical" name="LTHOMAS"> F  </i>
   <i type="logical" name="LMODELHF"> F  </i>
   <i name="ENCUT4O">     -1.00000000</i>
   <i type="int" name="EXXOEP">     0</i>
   <i type="int" name="FOURORBIT">     0</i>
   <i name="AEXX">      0.00000000</i>
   <i name="HFALPHA">      0.00000000</i>
   <i name="MCALPHA">      0.00000000</i>
   <i name="ALDAX">      1.00000000</i>
   <i name="AGGAX">      1.00000000</i>
   <i name="ALDAC">      1.00000000</i>
   <i name="AGGAC">      1.00000000</i>
   <i type="int" name="NKREDX">     1</i>
   <i type="int" name="NKREDY">     1</i>
   <i type="int" name="NKREDZ">     1</i>
   <i type="logical" name="SHIFTRED"> F  </i>
   <i type="logical" name="ODDONLY"> F  </i>
   <i type="logical" name="EVENONLY"> F  </i>
   <i type="int" name="LMAXFOCK">     0</i>
   <i type="int" name="NMAXFOCKAE">     0</i>
   <i type="logical" name="LFOCKAEDFT"> F  </i>
   <i name="HFSCREEN">      0.00000000</i>
   <i name="HFSCREENC">      0.00000000</i>
   <i type="int" name="NBANDSGWLOW">     0</i>
  </separator>
  <separator name="vdW DFT" >
   <i type="logical" name="LUSE_VDW"> F  </i>
   <i name="Zab_VDW">     -0.84910000</i>
   <i name="PARAM1">      0.12340000</i>
   <i name="PARAM2">      1.00000000</i>
   <i name="PARAM3">      0.00000000</i>
  </separator>
  <separator name="model GW" >
   <i type="int" name="MODEL_GW">     0</i>
   <i name="MODEL_EPS0">     10.01587440</i>
   <i name="MODEL_ALPHA">      1.00000000</i>
  </separator>
  <separator name="linear response parameters" >
   <i type="logical" name="LEPSILON"> F  </i>
   <i type="logical" name="LRPA"> F  </i>
   <i type="logical" name="LNABLA"> F  </i>
   <i type="logical" name="LVEL"> F  </i>
   <i type="int" name="KINTER">     0</i>
   <i name="CSHIFT">      0.10000000</i>
   <i name="OMEGAMAX">     -1.00000000</i>
   <i name="DEG_THRESHOLD">      0.00200000</i>
   <i name="RTIME">     -0.10000000</i>
   <i name="WPLASMAI">      0.00000000</i>
   <v name="DFIELD">      0.00000000      0.00000000      0.00000000</v>
   <v name="WPLASMA">      0.00000000      0.00000000      0.00000000      0.00000000      0.00000000      0.00000000      0.00000000      0.00000000      0.00000000</v>
  </separator>
  <separator name="orbital magnetization" >
   <i type="logical" name="NUCIND"> F  </i>
   <v name="MAGPOS">      0.00000000      0.00000000      0.00000000</v>
   <i type="logical" name="LNICSALL"> T  </i>
   <i type="logical" name="ORBITALMAG"> F  </i>
   <i type="logical" name="LMAGBLOCH"> F  </i>
   <i type="logical" name="LCHIMAG"> F  </i>
   <i type="logical" name="LGAUGE"> T  </i>
   <i type="int" name="MAGATOM">     0</i>
   <v name="MAGDIPOL">      0.00000000      0.00000000      0.00000000</v>
   <v name="AVECCONST">      0.00000000      0.00000000      0.00000000</v>
  </separator>
  <separator name="response functions" >
   <i type="logical" name="LADDER"> F  </i>
   <i type="logical" name="LRPAFORCE"> F  </i>
   <i type="logical" name="LFXC"> F  </i>
   <i type="logical" name="LHARTREE"> T  </i>
   <i type="int" name="IBSE">     0</i>
   <v type="int" name="KPOINT">    -1     0     0     0</v>
   <i type="logical" name="LTCTE"> F  </i>
   <i type="logical" name="LTETE"> F  </i>
   <i type="logical" name="LTRIPLET"> F  </i>
   <i type="logical" name="LFXCEPS"> F  </i>
   <i type="logical" name="LFXHEG"> F  </i>
   <i type="int" name="NATURALO">     2</i>
   <i type="logical" name="L2ORDER"> F  </i>
   <i type="logical" name="LMP2LT"> F  </i>
   <i type="logical" name="LUSEW"> F  </i>
   <i name="ENCUTGW">     -2.00000000</i>
   <i name="ENCUTGWSOFT">     -2.00000000</i>
   <i name="ENCUTLF">     -1.00000000</i>
   <i type="int" name="LMAXMP2">    -1</i>
   <i name="SCISSOR">      0.00000000</i>
   <i type="int" name="NOMEGA">     0</i>
   <i type="int" name="NOMEGAR">     0</i>
   <i type="int" name="NBANDSGW">    -1</i>
   <i type="int" name="NBANDSO">    -1</i>
   <i type="int" name="NBANDSV">    -1</i>
   <i type="int" name="NELM">   100</i>
   <i type="int" name="NELMHF">     1</i>
   <i type="int" name="DIM">     3</i>
   <i type="int" name="ANTIRES">     0</i>
   <i name="OMEGAMAX">    -30.00000000</i>
   <i name="OMEGAMIN">    -30.00000000</i>
   <i name="OMEGATL">   -200.00000000</i>
   <i type="int" name="OMEGAGRID">   140</i>
   <i name="CSHIFT">     -0.10000000</i>
   <i type="logical" name="SELFENERGY"> F  </i>
   <i type="logical" name="LSPECTRAL"> F  </i>
   <i type="logical" name="LSPECTRALGW"> F  </i>
   <i type="logical" name="LSINGLES"> F  </i>
   <i type="logical" name="LFERMIGW"> F  </i>
   <i type="logical" name="ODDONLYGW"> F  </i>
   <i type="logical" name="EVENONLYGW"> F  </i>
   <i type="int" name="NKREDLFX">     1</i>
   <i type="int" name="NKREDLFY">     1</i>
   <i type="int" name="NKREDLFZ">     1</i>
   <i type="int" name="MAXMEM">  2800</i>
   <i type="int" name="TELESCOPE">     0</i>
   <i type="int" name="TAUPAR">     1</i>
   <i type="int" name="OMEGAPAR">    -1</i>
   <i name="LAMBDA">      1.00000000</i>
  </separator>
  <separator name="External order field" >
   <i name="OFIELD_KAPPA">      0.00000000</i>
   <v name="OFIELD_K">      0.00000000      0.00000000      0.00000000</v>
   <i name="OFIELD_Q6_NEAR">      0.00000000</i>
   <i name="OFIELD_Q6_FAR">      0.00000000</i>
   <i name="OFIELD_A">      0.00000000</i>
  </separator>
  <separator name="solvation model" >
   <i type="logical" name="LSOL"> F  </i>
  </separator>
 </parameters>
 <atominfo>
  <atoms>      30 </atoms>
  <types>       5 </types>
  <array name="atoms" >
   <dimension dim="1">ion</dimension>
   <field type="string">element</field>
   <field type="int">atomtype</field>
   <set>
    <rc><c>Nb</c><c>   1</c></rc>
    <rc><c>Nb</c><c>   1</c></rc>
    <rc><c>Nb</c><c>   1</c></rc>
    <rc><c>Nb</c><c>   1</c></rc>
    <rc><c>Nb</c><c>   1</c></rc>
    <rc><c>Nb</c><c>   1</c></rc>
    <rc><c>Mo</c><c>   2</c></rc>
    <rc><c>Mo</c><c>   2</c></rc>
    <rc><c>Mo</c><c>   2</c></rc>
    <rc><c>Mo</c><c>   2</c></rc>
    <rc><c>Mo</c><c>   2</c></rc>
    <rc><c>Mo</c><c>   2</c></rc>
    <rc><c>Ta</c><c>   3</c></rc>
    <rc><c>Ta</c><c>   3</c></rc>
    <rc><c>Ta</c><c>   3</c></rc>
    <rc><c>Ta</c><c>   3</c></rc>
    <rc><c>Ta</c><c>   3</c></rc>
    <rc><c>Ta</c><c>   3</c></rc>
    <rc><c>Ti</c><c>   4</c></rc>
    <rc><c>Ti</c><c>   4</c></rc>
    <rc><c>Ti</c><c>   4</c></rc>
    <rc><c>Ti</c><c>   4</c></rc>
    <rc><c>Ti</c><c>   4</c></rc>
    <rc><c>Ti</c><c>   4</c></rc>
    <rc><c>V </c><c>   5</c></rc>
    <rc><c>V </c><c>   5</c></rc>
    <rc><c>V </c><c>   5</c></rc>
    <rc><c>V </c><c>   5</c></rc>
    <rc><c>V </c><c>   5</c></rc>
    <rc><c>V </c><c>   5</c></rc>
   </set>
  </array>
  <array name="atomtypes" >
   <dimension dim="1">type</dimension>
   <field type="int">atomspertype</field>
   <field type="string">element</field>
   <field>mass</field>
   <field>valence</field>
   <field type="string">pseudopotential</field>
   <set>
    <rc><c>   6</c><c>Nb</c><c>     92.91000000</c><c>     13.00000000</c><c>  PAW_PBE Nb_sv 25May2007               </c></rc>
    <rc><c>   6</c><c>Mo</c><c>     95.94000000</c><c>      6.00000000</c><c>  PAW_PBE Mo 08Apr2002                  </c></rc>
    <rc><c>   6</c><c>Ta</c><c>    180.94800000</c><c>      5.00000000</c><c>  PAW_PBE Ta 17Jan2003                  </c></rc>
    <rc><c>   6</c><c>Ti</c><c>     47.88000000</c><c>      4.00000000</c><c>  PAW_PBE Ti 08Apr2002                  </c></rc>
    <rc><c>   6</c><c>V </c><c>     50.94100000</c><c>      5.00000000</c><c>  PAW_PBE V 08Apr2002                   </c></rc>
   </set>
  </array>
 </atominfo>
 <structure name="initialpos" >
  <crystal>
   <varray name="basis" >
    <v>      -3.22000000      -3.22000000      -3.22000000 </v>
    <v>       1.61000000       1.61000000      -8.05000000 </v>
    <v>       8.05000000      -8.05000000      -1.61000000 </v>
   </varray>
   <i name="volume">    500.79372000 </i>
   <varray name="rec_basis" >
    <v>      -0.13457557      -0.12422360      -0.05175983 </v>
    <v>       0.04140787       0.06211180      -0.10351967 </v>
    <v>       0.06211180      -0.06211180       0.00000000 </v>
   </varray>
  </crystal>
  <varray name="positions" >
   <v>       0.96666667       0.93333333       0.40000000 </v>
   <v>       0.63333333       0.26666667       0.40000000 </v>
   <v>       0.50000000       0.00000000       0.00000000 </v>
   <v>       0.00000000       0.00000000       0.00000000 </v>
   <v>       0.10000000       0.20000000       0.80000000 </v>
   <v>       0.03333333       0.06666667       0.60000000 </v>
   <v>       0.90000000       0.80000000       0.20000000 </v>
   <v>       0.80000000       0.60000000       0.40000000 </v>
   <v>       0.73333333       0.46666667       0.20000000 </v>
   <v>       0.66666667       0.33333333       0.00000000 </v>
   <v>       0.36666667       0.73333333       0.60000000 </v>
   <v>       0.13333333       0.26666667       0.40000000 </v>
   <v>       0.83333333       0.66666667       0.00000000 </v>
   <v>       0.93333333       0.86666667       0.80000000 </v>
   <v>       0.56666667       0.13333333       0.20000000 </v>
   <v>       0.40000000       0.80000000       0.20000000 </v>
   <v>       0.43333333       0.86666667       0.80000000 </v>
   <v>       0.30000000       0.60000000       0.40000000 </v>
   <v>       0.86666667       0.73333333       0.60000000 </v>
   <v>       0.46666667       0.93333333       0.40000000 </v>
   <v>       0.16666667       0.33333333       0.00000000 </v>
   <v>       0.26666667       0.53333333       0.80000000 </v>
   <v>       0.20000000       0.40000000       0.60000000 </v>
   <v>       0.06666667       0.13333333       0.20000000 </v>
   <v>       0.76666667       0.53333333       0.80000000 </v>
   <v>       0.70000000       0.40000000       0.60000000 </v>
   <v>       0.60000000       0.20000000       0.80000000 </v>
   <v>       0.53333333       0.06666667       0.60000000 </v>
   <v>       0.33333333       0.66666667       0.00000000 </v>
   <v>       0.23333333       0.46666667       0.20000000 </v>
  </varray>
 </structure>
 <calculation>
  <scstep>
   <time name="dav">   28.27   28.31</time>
   <time name="total">   28.92   28.96</time>
   <energy>
    <i name="alphaZ">   1162.56809534 </i>
    <i name="ewald"> -11319.52619319 </i>
    <i name="hartreedc">  -3001.85617370 </i>
    <i name="XCdc">   -890.85918527 </i>
    <i name="pawpsdc">  17978.64666614 </i>
    <i name="pawaedc"> -16468.84565514 </i>
    <i name="eentropy">     -0.01064627 </i>
    <i name="bandstr">   -784.07208563 </i>
    <i name="atom">  13005.90793652 </i>
    <i name="e_fr_energy">   -318.04724120 </i>
    <i name="e_wo_entrp">   -318.03659493 </i>
    <i name="e_0_energy">   -318.04369245 </i>
   </energy>
  </scstep>
  <scstep>
   <time name="dav">   27.54   27.57</time>
   <time name="total">   28.19   28.23</time>
   <energy>
    <i name="e_fr_energy">   -317.98132454 </i>
    <i name="e_wo_entrp">   -317.97013534 </i>
    <i name="e_0_energy">   -317.97759481 </i>
   </energy>
  </scstep>
  <scstep>
   <time name="dav">   26.24   26.27</time>
   <time name="total">   26.87   26.90</time>
   <energy>
    <i name="e_fr_energy">   -317.97977052 </i>
    <i name="e_wo_entrp">   -317.96941061 </i>
    <i name="e_0_energy">   -317.97631722 </i>
   </energy>
  </scstep>
  <scstep>
   <time name="dav">   22.94   22.97</time>
   <time name="total">   23.57   23.62</time>
   <energy>
    <i name="e_fr_energy">   -317.97984083 </i>
    <i name="e_wo_entrp">   -317.96932072 </i>
    <i name="e_0_energy">   -317.97633412 </i>
   </energy>
  </scstep>
  <scstep>
   <time name="dav">   19.51   19.53</time>
   <time name="total">   19.57   19.62</time>
   <energy>
    <i name="alphaZ">   1162.56809534 </i>
    <i name="ewald"> -11319.52619319 </i>
    <i name="hartreedc">  -3002.00976861 </i>
    <i name="XCdc">   -890.85375079 </i>
    <i name="pawpsdc">  17979.43416837 </i>
    <i name="pawaedc"> -16469.67453329 </i>
    <i name="eentropy">     -0.01042877 </i>
    <i name="bandstr">   -783.81527559 </i>
    <i name="atom">  13005.90793652 </i>
    <i name="e_fr_energy">   -317.97975002 </i>
    <i name="e_wo_entrp">   -317.96932125 </i>
    <i name="e_0_energy">   -317.97627376 </i>
   </energy>
  </scstep>
  <structure>
   <crystal>
    <varray name="basis" >
     <v>      -3.22000000      -3.22000000      -3.22000000 </v>
     <v>       1.61000000       1.61000000      -8.05000000 </v>
     <v>       8.05000000      -8.05000000      -1.61000000 </v>
    </varray>
    <i name="volume">    500.79372000 </i>
    <varray name="rec_basis" >
     <v>      -0.13457557      -0.12422360      -0.05175983 </v>
     <v>       0.04140787       0.06211180      -0.10351967 </v>
     <v>       0.06211180      -0.06211180       0.00000000 </v>
    </varray>
   </crystal>
   <varray name="positions" >
    <v>       0.96666667       0.93333333       0.40000000 </v>
    <v>       0.63333333       0.26666667       0.40000000 </v>
    <v>       0.50000000       0.00000000       0.00000000 </v>
    <v>       0.00000000       0.00000000       0.00000000 </v>
    <v>       0.10000000       0.20000000       0.80000000 </v>
    <v>       0.03333333       0.06666667       0.60000000 </v>
    <v>       0.90000000       0.80000000       0.20000000 </v>
    <v>       0.80000000       0.60000000       0.40000000 </v>
    <v>       0.73333333       0.46666667       0.20000000 </v>
    <v>       0.66666667       0.33333333       0.00000000 </v>
    <v>       0.36666667       0.73333333       0.60000000 </v>
    <v>       0.13333333       0.26666667       0.40000000 </v>
    <v>       0.83333333       0.66666667       0.00000000 </v>
    <v>       0.93333333       0.86666667       0.80000000 </v>
    <v>       0.56666667       0.13333333       0.20000000 </v>
    <v>       0.40000000       0.80000000       0.20000000 </v>
    <v>       0.43333333       0.86666667       0.80000000 </v>
    <v>       0.30000000       0.60000000       0.40000000 </v>
    <v>       0.86666667       0.73333333       0.60000000 </v>
    <v>       0.46666667       0.93333333       0.40000000 </v>
    <v>       0.16666667       0.33333333       0.00000000 </v>
    <v>       0.26666667       0.53333333       0.80000000 </v>
    <v>       0.20000000       0.40000000       0.60000000 </v>
    <v>       0.06666667       0.13333333       0.20000000 </v>
    <v>       0.76666667       0.53333333       0.80000000 </v>
    <v>       0.70000000       0.40000000       0.60000000 </v>
    <v>       0.60000000       0.20000000       0.80000000 </v>
    <v>       0.53333333       0.06666667       0.60000000 </v>
    <v>       0.33333333       0.66666667       0.00000000 </v>
    <v>       0.23333333       0.46666667       0.20000000 </v>
   </varray>
  </structure>
  <varray name="forces" >
   <v>      -0.00870311       0.44467517       0.24333371 </v>
   <v>       0.25293919      -0.08310556      -0.00044964 </v>
   <v>      -0.13266815       0.30318805      -0.14463770 </v>
   <v>       0.24823223      -0.01380688      -0.00125265 </v>
   <v>      -0.05751475       0.58372636      -0.39112836 </v>
   <v>      -0.27712982       0.22165238      -0.29950424 </v>
   <v>       0.03846885      -0.49427352       0.13545079 </v>
   <v>      -0.60279467      -0.23748390       0.58389622 </v>
   <v>      -0.11320986       0.30771310       0.02597193 </v>
   <v>       0.17218855       0.37915544      -0.52698489 </v>
   <v>      -0.08401942      -0.29763738       0.24731273 </v>
   <v>       0.15064164       0.17996823      -0.60555430 </v>
   <v>       0.18622482      -0.41987643       0.36550921 </v>
   <v>       0.28616593       0.30006572      -0.11657430 </v>
   <v>      -0.32212211       0.44246829      -0.11755867 </v>
   <v>      -0.72639469      -0.14238365       0.72252362 </v>
   <v>      -0.76847355      -0.08258459       0.60480622 </v>
   <v>       0.31533605      -0.28132507      -0.27438112 </v>
   <v>       0.04999146       0.23879968       0.43186378 </v>
   <v>       0.52064480      -0.46539118       0.14696322 </v>
   <v>      -0.02070942      -0.17274728      -0.35907679 </v>
   <v>      -0.30960185       0.00028603      -0.30432428 </v>
   <v>      -0.27603769      -0.03083466       0.52061913 </v>
   <v>       0.61642869      -0.15075937      -0.78465743 </v>
   <v>       0.11134238      -0.39921248       0.51125329 </v>
   <v>       0.49214651       0.17857074      -0.39528134 </v>
   <v>       0.02401084       0.17517857      -0.13653765 </v>
   <v>       0.18833085      -0.45561339      -0.42926555 </v>
   <v>      -0.22607587      -0.21531077       0.50903360 </v>
   <v>       0.27236218       0.18689838      -0.16136854 </v>
  </varray>
  <varray name="stress" >
   <v>     -95.48598289      -3.03084059       1.37245019 </v>
   <v>      -3.03084056     -98.33570975      -0.16807977 </v>
   <v>       1.37245023      -0.16807993     -96.98511759 </v>
  </varray>
  <energy>
   <i name="e_fr_energy">   -317.97975002 </i>
   <i name="e_wo_entrp">   -317.97627376 </i>
   <i name="e_0_energy">     -0.01042877 </i>
  </energy>
  <time name="totalsc">  152.01  157.25</time>
  <eigenvalues>
   <array>
    <dimension dim="1">band</dimension>
    <dimension dim="2">kpoint</dimension>
    <dimension dim="3">spin</dimension>
    <field>eigene</field>
    <field>occ</field>
    <set>
     <set comment="spin 1">
      <set comment="kpoint 1">
       <r>  -47.8793    1.0000 </r>
       <r>  -47.8599    1.0000 </r>
       <r>  -47.8236    1.0000 </r>
       <r>  -47.7820    1.0000 </r>
       <r>  -47.7539    1.0000 </r>
       <r>  -47.6578    1.0000 </r>
       <r>  -24.5215    1.0000 </r>
       <r>  -24.3901    1.0000 </r>
       <r>  -24.2529    1.0000 </r>
       <r>  -24.2149    1.0000 </r>
       <r>  -24.0193    1.0000 </r>
       <r>  -24.0130    1.0000 </r>
       <r>  -24.0092    1.0000 </r>
       <r>  -23.9655    1.0000 </r>
       <r>  -23.9513    1.0000 </r>
       <r>  -23.9343    1.0000 </r>
       <r>  -23.9162    1.0000 </r>
       <r>  -23.8734    1.0000 </r>
       <r>  -23.8281    1.0000 </r>
       <r>  -23.8130    1.0000 </r>
       <r>  -23.6960    1.0000 </r>
       <r>  -23.6792    1.0000 </r>
       <r>  -23.5472    1.0000 </r>
       <r>  -23.3403    1.0000 </r>
       <r>   -0.4785    1.0000 </r>
       <r>    0.7767    1.0000 </r>
       <r>    1.1297    1.0000 </r>
       <r>    1.9504    1.0000 </r>
       <r>    2.1205    1.0000 </r>
       <r>    2.1889    1.0000 </r>
       <r>    2.3162    1.0000 </r>
       <r>    2.4500    1.0000 </r>
       <r>    2.4808    1.0000 </r>
       <r>    2.5668    1.0000 </r>
       <r>    2.6121    1.0000 </r>
       <r>    2.6954    1.0000 </r>
       <r>    2.7570    1.0000 </r>
       <r>    2.7923    1.0000 </r>
       <r>    2.9273    1.0000 </r>
       <r>    2.9851    1.0000 </r>
       <r>    3.0520    1.0000 </r>
       <r>    3.1719    1.0000 </r>
       <r>    3.2713    1.0000 </r>
       <r>    3.3036    1.0000 </r>
       <r>    3.3534    1.0000 </r>
       <r>    3.4130    1.0000 </r>
       <r>    3.4827    1.0000 </r>
       <r>    3.5020    1.0000 </r>
       <r>    3.6155    1.0000 </r>
       <r>    3.6700    1.0000 </r>
       <r>    3.7507    1.0000 </r>
       <r>    3.8201    1.0000 </r>
       <r>    3.8840    1.0000 </r>
       <r>    3.9193    1.0000 </r>
       <r>    4.0578    1.0000 </r>
       <r>    4.1158    1.0000 </r>
       <r>    4.1940    1.0000 </r>
       <r>    4.2329    1.0000 </r>
       <r>    4.3926    1.0000 </r>
       <r>    4.4267    1.0000 </r>
       <r>    4.5028    1.0000 </r>
       <r>    4.5480    1.0000 </r>
       <r>    4.5555    1.0000 </r>
       <r>    4.6384    1.0000 </r>
       <r>    4.6436    1.0000 </r>
       <r>    4.7329    1.0000 </r>
       <r>    4.7493    1.0000 </r>
       <r>    4.8292    1.0000 </r>
       <r>    4.8507    1.0000 </r>
       <r>    4.8962    1.0000 </r>
       <r>    4.9485    1.0000 </r>
       <r>    4.9743    1.0000 </r>
       <r>    5.0365    1.0000 </r>
       <r>    5.0811    1.0000 </r>
       <r>    5.0938    1.0000 </r>
       <r>    5.1052    1.0000 </r>
       <r>    5.1306    1.0000 </r>
       <r>    5.2393    1.0000 </r>
       <r>    5.3018    1.0000 </r>
       <r>    5.3862    1.0000 </r>
       <r>    5.5320    1.0000 </r>
       <r>    5.5887    1.0001 </r>
       <r>    5.6383    1.0004 </r>
       <r>    5.6714    1.0008 </r>
       <r>    5.7079    1.0019 </r>
       <r>    5.7692    1.0060 </r>
       <r>    5.8279    1.0148 </r>
       <r>    5.8487    1.0192 </r>
       <r>    5.8712    1.0243 </r>
       <r>    5.8795    1.0262 </r>
       <r>    5.8951    1.0297 </r>
       <r>    5.9424    1.0354 </r>
       <r>    5.9681    1.0321 </r>
       <r>    6.0179    0.9995 </r>
       <r>    6.1696    0.5685 </r>
       <r>    6.2036    0.4252 </r>
       <r>    6.2756    0.1595 </r>
       <r>    6.2980    0.0984 </r>
       <r>    6.3249    0.0419 </r>
       <r>    6.4070   -0.0329 </r>
       <r>    6.4588   -0.0330 </r>
       <r>    6.4965   -0.0252 </r>
       <r>    6.5990   -0.0064 </r>
       <r>    6.5992   -0.0064 </r>
       <r>    6.6147   -0.0049 </r>
       <r>    6.6907   -0.0010 </r>
       <r>    6.9139   -0.0000 </r>
       <r>    7.0581   -0.0000 </r>
       <r>    7.0807   -0.0000 </r>
       <r>    7.1638   -0.0000 </r>
       <r>    7.5784   -0.0000 </r>
       <r>    7.7326   -0.0000 </r>
       <r>    7.8641   -0.0000 </r>
       <r>    7.9423   -0.0000 </r>
       <r>    7.9783   -0.0000 </r>
       <r>    8.0161   -0.0000 </r>
       <r>    8.0353   -0.0000 </r>
       <r>    8.0699   -0.0000 </r>
       <r>    8.1468   -0.0000 </r>
       <r>    8.1694   -0.0000 </r>
      </set>
      <set comment="kpoint 2">
       <r>  -47.8777    1.0000 </r>
       <r>  -47.8551    1.0000 </r>
       <r>  -47.8213    1.0000 </r>
       <r>  -47.7810    1.0000 </r>
       <r>  -47.7532    1.0000 </r>
       <r>  -47.6677    1.0000 </r>
       <r>  -24.4380    1.0000 </r>
       <r>  -24.3777    1.0000 </r>
       <r>  -24.2470    1.0000 </r>
       <r>  -24.2093    1.0000 </r>
       <r>  -24.0212    1.0000 </r>
       <r>  -24.0143    1.0000 </r>
       <r>  -24.0044    1.0000 </r>
       <r>  -23.9670    1.0000 </r>
       <r>  -23.9503    1.0000 </r>
       <r>  -23.9377    1.0000 </r>
       <r>  -23.9182    1.0000 </r>
       <r>  -23.8756    1.0000 </r>
       <r>  -23.8370    1.0000 </r>
       <r>  -23.8152    1.0000 </r>
       <r>  -23.7009    1.0000 </r>
       <r>  -23.6837    1.0000 </r>
       <r>  -23.5489    1.0000 </r>
       <r>  -23.4520    1.0000 </r>
       <r>   -0.1789    1.0000 </r>
       <r>    1.0413    1.0000 </r>
       <r>    1.3838    1.0000 </r>
       <r>    1.9699    1.0000 </r>
       <r>    2.3243    1.0000 </r>
       <r>    2.4209    1.0000 </r>
       <r>    2.4759    1.0000 </r>
       <r>    2.6104    1.0000 </r>
       <r>    2.6378    1.0000 </r>
       <r>    2.6765    1.0000 </r>
       <r>    2.8010    1.0000 </r>
       <r>    2.8732    1.0000 </r>
       <r>    2.9251    1.0000 </r>
       <r>    3.0122    1.0000 </r>
       <r>    3.0741    1.0000 </r>
       <r>    3.1283    1.0000 </r>
       <r>    3.1734    1.0000 </r>
       <r>    3.1910    1.0000 </r>
       <r>    3.2819    1.0000 </r>
       <r>    3.3329    1.0000 </r>
       <r>    3.4540    1.0000 </r>
       <r>    3.4886    1.0000 </r>
       <r>    3.5595    1.0000 </r>
       <r>    3.6567    1.0000 </r>
       <r>    3.6892    1.0000 </r>
       <r>    3.7131    1.0000 </r>
       <r>    3.8216    1.0000 </r>
       <r>    3.8963    1.0000 </r>
       <r>    3.9357    1.0000 </r>
       <r>    4.0154    1.0000 </r>
       <r>    4.0746    1.0000 </r>
       <r>    4.1518    1.0000 </r>
       <r>    4.2209    1.0000 </r>
       <r>    4.3040    1.0000 </r>
       <r>    4.4226    1.0000 </r>
       <r>    4.4744    1.0000 </r>
       <r>    4.5335    1.0000 </r>
       <r>    4.6635    1.0000 </r>
       <r>    4.6742    1.0000 </r>
       <r>    4.7485    1.0000 </r>
       <r>    4.7818    1.0000 </r>
       <r>    4.8103    1.0000 </r>
       <r>    4.8557    1.0000 </r>
       <r>    4.9204    1.0000 </r>
       <r>    4.9338    1.0000 </r>
       <r>    4.9433    1.0000 </r>
       <r>    5.0165    1.0000 </r>
       <r>    5.0435    1.0000 </r>
       <r>    5.1018    1.0000 </r>
       <r>    5.1150    1.0000 </r>
       <r>    5.1982    1.0000 </r>
       <r>    5.2263    1.0000 </r>
       <r>    5.2429    1.0000 </r>
       <r>    5.2717    1.0000 </r>
       <r>    5.3118    1.0000 </r>
       <r>    5.3598    1.0000 </r>
       <r>    5.3638    1.0000 </r>
       <r>    5.4619    1.0000 </r>
       <r>    5.5089    1.0000 </r>
       <r>    5.5697    1.0001 </r>
       <r>    5.6028    1.0001 </r>
       <r>    5.6497    1.0005 </r>
       <r>    5.6771    1.0010 </r>
       <r>    5.7672    1.0058 </r>
       <r>    5.8533    1.0202 </r>
       <r>    5.8788    1.0261 </r>
       <r>    5.9107    1.0326 </r>
       <r>    5.9488    1.0352 </r>
       <r>    5.9796    1.0281 </r>
       <r>    6.0151    1.0026 </r>
       <r>    6.1086    0.8016 </r>
       <r>    6.1261    0.7410 </r>
       <r>    6.1666    0.5813 </r>
       <r>    6.2025    0.4298 </r>
       <r>    6.2652    0.1919 </r>
       <r>    6.2988    0.0966 </r>
       <r>    6.3271    0.0380 </r>
       <r>    6.3800   -0.0218 </r>
       <r>    6.4423   -0.0350 </r>
       <r>    6.4802   -0.0289 </r>
       <r>    6.5027   -0.0238 </r>
       <r>    6.5536   -0.0130 </r>
       <r>    6.5788   -0.0090 </r>
       <r>    6.7747   -0.0001 </r>
       <r>    6.8474   -0.0000 </r>
       <r>    6.9490   -0.0000 </r>
       <r>    7.2433   -0.0000 </r>
       <r>    7.2985   -0.0000 </r>
       <r>    7.3489   -0.0000 </r>
       <r>    7.4018   -0.0000 </r>
       <r>    7.4985   -0.0000 </r>
       <r>    7.6495   -0.0000 </r>
       <r>    7.7022   -0.0000 </r>
       <r>    7.7571   -0.0000 </r>
       <r>    7.7750   -0.0000 </r>
       <r>    7.8198   -0.0000 </r>
      </set>
      <set comment="kpoint 3">
       <r>  -47.8759    1.0000 </r>
       <r>  -47.8475    1.0000 </r>
       <r>  -47.8155    1.0000 </r>
       <r>  -47.7784    1.0000 </r>
       <r>  -47.7512    1.0000 </r>
       <r>  -47.6869    1.0000 </r>
       <r>  -24.4000    1.0000 </r>
       <r>  -24.2656    1.0000 </r>
       <r>  -24.2238    1.0000 </r>
       <r>  -24.1091    1.0000 </r>
       <r>  -24.0269    1.0000 </r>
       <r>  -24.0171    1.0000 </r>
       <r>  -23.9939    1.0000 </r>
       <r>  -23.9681    1.0000 </r>
       <r>  -23.9492    1.0000 </r>
       <r>  -23.9377    1.0000 </r>
       <r>  -23.9217    1.0000 </r>
       <r>  -23.8791    1.0000 </r>
       <r>  -23.8570    1.0000 </r>
       <r>  -23.8193    1.0000 </r>
       <r>  -23.7622    1.0000 </r>
       <r>  -23.7037    1.0000 </r>
       <r>  -23.6734    1.0000 </r>
       <r>  -23.5441    1.0000 </r>
       <r>    0.6295    1.0000 </r>
       <r>    1.5528    1.0000 </r>
       <r>    1.8790    1.0000 </r>
       <r>    2.0948    1.0000 </r>
       <r>    2.1746    1.0000 </r>
       <r>    2.5543    1.0000 </r>
       <r>    2.6066    1.0000 </r>
       <r>    2.7820    1.0000 </r>
       <r>    2.8908    1.0000 </r>
       <r>    2.9883    1.0000 </r>
       <r>    3.0693    1.0000 </r>
       <r>    3.0988    1.0000 </r>
       <r>    3.1957    1.0000 </r>
       <r>    3.2226    1.0000 </r>
       <r>    3.3191    1.0000 </r>
       <r>    3.3736    1.0000 </r>
       <r>    3.4279    1.0000 </r>
       <r>    3.4655    1.0000 </r>
       <r>    3.4905    1.0000 </r>
       <r>    3.5729    1.0000 </r>
       <r>    3.6704    1.0000 </r>
       <r>    3.6879    1.0000 </r>
       <r>    3.7430    1.0000 </r>
       <r>    3.7705    1.0000 </r>
       <r>    3.8787    1.0000 </r>
       <r>    3.9087    1.0000 </r>
       <r>    4.0369    1.0000 </r>
       <r>    4.0879    1.0000 </r>
       <r>    4.1460    1.0000 </r>
       <r>    4.2277    1.0000 </r>
       <r>    4.3002    1.0000 </r>
       <r>    4.3547    1.0000 </r>
       <r>    4.4254    1.0000 </r>
       <r>    4.4670    1.0000 </r>
       <r>    4.4947    1.0000 </r>
       <r>    4.5501    1.0000 </r>
       <r>    4.5854    1.0000 </r>
       <r>    4.6266    1.0000 </r>
       <r>    4.6785    1.0000 </r>
       <r>    4.7101    1.0000 </r>
       <r>    4.7370    1.0000 </r>
       <r>    4.8238    1.0000 </r>
       <r>    4.8444    1.0000 </r>
       <r>    4.8729    1.0000 </r>
       <r>    4.9134    1.0000 </r>
       <r>    4.9654    1.0000 </r>
       <r>    5.0207    1.0000 </r>
       <r>    5.0648    1.0000 </r>
       <r>    5.1006    1.0000 </r>
       <r>    5.1449    1.0000 </r>
       <r>    5.1986    1.0000 </r>
       <r>    5.2487    1.0000 </r>
       <r>    5.3038    1.0000 </r>
       <r>    5.3295    1.0000 </r>
       <r>    5.3454    1.0000 </r>
       <r>    5.3826    1.0000 </r>
       <r>    5.4688    1.0000 </r>
       <r>    5.5214    1.0000 </r>
       <r>    5.5523    1.0000 </r>
       <r>    5.5928    1.0001 </r>
       <r>    5.6375    1.0004 </r>
       <r>    5.6844    1.0011 </r>
       <r>    5.7323    1.0031 </r>
       <r>    5.7680    1.0059 </r>
       <r>    5.8126    1.0120 </r>
       <r>    5.8346    1.0162 </r>
       <r>    5.8630    1.0224 </r>
       <r>    5.8923    1.0291 </r>
       <r>    5.9313    1.0351 </r>
       <r>    5.9548    1.0346 </r>
       <r>    5.9615    1.0336 </r>
       <r>    6.0436    0.9638 </r>
       <r>    6.0806    0.8844 </r>
       <r>    6.1178    0.7704 </r>
       <r>    6.1617    0.6013 </r>
       <r>    6.1726    0.5562 </r>
       <r>    6.2168    0.3708 </r>
       <r>    6.2599    0.2094 </r>
       <r>    6.2731    0.1671 </r>
       <r>    6.3523    0.0022 </r>
       <r>    6.3579   -0.0039 </r>
       <r>    6.4263   -0.0354 </r>
       <r>    6.4801   -0.0289 </r>
       <r>    6.5039   -0.0235 </r>
       <r>    6.5329   -0.0170 </r>
       <r>    6.5979   -0.0066 </r>
       <r>    6.6337   -0.0034 </r>
       <r>    6.6785   -0.0014 </r>
       <r>    6.9530   -0.0000 </r>
       <r>    7.0714   -0.0000 </r>
       <r>    7.0928   -0.0000 </r>
       <r>    7.2104   -0.0000 </r>
       <r>    7.2934   -0.0000 </r>
       <r>    7.3140   -0.0000 </r>
       <r>    7.4247   -0.0000 </r>
       <r>    7.5239   -0.0000 </r>
      </set>
      <set comment="kpoint 4">
       <r>  -47.8792    1.0000 </r>
       <r>  -47.8598    1.0000 </r>
       <r>  -47.8236    1.0000 </r>
       <r>  -47.7822    1.0000 </r>
       <r>  -47.7539    1.0000 </r>
       <r>  -47.6578    1.0000 </r>
       <r>  -24.5215    1.0000 </r>
       <r>  -24.3892    1.0000 </r>
       <r>  -24.2499    1.0000 </r>
       <r>  -24.2141    1.0000 </r>
       <r>  -24.0194    1.0000 </r>
       <r>  -24.0131    1.0000 </r>
       <r>  -24.0092    1.0000 </r>
       <r>  -23.9656    1.0000 </r>
       <r>  -23.9513    1.0000 </r>
       <r>  -23.9342    1.0000 </r>
       <r>  -23.9162    1.0000 </r>
       <r>  -23.8734    1.0000 </r>
       <r>  -23.8281    1.0000 </r>
       <r>  -23.8131    1.0000 </r>
       <r>  -23.6979    1.0000 </r>
       <r>  -23.6823    1.0000 </r>
       <r>  -23.5475    1.0000 </r>
       <r>  -23.3403    1.0000 </r>
       <r>   -0.3526    1.0000 </r>
       <r>    0.8394    1.0000 </r>
       <r>    1.2466    1.0000 </r>
       <r>    1.4631    1.0000 </r>
       <r>    2.0591    1.0000 </r>
       <r>    2.2646    1.0000 </r>
       <r>    2.3406    1.0000 </r>
       <r>    2.4821    1.0000 </r>
       <r>    2.4960    1.0000 </r>
       <r>    2.5793    1.0000 </r>
       <r>    2.6552    1.0000 </r>
       <r>    2.7246    1.0000 </r>
       <r>    2.7708    1.0000 </r>
       <r>    2.8331    1.0000 </r>
       <r>    2.9134    1.0000 </r>
       <r>    2.9436    1.0000 </r>
       <r>    3.0377    1.0000 </r>
       <r>    3.1061    1.0000 </r>
       <r>    3.2254    1.0000 </r>
       <r>    3.3039    1.0000 </r>
       <r>    3.3845    1.0000 </r>
       <r>    3.4496    1.0000 </r>
       <r>    3.4829    1.0000 </r>
       <r>    3.5902    1.0000 </r>
       <r>    3.6113    1.0000 </r>
       <r>    3.6888    1.0000 </r>
       <r>    3.7571    1.0000 </r>
       <r>    3.8320    1.0000 </r>
       <r>    3.8601    1.0000 </r>
       <r>    3.9058    1.0000 </r>
       <r>    3.9805    1.0000 </r>
       <r>    4.0600    1.0000 </r>
       <r>    4.1637    1.0000 </r>
       <r>    4.3263    1.0000 </r>
       <r>    4.4109    1.0000 </r>
       <r>    4.4700    1.0000 </r>
       <r>    4.5124    1.0000 </r>
       <r>    4.6104    1.0000 </r>
       <r>    4.6436    1.0000 </r>
       <r>    4.6925    1.0000 </r>
       <r>    4.7346    1.0000 </r>
       <r>    4.7678    1.0000 </r>
       <r>    4.8184    1.0000 </r>
       <r>    4.8747    1.0000 </r>
       <r>    4.8893    1.0000 </r>
       <r>    4.9216    1.0000 </r>
       <r>    4.9718    1.0000 </r>
       <r>    5.0028    1.0000 </r>
       <r>    5.0382    1.0000 </r>
       <r>    5.0950    1.0000 </r>
       <r>    5.1389    1.0000 </r>
       <r>    5.1611    1.0000 </r>
       <r>    5.2095    1.0000 </r>
       <r>    5.2255    1.0000 </r>
       <r>    5.3368    1.0000 </r>
       <r>    5.3632    1.0000 </r>
       <r>    5.5410    1.0000 </r>
       <r>    5.5613    1.0000 </r>
       <r>    5.6247    1.0003 </r>
       <r>    5.6567    1.0006 </r>
       <r>    5.6891    1.0012 </r>
       <r>    5.7148    1.0022 </r>
       <r>    5.7471    1.0041 </r>
       <r>    5.7976    1.0096 </r>
       <r>    5.8303    1.0153 </r>
       <r>    5.8535    1.0202 </r>
       <r>    5.8852    1.0275 </r>
       <r>    5.9308    1.0351 </r>
       <r>    5.9672    1.0323 </r>
       <r>    5.9997    1.0164 </r>
       <r>    6.0527    0.9475 </r>
       <r>    6.0634    0.9255 </r>
       <r>    6.1255    0.7430 </r>
       <r>    6.1922    0.4734 </r>
       <r>    6.2432    0.2682 </r>
       <r>    6.4548   -0.0336 </r>
       <r>    6.5351   -0.0166 </r>
       <r>    6.5563   -0.0125 </r>
       <r>    6.5970   -0.0067 </r>
       <r>    6.6950   -0.0009 </r>
       <r>    6.7370   -0.0003 </r>
       <r>    6.7614   -0.0002 </r>
       <r>    6.8881   -0.0000 </r>
       <r>    7.0694   -0.0000 </r>
       <r>    7.1258   -0.0000 </r>
       <r>    7.1775   -0.0000 </r>
       <r>    7.3148   -0.0000 </r>
       <r>    7.3612   -0.0000 </r>
       <r>    7.4729   -0.0000 </r>
       <r>    7.7261   -0.0000 </r>
       <r>    7.7982   -0.0000 </r>
       <r>    7.9221   -0.0000 </r>
       <r>    7.9471   -0.0000 </r>
       <r>    8.0005   -0.0000 </r>
       <r>    8.0521   -0.0000 </r>
       <r>    8.0857   -0.0000 </r>
      </set>
      <set comment="kpoint 5">
       <r>  -47.8779    1.0000 </r>
       <r>  -47.8552    1.0000 </r>
       <r>  -47.8213    1.0000 </r>
       <r>  -47.7809    1.0000 </r>
       <r>  -47.7532    1.0000 </r>
       <r>  -47.6677    1.0000 </r>
       <r>  -24.4381    1.0000 </r>
       <r>  -24.3785    1.0000 </r>
       <r>  -24.2501    1.0000 </r>
       <r>  -24.2098    1.0000 </r>
       <r>  -24.0212    1.0000 </r>
       <r>  -24.0143    1.0000 </r>
       <r>  -24.0044    1.0000 </r>
       <r>  -23.9670    1.0000 </r>
       <r>  -23.9503    1.0000 </r>
       <r>  -23.9376    1.0000 </r>
       <r>  -23.9182    1.0000 </r>
       <r>  -23.8756    1.0000 </r>
       <r>  -23.8369    1.0000 </r>
       <r>  -23.8152    1.0000 </r>
       <r>  -23.6995    1.0000 </r>
       <r>  -23.6803    1.0000 </r>
       <r>  -23.5486    1.0000 </r>
       <r>  -23.4520    1.0000 </r>
       <r>   -0.1743    1.0000 </r>
       <r>    1.0032    1.0000 </r>
       <r>    1.4124    1.0000 </r>
       <r>    1.9495    1.0000 </r>
       <r>    2.2882    1.0000 </r>
       <r>    2.3976    1.0000 </r>
       <r>    2.4375    1.0000 </r>
       <r>    2.5400    1.0000 </r>
       <r>    2.5840    1.0000 </r>
       <r>    2.6638    1.0000 </r>
       <r>    2.7242    1.0000 </r>
       <r>    2.8166    1.0000 </r>
       <r>    2.9189    1.0000 </r>
       <r>    2.9659    1.0000 </r>
       <r>    3.0350    1.0000 </r>
       <r>    3.0754    1.0000 </r>
       <r>    3.1527    1.0000 </r>
       <r>    3.1723    1.0000 </r>
       <r>    3.3613    1.0000 </r>
       <r>    3.4024    1.0000 </r>
       <r>    3.4505    1.0000 </r>
       <r>    3.5181    1.0000 </r>
       <r>    3.5890    1.0000 </r>
       <r>    3.6475    1.0000 </r>
       <r>    3.7426    1.0000 </r>
       <r>    3.7957    1.0000 </r>
       <r>    3.8190    1.0000 </r>
       <r>    3.9081    1.0000 </r>
       <r>    3.9974    1.0000 </r>
       <r>    4.0549    1.0000 </r>
       <r>    4.1116    1.0000 </r>
       <r>    4.1714    1.0000 </r>
       <r>    4.2672    1.0000 </r>
       <r>    4.3532    1.0000 </r>
       <r>    4.4316    1.0000 </r>
       <r>    4.5062    1.0000 </r>
       <r>    4.5596    1.0000 </r>
       <r>    4.5770    1.0000 </r>
       <r>    4.6633    1.0000 </r>
       <r>    4.6805    1.0000 </r>
       <r>    4.7157    1.0000 </r>
       <r>    4.8021    1.0000 </r>
       <r>    4.8311    1.0000 </r>
       <r>    4.8657    1.0000 </r>
       <r>    4.9095    1.0000 </r>
       <r>    4.9290    1.0000 </r>
       <r>    4.9633    1.0000 </r>
       <r>    4.9851    1.0000 </r>
       <r>    5.0088    1.0000 </r>
       <r>    5.0625    1.0000 </r>
       <r>    5.0946    1.0000 </r>
       <r>    5.1612    1.0000 </r>
       <r>    5.2308    1.0000 </r>
       <r>    5.2572    1.0000 </r>
       <r>    5.3243    1.0000 </r>
       <r>    5.3997    1.0000 </r>
       <r>    5.4488    1.0000 </r>
       <r>    5.5038    1.0000 </r>
       <r>    5.5708    1.0001 </r>
       <r>    5.5892    1.0001 </r>
       <r>    5.6276    1.0003 </r>
       <r>    5.6982    1.0015 </r>
       <r>    5.7437    1.0038 </r>
       <r>    5.7989    1.0098 </r>
       <r>    5.8218    1.0137 </r>
       <r>    5.8675    1.0234 </r>
       <r>    5.8976    1.0302 </r>
       <r>    5.9279    1.0349 </r>
       <r>    5.9609    1.0337 </r>
       <r>    5.9819    1.0271 </r>
       <r>    6.0767    0.8943 </r>
       <r>    6.1057    0.8109 </r>
       <r>    6.1754    0.5442 </r>
       <r>    6.2212    0.3533 </r>
       <r>    6.2957    0.1042 </r>
       <r>    6.3327    0.0287 </r>
       <r>    6.3794   -0.0214 </r>
       <r>    6.4242   -0.0353 </r>
       <r>    6.4753   -0.0299 </r>
       <r>    6.5225   -0.0193 </r>
       <r>    6.5572   -0.0124 </r>
       <r>    6.5842   -0.0082 </r>
       <r>    6.6445   -0.0028 </r>
       <r>    6.6955   -0.0009 </r>
       <r>    6.7782   -0.0001 </r>
       <r>    6.8434   -0.0000 </r>
       <r>    6.9248   -0.0000 </r>
       <r>    7.2256   -0.0000 </r>
       <r>    7.5886   -0.0000 </r>
       <r>    7.6898   -0.0000 </r>
       <r>    7.7592   -0.0000 </r>
       <r>    7.7906   -0.0000 </r>
       <r>    7.9331   -0.0000 </r>
       <r>    7.9977   -0.0000 </r>
       <r>    8.0330   -0.0000 </r>
       <r>    8.0916   -0.0000 </r>
      </set>
      <set comment="kpoint 6">
       <r>  -47.8761    1.0000 </r>
       <r>  -47.8476    1.0000 </r>
       <r>  -47.8155    1.0000 </r>
       <r>  -47.7781    1.0000 </r>
       <r>  -47.7512    1.0000 </r>
       <r>  -47.6869    1.0000 </r>
       <r>  -24.4011    1.0000 </r>
       <r>  -24.2685    1.0000 </r>
       <r>  -24.2272    1.0000 </r>
       <r>  -24.1091    1.0000 </r>
       <r>  -24.0269    1.0000 </r>
       <r>  -24.0171    1.0000 </r>
       <r>  -23.9938    1.0000 </r>
       <r>  -23.9681    1.0000 </r>
       <r>  -23.9491    1.0000 </r>
       <r>  -23.9376    1.0000 </r>
       <r>  -23.9218    1.0000 </r>
       <r>  -23.8791    1.0000 </r>
       <r>  -23.8569    1.0000 </r>
       <r>  -23.8193    1.0000 </r>
       <r>  -23.7622    1.0000 </r>
       <r>  -23.6975    1.0000 </r>
       <r>  -23.6715    1.0000 </r>
       <r>  -23.5437    1.0000 </r>
       <r>    0.5365    1.0000 </r>
       <r>    1.4965    1.0000 </r>
       <r>    1.8479    1.0000 </r>
       <r>    2.0528    1.0000 </r>
       <r>    2.1935    1.0000 </r>
       <r>    2.3275    1.0000 </r>
       <r>    2.6538    1.0000 </r>
       <r>    2.8461    1.0000 </r>
       <r>    2.9135    1.0000 </r>
       <r>    3.0071    1.0000 </r>
       <r>    3.0789    1.0000 </r>
       <r>    3.1202    1.0000 </r>
       <r>    3.2032    1.0000 </r>
       <r>    3.2410    1.0000 </r>
       <r>    3.2644    1.0000 </r>
       <r>    3.3841    1.0000 </r>
       <r>    3.4578    1.0000 </r>
       <r>    3.4826    1.0000 </r>
       <r>    3.5582    1.0000 </r>
       <r>    3.5899    1.0000 </r>
       <r>    3.6395    1.0000 </r>
       <r>    3.6792    1.0000 </r>
       <r>    3.7502    1.0000 </r>
       <r>    3.8255    1.0000 </r>
       <r>    3.8777    1.0000 </r>
       <r>    3.9485    1.0000 </r>
       <r>    3.9950    1.0000 </r>
       <r>    4.0689    1.0000 </r>
       <r>    4.1279    1.0000 </r>
       <r>    4.1567    1.0000 </r>
       <r>    4.2171    1.0000 </r>
       <r>    4.2725    1.0000 </r>
       <r>    4.3234    1.0000 </r>
       <r>    4.4036    1.0000 </r>
       <r>    4.4670    1.0000 </r>
       <r>    4.5859    1.0000 </r>
       <r>    4.6102    1.0000 </r>
       <r>    4.6295    1.0000 </r>
       <r>    4.6913    1.0000 </r>
       <r>    4.7397    1.0000 </r>
       <r>    4.7775    1.0000 </r>
       <r>    4.8287    1.0000 </r>
       <r>    4.8620    1.0000 </r>
       <r>    4.9059    1.0000 </r>
       <r>    4.9431    1.0000 </r>
       <r>    4.9872    1.0000 </r>
       <r>    5.0354    1.0000 </r>
       <r>    5.0509    1.0000 </r>
       <r>    5.0873    1.0000 </r>
       <r>    5.1511    1.0000 </r>
       <r>    5.1809    1.0000 </r>
       <r>    5.2239    1.0000 </r>
       <r>    5.2446    1.0000 </r>
       <r>    5.3425    1.0000 </r>
       <r>    5.3837    1.0000 </r>
       <r>    5.4409    1.0000 </r>
       <r>    5.4616    1.0000 </r>
       <r>    5.5138    1.0000 </r>
       <r>    5.5622    1.0000 </r>
       <r>    5.5810    1.0001 </r>
       <r>    5.6075    1.0002 </r>
       <r>    5.6241    1.0003 </r>
       <r>    5.7024    1.0017 </r>
       <r>    5.7121    1.0020 </r>
       <r>    5.7633    1.0055 </r>
       <r>    5.8024    1.0103 </r>
       <r>    5.8279    1.0148 </r>
       <r>    5.8591    1.0215 </r>
       <r>    5.8832    1.0270 </r>
       <r>    5.9283    1.0349 </r>
       <r>    5.9483    1.0352 </r>
       <r>    5.9802    1.0278 </r>
       <r>    6.0183    0.9991 </r>
       <r>    6.0484    0.9553 </r>
       <r>    6.0651    0.9216 </r>
       <r>    6.1041    0.8161 </r>
       <r>    6.1472    0.6602 </r>
       <r>    6.2005    0.4383 </r>
       <r>    6.2379    0.2877 </r>
       <r>    6.2807    0.1443 </r>
       <r>    6.3226    0.0459 </r>
       <r>    6.3479    0.0074 </r>
       <r>    6.4692   -0.0311 </r>
       <r>    6.5715   -0.0100 </r>
       <r>    6.6174   -0.0047 </r>
       <r>    6.6980   -0.0009 </r>
       <r>    6.7680   -0.0002 </r>
       <r>    7.0969   -0.0000 </r>
       <r>    7.2124   -0.0000 </r>
       <r>    7.2724   -0.0000 </r>
       <r>    7.3473   -0.0000 </r>
       <r>    7.4583   -0.0000 </r>
       <r>    7.5208   -0.0000 </r>
       <r>    7.5791   -0.0000 </r>
       <r>    7.6449   -0.0000 </r>
       <r>    7.6846   -0.0000 </r>
      </set>
      <set comment="kpoint 7">
       <r>  -47.8759    1.0000 </r>
       <r>  -47.8475    1.0000 </r>
       <r>  -47.8155    1.0000 </r>
       <r>  -47.7784    1.0000 </r>
       <r>  -47.7512    1.0000 </r>
       <r>  -47.6869    1.0000 </r>
       <r>  -24.3999    1.0000 </r>
       <r>  -24.2656    1.0000 </r>
       <r>  -24.2237    1.0000 </r>
       <r>  -24.1091    1.0000 </r>
       <r>  -24.0270    1.0000 </r>
       <r>  -24.0171    1.0000 </r>
       <r>  -23.9939    1.0000 </r>
       <r>  -23.9681    1.0000 </r>
       <r>  -23.9491    1.0000 </r>
       <r>  -23.9377    1.0000 </r>
       <r>  -23.9217    1.0000 </r>
       <r>  -23.8791    1.0000 </r>
       <r>  -23.8570    1.0000 </r>
       <r>  -23.8193    1.0000 </r>
       <r>  -23.7622    1.0000 </r>
       <r>  -23.7037    1.0000 </r>
       <r>  -23.6734    1.0000 </r>
       <r>  -23.5441    1.0000 </r>
       <r>    0.8875    1.0000 </r>
       <r>    1.5323    1.0000 </r>
       <r>    1.6564    1.0000 </r>
       <r>    1.9430    1.0000 </r>
       <r>    2.2262    1.0000 </r>
       <r>    2.4520    1.0000 </r>
       <r>    2.5383    1.0000 </r>
       <r>    2.6728    1.0000 </r>
       <r>    2.9000    1.0000 </r>
       <r>    3.0032    1.0000 </r>
       <r>    3.0892    1.0000 </r>
       <r>    3.1483    1.0000 </r>
       <r>    3.1865    1.0000 </r>
       <r>    3.2608    1.0000 </r>
       <r>    3.2952    1.0000 </r>
       <r>    3.3564    1.0000 </r>
       <r>    3.4120    1.0000 </r>
       <r>    3.4522    1.0000 </r>
       <r>    3.5273    1.0000 </r>
       <r>    3.5886    1.0000 </r>
       <r>    3.6516    1.0000 </r>
       <r>    3.7385    1.0000 </r>
       <r>    3.7828    1.0000 </r>
       <r>    3.8574    1.0000 </r>
       <r>    3.9356    1.0000 </r>
       <r>    3.9898    1.0000 </r>
       <r>    4.0134    1.0000 </r>
       <r>    4.0768    1.0000 </r>
       <r>    4.1242    1.0000 </r>
       <r>    4.2258    1.0000 </r>
       <r>    4.3082    1.0000 </r>
       <r>    4.4125    1.0000 </r>
       <r>    4.4668    1.0000 </r>
       <r>    4.5010    1.0000 </r>
       <r>    4.5111    1.0000 </r>
       <r>    4.5416    1.0000 </r>
       <r>    4.5621    1.0000 </r>
       <r>    4.6280    1.0000 </r>
       <r>    4.6414    1.0000 </r>
       <r>    4.7153    1.0000 </r>
       <r>    4.7405    1.0000 </r>
       <r>    4.7986    1.0000 </r>
       <r>    4.8557    1.0000 </r>
       <r>    4.9010    1.0000 </r>
       <r>    4.9164    1.0000 </r>
       <r>    4.9426    1.0000 </r>
       <r>    4.9545    1.0000 </r>
       <r>    5.0569    1.0000 </r>
       <r>    5.0888    1.0000 </r>
       <r>    5.1204    1.0000 </r>
       <r>    5.1880    1.0000 </r>
       <r>    5.2080    1.0000 </r>
       <r>    5.2505    1.0000 </r>
       <r>    5.2762    1.0000 </r>
       <r>    5.3743    1.0000 </r>
       <r>    5.4238    1.0000 </r>
       <r>    5.4355    1.0000 </r>
       <r>    5.4984    1.0000 </r>
       <r>    5.5119    1.0000 </r>
       <r>    5.5554    1.0000 </r>
       <r>    5.6663    1.0007 </r>
       <r>    5.6949    1.0014 </r>
       <r>    5.7396    1.0035 </r>
       <r>    5.7609    1.0052 </r>
       <r>    5.8098    1.0115 </r>
       <r>    5.8296    1.0152 </r>
       <r>    5.8878    1.0281 </r>
       <r>    5.8982    1.0303 </r>
       <r>    5.9353    1.0353 </r>
       <r>    5.9711    1.0312 </r>
       <r>    6.0032    1.0136 </r>
       <r>    6.0524    0.9480 </r>
       <r>    6.0829    0.8780 </r>
       <r>    6.1145    0.7818 </r>
       <r>    6.1473    0.6600 </r>
       <r>    6.1893    0.4855 </r>
       <r>    6.2250    0.3380 </r>
       <r>    6.2589    0.2125 </r>
       <r>    6.3057    0.0805 </r>
       <r>    6.3436    0.0129 </r>
       <r>    6.3549   -0.0007 </r>
       <r>    6.3908   -0.0275 </r>
       <r>    6.4315   -0.0355 </r>
       <r>    6.4531   -0.0338 </r>
       <r>    6.5430   -0.0150 </r>
       <r>    6.5998   -0.0063 </r>
       <r>    6.7298   -0.0004 </r>
       <r>    6.7546   -0.0002 </r>
       <r>    6.7856   -0.0001 </r>
       <r>    6.8966   -0.0000 </r>
       <r>    7.1688   -0.0000 </r>
       <r>    7.3266   -0.0000 </r>
       <r>    7.5261   -0.0000 </r>
       <r>    7.5410   -0.0000 </r>
       <r>    7.5919   -0.0000 </r>
       <r>    7.6583   -0.0000 </r>
      </set>
      <set comment="kpoint 8">
       <r>  -47.8775    1.0000 </r>
       <r>  -47.8549    1.0000 </r>
       <r>  -47.8213    1.0000 </r>
       <r>  -47.7813    1.0000 </r>
       <r>  -47.7533    1.0000 </r>
       <r>  -47.6677    1.0000 </r>
       <r>  -24.4378    1.0000 </r>
       <r>  -24.3764    1.0000 </r>
       <r>  -24.2417    1.0000 </r>
       <r>  -24.2083    1.0000 </r>
       <r>  -24.0214    1.0000 </r>
       <r>  -24.0143    1.0000 </r>
       <r>  -24.0045    1.0000 </r>
       <r>  -23.9670    1.0000 </r>
       <r>  -23.9503    1.0000 </r>
       <r>  -23.9376    1.0000 </r>
       <r>  -23.9181    1.0000 </r>
       <r>  -23.8755    1.0000 </r>
       <r>  -23.8370    1.0000 </r>
       <r>  -23.8153    1.0000 </r>
       <r>  -23.7048    1.0000 </r>
       <r>  -23.6880    1.0000 </r>
       <r>  -23.5493    1.0000 </r>
       <r>  -23.4521    1.0000 </r>
       <r>    0.0515    1.0000 </r>
       <r>    1.1442    1.0000 </r>
       <r>    1.3894    1.0000 </r>
       <r>    1.5847    1.0000 </r>
       <r>    2.1371    1.0000 </r>
       <r>    2.4804    1.0000 </r>
       <r>    2.5737    1.0000 </r>
       <r>    2.6647    1.0000 </r>
       <r>    2.7020    1.0000 </r>
       <r>    2.7449    1.0000 </r>
       <r>    2.8760    1.0000 </r>
       <r>    2.9053    1.0000 </r>
       <r>    2.9167    1.0000 </r>
       <r>    2.9958    1.0000 </r>
       <r>    3.0175    1.0000 </r>
       <r>    3.0735    1.0000 </r>
       <r>    3.1218    1.0000 </r>
       <r>    3.1852    1.0000 </r>
       <r>    3.2614    1.0000 </r>
       <r>    3.3317    1.0000 </r>
       <r>    3.4056    1.0000 </r>
       <r>    3.4688    1.0000 </r>
       <r>    3.5469    1.0000 </r>
       <r>    3.6368    1.0000 </r>
       <r>    3.6884    1.0000 </r>
       <r>    3.7749    1.0000 </r>
       <r>    3.8063    1.0000 </r>
       <r>    3.8699    1.0000 </r>
       <r>    3.9375    1.0000 </r>
       <r>    4.0375    1.0000 </r>
       <r>    4.0857    1.0000 </r>
       <r>    4.1430    1.0000 </r>
       <r>    4.3277    1.0000 </r>
       <r>    4.3795    1.0000 </r>
       <r>    4.4498    1.0000 </r>
       <r>    4.5137    1.0000 </r>
       <r>    4.5972    1.0000 </r>
       <r>    4.6422    1.0000 </r>
       <r>    4.6731    1.0000 </r>
       <r>    4.7515    1.0000 </r>
       <r>    4.8313    1.0000 </r>
       <r>    4.8464    1.0000 </r>
       <r>    4.9110    1.0000 </r>
       <r>    4.9498    1.0000 </r>
       <r>    4.9764    1.0000 </r>
       <r>    4.9960    1.0000 </r>
       <r>    5.0905    1.0000 </r>
       <r>    5.1119    1.0000 </r>
       <r>    5.1275    1.0000 </r>
       <r>    5.1737    1.0000 </r>
       <r>    5.2040    1.0000 </r>
       <r>    5.2685    1.0000 </r>
       <r>    5.2954    1.0000 </r>
       <r>    5.3096    1.0000 </r>
       <r>    5.3394    1.0000 </r>
       <r>    5.3996    1.0000 </r>
       <r>    5.4170    1.0000 </r>
       <r>    5.4484    1.0000 </r>
       <r>    5.4729    1.0000 </r>
       <r>    5.5298    1.0000 </r>
       <r>    5.6143    1.0002 </r>
       <r>    5.6835    1.0011 </r>
       <r>    5.7380    1.0034 </r>
       <r>    5.7670    1.0058 </r>
       <r>    5.8123    1.0120 </r>
       <r>    5.8481    1.0190 </r>
       <r>    5.9052    1.0316 </r>
       <r>    5.9409    1.0355 </r>
       <r>    5.9666    1.0324 </r>
       <r>    6.0290    0.9860 </r>
       <r>    6.0797    0.8866 </r>
       <r>    6.0933    0.8491 </r>
       <r>    6.1393    0.6912 </r>
       <r>    6.1591    0.6121 </r>
       <r>    6.2008    0.4369 </r>
       <r>    6.2863    0.1288 </r>
       <r>    6.3211    0.0487 </r>
       <r>    6.3449    0.0113 </r>
       <r>    6.3755   -0.0189 </r>
       <r>    6.4056   -0.0326 </r>
       <r>    6.4456   -0.0347 </r>
       <r>    6.5007   -0.0243 </r>
       <r>    6.5371   -0.0162 </r>
       <r>    6.6142   -0.0049 </r>
       <r>    6.7332   -0.0004 </r>
       <r>    6.7781   -0.0001 </r>
       <r>    6.8624   -0.0000 </r>
       <r>    7.0586   -0.0000 </r>
       <r>    7.2485   -0.0000 </r>
       <r>    7.3876   -0.0000 </r>
       <r>    7.4219   -0.0000 </r>
       <r>    7.5130   -0.0000 </r>
       <r>    7.5742   -0.0000 </r>
       <r>    7.6462   -0.0000 </r>
       <r>    7.6960   -0.0000 </r>
       <r>    7.8119   -0.0000 </r>
      </set>
      <set comment="kpoint 9">
       <r>  -47.8790    1.0000 </r>
       <r>  -47.8596    1.0000 </r>
       <r>  -47.8236    1.0000 </r>
       <r>  -47.7825    1.0000 </r>
       <r>  -47.7540    1.0000 </r>
       <r>  -47.6578    1.0000 </r>
       <r>  -24.5215    1.0000 </r>
       <r>  -24.3878    1.0000 </r>
       <r>  -24.2452    1.0000 </r>
       <r>  -24.2125    1.0000 </r>
       <r>  -24.0196    1.0000 </r>
       <r>  -24.0133    1.0000 </r>
       <r>  -24.0092    1.0000 </r>
       <r>  -23.9657    1.0000 </r>
       <r>  -23.9513    1.0000 </r>
       <r>  -23.9341    1.0000 </r>
       <r>  -23.9161    1.0000 </r>
       <r>  -23.8733    1.0000 </r>
       <r>  -23.8282    1.0000 </r>
       <r>  -23.8132    1.0000 </r>
       <r>  -23.7027    1.0000 </r>
       <r>  -23.6858    1.0000 </r>
       <r>  -23.5480    1.0000 </r>
       <r>  -23.3403    1.0000 </r>
       <r>   -0.0232    1.0000 </r>
       <r>    0.7273    1.0000 </r>
       <r>    1.0759    1.0000 </r>
       <r>    1.5529    1.0000 </r>
       <r>    1.8584    1.0000 </r>
       <r>    2.1244    1.0000 </r>
       <r>    2.4127    1.0000 </r>
       <r>    2.4395    1.0000 </r>
       <r>    2.5566    1.0000 </r>
       <r>    2.5977    1.0000 </r>
       <r>    2.6824    1.0000 </r>
       <r>    2.8038    1.0000 </r>
       <r>    2.8141    1.0000 </r>
       <r>    2.8768    1.0000 </r>
       <r>    2.9052    1.0000 </r>
       <r>    2.9596    1.0000 </r>
       <r>    3.0421    1.0000 </r>
       <r>    3.1287    1.0000 </r>
       <r>    3.1946    1.0000 </r>
       <r>    3.2982    1.0000 </r>
       <r>    3.3439    1.0000 </r>
       <r>    3.3962    1.0000 </r>
       <r>    3.4385    1.0000 </r>
       <r>    3.4950    1.0000 </r>
       <r>    3.5613    1.0000 </r>
       <r>    3.6701    1.0000 </r>
       <r>    3.7352    1.0000 </r>
       <r>    3.7740    1.0000 </r>
       <r>    3.8205    1.0000 </r>
       <r>    3.8739    1.0000 </r>
       <r>    3.9517    1.0000 </r>
       <r>    4.0694    1.0000 </r>
       <r>    4.3780    1.0000 </r>
       <r>    4.4492    1.0000 </r>
       <r>    4.5001    1.0000 </r>
       <r>    4.5550    1.0000 </r>
       <r>    4.6014    1.0000 </r>
       <r>    4.6609    1.0000 </r>
       <r>    4.7423    1.0000 </r>
       <r>    4.7800    1.0000 </r>
       <r>    4.7975    1.0000 </r>
       <r>    4.8279    1.0000 </r>
       <r>    4.8919    1.0000 </r>
       <r>    4.9211    1.0000 </r>
       <r>    4.9476    1.0000 </r>
       <r>    4.9839    1.0000 </r>
       <r>    5.0051    1.0000 </r>
       <r>    5.0266    1.0000 </r>
       <r>    5.0767    1.0000 </r>
       <r>    5.1362    1.0000 </r>
       <r>    5.1453    1.0000 </r>
       <r>    5.1838    1.0000 </r>
       <r>    5.2151    1.0000 </r>
       <r>    5.2866    1.0000 </r>
       <r>    5.3319    1.0000 </r>
       <r>    5.4534    1.0000 </r>
       <r>    5.5138    1.0000 </r>
       <r>    5.6043    1.0002 </r>
       <r>    5.6252    1.0003 </r>
       <r>    5.6778    1.0010 </r>
       <r>    5.6984    1.0015 </r>
       <r>    5.7654    1.0057 </r>
       <r>    5.7910    1.0087 </r>
       <r>    5.8077    1.0112 </r>
       <r>    5.8615    1.0220 </r>
       <r>    5.8871    1.0279 </r>
       <r>    5.9061    1.0318 </r>
       <r>    5.9331    1.0352 </r>
       <r>    5.9774    1.0290 </r>
       <r>    6.0115    1.0062 </r>
       <r>    6.0358    0.9763 </r>
       <r>    6.0840    0.8752 </r>
       <r>    6.1494    0.6514 </r>
       <r>    6.2065    0.4133 </r>
       <r>    6.2168    0.3707 </r>
       <r>    6.2550    0.2258 </r>
       <r>    6.3444    0.0119 </r>
       <r>    6.3626   -0.0085 </r>
       <r>    6.3937   -0.0287 </r>
       <r>    6.4424   -0.0350 </r>
       <r>    6.4733   -0.0303 </r>
       <r>    6.5079   -0.0226 </r>
       <r>    6.5636   -0.0113 </r>
       <r>    6.6571   -0.0021 </r>
       <r>    6.9539   -0.0000 </r>
       <r>    7.0359   -0.0000 </r>
       <r>    7.0579   -0.0000 </r>
       <r>    7.5481   -0.0000 </r>
       <r>    7.6368   -0.0000 </r>
       <r>    7.6837   -0.0000 </r>
       <r>    7.7405   -0.0000 </r>
       <r>    7.7973   -0.0000 </r>
       <r>    7.8652   -0.0000 </r>
       <r>    7.8994   -0.0000 </r>
       <r>    7.9379   -0.0000 </r>
       <r>    7.9795   -0.0000 </r>
      </set>
      <set comment="kpoint 10">
       <r>  -47.8777    1.0000 </r>
       <r>  -47.8551    1.0000 </r>
       <r>  -47.8213    1.0000 </r>
       <r>  -47.7810    1.0000 </r>
       <r>  -47.7532    1.0000 </r>
       <r>  -47.6677    1.0000 </r>
       <r>  -24.4380    1.0000 </r>
       <r>  -24.3776    1.0000 </r>
       <r>  -24.2469    1.0000 </r>
       <r>  -24.2093    1.0000 </r>
       <r>  -24.0214    1.0000 </r>
       <r>  -24.0144    1.0000 </r>
       <r>  -24.0045    1.0000 </r>
       <r>  -23.9671    1.0000 </r>
       <r>  -23.9502    1.0000 </r>
       <r>  -23.9375    1.0000 </r>
       <r>  -23.9181    1.0000 </r>
       <r>  -23.8756    1.0000 </r>
       <r>  -23.8370    1.0000 </r>
       <r>  -23.8152    1.0000 </r>
       <r>  -23.7010    1.0000 </r>
       <r>  -23.6838    1.0000 </r>
       <r>  -23.5489    1.0000 </r>
       <r>  -23.4520    1.0000 </r>
       <r>    0.0673    1.0000 </r>
       <r>    1.0781    1.0000 </r>
       <r>    1.3337    1.0000 </r>
       <r>    1.6706    1.0000 </r>
       <r>    2.1527    1.0000 </r>
       <r>    2.3328    1.0000 </r>
       <r>    2.4712    1.0000 </r>
       <r>    2.5376    1.0000 </r>
       <r>    2.5799    1.0000 </r>
       <r>    2.6881    1.0000 </r>
       <r>    2.7601    1.0000 </r>
       <r>    2.8255    1.0000 </r>
       <r>    2.9250    1.0000 </r>
       <r>    2.9944    1.0000 </r>
       <r>    3.0459    1.0000 </r>
       <r>    3.0743    1.0000 </r>
       <r>    3.1018    1.0000 </r>
       <r>    3.2273    1.0000 </r>
       <r>    3.3053    1.0000 </r>
       <r>    3.3291    1.0000 </r>
       <r>    3.4223    1.0000 </r>
       <r>    3.5104    1.0000 </r>
       <r>    3.6095    1.0000 </r>
       <r>    3.6616    1.0000 </r>
       <r>    3.7400    1.0000 </r>
       <r>    3.7669    1.0000 </r>
       <r>    3.8958    1.0000 </r>
       <r>    3.9239    1.0000 </r>
       <r>    3.9713    1.0000 </r>
       <r>    4.0083    1.0000 </r>
       <r>    4.0616    1.0000 </r>
       <r>    4.1949    1.0000 </r>
       <r>    4.2930    1.0000 </r>
       <r>    4.4468    1.0000 </r>
       <r>    4.4972    1.0000 </r>
       <r>    4.5383    1.0000 </r>
       <r>    4.5630    1.0000 </r>
       <r>    4.6117    1.0000 </r>
       <r>    4.7215    1.0000 </r>
       <r>    4.7482    1.0000 </r>
       <r>    4.7737    1.0000 </r>
       <r>    4.8142    1.0000 </r>
       <r>    4.8352    1.0000 </r>
       <r>    4.9057    1.0000 </r>
       <r>    4.9293    1.0000 </r>
       <r>    4.9624    1.0000 </r>
       <r>    5.0065    1.0000 </r>
       <r>    5.0302    1.0000 </r>
       <r>    5.0733    1.0000 </r>
       <r>    5.1398    1.0000 </r>
       <r>    5.1768    1.0000 </r>
       <r>    5.2352    1.0000 </r>
       <r>    5.2469    1.0000 </r>
       <r>    5.2982    1.0000 </r>
       <r>    5.3534    1.0000 </r>
       <r>    5.4406    1.0000 </r>
       <r>    5.4767    1.0000 </r>
       <r>    5.5147    1.0000 </r>
       <r>    5.5608    1.0000 </r>
       <r>    5.6160    1.0002 </r>
       <r>    5.6587    1.0006 </r>
       <r>    5.7002    1.0016 </r>
       <r>    5.7288    1.0029 </r>
       <r>    5.7521    1.0045 </r>
       <r>    5.7990    1.0098 </r>
       <r>    5.8209    1.0135 </r>
       <r>    5.8509    1.0197 </r>
       <r>    5.9113    1.0327 </r>
       <r>    5.9418    1.0355 </r>
       <r>    5.9818    1.0271 </r>
       <r>    6.0064    1.0110 </r>
       <r>    6.0498    0.9528 </r>
       <r>    6.0832    0.8772 </r>
       <r>    6.1559    0.6253 </r>
       <r>    6.1756    0.5432 </r>
       <r>    6.2401    0.2798 </r>
       <r>    6.2861    0.1294 </r>
       <r>    6.3715   -0.0159 </r>
       <r>    6.4498   -0.0342 </r>
       <r>    6.4948   -0.0256 </r>
       <r>    6.5108   -0.0219 </r>
       <r>    6.5764   -0.0093 </r>
       <r>    6.6252   -0.0040 </r>
       <r>    6.6610   -0.0020 </r>
       <r>    6.8276   -0.0000 </r>
       <r>    6.8931   -0.0000 </r>
       <r>    6.9902   -0.0000 </r>
       <r>    7.1358   -0.0000 </r>
       <r>    7.2635   -0.0000 </r>
       <r>    7.6208   -0.0000 </r>
       <r>    7.6945   -0.0000 </r>
       <r>    7.7165   -0.0000 </r>
       <r>    7.7817   -0.0000 </r>
       <r>    7.8072   -0.0000 </r>
       <r>    7.8491   -0.0000 </r>
       <r>    7.9342   -0.0000 </r>
      </set>
[...]
       <r>    4.5618    1.0000 </r>
       <r>    4.6131    1.0000 </r>
       <r>    4.6281    1.0000 </r>
       <r>    4.6731    1.0000 </r>
       <r>    4.7315    1.0000 </r>
       <r>    4.7614    1.0000 </r>
       <r>    4.8099    1.0000 </r>
       <r>    4.8668    1.0000 </r>
       <r>    4.9096    1.0000 </r>
       <r>    4.9235    1.0000 </r>
       <r>    5.0262    1.0000 </r>
       <r>    5.0753    1.0000 </r>
       <r>    5.1104    1.0000 </r>
       <r>    5.1335    1.0000 </r>
       <r>    5.2196    1.0000 </r>
       <r>    5.2592    1.0000 </r>
       <r>    5.2935    1.0000 </r>
       <r>    5.3206    1.0000 </r>
       <r>    5.3753    1.0000 </r>
       <r>    5.4086    1.0000 </r>
       <r>    5.4764    1.0000 </r>
       <r>    5.5090    1.0000 </r>
       <r>    5.5657    1.0001 </r>
       <r>    5.6073    1.0002 </r>
       <r>    5.6449    1.0004 </r>
       <r>    5.6707    1.0008 </r>
       <r>    5.7311    1.0030 </r>
       <r>    5.7418    1.0037 </r>
       <r>    5.7836    1.0077 </r>
       <r>    5.8169    1.0128 </r>
       <r>    5.8355    1.0164 </r>
       <r>    5.8630    1.0224 </r>
       <r>    5.9204    1.0340 </r>
       <r>    5.9479    1.0353 </r>
       <r>    5.9660    1.0326 </r>
       <r>    5.9961    1.0190 </r>
       <r>    6.0178    0.9997 </r>
       <r>    6.0596    0.9335 </r>
       <r>    6.0778    0.8914 </r>
       <r>    6.2071    0.4106 </r>
       <r>    6.2528    0.2337 </r>
       <r>    6.3641   -0.0098 </r>
       <r>    6.3905   -0.0274 </r>
       <r>    6.4556   -0.0335 </r>
       <r>    6.4797   -0.0290 </r>
       <r>    6.5629   -0.0114 </r>
       <r>    6.6453   -0.0027 </r>
       <r>    6.7207   -0.0005 </r>
       <r>    7.0429   -0.0000 </r>
       <r>    7.1404   -0.0000 </r>
       <r>    7.1840   -0.0000 </r>
       <r>    7.2303   -0.0000 </r>
       <r>    7.2899   -0.0000 </r>
       <r>    7.7567   -0.0000 </r>
       <r>    7.8136   -0.0000 </r>
       <r>    7.8699   -0.0000 </r>
       <r>    7.9601   -0.0000 </r>
       <r>    7.9887   -0.0000 </r>
       <r>    8.0510   -0.0000 </r>
       <r>    8.0866   -0.0000 </r>
      </set>
     </set>
    </set>
   </array>
  </eigenvalues>
  <separator name="orbital magnetization" >
   <v name="MAGDIPOLOUT">      0.00000000      0.00000000      0.00000000</v>
  </separator>
  <dos>
   <i name="efermi">      6.18587595 </i>
   <total>
    <array>
     <dimension dim="1">gridpoints</dimension>
     <dimension dim="2">spin</dimension>
     <field>energy</field>
     <field>total</field>
     <field>integrated</field>
     <set>
      <set comment="spin 1">
       <r>   -50.6843     0.0000     0.0000 </r>
       <r>   -50.4786     0.0000     0.0000 </r>
       <r>   -50.2729     0.0000     0.0000 </r>
       <r>   -50.0672     0.0000     0.0000 </r>
       <r>   -49.8615     0.0000     0.0000 </r>
       <r>   -49.6558    -0.0000    -0.0000 </r>
       <r>   -49.4501    -0.0000    -0.0000 </r>
       <r>   -49.2444    -0.0000    -0.0000 </r>
       <r>   -49.0387    -0.0000    -0.0000 </r>
       <r>   -48.8330    -0.0000    -0.0000 </r>
       <r>   -48.6273    -0.0000    -0.0000 </r>
       <r>   -48.4216    -0.0073    -0.0015 </r>
       <r>   -48.2159    -0.4641    -0.0970 </r>
       <r>   -48.0102     0.0705    -0.0825 </r>
       <r>   -47.8045    27.5490     5.5844 </r>
       <r>   -47.5988    30.0719    11.7701 </r>
       <r>   -47.3931     1.7526    12.1307 </r>
       <r>   -47.1874    -0.6155    12.0041 </r>
       <r>   -46.9817    -0.0197    12.0000 </r>
       <r>   -46.7760    -0.0001    12.0000 </r>
       <r>   -46.5703    -0.0000    12.0000 </r>
       <r>   -46.3646    -0.0000    12.0000 </r>
       <r>   -46.1589     0.0000    12.0000 </r>
       <r>   -45.9532     0.0000    12.0000 </r>
       <r>   -45.7475     0.0000    12.0000 </r>
       <r>   -45.5418     0.0000    12.0000 </r>
       <r>   -45.3361     0.0000    12.0000 </r>
       <r>   -45.1304     0.0000    12.0000 </r>
       <r>   -44.9247     0.0000    12.0000 </r>
       <r>   -44.7190     0.0000    12.0000 </r>
       <r>   -44.5133     0.0000    12.0000 </r>
       <r>   -44.3076     0.0000    12.0000 </r>
       <r>   -44.1019     0.0000    12.0000 </r>
       <r>   -43.8962     0.0000    12.0000 </r>
       <r>   -43.6905     0.0000    12.0000 </r>
       <r>   -43.4848     0.0000    12.0000 </r>
       <r>   -43.2791     0.0000    12.0000 </r>
       <r>   -43.0734     0.0000    12.0000 </r>
       <r>   -42.8677     0.0000    12.0000 </r>
       <r>   -42.6620     0.0000    12.0000 </r>
       <r>   -42.4563     0.0000    12.0000 </r>
       <r>   -42.2506     0.0000    12.0000 </r>
       <r>   -42.0449     0.0000    12.0000 </r>
       <r>   -41.8392     0.0000    12.0000 </r>
       <r>   -41.6335     0.0000    12.0000 </r>
       <r>   -41.4278     0.0000    12.0000 </r>
       <r>   -41.2221     0.0000    12.0000 </r>
       <r>   -41.0164     0.0000    12.0000 </r>
       <r>   -40.8107     0.0000    12.0000 </r>
       <r>   -40.6050     0.0000    12.0000 </r>
       <r>   -40.3993     0.0000    12.0000 </r>
       <r>   -40.1936     0.0000    12.0000 </r>
       <r>   -39.9879     0.0000    12.0000 </r>
       <r>   -39.7822     0.0000    12.0000 </r>
       <r>   -39.5765     0.0000    12.0000 </r>
       <r>   -39.3708     0.0000    12.0000 </r>
       <r>   -39.1651     0.0000    12.0000 </r>
       <r>   -38.9594     0.0000    12.0000 </r>
       <r>   -38.7537     0.0000    12.0000 </r>
       <r>   -38.5480     0.0000    12.0000 </r>
       <r>   -38.3423     0.0000    12.0000 </r>
       <r>   -38.1366     0.0000    12.0000 </r>
       <r>   -37.9309     0.0000    12.0000 </r>
       <r>   -37.7252     0.0000    12.0000 </r>
       <r>   -37.5195     0.0000    12.0000 </r>
       <r>   -37.3138     0.0000    12.0000 </r>
       <r>   -37.1081     0.0000    12.0000 </r>
       <r>   -36.9024     0.0000    12.0000 </r>
       <r>   -36.6967     0.0000    12.0000 </r>
       <r>   -36.4910     0.0000    12.0000 </r>
       <r>   -36.2853     0.0000    12.0000 </r>
       <r>   -36.0796     0.0000    12.0000 </r>
       <r>   -35.8739     0.0000    12.0000 </r>
       <r>   -35.6682     0.0000    12.0000 </r>
       <r>   -35.4625     0.0000    12.0000 </r>
       <r>   -35.2568     0.0000    12.0000 </r>
       <r>   -35.0511     0.0000    12.0000 </r>
       <r>   -34.8454     0.0000    12.0000 </r>
       <r>   -34.6397     0.0000    12.0000 </r>
       <r>   -34.4340     0.0000    12.0000 </r>
       <r>   -34.2283     0.0000    12.0000 </r>
       <r>   -34.0226     0.0000    12.0000 </r>
       <r>   -33.8169     0.0000    12.0000 </r>
       <r>   -33.6112     0.0000    12.0000 </r>
       <r>   -33.4055     0.0000    12.0000 </r>
       <r>   -33.1998     0.0000    12.0000 </r>
       <r>   -32.9941     0.0000    12.0000 </r>
       <r>   -32.7884     0.0000    12.0000 </r>
       <r>   -32.5827     0.0000    12.0000 </r>
       <r>   -32.3770     0.0000    12.0000 </r>
       <r>   -32.1713     0.0000    12.0000 </r>
       <r>   -31.9656     0.0000    12.0000 </r>
       <r>   -31.7599     0.0000    12.0000 </r>
       <r>   -31.5542     0.0000    12.0000 </r>
       <r>   -31.3485     0.0000    12.0000 </r>
       <r>   -31.1428     0.0000    12.0000 </r>
       <r>   -30.9371     0.0000    12.0000 </r>
       <r>   -30.7314     0.0000    12.0000 </r>
       <r>   -30.5257     0.0000    12.0000 </r>
       <r>   -30.3200     0.0000    12.0000 </r>
       <r>   -30.1143     0.0000    12.0000 </r>
       <r>   -29.9086     0.0000    12.0000 </r>
       <r>   -29.7029     0.0000    12.0000 </r>
       <r>   -29.4972     0.0000    12.0000 </r>
       <r>   -29.2915     0.0000    12.0000 </r>
       <r>   -29.0858     0.0000    12.0000 </r>
       <r>   -28.8801     0.0000    12.0000 </r>
       <r>   -28.6744     0.0000    12.0000 </r>
       <r>   -28.4687     0.0000    12.0000 </r>
       <r>   -28.2630     0.0000    12.0000 </r>
       <r>   -28.0573     0.0000    12.0000 </r>
       <r>   -27.8516     0.0000    12.0000 </r>
       <r>   -27.6459     0.0000    12.0000 </r>
       <r>   -27.4402     0.0000    12.0000 </r>
       <r>   -27.2345     0.0000    12.0000 </r>
       <r>   -27.0288     0.0000    12.0000 </r>
       <r>   -26.8231     0.0000    12.0000 </r>
       <r>   -26.6174     0.0000    12.0000 </r>
       <r>   -26.4117     0.0000    12.0000 </r>
       <r>   -26.2060    -0.0000    12.0000 </r>
       <r>   -26.0003    -0.0000    12.0000 </r>
       <r>   -25.7946    -0.0000    12.0000 </r>
       <r>   -25.5889    -0.0000    12.0000 </r>
       <r>   -25.3832    -0.0000    12.0000 </r>
       <r>   -25.1775    -0.0000    12.0000 </r>
       <r>   -24.9718    -0.0099    11.9980 </r>
       <r>   -24.7661    -0.2651    11.9434 </r>
       <r>   -24.5604     0.7422    12.0961 </r>
       <r>   -24.3547    11.6607    14.4947 </r>
       <r>   -24.1490    20.8551    18.7846 </r>
       <r>   -23.9433    51.9371    29.4680 </r>
       <r>   -23.7376    57.7264    41.3423 </r>
       <r>   -23.5319    23.8745    46.2533 </r>
       <r>   -23.3262     8.0054    47.9000 </r>
       <r>   -23.1205     0.6830    48.0405 </r>
       <r>   -22.9148    -0.1846    48.0025 </r>
       <r>   -22.7091    -0.0123    48.0000 </r>
       <r>   -22.5034    -0.0001    48.0000 </r>
       <r>   -22.2977    -0.0000    48.0000 </r>
       <r>   -22.0920    -0.0000    48.0000 </r>
       <r>   -21.8863     0.0000    48.0000 </r>
       <r>   -21.6806     0.0000    48.0000 </r>
       <r>   -21.4749     0.0000    48.0000 </r>
       <r>   -21.2692     0.0000    48.0000 </r>
       <r>   -21.0635     0.0000    48.0000 </r>
       <r>   -20.8578     0.0000    48.0000 </r>
       <r>   -20.6521     0.0000    48.0000 </r>
       <r>   -20.4464     0.0000    48.0000 </r>
       <r>   -20.2407     0.0000    48.0000 </r>
       <r>   -20.0350     0.0000    48.0000 </r>
       <r>   -19.8293     0.0000    48.0000 </r>
       <r>   -19.6236     0.0000    48.0000 </r>
       <r>   -19.4179     0.0000    48.0000 </r>
       <r>   -19.2122     0.0000    48.0000 </r>
       <r>   -19.0065     0.0000    48.0000 </r>
       <r>   -18.8008     0.0000    48.0000 </r>
       <r>   -18.5951     0.0000    48.0000 </r>
       <r>   -18.3894     0.0000    48.0000 </r>
       <r>   -18.1837     0.0000    48.0000 </r>
       <r>   -17.9780     0.0000    48.0000 </r>
       <r>   -17.7723     0.0000    48.0000 </r>
       <r>   -17.5666     0.0000    48.0000 </r>
       <r>   -17.3609     0.0000    48.0000 </r>
       <r>   -17.1552     0.0000    48.0000 </r>
       <r>   -16.9495     0.0000    48.0000 </r>
       <r>   -16.7438     0.0000    48.0000 </r>
       <r>   -16.5381     0.0000    48.0000 </r>
       <r>   -16.3324     0.0000    48.0000 </r>
       <r>   -16.1267     0.0000    48.0000 </r>
       <r>   -15.9210     0.0000    48.0000 </r>
       <r>   -15.7153     0.0000    48.0000 </r>
       <r>   -15.5096     0.0000    48.0000 </r>
       <r>   -15.3039     0.0000    48.0000 </r>
       <r>   -15.0982     0.0000    48.0000 </r>
       <r>   -14.8925     0.0000    48.0000 </r>
       <r>   -14.6868     0.0000    48.0000 </r>
       <r>   -14.4811     0.0000    48.0000 </r>
       <r>   -14.2754     0.0000    48.0000 </r>
       <r>   -14.0697     0.0000    48.0000 </r>
       <r>   -13.8640     0.0000    48.0000 </r>
       <r>   -13.6583     0.0000    48.0000 </r>
       <r>   -13.4526     0.0000    48.0000 </r>
       <r>   -13.2469     0.0000    48.0000 </r>
       <r>   -13.0412     0.0000    48.0000 </r>
       <r>   -12.8355     0.0000    48.0000 </r>
       <r>   -12.6298     0.0000    48.0000 </r>
       <r>   -12.4241     0.0000    48.0000 </r>
       <r>   -12.2184     0.0000    48.0000 </r>
       <r>   -12.0127     0.0000    48.0000 </r>
       <r>   -11.8070     0.0000    48.0000 </r>
       <r>   -11.6013     0.0000    48.0000 </r>
       <r>   -11.3956     0.0000    48.0000 </r>
       <r>   -11.1899     0.0000    48.0000 </r>
       <r>   -10.9842     0.0000    48.0000 </r>
       <r>   -10.7785     0.0000    48.0000 </r>
       <r>   -10.5728     0.0000    48.0000 </r>
       <r>   -10.3671     0.0000    48.0000 </r>
       <r>   -10.1614     0.0000    48.0000 </r>
       <r>    -9.9557     0.0000    48.0000 </r>
       <r>    -9.7500     0.0000    48.0000 </r>
       <r>    -9.5443     0.0000    48.0000 </r>
       <r>    -9.3386     0.0000    48.0000 </r>
       <r>    -9.1329     0.0000    48.0000 </r>
       <r>    -8.9272     0.0000    48.0000 </r>
       <r>    -8.7215     0.0000    48.0000 </r>
       <r>    -8.5158     0.0000    48.0000 </r>
       <r>    -8.3101     0.0000    48.0000 </r>
       <r>    -8.1044     0.0000    48.0000 </r>
       <r>    -7.8987     0.0000    48.0000 </r>
       <r>    -7.6930     0.0000    48.0000 </r>
       <r>    -7.4873     0.0000    48.0000 </r>
       <r>    -7.2816     0.0000    48.0000 </r>
       <r>    -7.0759     0.0000    48.0000 </r>
       <r>    -6.8702     0.0000    48.0000 </r>
       <r>    -6.6645     0.0000    48.0000 </r>
       <r>    -6.4588     0.0000    48.0000 </r>
       <r>    -6.2531     0.0000    48.0000 </r>
       <r>    -6.0474     0.0000    48.0000 </r>
       <r>    -5.8417     0.0000    48.0000 </r>
       <r>    -5.6360     0.0000    48.0000 </r>
       <r>    -5.4303     0.0000    48.0000 </r>
       <r>    -5.2246     0.0000    48.0000 </r>
       <r>    -5.0189     0.0000    48.0000 </r>
       <r>    -4.8132     0.0000    48.0000 </r>
       <r>    -4.6075     0.0000    48.0000 </r>
       <r>    -4.4018     0.0000    48.0000 </r>
       <r>    -4.1961     0.0000    48.0000 </r>
       <r>    -3.9904     0.0000    48.0000 </r>
       <r>    -3.7847     0.0000    48.0000 </r>
       <r>    -3.5790     0.0000    48.0000 </r>
       <r>    -3.3733     0.0000    48.0000 </r>
       <r>    -3.1676     0.0000    48.0000 </r>
       <r>    -2.9619     0.0000    48.0000 </r>
       <r>    -2.7562     0.0000    48.0000 </r>
       <r>    -2.5505     0.0000    48.0000 </r>
       <r>    -2.3448     0.0000    48.0000 </r>
       <r>    -2.1391    -0.0000    48.0000 </r>
       <r>    -1.9334    -0.0000    48.0000 </r>
       <r>    -1.7277    -0.0000    48.0000 </r>
       <r>    -1.5220    -0.0000    48.0000 </r>
       <r>    -1.3163    -0.0000    48.0000 </r>
       <r>    -1.1106    -0.0000    48.0000 </r>
       <r>    -0.9049    -0.0007    47.9999 </r>
       <r>    -0.6993    -0.0128    47.9972 </r>
       <r>    -0.4936     0.0519    48.0079 </r>
       <r>    -0.2879     0.5317    48.1173 </r>
       <r>    -0.0822     1.3088    48.3865 </r>
       <r>     0.1235     2.0101    48.8000 </r>
       <r>     0.3292     1.7177    49.1533 </r>
       <r>     0.5349     1.8693    49.5378 </r>
       <r>     0.7406     2.9761    50.1500 </r>
       <r>     0.9463     3.6376    50.8983 </r>
       <r>     1.1520     3.1227    51.5406 </r>
       <r>     1.3577     3.0634    52.1707 </r>
       <r>     1.5634     4.8681    53.1721 </r>
       <r>     1.7691     4.8880    54.1776 </r>
       <r>     1.9748     6.2204    55.4571 </r>
       <r>     2.1805     7.9436    57.0911 </r>
       <r>     2.3862    10.3076    59.2114 </r>
       <r>     2.5919    17.4597    62.8029 </r>
       <r>     2.7976    23.0751    67.5494 </r>
       <r>     3.0033    26.9561    73.0943 </r>
       <r>     3.2090    30.9632    79.4634 </r>
       <r>     3.4147    31.2316    85.8878 </r>
       <r>     3.6204    32.7213    92.6185 </r>
       <r>     3.8261    33.2834    99.4649 </r>
       <r>     4.0318    30.9832   105.8382 </r>
       <r>     4.2375    24.8972   110.9595 </r>
       <r>     4.4432    25.2884   116.1613 </r>
       <r>     4.6489    36.9219   123.7562 </r>
       <r>     4.8546    45.0108   133.0149 </r>
       <r>     5.0603    48.5408   142.9997 </r>
       <r>     5.2660    47.3283   152.7351 </r>
       <r>     5.4717    43.8838   161.7620 </r>
       <r>     5.6774    46.3843   171.3033 </r>
       <r>     5.8831    51.9704   181.9936 </r>
       <r>     6.0888    54.2119   193.1450 </r>
       <r>     6.2945    48.1221   203.0437 </r>
       <r>     6.5002    39.5874   211.1868 </r>
       <r>     6.7059    26.2429   216.5850 </r>
       <r>     6.9116    15.6295   219.8000 </r>
       <r>     7.1173    13.3291   222.5418 </r>
       <r>     7.3230    16.0967   225.8528 </r>
       <r>     7.5287    19.2096   229.8043 </r>
       <r>     7.7344    21.6274   234.2530 </r>
       <r>     7.9401    18.0530   237.9665 </r>
       <r>     8.1458     8.7062   239.7574 </r>
       <r>     8.3515     1.3901   240.0433 </r>
       <r>     8.5572    -0.1898   240.0043 </r>
       <r>     8.7629    -0.0205   240.0000 </r>
       <r>     8.9686    -0.0002   240.0000 </r>
       <r>     9.1743    -0.0000   240.0000 </r>
       <r>     9.3800    -0.0000   240.0000 </r>
       <r>     9.5857    -0.0000   240.0000 </r>
       <r>     9.7914     0.0000   240.0000 </r>
       <r>     9.9971     0.0000   240.0000 </r>
       <r>    10.2028     0.0000   240.0000 </r>
       <r>    10.4085     0.0000   240.0000 </r>
       <r>    10.6142     0.0000   240.0000 </r>
       <r>    10.8199     0.0000   240.0000 </r>
       <r>    11.0256     0.0000   240.0000 </r>
      </set>
     </set>
    </array>
   </total>
  </dos>
 </calculation>
 <structure name="finalpos" >
  <crystal>
   <varray name="basis" >
    <v>      -3.22000000      -3.22000000      -3.22000000 </v>
    <v>       1.61000000       1.61000000      -8.05000000 </v>
    <v>       8.05000000      -8.05000000      -1.61000000 </v>
   </varray>
   <i name="volume">    500.79372000 </i>
   <varray name="rec_basis" >
    <v>      -0.13457557      -0.12422360      -0.05175983 </v>
    <v>       0.04140787       0.06211180      -0.10351967 </v>
    <v>       0.06211180      -0.06211180       0.00000000 </v>
   </varray>
  </crystal>
  <varray name="positions" >
   <v>       0.96666667       0.93333333       0.40000000 </v>
   <v>       0.63333333       0.26666667       0.40000000 </v>
   <v>       0.50000000       0.00000000       0.00000000 </v>
   <v>       0.00000000       0.00000000       0.00000000 </v>
   <v>       0.10000000       0.20000000       0.80000000 </v>
   <v>       0.03333333       0.06666667       0.60000000 </v>
   <v>       0.90000000       0.80000000       0.20000000 </v>
   <v>       0.80000000       0.60000000       0.40000000 </v>
   <v>       0.73333333       0.46666667       0.20000000 </v>
   <v>       0.66666667       0.33333333       0.00000000 </v>
   <v>       0.36666667       0.73333333       0.60000000 </v>
   <v>       0.13333333       0.26666667       0.40000000 </v>
   <v>       0.83333333       0.66666667       0.00000000 </v>
   <v>       0.93333333       0.86666667       0.80000000 </v>
   <v>       0.56666667       0.13333333       0.20000000 </v>
   <v>       0.40000000       0.80000000       0.20000000 </v>
   <v>       0.43333333       0.86666667       0.80000000 </v>
   <v>       0.30000000       0.60000000       0.40000000 </v>
   <v>       0.86666667       0.73333333       0.60000000 </v>
   <v>       0.46666667       0.93333333       0.40000000 </v>
   <v>       0.16666667       0.33333333       0.00000000 </v>
   <v>       0.26666667       0.53333333       0.80000000 </v>
   <v>       0.20000000       0.40000000       0.60000000 </v>
   <v>       0.06666667       0.13333333       0.20000000 </v>
   <v>       0.76666667       0.53333333       0.80000000 </v>
   <v>       0.70000000       0.40000000       0.60000000 </v>
   <v>       0.60000000       0.20000000       0.80000000 </v>
   <v>       0.53333333       0.06666667       0.60000000 </v>
   <v>       0.33333333       0.66666667       0.00000000 </v>
   <v>       0.23333333       0.46666667       0.20000000 </v>
  </varray>
 </structure>
</modeling>
