  29  29   0   0
  0.1679057E+02  0.5525242E-09  0.8287863E-09  0.1139058E-08  0.5000000E-15
  1.000000000000000E-004
  CAR 
 SQS with 1 vacancy for VFE and VRV      
     12.08654010    -50.28215739  301      6.81441873      1.00000000
    -50.282  0.0000E+00  0.0000E+00
    -50.074  0.0000E+00  0.0000E+00
    -49.866  0.0000E+00  0.0000E+00
    -49.658  0.0000E+00  0.0000E+00
    -49.451  0.0000E+00  0.0000E+00
    -49.243 -0.4626E-35 -0.9618E-36
    -49.035 -0.2080E-27 -0.4325E-28
    -48.827 -0.9412E-21 -0.1957E-21
    -48.619 -0.4727E-15 -0.9827E-16
    -48.411 -0.2681E-10 -0.5573E-11
    -48.203 -0.1679E-06 -0.3492E-07
    -47.995 -0.1099E-03 -0.2288E-04
    -47.787 -0.6306E-02 -0.1334E-02
    -47.580  0.1023E-01  0.7939E-03
    -47.372  0.3116E+00  0.6557E-01
    -47.164  0.5010E+00  0.1697E+00
    -46.956  0.2869E+00  0.2294E+00
    -46.748  0.5944E-01  0.2417E+00
    -46.540 -0.7666E-02  0.2401E+00
    -46.332 -0.6396E-03  0.2400E+00
    -46.124 -0.3313E-05  0.2400E+00
    -45.916 -0.1686E-08  0.2400E+00
    -45.708 -0.9197E-13  0.2400E+00
    -45.501  0.0000E+00  0.2400E+00
    -45.293  0.0000E+00  0.2400E+00
    -45.085  0.0000E+00  0.2400E+00
    -44.877  0.0000E+00  0.2400E+00
    -44.669  0.0000E+00  0.2400E+00
    -44.461  0.0000E+00  0.2400E+00
    -44.253  0.0000E+00  0.2400E+00
    -44.045  0.0000E+00  0.2400E+00
    -43.837  0.0000E+00  0.2400E+00
    -43.629  0.0000E+00  0.2400E+00
    -43.422  0.0000E+00  0.2400E+00
    -43.214  0.0000E+00  0.2400E+00
    -43.006  0.0000E+00  0.2400E+00
    -42.798  0.0000E+00  0.2400E+00
    -42.590  0.0000E+00  0.2400E+00
    -42.382  0.0000E+00  0.2400E+00
    -42.174  0.0000E+00  0.2400E+00
    -41.966  0.0000E+00  0.2400E+00
    -41.758  0.0000E+00  0.2400E+00
    -41.551  0.0000E+00  0.2400E+00
    -41.343  0.0000E+00  0.2400E+00
    -41.135  0.0000E+00  0.2400E+00
    -40.927  0.0000E+00  0.2400E+00
    -40.719  0.0000E+00  0.2400E+00
    -40.511  0.0000E+00  0.2400E+00
    -40.303  0.0000E+00  0.2400E+00
    -40.095  0.0000E+00  0.2400E+00
    -39.887  0.0000E+00  0.2400E+00
    -39.679  0.0000E+00  0.2400E+00
    -39.472  0.0000E+00  0.2400E+00
    -39.264  0.0000E+00  0.2400E+00
    -39.056  0.0000E+00  0.2400E+00
    -38.848  0.0000E+00  0.2400E+00
    -38.640  0.0000E+00  0.2400E+00
    -38.432  0.0000E+00  0.2400E+00
    -38.224  0.0000E+00  0.2400E+00
    -38.016  0.0000E+00  0.2400E+00
    -37.808  0.0000E+00  0.2400E+00
    -37.601  0.0000E+00  0.2400E+00
    -37.393  0.0000E+00  0.2400E+00
    -37.185  0.0000E+00  0.2400E+00
    -36.977  0.0000E+00  0.2400E+00
    -36.769  0.0000E+00  0.2400E+00
    -36.561  0.0000E+00  0.2400E+00
    -36.353  0.0000E+00  0.2400E+00
    -36.145  0.0000E+00  0.2400E+00
    -35.937  0.0000E+00  0.2400E+00
    -35.729  0.0000E+00  0.2400E+00
    -35.522  0.0000E+00  0.2400E+00
    -35.314  0.0000E+00  0.2400E+00
    -35.106  0.0000E+00  0.2400E+00
    -34.898  0.0000E+00  0.2400E+00
    -34.690  0.0000E+00  0.2400E+00
    -34.482  0.0000E+00  0.2400E+00
    -34.274  0.0000E+00  0.2400E+00
    -34.066  0.0000E+00  0.2400E+00
    -33.858  0.0000E+00  0.2400E+00
    -33.651  0.0000E+00  0.2400E+00
    -33.443  0.0000E+00  0.2400E+00
    -33.235  0.0000E+00  0.2400E+00
    -33.027  0.0000E+00  0.2400E+00
    -32.819  0.0000E+00  0.2400E+00
    -32.611  0.0000E+00  0.2400E+00
    -32.403  0.0000E+00  0.2400E+00
    -32.195  0.0000E+00  0.2400E+00
    -31.987  0.0000E+00  0.2400E+00
    -31.779  0.0000E+00  0.2400E+00
    -31.572  0.0000E+00  0.2400E+00
    -31.364  0.0000E+00  0.2400E+00
    -31.156  0.0000E+00  0.2400E+00
    -30.948  0.0000E+00  0.2400E+00
    -30.740  0.0000E+00  0.2400E+00
    -30.532  0.0000E+00  0.2400E+00
    -30.324  0.0000E+00  0.2400E+00
    -30.116  0.0000E+00  0.2400E+00
    -29.908  0.0000E+00  0.2400E+00
    -29.700  0.0000E+00  0.2400E+00
    -29.493  0.0000E+00  0.2400E+00
    -29.285  0.0000E+00  0.2400E+00
    -29.077  0.0000E+00  0.2400E+00
    -28.869  0.0000E+00  0.2400E+00
    -28.661  0.0000E+00  0.2400E+00
    -28.453  0.0000E+00  0.2400E+00
    -28.245  0.0000E+00  0.2400E+00
    -28.037  0.0000E+00  0.2400E+00
    -27.829  0.0000E+00  0.2400E+00
    -27.622  0.0000E+00  0.2400E+00
    -27.414  0.0000E+00  0.2400E+00
    -27.206  0.0000E+00  0.2400E+00
    -26.998  0.0000E+00  0.2400E+00
    -26.790  0.0000E+00  0.2400E+00
    -26.582  0.0000E+00  0.2400E+00
    -26.374  0.0000E+00  0.2400E+00
    -26.166  0.0000E+00  0.2400E+00
    -25.958  0.0000E+00  0.2400E+00
    -25.750  0.0000E+00  0.2400E+00
    -25.543 -0.4297E-29  0.2400E+00
    -25.335 -0.2491E-22  0.2400E+00
    -25.127 -0.1642E-16  0.2400E+00
    -24.919 -0.1186E-11  0.2400E+00
    -24.711 -0.1012E-07  0.2400E+00
    -24.503 -0.1014E-04  0.2400E+00
    -24.295 -0.1184E-02  0.2398E+00
    -24.087 -0.1027E-01  0.2376E+00
    -23.879  0.8587E-01  0.2555E+00
    -23.672  0.4611E+00  0.3513E+00
    -23.464  0.1120E+01  0.5842E+00
    -23.256  0.9205E+00  0.7755E+00
    -23.048  0.6001E+00  0.9003E+00
    -22.840  0.2155E+00  0.9451E+00
    -22.632  0.6106E-01  0.9578E+00
    -22.424  0.1296E-01  0.9605E+00
    -22.216 -0.2203E-02  0.9600E+00
    -22.008 -0.1179E-03  0.9600E+00
    -21.800 -0.5041E-06  0.9600E+00
    -21.593 -0.2226E-09  0.9600E+00
    -21.385 -0.1063E-13  0.9600E+00
    -21.177  0.0000E+00  0.9600E+00
    -20.969  0.0000E+00  0.9600E+00
    -20.761  0.0000E+00  0.9600E+00
    -20.553  0.0000E+00  0.9600E+00
    -20.345  0.0000E+00  0.9600E+00
    -20.137  0.0000E+00  0.9600E+00
    -19.929  0.0000E+00  0.9600E+00
    -19.721  0.0000E+00  0.9600E+00
    -19.514  0.0000E+00  0.9600E+00
    -19.306  0.0000E+00  0.9600E+00
    -19.098  0.0000E+00  0.9600E+00
    -18.890  0.0000E+00  0.9600E+00
    -18.682  0.0000E+00  0.9600E+00
    -18.474  0.0000E+00  0.9600E+00
    -18.266  0.0000E+00  0.9600E+00
    -18.058  0.0000E+00  0.9600E+00
    -17.850  0.0000E+00  0.9600E+00
    -17.643  0.0000E+00  0.9600E+00
    -17.435  0.0000E+00  0.9600E+00
    -17.227  0.0000E+00  0.9600E+00
    -17.019  0.0000E+00  0.9600E+00
    -16.811  0.0000E+00  0.9600E+00
    -16.603  0.0000E+00  0.9600E+00
    -16.395  0.0000E+00  0.9600E+00
    -16.187  0.0000E+00  0.9600E+00
    -15.979  0.0000E+00  0.9600E+00
    -15.771  0.0000E+00  0.9600E+00
    -15.564  0.0000E+00  0.9600E+00
    -15.356  0.0000E+00  0.9600E+00
    -15.148  0.0000E+00  0.9600E+00
    -14.940  0.0000E+00  0.9600E+00
    -14.732  0.0000E+00  0.9600E+00
    -14.524  0.0000E+00  0.9600E+00
    -14.316  0.0000E+00  0.9600E+00
    -14.108  0.0000E+00  0.9600E+00
    -13.900  0.0000E+00  0.9600E+00
    -13.693  0.0000E+00  0.9600E+00
    -13.485  0.0000E+00  0.9600E+00
    -13.277  0.0000E+00  0.9600E+00
    -13.069  0.0000E+00  0.9600E+00
    -12.861  0.0000E+00  0.9600E+00
    -12.653  0.0000E+00  0.9600E+00
    -12.445  0.0000E+00  0.9600E+00
    -12.237  0.0000E+00  0.9600E+00
    -12.029  0.0000E+00  0.9600E+00
    -11.821  0.0000E+00  0.9600E+00
    -11.614  0.0000E+00  0.9600E+00
    -11.406  0.0000E+00  0.9600E+00
    -11.198  0.0000E+00  0.9600E+00
    -10.990  0.0000E+00  0.9600E+00
    -10.782  0.0000E+00  0.9600E+00
    -10.574  0.0000E+00  0.9600E+00
    -10.366  0.0000E+00  0.9600E+00
    -10.158  0.0000E+00  0.9600E+00
     -9.950  0.0000E+00  0.9600E+00
     -9.743  0.0000E+00  0.9600E+00
     -9.535  0.0000E+00  0.9600E+00
     -9.327  0.0000E+00  0.9600E+00
     -9.119  0.0000E+00  0.9600E+00
     -8.911  0.0000E+00  0.9600E+00
     -8.703  0.0000E+00  0.9600E+00
     -8.495  0.0000E+00  0.9600E+00
     -8.287  0.0000E+00  0.9600E+00
     -8.079  0.0000E+00  0.9600E+00
     -7.871  0.0000E+00  0.9600E+00
     -7.664  0.0000E+00  0.9600E+00
     -7.456  0.0000E+00  0.9600E+00
     -7.248  0.0000E+00  0.9600E+00
     -7.040  0.0000E+00  0.9600E+00
     -6.832  0.0000E+00  0.9600E+00
     -6.624  0.0000E+00  0.9600E+00
     -6.416  0.0000E+00  0.9600E+00
     -6.208  0.0000E+00  0.9600E+00
     -6.000  0.0000E+00  0.9600E+00
     -5.792  0.0000E+00  0.9600E+00
     -5.585  0.0000E+00  0.9600E+00
     -5.377  0.0000E+00  0.9600E+00
     -5.169  0.0000E+00  0.9600E+00
     -4.961  0.0000E+00  0.9600E+00
     -4.753  0.0000E+00  0.9600E+00
     -4.545  0.0000E+00  0.9600E+00
     -4.337  0.0000E+00  0.9600E+00
     -4.129  0.0000E+00  0.9600E+00
     -3.921  0.0000E+00  0.9600E+00
     -3.714  0.0000E+00  0.9600E+00
     -3.506  0.0000E+00  0.9600E+00
     -3.298  0.0000E+00  0.9600E+00
     -3.090  0.0000E+00  0.9600E+00
     -2.882  0.0000E+00  0.9600E+00
     -2.674  0.0000E+00  0.9600E+00
     -2.466  0.0000E+00  0.9600E+00
     -2.258 -0.1539E-33  0.9600E+00
     -2.050 -0.2199E-26  0.9600E+00
     -1.842 -0.3584E-20  0.9600E+00
     -1.635 -0.6444E-15  0.9600E+00
     -1.427 -0.1346E-10  0.9600E+00
     -1.219 -0.3168E-07  0.9600E+00
     -1.011 -0.8190E-05  0.9600E+00
     -0.803 -0.2020E-03  0.9600E+00
     -0.595  0.5761E-03  0.9601E+00
     -0.387  0.9134E-02  0.9620E+00
     -0.179  0.2311E-01  0.9668E+00
      0.029  0.3375E-01  0.9738E+00
      0.236  0.3155E-01  0.9804E+00
      0.444  0.2460E-01  0.9855E+00
      0.652  0.6083E-01  0.9981E+00
      0.860  0.6698E-01  0.1012E+01
      1.068  0.5066E-01  0.1023E+01
      1.276  0.5202E-01  0.1033E+01
      1.484  0.9675E-01  0.1053E+01
      1.692  0.7729E-01  0.1070E+01
      1.900  0.8580E-01  0.1087E+01
      2.108  0.1476E+00  0.1118E+01
      2.315  0.2100E+00  0.1162E+01
      2.523  0.2998E+00  0.1224E+01
      2.731  0.3575E+00  0.1298E+01
      2.939  0.4463E+00  0.1391E+01
      3.147  0.5242E+00  0.1500E+01
      3.355  0.5834E+00  0.1621E+01
      3.563  0.5965E+00  0.1745E+01
      3.771  0.6056E+00  0.1871E+01
      3.979  0.6174E+00  0.2000E+01
      4.187  0.5697E+00  0.2118E+01
      4.394  0.5043E+00  0.2223E+01
      4.602  0.5481E+00  0.2337E+01
      4.810  0.6760E+00  0.2477E+01
      5.018  0.7907E+00  0.2642E+01
      5.226  0.8236E+00  0.2813E+01
      5.434  0.7774E+00  0.2975E+01
      5.642  0.7315E+00  0.3127E+01
      5.850  0.7408E+00  0.3281E+01
      6.058  0.7755E+00  0.3442E+01
      6.265  0.7740E+00  0.3603E+01
      6.473  0.7497E+00  0.3759E+01
      6.681  0.6597E+00  0.3896E+01
      6.889  0.6279E+00  0.4026E+01
      7.097  0.5442E+00  0.4140E+01
      7.305  0.4159E+00  0.4226E+01
      7.513  0.3392E+00  0.4297E+01
      7.721  0.3328E+00  0.4366E+01
      7.929  0.3465E+00  0.4438E+01
      8.137  0.3885E+00  0.4519E+01
      8.344  0.4206E+00  0.4606E+01
      8.552  0.3869E+00  0.4686E+01
      8.760  0.3019E+00  0.4749E+01
      8.968  0.1696E+00  0.4784E+01
      9.176  0.6758E-01  0.4798E+01
      9.384  0.8633E-02  0.4800E+01
      9.592 -0.1111E-02  0.4800E+01
      9.800 -0.1638E-03  0.4800E+01
     10.008 -0.2064E-05  0.4800E+01
     10.215 -0.2804E-08  0.4800E+01
     10.423 -0.4245E-12  0.4800E+01
     10.631 -0.7519E-17  0.4800E+01
     10.839  0.0000E+00  0.4800E+01
     11.047  0.0000E+00  0.4800E+01
     11.255  0.0000E+00  0.4800E+01
     11.463  0.0000E+00  0.4800E+01
     11.671  0.0000E+00  0.4800E+01
     11.879  0.0000E+00  0.4800E+01
     12.087  0.0000E+00  0.4800E+01
