   29   29   50    1
  0.1679057E+02  0.5525242E-09  0.8287863E-09  0.1139058E-08  0.5000000E-15
  1.000000000000000E-004
  CAR 
 SQS with 1 vacancy for VFE and VRV      
    199     63    120
 
  0.0000000E+00  0.0000000E+00  0.0000000E+00  0.8000000E-02
    1      -47.447217   1.000000
    2      -47.424468   1.000000
    3      -47.270732   1.000000
    4      -47.244417   1.000000
    5      -47.168771   1.000000
    6      -46.978673   1.000000
    7      -23.927949   1.000000
    8      -23.826298   1.000000
    9      -23.684897   1.000000
   10      -23.607742   1.000000
   11      -23.597756   1.000000
   12      -23.582416   1.000000
   13      -23.556908   1.000000
   14      -23.495879   1.000000
   15      -23.471178   1.000000
   16      -23.412476   1.000000
   17      -23.402513   1.000000
   18      -23.394448   1.000000
   19      -23.338842   1.000000
   20      -23.194319   1.000000
   21      -23.157483   1.000000
   22      -23.124873   1.000000
   23      -23.033865   1.000000
   24      -22.675289   1.000000
   25       -0.558021   1.000000
   26        0.787045   1.000000
   27        1.247853   1.000000
   28        2.003363   1.000000
   29        2.070258   1.000000
   30        2.120185   1.000000
   31        2.308980   1.000000
   32        2.491912   1.000000
   33        2.546168   1.000000
   34        2.617997   1.000000
   35        2.634685   1.000000
   36        2.716514   1.000000
   37        2.886305   1.000000
   38        2.901727   1.000000
   39        2.956527   1.000000
   40        3.039084   1.000000
   41        3.148017   1.000000
   42        3.248608   1.000000
   43        3.300368   1.000000
   44        3.386330   1.000000
   45        3.451740   1.000000
   46        3.477246   1.000000
   47        3.560274   1.000000
   48        3.605184   1.000000
   49        3.665888   1.000000
   50        3.721125   1.000000
   51        3.781150   1.000000
   52        3.827801   1.000000
   53        3.934594   1.000000
   54        4.018653   1.000000
   55        4.145225   1.000000
   56        4.183640   1.000000
   57        4.325631   1.000000
   58        4.491936   1.000000
   59        4.518395   1.000000
   60        4.552866   1.000000
   61        4.580586   1.000000
   62        4.617998   1.000000
   63        4.739068   1.000000
   64        4.825973   1.000000
   65        4.879301   1.000000
   66        4.923464   1.000000
   67        4.971586   1.000000
   68        5.037117   1.000000
   69        5.056624   1.000000
   70        5.100187   1.000000
   71        5.106953   1.000000
   72        5.170909   1.000000
   73        5.195837   1.000000
   74        5.256914   1.000000
   75        5.318626   1.000000
   76        5.423280   1.000000
   77        5.459437   1.000000
   78        5.527528   1.000000
   79        5.668235   1.000000
   80        5.751811   1.000000
   81        5.870566   1.000000
   82        5.950122   1.000000
   83        5.986893   1.000000
   84        6.031623   1.000000
   85        6.130877   1.000007
   86        6.191559   1.000049
   87        6.233181   1.000156
   88        6.258656   1.000305
   89        6.288507   1.000637
   90        6.341610   1.002080
   91        6.433732   1.010784
   92        6.586188   1.034254
   93        6.625831   1.018147
   94        6.664193   0.976466
   95        6.693563   0.921925
   96        6.760569   0.718958
   97        6.906948   0.151102
   98        6.980032   0.003116
   99        7.037991  -0.033431
  100        7.094384  -0.031778
  101        7.175291  -0.014264
  102        7.266486  -0.003157
  103        7.446542  -0.000037
  104        7.462541  -0.000023
  105        7.558861  -0.000001
  106        7.686045  -0.000000
  107        7.800914  -0.000000
  108        7.985502  -0.000000
  109        8.070141  -0.000000
  110        8.106920  -0.000000
  111        8.451364  -0.000000
  112        8.599396  -0.000000
  113        8.627864  -0.000000
  114        8.725137  -0.000000
  115        8.765540  -0.000000
  116        8.805251  -0.000000
  117        8.964630  -0.000000
  118        9.026732  -0.000000
  119        9.107200  -0.000000
  120        9.146321  -0.000000
 
  0.2000000E+00 -0.1387779E-16  0.0000000E+00  0.1600000E-01
    1      -47.446845   1.000000
    2      -47.424266   1.000000
    3      -47.268366   1.000000
    4      -47.239556   1.000000
    5      -47.167701   1.000000
    6      -46.986570   1.000000
    7      -23.847989   1.000000
    8      -23.805524   1.000000
    9      -23.685391   1.000000
   10      -23.605102   1.000000
   11      -23.596361   1.000000
   12      -23.587578   1.000000
   13      -23.559720   1.000000
   14      -23.497060   1.000000
   15      -23.471509   1.000000
   16      -23.415503   1.000000
   17      -23.403813   1.000000
   18      -23.391977   1.000000
   19      -23.344072   1.000000
   20      -23.191068   1.000000
   21      -23.165651   1.000000
   22      -23.134936   1.000000
   23      -23.032905   1.000000
   24      -22.795900   1.000000
   25       -0.238222   1.000000
   26        1.054233   1.000000
   27        1.510107   1.000000
   28        2.132305   1.000000
   29        2.257431   1.000000
   30        2.363610   1.000000
   31        2.460546   1.000000
   32        2.564175   1.000000
   33        2.729788   1.000000
   34        2.759564   1.000000
   35        2.853397   1.000000
   36        2.896956   1.000000
   37        2.992001   1.000000
   38        3.101353   1.000000
   39        3.160777   1.000000
   40        3.199794   1.000000
   41        3.274544   1.000000
   42        3.337033   1.000000
   43        3.393559   1.000000
   44        3.481237   1.000000
   45        3.504289   1.000000
   46        3.588139   1.000000
   47        3.683464   1.000000
   48        3.767715   1.000000
   49        3.811373   1.000000
   50        3.863777   1.000000
   51        3.952960   1.000000
   52        4.000317   1.000000
   53        4.050691   1.000000
   54        4.130805   1.000000
   55        4.168360   1.000000
   56        4.235881   1.000000
   57        4.385436   1.000000
   58        4.463859   1.000000
   59        4.547484   1.000000
   60        4.607763   1.000000
   61        4.688070   1.000000
   62        4.714501   1.000000
   63        4.835719   1.000000
   64        4.898454   1.000000
   65        4.965589   1.000000
   66        4.981832   1.000000
   67        5.028411   1.000000
   68        5.096632   1.000000
   69        5.123642   1.000000
   70        5.154539   1.000000
   71        5.224348   1.000000
   72        5.270984   1.000000
   73        5.296245   1.000000
   74        5.355341   1.000000
   75        5.434167   1.000000
   76        5.479886   1.000000
   77        5.508920   1.000000
   78        5.568040   1.000000
   79        5.628210   1.000000
   80        5.673250   1.000000
   81        5.751058   1.000000
   82        5.844629   1.000000
   83        5.890535   1.000000
   84        5.911305   1.000000
   85        6.014225   1.000000
   86        6.118407   1.000005
   87        6.166541   1.000023
   88        6.232016   1.000151
   89        6.268466   1.000390
   90        6.336768   1.001880
   91        6.365326   1.003344
   92        6.422819   1.009135
   93        6.450784   1.013743
   94        6.534865   1.031853
   95        6.575347   1.035319
   96        6.676326   0.956501
   97        6.707468   0.888585
   98        6.765741   0.699363
   99        6.866982   0.285877
  100        6.890054   0.203920
  101        6.951147   0.045968
  102        7.075627  -0.034548
  103        7.101171  -0.030475
  104        7.200648  -0.009923
  105        7.323139  -0.000951
  106        7.410328  -0.000105
  107        7.468626  -0.000019
  108        7.623922  -0.000000
  109        7.803817  -0.000000
  110        7.938061  -0.000000
  111        8.022643  -0.000000
  112        8.040906  -0.000000
  113        8.130604  -0.000000
  114        8.262248  -0.000000
  115        8.324812  -0.000000
  116        8.376150  -0.000000
  117        8.505713  -0.000000
  118        8.583690  -0.000000
  119        8.642780  -0.000000
  120        8.729909  -0.000000
 
  0.4000000E+00 -0.2775558E-16  0.0000000E+00  0.1600000E-01
    1      -47.446246   1.000000
    2      -47.423936   1.000000
    3      -47.265485   1.000000
    4      -47.230090   1.000000
    5      -47.165512   1.000000
    6      -47.000461   1.000000
    7      -23.836283   1.000000
    8      -23.690359   1.000000
    9      -23.631387   1.000000
   10      -23.605266   1.000000
   11      -23.595675   1.000000
   12      -23.564109   1.000000
   13      -23.513798   1.000000
   14      -23.496740   1.000000
   15      -23.471468   1.000000
   16      -23.422246   1.000000
   17      -23.406624   1.000000
   18      -23.382758   1.000000
   19      -23.350065   1.000000
   20      -23.186657   1.000000
   21      -23.176703   1.000000
   22      -23.158138   1.000000
   23      -23.096802   1.000000
   24      -23.022694   1.000000
   25        0.589361   1.000000
   26        1.534573   1.000000
   27        2.056596   1.000000
   28        2.137862   1.000000
   29        2.445362   1.000000
   30        2.584567   1.000000
   31        2.691023   1.000000
   32        2.855259   1.000000
   33        2.942219   1.000000
   34        3.006206   1.000000
   35        3.139220   1.000000
   36        3.231194   1.000000
   37        3.302199   1.000000
   38        3.316356   1.000000
   39        3.391756   1.000000
   40        3.461348   1.000000
   41        3.543144   1.000000
   42        3.576147   1.000000
   43        3.644155   1.000000
   44        3.680601   1.000000
   45        3.773492   1.000000
   46        3.864921   1.000000
   47        3.937534   1.000000
   48        3.962373   1.000000
   49        4.023016   1.000000
   50        4.118581   1.000000
   51        4.195427   1.000000
   52        4.246720   1.000000
   53        4.375147   1.000000
   54        4.383146   1.000000
   55        4.431744   1.000000
   56        4.509616   1.000000
   57        4.544700   1.000000
   58        4.611837   1.000000
   59        4.628168   1.000000
   60        4.672087   1.000000
   61        4.762054   1.000000
   62        4.828001   1.000000
   63        4.882224   1.000000
   64        4.907219   1.000000
   65        4.941770   1.000000
   66        4.985403   1.000000
   67        5.068462   1.000000
   68        5.112983   1.000000
   69        5.130613   1.000000
   70        5.207379   1.000000
   71        5.262377   1.000000
   72        5.289235   1.000000
   73        5.341174   1.000000
   74        5.388940   1.000000
   75        5.447721   1.000000
   76        5.495592   1.000000
   77        5.550319   1.000000
   78        5.631168   1.000000
   79        5.675108   1.000000
   80        5.689540   1.000000
   81        5.753462   1.000000
   82        5.801127   1.000000
   83        5.875215   1.000000
   84        5.902996   1.000000
   85        5.940596   1.000000
   86        5.958792   1.000000
   87        6.047389   1.000000
   88        6.088632   1.000002
   89        6.151573   1.000014
   90        6.192737   1.000050
   91        6.243665   1.000207
   92        6.306744   1.000974
   93        6.346558   1.002303
   94        6.369912   1.003652
   95        6.391668   1.005442
   96        6.462754   1.016084
   97        6.524196   1.029765
   98        6.608460   1.027949
   99        6.629672   1.015295
  100        6.681596   0.946716
  101        6.752746   0.747713
  102        6.799449   0.563146
  103        6.863399   0.299478
  104        6.961017   0.029134
  105        6.989017  -0.006437
  106        7.049661  -0.035070
  107        7.123558  -0.025577
  108        7.187029  -0.012128
  109        7.296454  -0.001713
  110        7.394806  -0.000160
  111        7.548195  -0.000001
  112        7.647074  -0.000000
  113        7.706729  -0.000000
  114        7.812774  -0.000000
  115        7.896405  -0.000000
  116        7.961310  -0.000000
  117        8.120485  -0.000000
  118        8.273834  -0.000000
  119        8.304461  -0.000000
  120        8.414218  -0.000000
 
  0.0000000E+00  0.2000000E+00  0.1387779E-16  0.1600000E-01
    1      -47.447191   1.000000
    2      -47.424493   1.000000
    3      -47.270723   1.000000
    4      -47.244411   1.000000
    5      -47.168763   1.000000
    6      -46.978669   1.000000
    7      -23.927968   1.000000
    8      -23.826221   1.000000
    9      -23.684704   1.000000
   10      -23.607805   1.000000
   11      -23.597745   1.000000
   12      -23.582723   1.000000
   13      -23.556565   1.000000
   14      -23.495946   1.000000
   15      -23.471602   1.000000
   16      -23.412657   1.000000
   17      -23.402601   1.000000
   18      -23.394580   1.000000
   19      -23.339008   1.000000
   20      -23.194377   1.000000
   21      -23.157606   1.000000
   22      -23.124916   1.000000
   23      -23.033877   1.000000
   24      -22.675299   1.000000
   25       -0.413765   1.000000
   26        0.854225   1.000000
   27        1.269978   1.000000
   28        1.761625   1.000000
   29        1.990952   1.000000
   30        2.200890   1.000000
   31        2.241197   1.000000
   32        2.474787   1.000000
   33        2.534615   1.000000
   34        2.646478   1.000000
   35        2.709515   1.000000
   36        2.742184   1.000000
   37        2.831537   1.000000
   38        2.924221   1.000000
   39        2.980877   1.000000
   40        3.011826   1.000000
   41        3.096058   1.000000
   42        3.158749   1.000000
   43        3.223559   1.000000
   44        3.311140   1.000000
   45        3.418414   1.000000
   46        3.528678   1.000000
   47        3.607332   1.000000
   48        3.681167   1.000000
   49        3.760107   1.000000
   50        3.787500   1.000000
   51        3.854806   1.000000
   52        3.903180   1.000000
   53        3.942926   1.000000
   54        4.039392   1.000000
   55        4.147873   1.000000
   56        4.240758   1.000000
   57        4.304374   1.000000
   58        4.481747   1.000000
   59        4.496390   1.000000
   60        4.573611   1.000000
   61        4.611888   1.000000
   62        4.711972   1.000000
   63        4.790546   1.000000
   64        4.887908   1.000000
   65        4.920445   1.000000
   66        4.962850   1.000000
   67        4.999313   1.000000
   68        5.035480   1.000000
   69        5.105036   1.000000
   70        5.145712   1.000000
   71        5.178877   1.000000
   72        5.203765   1.000000
   73        5.281686   1.000000
   74        5.344215   1.000000
   75        5.367451   1.000000
   76        5.472404   1.000000
   77        5.549437   1.000000
   78        5.577313   1.000000
   79        5.618350   1.000000
   80        5.791251   1.000000
   81        5.892180   1.000000
   82        5.916795   1.000000
   83        5.944164   1.000000
   84        5.965178   1.000000
   85        6.072853   1.000001
   86        6.120494   1.000005
   87        6.146987   1.000013
   88        6.175707   1.000030
   89        6.269926   1.000405
   90        6.334649   1.001798
   91        6.363141   1.003206
   92        6.398580   1.006138
   93        6.521238   1.029142
   94        6.595179   1.032445
   95        6.643621   1.002599
   96        6.743689   0.779542
   97        6.821489   0.470104
   98        6.954220   0.040474
   99        6.972930   0.011882
  100        7.060138  -0.035456
  101        7.164223  -0.016465
  102        7.280952  -0.002366
  103        7.345707  -0.000560
  104        7.485373  -0.000011
  105        7.612227  -0.000000
  106        7.758305  -0.000000
  107        7.811500  -0.000000
  108        7.911792  -0.000000
  109        7.973404  -0.000000
  110        8.111501  -0.000000
  111        8.183076  -0.000000
  112        8.254872  -0.000000
  113        8.383315  -0.000000
  114        8.553459  -0.000000
  115        8.590727  -0.000000
  116        8.702952  -0.000000
  117        8.789552  -0.000000
  118        8.829266  -0.000000
  119        8.959575  -0.000000
  120        8.995851  -0.000000
 
  0.2000000E+00  0.2000000E+00 -0.4857226E-16  0.1600000E-01
    1      -47.446828   1.000000
    2      -47.424283   1.000000
    3      -47.268374   1.000000
    4      -47.239562   1.000000
    5      -47.167710   1.000000
    6      -46.986575   1.000000
    7      -23.847966   1.000000
    8      -23.805482   1.000000
    9      -23.685476   1.000000
   10      -23.605051   1.000000
   11      -23.596274   1.000000
   12      -23.587884   1.000000
   13      -23.559373   1.000000
   14      -23.496891   1.000000
   15      -23.471614   1.000000
   16      -23.415341   1.000000
   17      -23.403740   1.000000
   18      -23.391832   1.000000
   19      -23.343889   1.000000
   20      -23.191004   1.000000
   21      -23.165527   1.000000
   22      -23.134897   1.000000
   23      -23.032893   1.000000
   24      -22.795877   1.000000
   25       -0.233644   1.000000
   26        1.012961   1.000000
   27        1.516023   1.000000
   28        2.047206   1.000000
   29        2.259404   1.000000
   30        2.292775   1.000000
   31        2.396553   1.000000
   32        2.508523   1.000000
   33        2.694922   1.000000
   34        2.766863   1.000000
   35        2.842634   1.000000
   36        2.899912   1.000000
   37        2.962179   1.000000
   38        3.027656   1.000000
   39        3.138006   1.000000
   40        3.193177   1.000000
   41        3.257923   1.000000
   42        3.361679   1.000000
   43        3.417742   1.000000
   44        3.446420   1.000000
   45        3.536386   1.000000
   46        3.586208   1.000000
   47        3.725554   1.000000
   48        3.766679   1.000000
   49        3.836627   1.000000
   50        3.865860   1.000000
   51        3.935640   1.000000
   52        4.012837   1.000000
   53        4.058742   1.000000
   54        4.112325   1.000000
   55        4.184888   1.000000
   56        4.282719   1.000000
   57        4.415943   1.000000
   58        4.462645   1.000000
   59        4.578264   1.000000
   60        4.605731   1.000000
   61        4.681517   1.000000
   62        4.756672   1.000000
   63        4.779562   1.000000
   64        4.867334   1.000000
   65        4.909959   1.000000
   66        4.953091   1.000000
   67        4.987679   1.000000
   68        5.082152   1.000000
   69        5.110239   1.000000
   70        5.152573   1.000000
   71        5.189703   1.000000
   72        5.227067   1.000000
   73        5.269695   1.000000
   74        5.323758   1.000000
   75        5.356295   1.000000
   76        5.401423   1.000000
   77        5.481243   1.000000
   78        5.581541   1.000000
   79        5.637534   1.000000
   80        5.705643   1.000000
   81        5.793052   1.000000
   82        5.842183   1.000000
   83        5.886917   1.000000
   84        5.932517   1.000000
   85        5.974262   1.000000
   86        6.092021   1.000002
   87        6.135957   1.000009
   88        6.179727   1.000034
   89        6.259453   1.000311
   90        6.326673   1.001516
   91        6.402935   1.006612
   92        6.411577   1.007634
   93        6.498874   1.024097
   94        6.617266   1.023586
   95        6.659706   0.982972
   96        6.714040   0.871137
   97        6.765860   0.698908
   98        6.831226   0.429161
   99        6.878971   0.241991
  100        6.999753  -0.015749
  101        7.042368  -0.034211
  102        7.064540  -0.035358
  103        7.155749  -0.018258
  104        7.241092  -0.005075
  105        7.290493  -0.001943
  106        7.338871  -0.000659
  107        7.466868  -0.000020
  108        7.563663  -0.000001
  109        7.699140  -0.000000
  110        7.923288  -0.000000
  111        7.975632  -0.000000
  112        8.035851  -0.000000
  113        8.348928  -0.000000
  114        8.536069  -0.000000
  115        8.580375  -0.000000
  116        8.717162  -0.000000
  117        8.811900  -0.000000
  118        8.938348  -0.000000
  119        8.962339  -0.000000
  120        9.044431  -0.000000
 
  0.4000000E+00  0.2000000E+00 -0.5551115E-16  0.1600000E-01
    1      -47.446231   1.000000
    2      -47.423951   1.000000
    3      -47.265498   1.000000
    4      -47.230100   1.000000
    5      -47.165526   1.000000
    6      -47.000467   1.000000
    7      -23.836268   1.000000
    8      -23.690531   1.000000
    9      -23.631347   1.000000
   10      -23.605155   1.000000
   11      -23.595940   1.000000
   12      -23.563761   1.000000
   13      -23.513712   1.000000
   14      -23.496502   1.000000
   15      -23.471469   1.000000
   16      -23.422024   1.000000
   17      -23.406492   1.000000
   18      -23.382503   1.000000
   19      -23.349746   1.000000
   20      -23.186622   1.000000
   21      -23.176484   1.000000
   22      -23.158049   1.000000
   23      -23.096768   1.000000
   24      -23.022673   1.000000
   25        0.497500   1.000000
   26        1.462734   1.000000
   27        1.967501   1.000000
   28        2.068557   1.000000
   29        2.216199   1.000000
   30        2.494079   1.000000
   31        2.723225   1.000000
   32        2.932035   1.000000
   33        3.004997   1.000000
   34        3.115255   1.000000
   35        3.169232   1.000000
   36        3.285733   1.000000
   37        3.312521   1.000000
   38        3.381234   1.000000
   39        3.422977   1.000000
   40        3.518493   1.000000
   41        3.537674   1.000000
   42        3.587266   1.000000
   43        3.657803   1.000000
   44        3.718136   1.000000
   45        3.742809   1.000000
   46        3.795122   1.000000
   47        3.871261   1.000000
   48        3.921008   1.000000
   49        3.982726   1.000000
   50        4.043044   1.000000
   51        4.126361   1.000000
   52        4.156339   1.000000
   53        4.240619   1.000000
   54        4.329409   1.000000
   55        4.360186   1.000000
   56        4.399664   1.000000
   57        4.505032   1.000000
   58        4.624403   1.000000
   59        4.655853   1.000000
   60        4.716341   1.000000
   61        4.724713   1.000000
   62        4.815242   1.000000
   63        4.863389   1.000000
   64        4.910706   1.000000
   65        4.960094   1.000000
   66        5.010759   1.000000
   67        5.027446   1.000000
   68        5.063683   1.000000
   69        5.137342   1.000000
   70        5.250073   1.000000
   71        5.294618   1.000000
   72        5.318375   1.000000
   73        5.343114   1.000000
   74        5.401385   1.000000
   75        5.475679   1.000000
   76        5.506895   1.000000
   77        5.562545   1.000000
   78        5.669611   1.000000
   79        5.704971   1.000000
   80        5.719525   1.000000
   81        5.773958   1.000000
   82        5.797166   1.000000
   83        5.848477   1.000000
   84        5.913977   1.000000
   85        5.940575   1.000000
   86        5.959372   1.000000
   87        6.012032   1.000000
   88        6.077579   1.000001
   89        6.123583   1.000006
   90        6.154504   1.000016
   91        6.209916   1.000082
   92        6.261277   1.000326
   93        6.275847   1.000469
   94        6.299527   1.000825
   95        6.360161   1.003025
   96        6.443153   1.012362
   97        6.520555   1.028996
   98        6.548746   1.034026
   99        6.601569   1.030574
  100        6.641152   1.005126
  101        6.704714   0.895576
  102        6.786484   0.616934
  103        6.891454   0.199298
  104        6.932236   0.084944
  105        6.970195   0.015554
  106        7.064123  -0.035374
  107        7.278281  -0.002498
  108        7.338658  -0.000662
  109        7.461948  -0.000023
  110        7.566265  -0.000001
  111        7.665935  -0.000000
  112        7.845810  -0.000000
  113        8.006286  -0.000000
  114        8.138261  -0.000000
  115        8.241252  -0.000000
  116        8.288045  -0.000000
  117        8.371983  -0.000000
  118        8.447856  -0.000000
  119        8.467051  -0.000000
  120        8.537079  -0.000000
 
 -0.4000000E+00  0.2000000E+00 -0.3908332E-16  0.1600000E-01
    1      -47.446224   1.000000
    2      -47.423958   1.000000
    3      -47.265484   1.000000
    4      -47.230089   1.000000
    5      -47.165513   1.000000
    6      -47.000461   1.000000
    7      -23.836237   1.000000
    8      -23.690323   1.000000
    9      -23.631413   1.000000
   10      -23.605223   1.000000
   11      -23.595913   1.000000
   12      -23.563770   1.000000
   13      -23.513795   1.000000
   14      -23.496708   1.000000
   15      -23.471736   1.000000
   16      -23.422253   1.000000
   17      -23.406626   1.000000
   18      -23.382768   1.000000
   19      -23.350067   1.000000
   20      -23.186635   1.000000
   21      -23.176721   1.000000
   22      -23.158137   1.000000
   23      -23.096791   1.000000
   24      -23.022697   1.000000
   25        0.857836   1.000000
   26        1.487855   1.000000
   27        1.716213   1.000000
   28        2.186258   1.000000
   29        2.322169   1.000000
   30        2.570163   1.000000
   31        2.719928   1.000000
   32        2.877345   1.000000
   33        2.918585   1.000000
   34        3.027491   1.000000
   35        3.124968   1.000000
   36        3.194591   1.000000
   37        3.253841   1.000000
   38        3.361662   1.000000
   39        3.401313   1.000000
   40        3.429870   1.000000
   41        3.486919   1.000000
   42        3.602525   1.000000
   43        3.614388   1.000000
   44        3.695294   1.000000
   45        3.769538   1.000000
   46        3.817761   1.000000
   47        3.917843   1.000000
   48        4.019123   1.000000
   49        4.118047   1.000000
   50        4.162357   1.000000
   51        4.184695   1.000000
   52        4.270838   1.000000
   53        4.343507   1.000000
   54        4.407934   1.000000
   55        4.472678   1.000000
   56        4.516110   1.000000
   57        4.582579   1.000000
   58        4.632291   1.000000
   59        4.694052   1.000000
   60        4.756238   1.000000
   61        4.799243   1.000000
   62        4.838899   1.000000
   63        4.863316   1.000000
   64        4.922985   1.000000
   65        4.974259   1.000000
   66        4.992348   1.000000
   67        5.034754   1.000000
   68        5.083357   1.000000
   69        5.132918   1.000000
   70        5.163274   1.000000
   71        5.188373   1.000000
   72        5.246180   1.000000
   73        5.300671   1.000000
   74        5.397390   1.000000
   75        5.437914   1.000000
   76        5.482165   1.000000
   77        5.530877   1.000000
   78        5.582360   1.000000
   79        5.659957   1.000000
   80        5.675133   1.000000
   81        5.748608   1.000000
   82        5.803192   1.000000
   83        5.854108   1.000000
   84        5.896075   1.000000
   85        5.947500   1.000000
   86        5.979550   1.000000
   87        6.013974   1.000000
   88        6.048515   1.000000
   89        6.131334   1.000008
   90        6.169285   1.000025
   91        6.226587   1.000131
   92        6.270030   1.000406
   93        6.317071   1.001228
   94        6.407167   1.007098
   95        6.442610   1.012267
   96        6.509535   1.026551
   97        6.571778   1.035437
   98        6.614484   1.025093
   99        6.665612   0.974312
  100        6.708713   0.885363
  101        6.735120   0.808087
  102        6.808365   0.525603
  103        6.895497   0.186190
  104        6.957246   0.035288
  105        7.006150  -0.020287
  106        7.071824  -0.034909
  107        7.147121  -0.020163
  108        7.201282  -0.009827
  109        7.272618  -0.002798
  110        7.415381  -0.000091
  111        7.445090  -0.000039
  112        7.633253  -0.000000
  113        7.758763  -0.000000
  114        7.853470  -0.000000
  115        8.011715  -0.000000
  116        8.124130  -0.000000
  117        8.249660  -0.000000
  118        8.343910  -0.000000
  119        8.357791  -0.000000
  120        8.434853  -0.000000
 
 -0.2000000E+00  0.2000000E+00  0.1006140E-15  0.1600000E-01
    1      -47.446817   1.000000
    2      -47.424293   1.000000
    3      -47.268351   1.000000
    4      -47.239545   1.000000
    5      -47.167688   1.000000
    6      -46.986563   1.000000
    7      -23.847953   1.000000
    8      -23.805510   1.000000
    9      -23.685129   1.000000
   10      -23.605167   1.000000
   11      -23.596431   1.000000
   12      -23.587829   1.000000
   13      -23.559386   1.000000
   14      -23.497193   1.000000
   15      -23.472041   1.000000
   16      -23.415789   1.000000
   17      -23.403933   1.000000
   18      -23.392230   1.000000
   19      -23.344362   1.000000
   20      -23.191138   1.000000
   21      -23.165873   1.000000
   22      -23.135007   1.000000
   23      -23.032930   1.000000
   24      -22.795919   1.000000
   25        0.024209   1.000000
   26        1.112135   1.000000
   27        1.462182   1.000000
   28        1.959940   1.000000
   29        2.105885   1.000000
   30        2.428398   1.000000
   31        2.509402   1.000000
   32        2.634040   1.000000
   33        2.759677   1.000000
   34        2.826100   1.000000
   35        2.856576   1.000000
   36        2.946075   1.000000
   37        2.963724   1.000000
   38        3.065265   1.000000
   39        3.110077   1.000000
   40        3.165988   1.000000
   41        3.196837   1.000000
   42        3.281279   1.000000
   43        3.354267   1.000000
   44        3.385887   1.000000
   45        3.504235   1.000000
   46        3.565139   1.000000
   47        3.659046   1.000000