 running on   32 total cores
 distrk:  each k-point on   32 cores,    1 groups
 distr:  one band on    4 cores,    8 groups
 using from now: INCAR     
 vasp.5.4.4.18Apr17-6-g9f103f2a35 (build Aug 09 2018 16:20:53) complex          
  
 POSCAR found :  5 types and      29 ions
 scaLAPACK will be used

 ----------------------------------------------------------------------------- 
|                                                                             |
|  ADVICE TO THIS USER RUNNING 'VASP/VAMP'   (HEAR YOUR MASTER'S VOICE ...):  |
|                                                                             |
|      You enforced a specific xc-type in the INCAR file,                     |
|      a different type was found on the POTCAR file                          |
|          I HOPE YOU KNOW, WHAT YOU ARE  DOING                               |
|                                                                             |
 ----------------------------------------------------------------------------- 

 LDA part: xc-table for Pade appr. of Perdew
 POSCAR found :  5 types and      29 ions
 found WAVECAR, reading the header
 POSCAR, INCAR and KPOINTS ok, starting setup
 FFT: planning ...
 reading WAVECAR
 the WAVECAR file was read successfully
 entering main loop
       N       E                     dE             d eps       ncg     rms          rms(c)
DAV:   1    -0.345324108643E+03   -0.34532E+03   -0.10268E+03 15976   0.110E+02    0.778E+01
DAV:   2    -0.340262638639E+03    0.50615E+01   -0.14810E+02 20832   0.461E+01    0.351E+01
DAV:   3    -0.355028763919E+03   -0.14766E+02   -0.30050E+02 22368   0.722E+01    0.253E+01
DAV:   4    -0.339898183696E+03    0.15131E+02   -0.62234E+01 23104   0.269E+01    0.162E+01
DAV:   5    -0.332596416502E+03    0.73018E+01   -0.19893E+01 22288   0.135E+01    0.107E+01
DAV:   6    -0.330643737289E+03    0.19527E+01   -0.10656E+01 24008   0.863E+00    0.724E+00
DAV:   7    -0.330015530082E+03    0.62821E+00   -0.53201E+00 21832   0.623E+00    0.364E+00
DAV:   8    -0.329993975945E+03    0.21554E-01   -0.22561E+00 22824   0.414E+00    0.258E+00
DAV:   9    -0.329973791772E+03    0.20184E-01   -0.13896E+00 21752   0.337E+00    0.191E+00
DAV:  10    -0.329911869037E+03    0.61923E-01   -0.38217E-01 23104   0.205E+00    0.996E-01
DAV:  11    -0.329898781673E+03    0.13087E-01   -0.11491E-01 21496   0.112E+00    0.561E-01
DAV:  12    -0.329903089286E+03   -0.43076E-02   -0.85245E-02 23624   0.856E-01    0.666E-01
DAV:  13    -0.329899685276E+03    0.34040E-02   -0.27281E-02 22200   0.501E-01    0.400E-01
DAV:  14    -0.329897822529E+03    0.18627E-02   -0.12952E-02 21744   0.359E-01    0.232E-01
DAV:  15    -0.329897093227E+03    0.72930E-03   -0.69519E-03 20928   0.231E-01    0.995E-02
DAV:  16    -0.329897046915E+03    0.46312E-04   -0.15459E-03 19680   0.119E-01    0.759E-02
DAV:  17    -0.329896977201E+03    0.69714E-04   -0.83260E-04 16752   0.910E-02
   1 F= -.32989698E+03 E0= -.32988966E+03  d E =-.329897E+03
 curvature:   0.00 expect dE= 0.000E+00 dE for cont linesearch  0.000E+00
 trial: gam= 0.00000 g(F)=  0.913E+00 g(S)=  0.464E+00 ort = 0.000E+00 (trialstep = 0.100E+01)
 search vector abs. value=  0.138E+01
 bond charge predicted
       N       E                     dE             d eps       ncg     rms          rms(c)
DAV:   1    -0.331865783635E+03   -0.19687E+01   -0.19638E+02 17744   0.581E+01    0.143E+01
DAV:   2    -0.332391800258E+03   -0.52602E+00   -0.32245E+01 23656   0.241E+01    0.986E+00
DAV:   3    -0.331136255683E+03    0.12555E+01   -0.17156E+01 22080   0.127E+01    0.735E+00
DAV:   4    -0.330847540183E+03    0.28872E+00   -0.10253E+01 23432   0.104E+01    0.523E+00
DAV:   5    -0.330450791458E+03    0.39675E+00   -0.47225E+00 22312   0.713E+00    0.278E+00
DAV:   6    -0.330317361756E+03    0.13343E+00   -0.10279E+00 23056   0.321E+00    0.153E+00
DAV:   7    -0.330331054235E+03   -0.13692E-01   -0.31088E-01 24112   0.167E+00    0.125E+00
DAV:   8    -0.330331466769E+03   -0.41253E-03   -0.12991E-01 22880   0.110E+00    0.957E-01
DAV:   9    -0.330332584890E+03   -0.11181E-02   -0.68701E-02 22528   0.846E-01    0.672E-01
DAV:  10    -0.330337626543E+03   -0.50417E-02   -0.44864E-02 24528   0.645E-01    0.491E-01
DAV:  11    -0.330338898139E+03   -0.12716E-02   -0.30790E-02 22576   0.550E-01    0.296E-01
DAV:  12    -0.330338723754E+03    0.17439E-03   -0.15123E-02 23728   0.347E-01    0.171E-01
DAV:  13    -0.330338787375E+03   -0.63621E-04   -0.35913E-03 22904   0.172E-01    0.797E-02
DAV:  14    -0.330338822852E+03   -0.35478E-04   -0.95242E-04 19704   0.104E-01
   2 F= -.33033882E+03 E0= -.33033215E+03  d E =-.441846E+00
 trial-energy change:   -0.441846  1 .order   -0.412708   -1.376663    0.551248
 step:   0.7319(harm=  0.7141)  dis= 0.04425  next Energy=  -330.412165 (dE=-0.515E+00)
 bond charge predicted
       N       E                     dE             d eps       ncg     rms          rms(c)
DAV:   1    -0.330513206075E+03   -0.17442E+00   -0.14319E+01 18248   0.158E+01    0.396E+00
DAV:   2    -0.330560162498E+03   -0.46956E-01   -0.23461E+00 24464   0.661E+00    0.304E+00
DAV:   3    -0.330501599781E+03    0.58563E-01   -0.18556E+00 21848   0.443E+00    0.223E+00
DAV:   4    -0.330453123112E+03    0.48477E-01   -0.66843E-01 22880   0.269E+00    0.137E+00
DAV:   5    -0.330417922391E+03    0.35201E-01   -0.30246E-01 22304   0.175E+00    0.687E-01
DAV:   6    -0.330411125601E+03    0.67968E-02   -0.83513E-02 23312   0.947E-01    0.433E-01
DAV:   7    -0.330411709338E+03   -0.58374E-03   -0.30414E-02 24408   0.499E-01    0.331E-01
DAV:   8    -0.330411485589E+03    0.22375E-03   -0.10397E-02 22440   0.303E-01    0.235E-01
DAV:   9    -0.330411654942E+03   -0.16935E-03   -0.49783E-03 20648   0.219E-01    0.187E-01
DAV:  10    -0.330411970545E+03   -0.31560E-03   -0.42301E-03 21032   0.192E-01    0.153E-01
DAV:  11    -0.330411972793E+03   -0.22482E-05   -0.30379E-03 21336   0.166E-01    0.901E-02
DAV:  12    -0.330411913850E+03    0.58943E-04   -0.98286E-04 18656   0.101E-01
   3 F= -.33041191E+03 E0= -.33040517E+03  d E =-.514937E+00
 curvature:  -0.36 expect dE=-0.446E+00 dE for cont linesearch -0.125E-04
 trial: gam= 0.90686 g(F)=  0.438E+00 g(S)=  0.817E+00 ort = 0.695E-02 (trialstep = 0.543E+00)
 search vector abs. value=  0.240E+01
 bond charge predicted
       N       E                     dE             d eps       ncg     rms          rms(c)
DAV:   1    -0.330492961682E+03   -0.80989E-01   -0.99401E+01 15824   0.346E+01    0.387E+00
DAV:   2    -0.331003019647E+03   -0.51006E+00   -0.70568E+00 20928   0.104E+01    0.342E+00
DAV:   3    -0.330970934788E+03    0.32085E-01   -0.23351E+00 23304   0.538E+00    0.261E+00
DAV:   4    -0.330897250157E+03    0.73685E-01   -0.59457E-01 23048   0.250E+00    0.157E+00
DAV:   5    -0.330877432047E+03    0.19818E-01   -0.27958E-01 22592   0.162E+00    0.108E+00
DAV:   6    -0.330874322754E+03    0.31093E-02   -0.14779E-01 23496   0.125E+00    0.732E-01
DAV:   7    -0.330866246253E+03    0.80765E-02   -0.72208E-02 24688   0.946E-01    0.453E-01
DAV:   8    -0.330864679470E+03    0.15668E-02   -0.28148E-02 23792   0.488E-01    0.315E-01
DAV:   9    -0.330864457648E+03    0.22182E-03   -0.80349E-03 20952   0.244E-01    0.235E-01
DAV:  10    -0.330864516524E+03   -0.58876E-04   -0.23031E-03 20192   0.146E-01    0.182E-01
DAV:  11    -0.330864794780E+03   -0.27826E-03   -0.28287E-03 20472   0.176E-01    0.130E-01
DAV:  12    -0.330864616911E+03    0.17787E-03   -0.17898E-03 19440   0.153E-01    0.486E-02
DAV:  13    -0.330864573351E+03    0.43560E-04   -0.36590E-04 12448   0.773E-02
   4 F= -.33086457E+03 E0= -.33085836E+03  d E =-.452660E+00
 trial-energy change:   -0.452660  1 .order   -0.454916   -0.684863   -0.224970
 step:   0.8207(harm=  0.8083)  dis= 0.08409  next Energy=  -330.921859 (dE=-0.510E+00)
 bond charge predicted
       N       E                     dE             d eps       ncg     rms          rms(c)
DAV:   1    -0.330837081815E+03    0.27535E-01   -0.25961E+01 15624   0.176E+01    0.189E+00
DAV:   2    -0.330961198510E+03   -0.12412E+00   -0.17610E+00 21320   0.527E+00    0.175E+00
DAV:   3    -0.330946648359E+03    0.14550E-01   -0.56588E-01 22880   0.255E+00    0.126E+00
DAV:   4    -0.330930614149E+03    0.16034E-01   -0.14920E-01 23152   0.124E+00    0.791E-01
DAV:   5    -0.330925671024E+03    0.49431E-02   -0.70166E-02 22528   0.823E-01    0.540E-01
DAV:   6    -0.330924884354E+03    0.78667E-03   -0.38276E-02 23376   0.639E-01    0.373E-01
DAV:   7    -0.330922719154E+03    0.21652E-02   -0.17747E-02 24864   0.469E-01    0.231E-01
DAV:   8    -0.330922337166E+03    0.38199E-03   -0.67459E-03 21912   0.232E-01    0.161E-01
DAV:   9    -0.330922307177E+03    0.29989E-04   -0.17970E-03 20408   0.117E-01    0.119E-01
DAV:  10    -0.330922337879E+03   -0.30702E-04   -0.65575E-04 15896   0.834E-02
   5 F= -.33092234E+03 E0= -.33091668E+03  d E =-.510424E+00
 curvature:  -0.77 expect dE=-0.115E+00 dE for cont linesearch -0.460E-06
 trial: gam=-0.00512 g(F)=  0.124E+00 g(S)=  0.258E-01 ort = 0.120E-02 (trialstep = 0.598E+00)
 search vector abs. value=  0.150E+00
 bond charge predicted
       N       E                     dE             d eps       ncg     rms          rms(c)
DAV:   1    -0.330981255723E+03   -0.58949E-01   -0.72093E+00 15120   0.988E+00    0.200E+00
DAV:   2    -0.331024900242E+03   -0.43645E-01   -0.84094E-01 21832   0.364E+00    0.168E+00
DAV:   3    -0.331005554909E+03    0.19345E-01   -0.56514E-01 22536   0.237E+00    0.121E+00
DAV:   4    -0.330990926929E+03    0.14628E-01   -0.18249E-01 23024   0.140E+00    0.723E-01
DAV:   5    -0.330981821759E+03    0.91052E-02   -0.90368E-02 22440   0.950E-01    0.356E-01
DAV:   6    -0.330980385047E+03    0.14367E-02   -0.26060E-02 24104   0.514E-01    0.268E-01
DAV:   7    -0.330979924357E+03    0.46069E-03   -0.11746E-02 22968   0.317E-01    0.177E-01
DAV:   8    -0.330979690901E+03    0.23346E-03   -0.29961E-03 20464   0.168E-01    0.117E-01
DAV:   9    -0.330979746058E+03   -0.55157E-04   -0.88439E-04 17744   0.880E-02
   6 F= -.33097975E+03 E0= -.33097394E+03  d E =-.574082E-01
 trial-energy change:   -0.057408  1 .order   -0.059022   -0.089662   -0.028383
 step:   0.9712(harm=  0.8756)  dis= 0.01999  next Energy=  -330.988197 (dE=-0.659E-01)
 bond charge predicted
       N       E                     dE             d eps       ncg     rms          rms(c)
DAV:   1    -0.330986543307E+03   -0.68524E-02   -0.28001E+00 15128   0.615E+00    0.124E+00
DAV:   2    -0.331004148345E+03   -0.17605E-01   -0.33869E-01 21936   0.231E+00    0.107E+00
DAV:   3    -0.330994911173E+03    0.92372E-02   -0.22440E-01 22368   0.146E+00    0.743E-01
DAV:   4    -0.330989742759E+03    0.51684E-02   -0.71669E-02 22504   0.873E-01    0.461E-01
DAV:   5    -0.330986047250E+03    0.36955E-02   -0.36336E-02 22472   0.604E-01    0.221E-01
DAV:   6    -0.330985522747E+03    0.52450E-03   -0.99494E-03 23512   0.317E-01    0.172E-01
DAV:   7    -0.330985335399E+03    0.18735E-03   -0.44999E-03 20616   0.195E-01    0.114E-01
DAV:   8    -0.330985264705E+03    0.70694E-04   -0.11104E-03 19008   0.105E-01    0.780E-02
DAV:   9    -0.330985282942E+03   -0.18237E-04   -0.27751E-04 11288   0.653E-02
   7 F= -.33098528E+03 E0= -.33097943E+03  d E =-.629451E-01
 curvature:  -0.39 expect dE=-0.644E-01 dE for cont linesearch -0.510E-03
 trial: gam= 1.20814 g(F)=  0.275E-01 g(S)=  0.139E+00 ort =-0.141E-01 (trialstep = 0.287E+00)
 search vector abs. value=  0.352E+00
 bond charge predicted
       N       E                     dE             d eps       ncg     rms          rms(c)
DAV:   1    -0.331014323765E+03   -0.29059E-01   -0.36662E+00 15120   0.690E+00    0.114E+00
DAV:   2    -0.331030152175E+03   -0.15828E-01   -0.35660E-01 21952   0.232E+00    0.821E-01
DAV:   3    -0.331029335656E+03    0.81652E-03   -0.16635E-01 22168   0.131E+00    0.725E-01
DAV:   4    -0.331021419057E+03    0.79166E-02   -0.54485E-02 22168   0.779E-01    0.368E-01
DAV:   5    -0.331019870466E+03    0.15486E-02   -0.25462E-02 22568   0.508E-01    0.245E-01
DAV:   6    -0.331019116392E+03    0.75407E-03   -0.11367E-02 23104   0.315E-01    0.135E-01
DAV:   7    -0.331019073419E+03    0.42973E-04   -0.41464E-03 22712   0.211E-01    0.112E-01
DAV:   8    -0.331018942957E+03    0.13046E-03   -0.14199E-03 19208   0.114E-01    0.661E-02
DAV:   9    -0.331018950193E+03   -0.72355E-05   -0.22333E-04 11288   0.591E-02
   8 F= -.33101895E+03 E0= -.33101297E+03  d E =-.336673E-01
 trial-energy change:   -0.033667  1 .order   -0.033514   -0.043017   -0.024011
 step:   0.6489(harm=  0.6489)  dis= 0.02093  next Energy=  -331.033963 (dE=-0.487E-01)
 bond charge predicted
       N       E                     dE             d eps       ncg     rms          rms(c)
DAV:   1    -0.331024842792E+03   -0.58998E-02   -0.58511E+00 15120   0.872E+00    0.144E+00
DAV:   2    -0.331049375067E+03   -0.24532E-01   -0.56210E-01 21800   0.293E+00    0.102E+00
DAV:   3    -0.331048080889E+03    0.12942E-02   -0.26129E-01 22056   0.165E+00    0.892E-01
DAV:   4    -0.331035986759E+03    0.12094E-01   -0.86796E-02 22136   0.987E-01    0.452E-01
DAV:   5    -0.331033642547E+03    0.23442E-02   -0.40753E-02 22504   0.639E-01    0.302E-01
DAV:   6    -0.331032515129E+03    0.11274E-02   -0.16853E-02 23352   0.384E-01    0.166E-01
DAV:   7    -0.331032508373E+03    0.67562E-05   -0.58866E-03 23744   0.248E-01    0.141E-01
DAV:   8    -0.331032360182E+03    0.14819E-03   -0.19329E-03 19840   0.132E-01    0.922E-02
DAV:   9    -0.331032394429E+03   -0.34248E-04   -0.34620E-04 12704   0.680E-02
   9 F= -.33103239E+03 E0= -.33102636E+03  d E =-.471115E-01
 curvature:  -0.76 expect dE=-0.308E-01 dE for cont linesearch -0.806E-04
 trial: gam= 0.08547 g(F)=  0.386E-01 g(S)=  0.190E-02 ort =-0.610E-02 (trialstep = 0.359E+00)
 search vector abs. value=  0.420E-01
 bond charge predicted
       N       E                     dE             d eps       ncg     rms          rms(c)
DAV:   1    -0.331042695192E+03   -0.10335E-01   -0.70761E-01 15368   0.296E+00    0.389E-01
DAV:   2    -0.331046595886E+03   -0.39007E-02   -0.63285E-02 21544   0.101E+00    0.333E-01
DAV:   3    -0.331045506453E+03    0.10894E-02   -0.20602E-02 22088   0.475E-01    0.210E-01
DAV:   4    -0.331045141417E+03    0.36504E-03   -0.63983E-03 20232   0.259E-01    0.146E-01
DAV:   5    -0.331044993292E+03    0.14813E-03   -0.39866E-03 21984   0.195E-01    0.105E-01
DAV:   6    -0.331044853325E+03    0.13997E-03   -0.18173E-03 19528   0.130E-01    0.555E-02
DAV:   7    -0.331044825203E+03    0.28123E-04   -0.38754E-04 12504   0.713E-02
  10 F= -.33104483E+03 E0= -.33103881E+03  d E =-.124308E-01
 trial-energy change:   -0.012431  1 .order   -0.012453   -0.014348   -0.010558
 step:   1.3597(harm=  1.3597)  dis= 0.01915  next Energy=  -331.059554 (dE=-0.272E-01)
 bond charge predicted
       N       E                     dE             d eps       ncg     rms          rms(c)
DAV:   1    -0.331046930044E+03   -0.20767E-02   -0.55086E+00 15816   0.824E+00    0.107E+00
DAV:   2    -0.331073200582E+03   -0.26271E-01   -0.43687E-01 21856   0.259E+00    0.918E-01
DAV:   3    -0.331066042995E+03    0.71576E-02   -0.14407E-01 23000   0.125E+00    0.620E-01
DAV:   4    -0.331063034362E+03    0.30086E-02   -0.49454E-02 23816   0.711E-01    0.422E-01
DAV:   5    -0.331061635569E+03    0.13988E-02   -0.30589E-02 22336   0.549E-01    0.287E-01
DAV:   6    -0.331060516714E+03    0.11189E-02   -0.15415E-02 23256   0.369E-01    0.161E-01
DAV:   7    -0.331060280557E+03    0.23616E-03   -0.42074E-03 23048   0.197E-01    0.101E-01
DAV:   8    -0.331060196585E+03    0.83972E-04   -0.12381E-03 18696   0.119E-01    0.729E-02
DAV:   9    -0.331060187443E+03    0.91414E-05   -0.42078E-04 13632   0.700E-02
  11 F= -.33106019E+03 E0= -.33105427E+03  d E =-.277930E-01
 curvature:  -0.71 expect dE=-0.302E-01 dE for cont linesearch -0.343E-04
 trial: gam= 0.98804 g(F)=  0.735E-02 g(S)=  0.349E-01 ort = 0.142E-02 (trialstep = 0.273E+00)
 search vector abs. value=  0.860E-01
 bond charge predicted
       N       E                     dE             d eps       ncg     rms          rms(c)
DAV:   1    -0.331070191599E+03   -0.99950E-02   -0.86241E-01 15208   0.374E+00    0.836E-01
DAV:   2    -0.331073307340E+03   -0.31157E-02   -0.11226E-01 22192   0.131E+00    0.502E-01
DAV:   3    -0.331074173768E+03   -0.86643E-03   -0.72731E-02 22432   0.858E-01    0.509E-01
DAV:   4    -0.331070450845E+03    0.37229E-02   -0.32391E-02 22600   0.577E-01    0.270E-01
DAV:   5    -0.331069338806E+03    0.11120E-02   -0.13530E-02 22344   0.351E-01    0.142E-01
DAV:   6    -0.331069067402E+03    0.27140E-03   -0.28039E-03 21144   0.175E-01    0.768E-02
DAV:   7    -0.331069069018E+03   -0.16155E-05   -0.11591E-03 18992   0.112E-01    0.645E-02
DAV:   8    -0.331069020899E+03    0.48119E-04   -0.36243E-04 12552   0.765E-02
  12 F= -.33106902E+03 E0= -.33106320E+03  d E =-.883346E-02
 trial-energy change:   -0.008833  1 .order   -0.008852   -0.011913   -0.005792
 step:   0.5313(harm=  0.5313)  dis= 0.01130  next Energy=  -331.071780 (dE=-0.116E-01)
 bond charge predicted
       N       E                     dE             d eps       ncg     rms          rms(c)
DAV:   1    -0.331072293835E+03   -0.32248E-02   -0.77294E-01 15216   0.354E+00    0.777E-01
DAV:   2    -0.331075252181E+03   -0.29583E-02   -0.10039E-01 21928   0.126E+00    0.481E-01
DAV:   3    -0.331075704218E+03   -0.45204E-03   -0.67082E-02 22376   0.820E-01    0.468E-01
DAV:   4    -0.331072548304E+03    0.31559E-02   -0.28404E-02 22496   0.543E-01    0.250E-01
DAV:   5    -0.331071557047E+03    0.99126E-03   -0.11491E-02 22416   0.325E-01    0.129E-01
DAV:   6    -0.331071364315E+03    0.19273E-03   -0.23376E-03 21408   0.157E-01    0.763E-02
DAV:   7    -0.331071371803E+03   -0.74876E-05   -0.92541E-04 18104   0.953E-02
  13 F= -.33107137E+03 E0= -.33106565E+03  d E =-.111844E-01
 curvature:  -0.52 expect dE=-0.550E-02 dE for cont linesearch -0.108E-04
 trial: gam= 0.31730 g(F)=  0.816E-02 g(S)=  0.235E-02 ort =-0.133E-02 (trialstep = 0.325E+00)
 search vector abs. value=  0.183E-01
 bond charge predicted
       N       E                     dE             d eps       ncg     rms          rms(c)
DAV:   1    -0.331073247639E+03   -0.18833E-02   -0.26481E-01 16432   0.171E+00    0.114E-01
DAV:   2    -0.331074628893E+03   -0.13813E-02   -0.15410E-02 21280   0.499E-01    0.131E-01
DAV:   3    -0.331074532050E+03    0.96843E-04   -0.27790E-03 22264   0.184E-01    0.905E-02
DAV:   4    -0.331074460873E+03    0.71177E-04   -0.58210E-04 14712   0.820E-02
  14 F= -.33107446E+03 E0= -.33106873E+03  d E =-.308907E-02
 ZBRENT: can't locate minimum, use default step
 trial-energy change:   -0.003089  1 .order   -0.003155   -0.003272   -0.003038
 step:   1.2986(harm=  4.5275)  dis= 0.01489  next Energy=  -331.094190 (dE=-0.228E-01)
 bond charge predicted
       N       E                     dE             d eps       ncg     rms          rms(c)
DAV:   1    -0.331068192986E+03    0.63391E-02   -0.23441E+00 15976   0.513E+00    0.372E-01
DAV:   2    -0.331083899163E+03   -0.15706E-01   -0.17209E-01 21232   0.167E+00    0.432E-01
DAV:   3    -0.331082501519E+03    0.13976E-02   -0.32280E-02 23408   0.622E-01    0.268E-01
DAV:   4    -0.331081712510E+03    0.78901E-03   -0.60609E-03 22888   0.255E-01    0.161E-01
DAV:   5    -0.331081593431E+03    0.11908E-03   -0.24839E-03 21312   0.161E-01    0.137E-01
DAV:   6    -0.331081487155E+03    0.10628E-03   -0.24840E-03 20824   0.157E-01    0.912E-02
DAV:   7    -0.331081356419E+03    0.13074E-03   -0.10816E-03 19576   0.109E-01    0.383E-02
DAV:   8    -0.331081331417E+03    0.25001E-04   -0.16063E-04 10680   0.565E-02
  15 F= -.33108133E+03 E0= -.33107563E+03  d E =-.995961E-02
 curvature:  -1.69 expect dE=-0.102E-01 dE for cont linesearch -0.255E-02
 ZBRENT: increasing intervall
 opt :   3.2466  next Energy=  -331.083594 (dE=-0.122E-01)
 bond charge predicted
       N       E                     dE             d eps       ncg     rms          rms(c)
DAV:   1    -0.331034096583E+03    0.47260E-01   -0.94402E+00 16128   0.103E+01    0.779E-01
DAV:   2    -0.331094755914E+03   -0.60659E-01   -0.67207E-01 22504   0.329E+00    0.814E-01
DAV:   3    -0.331090315908E+03    0.44400E-02   -0.12166E-01 23728   0.114E+00    0.550E-01
DAV:   4    -0.331086592881E+03    0.37230E-02   -0.26335E-02 23456   0.533E-01    0.320E-01
DAV:   5    -0.331086185127E+03    0.40775E-03   -0.89337E-03 21816   0.304E-01    0.275E-01
DAV:   6    -0.331085849693E+03    0.33543E-03   -0.84076E-03 22208   0.288E-01    0.195E-01
DAV:   7    -0.331085320098E+03    0.52960E-03   -0.40505E-03 22160   0.212E-01    0.836E-02
DAV:   8    -0.331085224965E+03    0.95132E-04   -0.12528E-03 19800   0.112E-01    0.407E-02
DAV:   9    -0.331085220664E+03    0.43012E-05   -0.30742E-04 12472   0.618E-02
  16 F= -.33108522E+03 E0= -.33107970E+03  d E =-.138489E-01
 curvature:  -1.50 expect dE=-0.144E-01 dE for cont linesearch -0.204E-03
 trial: gam= 0.77524 g(F)=  0.676E-02 g(S)=  0.287E-02 ort =-0.158E-02 (trialstep = 0.909E+00)
 search vector abs. value=  0.182E-01
 bond charge predicted
       N       E                     dE             d eps       ncg     rms          rms(c)
DAV:   1    -0.331082809162E+03    0.24158E-02   -0.21555E+00 15256   0.554E+00    0.941E-01
DAV:   2    -0.331092367250E+03   -0.95581E-02   -0.22116E-01 20192   0.180E+00    0.517E-01
DAV:   3    -0.331092998520E+03   -0.63127E-03   -0.68394E-02 21904   0.940E-01    0.483E-01
DAV:   4    -0.331089580232E+03    0.34183E-02   -0.33610E-02 22048   0.606E-01    0.257E-01
DAV:   5    -0.331088845409E+03    0.73482E-03   -0.12402E-02 22448   0.369E-01    0.179E-01
DAV:   6    -0.331088451859E+03    0.39355E-03   -0.59953E-03 21848   0.229E-01    0.104E-01
DAV:   7    -0.331088389246E+03    0.62613E-04   -0.18429E-03 21336   0.135E-01    0.678E-02
DAV:   8    -0.331088367287E+03    0.21959E-04   -0.46718E-04 13840   0.739E-02
  17 F= -.33108837E+03 E0= -.33108294E+03  d E =-.314662E-02
 trial-energy change:   -0.003147  1 .order   -0.003355   -0.007638    0.000927
 step:   0.8106(harm=  0.8106)  dis= 0.00717  next Energy=  -331.088626 (dE=-0.341E-02)
 bond charge predicted
       N       E                     dE             d eps       ncg     rms          rms(c)
DAV:   1    -0.331088419307E+03   -0.30061E-04   -0.25188E-02 15520   0.602E-01    0.115E-01
DAV:   2    -0.331088594165E+03   -0.17486E-03   -0.31403E-03 21872   0.208E-01    0.780E-02
DAV:   3    -0.331088595524E+03   -0.13583E-05   -0.12677E-03 18880   0.121E-01    0.707E-02
DAV:   4    -0.331088532498E+03    0.63026E-04   -0.43643E-04 13272   0.813E-02
  18 F= -.33108853E+03 E0= -.33108311E+03  d E =-.331183E-02
 curvature:  -0.88 expect dE=-0.100E-01 dE for cont linesearch -0.293E-04
 trial: gam= 1.12210 g(F)=  0.336E-02 g(S)=  0.805E-02 ort =-0.780E-03 (trialstep = 0.497E+00)
 search vector abs. value=  0.326E-01
 bond charge predicted
       N       E                     dE             d eps       ncg     rms          rms(c)
DAV:   1    -0.331086924117E+03    0.16714E-02   -0.11627E+00 15712   0.380E+00    0.404E-01
DAV:   2    -0.331093524498E+03   -0.66004E-02   -0.90483E-02 21024   0.115E+00    0.336E-01
DAV:   3    -0.331092941370E+03    0.58313E-03   -0.21532E-02 23304   0.514E-01    0.244E-01
DAV:   4    -0.331092326237E+03    0.61513E-03   -0.58707E-03 21688   0.249E-01    0.141E-01
DAV:   5    -0.331092257372E+03    0.68865E-04   -0.31460E-03 21184   0.185E-01    0.107E-01
DAV:   6    -0.331092083654E+03    0.17372E-03   -0.16815E-03 20240   0.137E-01    0.532E-02
DAV:   7    -0.331092036242E+03    0.47412E-04   -0.42320E-04 13352   0.768E-02
  19 F= -.33109204E+03 E0= -.33108672E+03  d E =-.350374E-02
 trial-energy change:   -0.003504  1 .order   -0.003530   -0.005233   -0.001826
 step:   0.7630(harm=  0.7630)  dis= 0.00740  next Energy=  -331.092551 (dE=-0.402E-02)
 bond charge predicted
       N       E                     dE             d eps       ncg     rms          rms(c)
DAV:   1    -0.331091005556E+03    0.10781E-02   -0.33440E-01 15728   0.204E+00    0.214E-01
DAV:   2    -0.331092956682E+03   -0.19511E-02   -0.26053E-02 21064   0.625E-01    0.184E-01
DAV:   3    -0.331092750090E+03    0.20659E-03   -0.61417E-03 21840   0.275E-01    0.126E-01
DAV:   4    -0.331092604987E+03    0.14510E-03   -0.16166E-03 20224   0.134E-01    0.780E-02
DAV:   5    -0.331092580179E+03    0.24808E-04   -0.95206E-04 16400   0.102E-01
  20 F= -.33109258E+03 E0= -.33108732E+03  d E =-.404768E-02
 curvature:  -1.18 expect dE=-0.278E-02 dE for cont linesearch -0.134E-04
 trial: gam= 0.12883 g(F)=  0.226E-02 g(S)=  0.100E-03 ort = 0.608E-03 (trialstep = 0.550E+00)
 search vector abs. value=  0.306E-02
 bond charge predicted
       N       E                     dE             d eps       ncg     rms          rms(c)
DAV:   1    -0.331093245085E+03   -0.64010E-03   -0.12207E-01 16024   0.113E+00    0.884E-02
DAV:   2    -0.331093755989E+03   -0.51090E-03   -0.61135E-03 24520   0.341E-01    0.106E-01
DAV:   3    -0.331093649871E+03    0.10612E-03   -0.16483E-03 18824   0.123E-01    0.591E-02
DAV:   4    -0.331093611365E+03    0.38506E-04   -0.21777E-04 11232   0.616E-02
  21 F= -.33109361E+03 E0= -.33108836E+03  d E =-.103119E-02
 ZBRENT: can't locate minimum, use default step
 trial-energy change:   -0.001031  1 .order   -0.001177   -0.001341   -0.001013
 step:   2.2002(harm=  2.2489)  dis= 0.00510  next Energy=  -331.095322 (dE=-0.274E-02)
 bond charge predicted
       N       E                     dE             d eps       ncg     rms          rms(c)
DAV:   1    -0.331091830536E+03    0.18193E-02   -0.11005E+00 15960   0.340E+00    0.275E-01
DAV:   2    -0.331098030958E+03   -0.62004E-02   -0.64831E-02 24856   0.109E+00    0.429E-01
DAV:   3    -0.331095328350E+03    0.27026E-02   -0.22491E-02 23256   0.461E-01    0.183E-01
DAV:   4    -0.331095097434E+03    0.23092E-03   -0.23684E-03 22040   0.161E-01    0.123E-01
DAV:   5    -0.331095020978E+03    0.76455E-04   -0.10637E-03 17968   0.112E-01    0.943E-02
DAV:   6    -0.331094969236E+03    0.51742E-04   -0.10234E-03 17120   0.109E-01    0.594E-02
DAV:   7    -0.331094912598E+03    0.56638E-04   -0.60043E-04 15888   0.886E-02
  22 F= -.33109491E+03 E0= -.33108960E+03  d E =-.233242E-02
 curvature:  -1.41 expect dE=-0.226E-02 dE for cont linesearch -0.261E-05
 trial: gam= 0.70736 g(F)=  0.805E-03 g(S)=  0.798E-03 ort =-0.752E-04 (trialstep = 0.880E+00)
 search vector abs. value=  0.303E-02
 bond charge predicted
       N       E                     dE             d eps       ncg     rms          rms(c)
DAV:   1    -0.331095948746E+03   -0.97951E-03   -0.30730E-01 15144   0.217E+00    0.498E-01
DAV:   2    -0.331096731700E+03   -0.78295E-03   -0.35733E-02 22384   0.769E-01    0.313E-01
DAV:   3    -0.331096886314E+03   -0.15461E-03   -0.25489E-02 22344   0.511E-01    0.303E-01
DAV:   4    -0.331095514980E+03    0.13713E-02   -0.11623E-02 21872   0.351E-01    0.148E-01
DAV:   5    -0.331095210391E+03    0.30459E-03   -0.45296E-03 21944   0.208E-01    0.882E-02
DAV:   6    -0.331095105961E+03    0.10443E-03   -0.12275E-03 18912   0.115E-01    0.499E-02
DAV:   7    -0.331095098604E+03    0.73571E-05   -0.41878E-04 13128   0.755E-02
  23 F= -.33109510E+03 E0= -.33108975E+03  d E =-.186006E-03
 trial-energy change:   -0.000186  1 .order   -0.000246   -0.001364    0.000871
 step:   0.5371(harm=  0.5371)  dis= 0.00129  next Energy=  -331.095329 (dE=-0.416E-03)
 bond charge predicted
       N       E                     dE             d eps       ncg     rms          rms(c)
DAV:   1    -0.331095451983E+03   -0.34602E-03   -0.46887E-02 15144   0.843E-01    0.201E-01
DAV:   2    -0.331095628597E+03   -0.17661E-03   -0.63391E-03 22760   0.314E-01    0.137E-01
DAV:   3    -0.331095608141E+03    0.20457E-04   -0.45707E-03 20512   0.211E-01    0.127E-01
DAV:   4    -0.331095408922E+03    0.19922E-03   -0.19069E-03 19344   0.141E-01    0.695E-02
DAV:   5    -0.331095334467E+03    0.74456E-04   -0.82254E-04 16312   0.946E-02
  24 F= -.33109533E+03 E0= -.33109000E+03  d E =-.421869E-03
 curvature:  -0.52 expect dE=-0.634E-03 dE for cont linesearch -0.126E-04
 trial: gam= 0.83699 g(F)=  0.502E-03 g(S)=  0.708E-03 ort =-0.270E-03 (trialstep = 0.811E+00)
 search vector abs. value=  0.288E-02
 reached required accuracy - stopping structural energy minimisation
 writing wavefunctions
VASP is done!
