<?xml version="1.0" encoding="ISO-8859-1"?>
<modeling>
 <generator>
  <i name="program" type="string">vasp </i>
  <i name="version" type="string">5.4.4.18Apr17-6-g9f103f2a35  </i>
  <i name="subversion" type="string">(build Aug 09 2018 16:20:53) complex            parallel </i>
  <i name="platform" type="string">LinuxIFC </i>
  <i name="date" type="string">2020 04 13 </i>
  <i name="time" type="string">18:04:42 </i>
 </generator>
 <incar>
  <i type="string" name="SYSTEM"> SQS with 1 vacancy for VFE and VRV</i>
  <i type="string" name="PREC">normal</i>
  <i type="int" name="IALGO">    38</i>
  <i type="int" name="ICHARG">     2</i>
  <i type="int" name="IBRION">     2</i>
  <i type="int" name="NSW">    50</i>
  <i type="int" name="ISIF">     3</i>
  <i type="int" name="ISYM">     0</i>
  <i name="ENCUT">    600.00000000</i>
  <i type="string" name="LREAL"> Auto</i>
  <i type="int" name="ISMEAR">     1</i>
  <i name="SIGMA">      0.20000000</i>
  <v type="int" name="KPOINT_BSE">    -1     0     0     0</v>
  <i type="string" name="GGA"> PS</i>
 </incar>
 <structure name="primitive_cell" >
  <crystal>
   <varray name="basis" >
    <v>      -3.19000000      -3.19000000      -3.19000000 </v>
    <v>       1.59500000       1.59500000      -7.97500000 </v>
    <v>       7.97500000      -7.97500000      -1.59500000 </v>
   </varray>
   <i name="volume">    486.92638500 </i>
   <varray name="rec_basis" >
    <v>      -0.13584117      -0.12539185      -0.05224660 </v>
    <v>       0.04179728       0.06269592      -0.10449321 </v>
    <v>       0.06269592      -0.06269592       0.00000000 </v>
   </varray>
  </crystal>
  <varray name="positions" >
   <v>      -0.03333333      -0.06666667       0.40000000 </v>
   <v>      -0.10000000      -0.20000000       0.20000000 </v>
   <v>       0.06666667       0.13333333       0.20000000 </v>
   <v>       0.46666667      -0.06666667       0.40000000 </v>
   <v>      -0.13333333      -0.26666667      -0.40000000 </v>
   <v>       0.03333333       0.06666667      -0.40000000 </v>
   <v>      -0.36666667       0.26666667       0.40000000 </v>
   <v>       0.40000000      -0.20000000       0.20000000 </v>
   <v>      -0.20000000      -0.40000000       0.40000000 </v>
   <v>      -0.43333333       0.13333333       0.20000000 </v>
   <v>       0.36666667      -0.26666667      -0.40000000 </v>
   <v>       0.13333333       0.26666667       0.40000000 </v>
   <v>      -0.46666667       0.06666667      -0.40000000 </v>
   <v>       0.23333333       0.46666667       0.20000000 </v>
   <v>       0.20000000       0.40000000      -0.40000000 </v>
   <v>       0.00000000       0.00000000       0.00000000 </v>
   <v>      -0.06666667      -0.13333333      -0.20000000 </v>
   <v>      -0.30000000       0.40000000      -0.40000000 </v>
   <v>      -0.26666667       0.46666667       0.20000000 </v>
   <v>       0.33333333      -0.33333333       0.00000000 </v>
   <v>       0.43333333      -0.13333333      -0.20000000 </v>
   <v>      -0.50000000       0.00000000       0.00000000 </v>
   <v>       0.26666667      -0.46666667      -0.20000000 </v>
   <v>      -0.33333333       0.33333333       0.00000000 </v>
   <v>      -0.40000000       0.20000000      -0.20000000 </v>
   <v>      -0.16666667      -0.33333333       0.00000000 </v>
   <v>      -0.23333333      -0.46666667      -0.20000000 </v>
   <v>       0.16666667       0.33333333       0.00000000 </v>
   <v>       0.10000000       0.20000000      -0.20000000 </v>
  </varray>
 </structure>
 <varray name="primitive_index" >
  <v type="int" >        1 </v>
  <v type="int" >        7 </v>
  <v type="int" >       23 </v>
  <v type="int" >       19 </v>
  <v type="int" >       18 </v>
  <v type="int" >        6 </v>
  <v type="int" >        2 </v>
  <v type="int" >       16 </v>
  <v type="int" >        8 </v>
  <v type="int" >       15 </v>
  <v type="int" >       11 </v>
  <v type="int" >       12 </v>
  <v type="int" >       27 </v>
  <v type="int" >       29 </v>
  <v type="int" >       22 </v>
  <v type="int" >        4 </v>
  <v type="int" >       14 </v>
  <v type="int" >       25 </v>
  <v type="int" >        9 </v>
  <v type="int" >       28 </v>
  <v type="int" >       17 </v>
  <v type="int" >        3 </v>
  <v type="int" >       21 </v>
  <v type="int" >       10 </v>
  <v type="int" >       26 </v>
  <v type="int" >       13 </v>
  <v type="int" >       24 </v>
  <v type="int" >       20 </v>
  <v type="int" >        5 </v>
 </varray>
 <kpoints>
  <generation param="Gamma">
   <v type="int" name="divisions">       5        5        5 </v>
   <v name="usershift">      0.00000000       0.00000000       0.00000000 </v>
   <v name="genvec1">      0.20000000      -0.00000000      -0.00000000 </v>
   <v name="genvec2">      0.00000000       0.20000000       0.00000000 </v>
   <v name="genvec3">      0.00000000       0.00000000       0.20000000 </v>
   <v name="shift">      0.00000000       0.00000000       0.00000000 </v>
  </generation>
  <varray name="kpointlist" >
   <v>       0.00000000       0.00000000       0.00000000 </v>
   <v>       0.20000000      -0.00000000       0.00000000 </v>
   <v>       0.40000000      -0.00000000       0.00000000 </v>
   <v>       0.00000000       0.20000000       0.00000000 </v>
   <v>       0.20000000       0.20000000      -0.00000000 </v>
   <v>       0.40000000       0.20000000      -0.00000000 </v>
   <v>      -0.40000000       0.20000000      -0.00000000 </v>
   <v>      -0.20000000       0.20000000       0.00000000 </v>
   <v>       0.00000000       0.40000000       0.00000000 </v>
   <v>       0.20000000       0.40000000       0.00000000 </v>
   <v>       0.40000000       0.40000000      -0.00000000 </v>
   <v>      -0.40000000       0.40000000       0.00000000 </v>
   <v>      -0.20000000       0.40000000       0.00000000 </v>
   <v>       0.00000000       0.00000000       0.20000000 </v>
   <v>       0.20000000      -0.00000000       0.20000000 </v>
   <v>       0.40000000       0.00000000       0.20000000 </v>
   <v>      -0.40000000       0.00000000       0.20000000 </v>
   <v>      -0.20000000       0.00000000       0.20000000 </v>
   <v>       0.00000000       0.20000000       0.20000000 </v>
   <v>       0.20000000       0.20000000       0.20000000 </v>
   <v>       0.40000000       0.20000000       0.20000000 </v>
   <v>      -0.40000000       0.20000000       0.20000000 </v>
   <v>      -0.20000000       0.20000000       0.20000000 </v>
   <v>       0.00000000       0.40000000       0.20000000 </v>
   <v>       0.20000000       0.40000000       0.20000000 </v>
   <v>       0.40000000       0.40000000       0.20000000 </v>
   <v>      -0.40000000       0.40000000       0.20000000 </v>
   <v>      -0.20000000       0.40000000       0.20000000 </v>
   <v>       0.00000000      -0.40000000       0.20000000 </v>
   <v>       0.20000000      -0.40000000       0.20000000 </v>
   <v>       0.40000000      -0.40000000       0.20000000 </v>
   <v>      -0.40000000      -0.40000000       0.20000000 </v>
   <v>      -0.20000000      -0.40000000       0.20000000 </v>
   <v>       0.00000000      -0.20000000       0.20000000 </v>
   <v>       0.20000000      -0.20000000       0.20000000 </v>
   <v>       0.40000000      -0.20000000       0.20000000 </v>
   <v>      -0.40000000      -0.20000000       0.20000000 </v>
   <v>      -0.20000000      -0.20000000       0.20000000 </v>
   <v>       0.00000000       0.00000000       0.40000000 </v>
   <v>       0.20000000      -0.00000000       0.40000000 </v>
   <v>       0.40000000      -0.00000000       0.40000000 </v>
   <v>      -0.40000000       0.00000000       0.40000000 </v>
   <v>      -0.20000000       0.00000000       0.40000000 </v>
   <v>      -0.00000000       0.20000000       0.40000000 </v>
   <v>       0.20000000       0.20000000       0.40000000 </v>
   <v>       0.40000000       0.20000000       0.40000000 </v>
   <v>      -0.40000000       0.20000000       0.40000000 </v>
   <v>      -0.20000000       0.20000000       0.40000000 </v>
   <v>       0.00000000       0.40000000       0.40000000 </v>
   <v>       0.20000000       0.40000000       0.40000000 </v>
   <v>       0.40000000       0.40000000       0.40000000 </v>
   <v>      -0.40000000       0.40000000       0.40000000 </v>
   <v>      -0.20000000       0.40000000       0.40000000 </v>
   <v>       0.00000000      -0.40000000       0.40000000 </v>
   <v>       0.20000000      -0.40000000       0.40000000 </v>
   <v>       0.40000000      -0.40000000       0.40000000 </v>
   <v>      -0.40000000      -0.40000000       0.40000000 </v>
   <v>      -0.20000000      -0.40000000       0.40000000 </v>
   <v>       0.00000000      -0.20000000       0.40000000 </v>
   <v>       0.20000000      -0.20000000       0.40000000 </v>
   <v>       0.40000000      -0.20000000       0.40000000 </v>
   <v>      -0.40000000      -0.20000000       0.40000000 </v>
   <v>      -0.20000000      -0.20000000       0.40000000 </v>
  </varray>
  <varray name="weights" >
   <v>       0.00800000 </v>
   <v>       0.01600000 </v>
   <v>       0.01600000 </v>
   <v>       0.01600000 </v>
   <v>       0.01600000 </v>
   <v>       0.01600000 </v>
   <v>       0.01600000 </v>
   <v>       0.01600000 </v>
   <v>       0.01600000 </v>
   <v>       0.01600000 </v>
   <v>       0.01600000 </v>
   <v>       0.01600000 </v>
   <v>       0.01600000 </v>
   <v>       0.01600000 </v>
   <v>       0.01600000 </v>
   <v>       0.01600000 </v>
   <v>       0.01600000 </v>
   <v>       0.01600000 </v>
   <v>       0.01600000 </v>
   <v>       0.01600000 </v>
   <v>       0.01600000 </v>
   <v>       0.01600000 </v>
   <v>       0.01600000 </v>
   <v>       0.01600000 </v>
   <v>       0.01600000 </v>
   <v>       0.01600000 </v>
   <v>       0.01600000 </v>
   <v>       0.01600000 </v>
   <v>       0.01600000 </v>
   <v>       0.01600000 </v>
   <v>       0.01600000 </v>
   <v>       0.01600000 </v>
   <v>       0.01600000 </v>
   <v>       0.01600000 </v>
   <v>       0.01600000 </v>
   <v>       0.01600000 </v>
   <v>       0.01600000 </v>
   <v>       0.01600000 </v>
   <v>       0.01600000 </v>
   <v>       0.01600000 </v>
   <v>       0.01600000 </v>
   <v>       0.01600000 </v>
   <v>       0.01600000 </v>
   <v>       0.01600000 </v>
   <v>       0.01600000 </v>
   <v>       0.01600000 </v>
   <v>       0.01600000 </v>
   <v>       0.01600000 </v>
   <v>       0.01600000 </v>
   <v>       0.01600000 </v>
   <v>       0.01600000 </v>
   <v>       0.01600000 </v>
   <v>       0.01600000 </v>
   <v>       0.01600000 </v>
   <v>       0.01600000 </v>
   <v>       0.01600000 </v>
   <v>       0.01600000 </v>
   <v>       0.01600000 </v>
   <v>       0.01600000 </v>
   <v>       0.01600000 </v>
   <v>       0.01600000 </v>
   <v>       0.01600000 </v>
   <v>       0.01600000 </v>
  </varray>
 </kpoints>
 <parameters>
  <separator name="general" >
   <i type="string" name="SYSTEM">SQS with 1 vacancy for VFE and VRV</i>
   <i type="logical" name="LCOMPAT"> F  </i>
  </separator>
  <separator name="electronic" >
   <i type="string" name="PREC">normal</i>
   <i name="ENMAX">    600.00000000</i>
   <i name="ENAUG">    455.65900000</i>
   <i name="EDIFF">      0.00010000</i>
   <i type="int" name="IALGO">    38</i>
   <i type="int" name="IWAVPR">    11</i>
   <i type="int" name="NBANDS">   120</i>
   <i name="NELECT">    199.00000000</i>
   <i type="int" name="TURBO">     0</i>
   <i type="int" name="IRESTART">     0</i>
   <i type="int" name="NREBOOT">     0</i>
   <i type="int" name="NMIN">     0</i>
   <i name="EREF">      0.00000000</i>
   <separator name="electronic smearing" >
    <i type="int" name="ISMEAR">     1</i>
    <i name="SIGMA">      0.20000000</i>
    <i name="KSPACING">      0.50000000</i>
    <i type="logical" name="KGAMMA"> T  </i>
   </separator>
   <separator name="electronic projectors" >
    <i type="logical" name="LREAL"> T  </i>
    <v name="ROPT">     -0.00050000     -0.00050000     -0.00050000     -0.00050000     -0.00050000</v>
    <i type="int" name="LMAXPAW">  -100</i>
    <i type="int" name="LMAXMIX">     2</i>
    <i type="logical" name="NLSPLINE"> F  </i>
   </separator>
   <separator name="electronic startup" >
    <i type="int" name="ISTART">     1</i>
    <i type="int" name="ICHARG">     2</i>
    <i type="int" name="INIWAV">     1</i>
   </separator>
   <separator name="electronic spin" >
    <i type="int" name="ISPIN">     1</i>
    <i type="logical" name="LNONCOLLINEAR"> F  </i>
    <v name="MAGMOM">      1.00000000      1.00000000      1.00000000      1.00000000      1.00000000      1.00000000      1.00000000      1.00000000      1.00000000      1.00000000      1.00000000      1.00000000      1.00000000      1.00000000      1.00000000      1.00000000      1.00000000      1.00000000      1.00000000      1.00000000
      1.00000000      1.00000000      1.00000000      1.00000000      1.00000000      1.00000000      1.00000000      1.00000000      1.00000000</v>
    <i name="NUPDOWN">     -1.00000000</i>
    <i type="logical" name="LSORBIT"> F  </i>
    <v name="SAXIS">      0.00000000      0.00000000      1.00000000</v>
    <i type="logical" name="LSPIRAL"> F  </i>
    <v name="QSPIRAL">      0.00000000      0.00000000      0.00000000</v>
    <i type="logical" name="LZEROZ"> F  </i>
   </separator>
   <separator name="electronic exchange-correlation" >
    <i type="logical" name="LASPH"> F  </i>
    <i type="logical" name="LMETAGGA"> F  </i>
   </separator>
   <separator name="electronic convergence" >
    <i type="int" name="NELM">    60</i>
    <i type="int" name="NELMDL">     0</i>
    <i type="int" name="NELMIN">     2</i>
    <i name="ENINI">    600.00000000</i>
    <separator name="electronic convergence detail" >
     <i type="logical" name="LDIAG"> T  </i>
     <i type="logical" name="LSUBROT"> F  </i>
     <i name="WEIMIN">      0.00100000</i>
     <i name="EBREAK">      0.00000021</i>
     <i name="DEPER">      0.30000000</i>
     <i type="int" name="NRMM">     4</i>
     <i name="TIME">      0.40000000</i>
    </separator>
   </separator>
   <separator name="electronic mixer" >
    <i name="AMIX">      0.40000000</i>
    <i name="BMIX">      1.00000000</i>
    <i name="AMIN">      0.10000000</i>
    <i name="AMIX_MAG">      1.60000000</i>
    <i name="BMIX_MAG">      1.00000000</i>
    <separator name="electronic mixer details" >
     <i type="int" name="IMIX">     4</i>
     <i type="logical" name="MIXFIRST"> F  </i>
     <i type="int" name="MAXMIX">   -45</i>
     <i name="WC">    100.00000000</i>
     <i type="int" name="INIMIX">     1</i>
     <i type="int" name="MIXPRE">     1</i>
     <i type="int" name="MREMOVE">     5</i>
    </separator>
   </separator>
   <separator name="electronic dipolcorrection" >
    <i type="logical" name="LDIPOL"> F  </i>
    <i type="logical" name="LMONO"> F  </i>
    <i type="int" name="IDIPOL">     0</i>
    <i name="EPSILON">      1.00000000</i>
    <v name="DIPOL">   -100.00000000   -100.00000000   -100.00000000</v>
    <i name="EFIELD">      0.00000000</i>
   </separator>
  </separator>
  <separator name="grids" >
   <i type="int" name="NGX">    36</i>
   <i type="int" name="NGY">    50</i>
   <i type="int" name="NGZ">    70</i>
   <i type="int" name="NGXF">    72</i>
   <i type="int" name="NGYF">   100</i>
   <i type="int" name="NGZF">   140</i>
   <i type="logical" name="ADDGRID"> F  </i>
  </separator>
  <separator name="ionic" >
   <i type="int" name="NSW">    50</i>
   <i type="int" name="IBRION">     2</i>
   <i type="int" name="MDALGO">     0</i>
   <i type="int" name="ISIF">     3</i>
   <i name="PSTRESS">      0.00000000</i>
   <i name="EDIFFG">      0.00100000</i>
   <i type="int" name="NFREE">     1</i>
   <i name="POTIM">      0.50000000</i>
   <i name="SMASS">     -3.00000000</i>
   <i name="SCALEE">      1.00000000</i>
  </separator>
  <separator name="ionic md" >
   <i name="TEBEG">      0.00010000</i>
   <i name="TEEND">      0.00010000</i>
   <i type="int" name="NBLOCK">     1</i>
   <i type="int" name="KBLOCK">    50</i>
   <i type="int" name="NPACO">   256</i>
   <i name="APACO">     16.00000000</i>
  </separator>
  <separator name="symmetry" >
   <i type="int" name="ISYM">     0</i>
   <i name="SYMPREC">      0.00001000</i>
  </separator>
  <separator name="dos" >
   <i type="int" name="LORBIT">     0</i>
   <v name="RWIGS">     -1.00000000     -1.00000000     -1.00000000     -1.00000000     -1.00000000</v>
   <i type="int" name="NEDOS">   301</i>
   <i name="EMIN">     10.00000000</i>
   <i name="EMAX">    -10.00000000</i>
   <i name="EFERMI">      0.00000000</i>
  </separator>
  <separator name="writing" >
   <i type="int" name="NWRITE">     2</i>
   <i type="logical" name="LWAVE"> T  </i>
   <i type="logical" name="LDOWNSAMPLE"> F  </i>
   <i type="logical" name="LCHARG"> T  </i>
   <i type="logical" name="LPARD"> F  </i>
   <i type="logical" name="LVTOT"> F  </i>
   <i type="logical" name="LVHAR"> F  </i>
   <i type="logical" name="LELF"> F  </i>
   <i type="logical" name="LOPTICS"> F  </i>
   <v name="STM">      0.00000000      0.00000000      0.00000000      0.00000000      0.00000000      0.00000000      0.00000000</v>
  </separator>
  <separator name="performance" >
   <i type="int" name="NPAR">     8</i>
   <i type="int" name="NSIM">     4</i>
   <i type="int" name="NBLK">    -1</i>
   <i type="logical" name="LPLANE"> T  </i>
   <i type="logical" name="LSCALAPACK"> T  </i>
   <i type="logical" name="LSCAAWARE"> F  </i>
   <i type="logical" name="LSCALU"> F  </i>
   <i type="logical" name="LASYNC"> F  </i>
   <i type="logical" name="LORBITALREAL"> F  </i>
  </separator>
  <separator name="miscellaneous" >
   <i type="int" name="IDIOT">     3</i>
   <i type="int" name="ISPECIAL">     0</i>
   <i type="logical" name="LMUSIC"> F  </i>
   <v name="POMASS">     92.91000000     95.94000000    180.94800000     47.88000000    183.85000000</v>
   <v name="DARWINR">      0.00000000      0.00000000      0.00000000      0.00000000      0.00000000</v>
   <v name="DARWINV">      1.00000000      1.00000000      1.00000000      1.00000000      1.00000000</v>
   <i type="logical" name="LCORR"> T  </i>
  </separator>
  <i type="logical" name="GGA_COMPAT"> T  </i>
  <i type="logical" name="LBERRY"> F  </i>
  <i type="int" name="ICORELEVEL">     0</i>
  <i type="logical" name="LDAU"> F  </i>
  <i type="int" name="I_CONSTRAINED_M">     0</i>
  <separator name="electronic exchange-correlation" >
   <i type="string" name="GGA">PS</i>
   <i type="int" name="VOSKOWN">     0</i>
   <i type="logical" name="LHFCALC"> F  </i>
   <i type="string" name="PRECFOCK"></i>
   <i type="logical" name="LSYMGRAD"> F  </i>
   <i type="logical" name="LHFONE"> F  </i>
   <i type="logical" name="LRHFCALC"> F  </i>
   <i type="logical" name="LTHOMAS"> F  </i>
   <i type="logical" name="LMODELHF"> F  </i>
   <i name="ENCUT4O">     -1.00000000</i>
   <i type="int" name="EXXOEP">     0</i>
   <i type="int" name="FOURORBIT">     0</i>
   <i name="AEXX">      0.00000000</i>
   <i name="HFALPHA">      0.00000000</i>
   <i name="MCALPHA">      0.00000000</i>
   <i name="ALDAX">      1.00000000</i>
   <i name="AGGAX">      1.00000000</i>
   <i name="ALDAC">      1.00000000</i>
   <i name="AGGAC">      1.00000000</i>
   <i type="int" name="NKREDX">     1</i>
   <i type="int" name="NKREDY">     1</i>
   <i type="int" name="NKREDZ">     1</i>
   <i type="logical" name="SHIFTRED"> F  </i>
   <i type="logical" name="ODDONLY"> F  </i>
   <i type="logical" name="EVENONLY"> F  </i>
   <i type="int" name="LMAXFOCK">     0</i>
   <i type="int" name="NMAXFOCKAE">     0</i>
   <i type="logical" name="LFOCKAEDFT"> F  </i>
   <i name="HFSCREEN">      0.00000000</i>
   <i name="HFSCREENC">      0.00000000</i>
   <i type="int" name="NBANDSGWLOW">     0</i>
  </separator>
  <separator name="vdW DFT" >
   <i type="logical" name="LUSE_VDW"> F  </i>
   <i name="Zab_VDW">     -0.84910000</i>
   <i name="PARAM1">      0.12340000</i>
   <i name="PARAM2">      1.00000000</i>
   <i name="PARAM3">      0.00000000</i>
  </separator>
  <separator name="model GW" >
   <i type="int" name="MODEL_GW">     0</i>
   <i name="MODEL_EPS0">     10.07433900</i>
   <i name="MODEL_ALPHA">      1.00000000</i>
  </separator>
  <separator name="linear response parameters" >
   <i type="logical" name="LEPSILON"> F  </i>
   <i type="logical" name="LRPA"> F  </i>
   <i type="logical" name="LNABLA"> F  </i>
   <i type="logical" name="LVEL"> F  </i>
   <i type="int" name="KINTER">     0</i>
   <i name="CSHIFT">      0.10000000</i>
   <i name="OMEGAMAX">     -1.00000000</i>
   <i name="DEG_THRESHOLD">      0.00200000</i>
   <i name="RTIME">     -0.10000000</i>
   <i name="WPLASMAI">      0.00000000</i>
   <v name="DFIELD">      0.00000000      0.00000000      0.00000000</v>
   <v name="WPLASMA">      0.00000000      0.00000000      0.00000000      0.00000000      0.00000000      0.00000000      0.00000000      0.00000000      0.00000000</v>
  </separator>
  <separator name="orbital magnetization" >
   <i type="logical" name="NUCIND"> F  </i>
   <v name="MAGPOS">      0.00000000      0.00000000      0.00000000</v>
   <i type="logical" name="LNICSALL"> T  </i>
   <i type="logical" name="ORBITALMAG"> F  </i>
   <i type="logical" name="LMAGBLOCH"> F  </i>
   <i type="logical" name="LCHIMAG"> F  </i>
   <i type="logical" name="LGAUGE"> T  </i>
   <i type="int" name="MAGATOM">     0</i>
   <v name="MAGDIPOL">      0.00000000      0.00000000      0.00000000</v>
   <v name="AVECCONST">      0.00000000      0.00000000      0.00000000</v>
  </separator>
  <separator name="response functions" >
   <i type="logical" name="LADDER"> F  </i>
   <i type="logical" name="LRPAFORCE"> F  </i>
   <i type="logical" name="LFXC"> F  </i>
   <i type="logical" name="LHARTREE"> T  </i>
   <i type="int" name="IBSE">     0</i>
   <v type="int" name="KPOINT">    -1     0     0     0</v>
   <i type="logical" name="LTCTE"> F  </i>
   <i type="logical" name="LTETE"> F  </i>
   <i type="logical" name="LTRIPLET"> F  </i>
   <i type="logical" name="LFXCEPS"> F  </i>
   <i type="logical" name="LFXHEG"> F  </i>
   <i type="int" name="NATURALO">     2</i>
   <i type="logical" name="L2ORDER"> F  </i>
   <i type="logical" name="LMP2LT"> F  </i>
   <i type="logical" name="LUSEW"> F  </i>
   <i name="ENCUTGW">     -2.00000000</i>
   <i name="ENCUTGWSOFT">     -2.00000000</i>
   <i name="ENCUTLF">     -1.00000000</i>
   <i type="int" name="LMAXMP2">    -1</i>
   <i name="SCISSOR">      0.00000000</i>
   <i type="int" name="NOMEGA">     0</i>
   <i type="int" name="NOMEGAR">     0</i>
   <i type="int" name="NBANDSGW">    -1</i>
   <i type="int" name="NBANDSO">    -1</i>
   <i type="int" name="NBANDSV">    -1</i>
   <i type="int" name="NELM">     1</i>
   <i type="int" name="NELMHF">     1</i>
   <i type="int" name="DIM">     3</i>
   <i type="int" name="ANTIRES">     0</i>
   <i name="OMEGAMAX">    -30.00000000</i>
   <i name="OMEGAMIN">    -30.00000000</i>
   <i name="OMEGATL">   -200.00000000</i>
   <i type="int" name="OMEGAGRID">   140</i>
   <i name="CSHIFT">     -0.10000000</i>
   <i type="logical" name="SELFENERGY"> F  </i>
   <i type="logical" name="LSPECTRAL"> F  </i>
   <i type="logical" name="LSPECTRALGW"> F  </i>
   <i type="logical" name="LSINGLES"> F  </i>
   <i type="logical" name="LFERMIGW"> F  </i>
   <i type="logical" name="ODDONLYGW"> F  </i>
   <i type="logical" name="EVENONLYGW"> F  </i>
   <i type="int" name="NKREDLFX">     1</i>
   <i type="int" name="NKREDLFY">     1</i>
   <i type="int" name="NKREDLFZ">     1</i>
   <i type="int" name="MAXMEM">  2800</i>
   <i type="int" name="TELESCOPE">     0</i>
   <i type="int" name="TAUPAR">     1</i>
   <i type="int" name="OMEGAPAR">    -1</i>
   <i name="LAMBDA">      1.00000000</i>
  </separator>
  <separator name="External order field" >
   <i name="OFIELD_KAPPA">      0.00000000</i>
   <v name="OFIELD_K">      0.00000000      0.00000000      0.00000000</v>
   <i name="OFIELD_Q6_NEAR">      0.00000000</i>
   <i name="OFIELD_Q6_FAR">      0.00000000</i>
   <i name="OFIELD_A">      0.00000000</i>
  </separator>
  <separator name="solvation model" >
   <i type="logical" name="LSOL"> F  </i>
  </separator>
 </parameters>
 <atominfo>
  <atoms>      29 </atoms>
  <types>       5 </types>
  <array name="atoms" >
   <dimension dim="1">ion</dimension>
   <field type="string">element</field>
   <field type="int">atomtype</field>
   <set>
    <rc><c>Nb</c><c>   1</c></rc>
    <rc><c>Nb</c><c>   1</c></rc>
    <rc><c>Nb</c><c>   1</c></rc>
    <rc><c>Nb</c><c>   1</c></rc>
    <rc><c>Nb</c><c>   1</c></rc>
    <rc><c>Nb</c><c>   1</c></rc>
    <rc><c>Mo</c><c>   2</c></rc>
    <rc><c>Mo</c><c>   2</c></rc>
    <rc><c>Mo</c><c>   2</c></rc>
    <rc><c>Mo</c><c>   2</c></rc>
    <rc><c>Mo</c><c>   2</c></rc>
    <rc><c>Mo</c><c>   2</c></rc>
    <rc><c>Ta</c><c>   3</c></rc>
    <rc><c>Ta</c><c>   3</c></rc>
    <rc><c>Ta</c><c>   3</c></rc>
    <rc><c>Ta</c><c>   3</c></rc>
    <rc><c>Ta</c><c>   3</c></rc>
    <rc><c>Ti</c><c>   4</c></rc>
    <rc><c>Ti</c><c>   4</c></rc>
    <rc><c>Ti</c><c>   4</c></rc>
    <rc><c>Ti</c><c>   4</c></rc>
    <rc><c>Ti</c><c>   4</c></rc>
    <rc><c>Ti</c><c>   4</c></rc>
    <rc><c>W </c><c>   5</c></rc>
    <rc><c>W </c><c>   5</c></rc>
    <rc><c>W </c><c>   5</c></rc>
    <rc><c>W </c><c>   5</c></rc>
    <rc><c>W </c><c>   5</c></rc>
    <rc><c>W </c><c>   5</c></rc>
   </set>
  </array>
  <array name="atomtypes" >
   <dimension dim="1">type</dimension>
   <field type="int">atomspertype</field>
   <field type="string">element</field>
   <field>mass</field>
   <field>valence</field>
   <field type="string">pseudopotential</field>
   <set>
    <rc><c>   6</c><c>Nb</c><c>     92.91000000</c><c>     13.00000000</c><c>  PAW_PBE Nb_sv 25May2007               </c></rc>
    <rc><c>   6</c><c>Mo</c><c>     95.94000000</c><c>      6.00000000</c><c>  PAW_PBE Mo 08Apr2002                  </c></rc>
    <rc><c>   5</c><c>Ta</c><c>    180.94800000</c><c>      5.00000000</c><c>  PAW_PBE Ta 17Jan2003                  </c></rc>
    <rc><c>   6</c><c>Ti</c><c>     47.88000000</c><c>      4.00000000</c><c>  PAW_PBE Ti 08Apr2002                  </c></rc>
    <rc><c>   6</c><c>W </c><c>    183.85000000</c><c>      6.00000000</c><c>  PAW_PBE W 08Apr2002                   </c></rc>
   </set>
  </array>
 </atominfo>
 <structure name="initialpos" >
  <crystal>
   <varray name="basis" >
    <v>      -3.19000000      -3.19000000      -3.19000000 </v>
    <v>       1.59500000       1.59500000      -7.97500000 </v>
    <v>       7.97500000      -7.97500000      -1.59500000 </v>
   </varray>
   <i name="volume">    486.92638500 </i>
   <varray name="rec_basis" >
    <v>      -0.13584117      -0.12539185      -0.05224660 </v>
    <v>       0.04179728       0.06269592      -0.10449321 </v>
    <v>       0.06269592      -0.06269592       0.00000000 </v>
   </varray>
  </crystal>
  <varray name="positions" >
   <v>       0.96666667       0.93333333       0.40000000 </v>
   <v>       0.63333333       0.26666667       0.40000000 </v>
   <v>       0.50000000       0.00000000       0.00000000 </v>
   <v>       0.00000000       0.00000000       0.00000000 </v>
   <v>       0.10000000       0.20000000       0.80000000 </v>
   <v>       0.03333333       0.06666667       0.60000000 </v>
   <v>       0.90000000       0.80000000       0.20000000 </v>
   <v>       0.80000000       0.60000000       0.40000000 </v>
   <v>       0.73333333       0.46666667       0.20000000 </v>
   <v>       0.66666667       0.33333333       0.00000000 </v>
   <v>       0.36666667       0.73333333       0.60000000 </v>
   <v>       0.13333333       0.26666667       0.40000000 </v>
   <v>       0.83333333       0.66666667       0.00000000 </v>
   <v>       0.93333333       0.86666667       0.80000000 </v>
   <v>       0.56666667       0.13333333       0.20000000 </v>
   <v>       0.40000000       0.80000000       0.20000000 </v>
   <v>       0.43333333       0.86666667       0.80000000 </v>
   <v>       0.86666667       0.73333333       0.60000000 </v>
   <v>       0.46666667       0.93333333       0.40000000 </v>
   <v>       0.16666667       0.33333333       0.00000000 </v>
   <v>       0.26666667       0.53333333       0.80000000 </v>
   <v>       0.20000000       0.40000000       0.60000000 </v>
   <v>       0.06666667       0.13333333       0.20000000 </v>
   <v>       0.76666667       0.53333333       0.80000000 </v>
   <v>       0.70000000       0.40000000       0.60000000 </v>
   <v>       0.60000000       0.20000000       0.80000000 </v>
   <v>       0.53333333       0.06666667       0.60000000 </v>
   <v>       0.33333333       0.66666667       0.00000000 </v>
   <v>       0.23333333       0.46666667       0.20000000 </v>
  </varray>
 </structure>
 <calculation>
  <scstep>
   <time name="dav">   19.02   19.05</time>
   <time name="total">   19.64   19.69</time>
   <energy>
    <i name="alphaZ">   1302.23520220 </i>
    <i name="ewald"> -11559.30669386 </i>
    <i name="hartreedc">  -3207.32829519 </i>
    <i name="XCdc">   -838.90330761 </i>
    <i name="pawpsdc">  12115.92678409 </i>
    <i name="pawaedc"> -10625.29399854 </i>
    <i name="eentropy">     -0.00510649 </i>
    <i name="bandstr">   -612.90597270 </i>
    <i name="atom">  13080.25727947 </i>
    <i name="e_fr_energy">   -345.32410864 </i>
    <i name="e_wo_entrp">   -345.31900215 </i>
    <i name="e_0_energy">   -345.32240648 </i>
   </energy>
  </scstep>
  <scstep>
   <time name="dav">   23.70   23.73</time>
   <time name="total">   24.33   24.36</time>
   <energy>
    <i name="e_fr_energy">   -340.26263864 </i>
    <i name="e_wo_entrp">   -340.26025291 </i>
    <i name="e_0_energy">   -340.26184340 </i>
   </energy>
  </scstep>
  <scstep>
   <time name="dav">   24.92   24.95</time>
   <time name="total">   25.51   25.55</time>
   <energy>
    <i name="e_fr_energy">   -355.02876392 </i>
    <i name="e_wo_entrp">   -355.02429594 </i>
    <i name="e_0_energy">   -355.02727459 </i>
   </energy>
  </scstep>
  <scstep>
   <time name="dav">   25.52   25.55</time>
   <time name="total">   26.12   26.16</time>
   <energy>
    <i name="e_fr_energy">   -339.89818370 </i>
    <i name="e_wo_entrp">   -339.90372743 </i>
    <i name="e_0_energy">   -339.90003161 </i>
   </energy>
  </scstep>
  <scstep>
   <time name="dav">   24.70   24.73</time>
   <time name="total">   25.30   25.33</time>
   <energy>
    <i name="e_fr_energy">   -332.59641650 </i>
    <i name="e_wo_entrp">   -332.57543129 </i>
    <i name="e_0_energy">   -332.58942143 </i>
   </energy>
  </scstep>
  <scstep>
   <time name="dav">   26.26   26.30</time>
   <time name="total">   26.86   26.90</time>
   <energy>
    <i name="e_fr_energy">   -330.64373729 </i>
    <i name="e_wo_entrp">   -330.62977630 </i>
    <i name="e_0_energy">   -330.63908363 </i>
   </energy>
  </scstep>
  <scstep>
   <time name="dav">   24.46   24.50</time>
   <time name="total">   25.08   25.12</time>
   <energy>
    <i name="e_fr_energy">   -330.01553008 </i>
    <i name="e_wo_entrp">   -329.99415684 </i>
    <i name="e_0_energy">   -330.00840567 </i>
   </energy>
  </scstep>
  <scstep>
   <time name="dav">   25.12   25.15</time>
   <time name="total">   25.72   25.75</time>
   <energy>
    <i name="e_fr_energy">   -329.99397595 </i>
    <i name="e_wo_entrp">   -329.97290930 </i>
    <i name="e_0_energy">   -329.98695373 </i>
   </energy>
  </scstep>
  <scstep>
   <time name="dav">   24.13   24.17</time>
   <time name="total">   24.72   24.76</time>
   <energy>
    <i name="e_fr_energy">   -329.97379177 </i>
    <i name="e_wo_entrp">   -329.95114353 </i>
    <i name="e_0_energy">   -329.96624236 </i>
   </energy>
  </scstep>
  <scstep>
   <time name="dav">   25.40   25.44</time>
   <time name="total">   26.01   26.05</time>
   <energy>
    <i name="e_fr_energy">   -329.91186904 </i>
    <i name="e_wo_entrp">   -329.89096350 </i>
    <i name="e_0_energy">   -329.90490053 </i>
   </energy>
  </scstep>
  <scstep>
   <time name="dav">   23.98   24.02</time>
   <time name="total">   24.58   24.62</time>
   <energy>
    <i name="e_fr_energy">   -329.89878167 </i>
    <i name="e_wo_entrp">   -329.87704100 </i>
    <i name="e_0_energy">   -329.89153478 </i>
   </energy>
  </scstep>
  <scstep>
   <time name="dav">   25.96   25.99</time>
   <time name="total">   26.57   26.61</time>
   <energy>
    <i name="e_fr_energy">   -329.90308929 </i>
    <i name="e_wo_entrp">   -329.88089471 </i>
    <i name="e_0_energy">   -329.89569109 </i>
   </energy>
  </scstep>
  <scstep>
   <time name="dav">   24.63   24.66</time>
   <time name="total">   25.23   25.27</time>
   <energy>
    <i name="e_fr_energy">   -329.89968528 </i>
    <i name="e_wo_entrp">   -329.87744941 </i>
    <i name="e_0_energy">   -329.89227332 </i>
   </energy>
  </scstep>
  <scstep>
   <time name="dav">   24.18   24.22</time>
   <time name="total">   24.78   24.82</time>
   <energy>
    <i name="e_fr_energy">   -329.89782253 </i>
    <i name="e_wo_entrp">   -329.87576161 </i>
    <i name="e_0_energy">   -329.89046889 </i>
   </energy>
  </scstep>
  <scstep>
   <time name="dav">   23.44   23.47</time>
   <time name="total">   24.04   24.07</time>
   <energy>
    <i name="e_fr_energy">   -329.89709323 </i>
    <i name="e_wo_entrp">   -329.87509291 </i>
    <i name="e_0_energy">   -329.88975979 </i>
   </energy>
  </scstep>
  <scstep>
   <time name="dav">   22.35   22.38</time>
   <time name="total">   22.96   23.00</time>
   <energy>
    <i name="e_fr_energy">   -329.89704691 </i>
    <i name="e_wo_entrp">   -329.87513526 </i>
    <i name="e_0_energy">   -329.88974303 </i>
   </energy>
  </scstep>
  <scstep>
   <time name="dav">   19.67   19.70</time>
   <time name="total">   19.70   19.73</time>
   <energy>
    <i name="alphaZ">   1302.23520220 </i>
    <i name="ewald"> -11559.30669386 </i>
    <i name="hartreedc">  -3059.59980830 </i>
    <i name="XCdc">   -833.58465172 </i>
    <i name="pawpsdc">  20727.25246357 </i>
    <i name="pawaedc"> -19237.74759368 </i>
    <i name="eentropy">     -0.02196263 </i>
    <i name="bandstr">   -749.38121224 </i>
    <i name="atom">  13080.25727947 </i>
    <i name="e_fr_energy">   -329.89697720 </i>
    <i name="e_wo_entrp">   -329.87501457 </i>
    <i name="e_0_energy">   -329.88965632 </i>
   </energy>
  </scstep>
  <structure>
   <crystal>
    <varray name="basis" >
     <v>      -3.19000000      -3.19000000      -3.19000000 </v>
     <v>       1.59500000       1.59500000      -7.97500000 </v>
     <v>       7.97500000      -7.97500000      -1.59500000 </v>
    </varray>
    <i name="volume">    486.92638500 </i>
    <varray name="rec_basis" >
     <v>      -0.13584117      -0.12539185      -0.05224660 </v>
     <v>       0.04179728       0.06269592      -0.10449321 </v>
     <v>       0.06269592      -0.06269592       0.00000000 </v>
    </varray>
   </crystal>
   <varray name="positions" >
    <v>       0.96666667       0.93333333       0.40000000 </v>
    <v>       0.63333333       0.26666667       0.40000000 </v>
    <v>       0.50000000       0.00000000       0.00000000 </v>
    <v>       0.00000000       0.00000000       0.00000000 </v>
    <v>       0.10000000       0.20000000       0.80000000 </v>
    <v>       0.03333333       0.06666667       0.60000000 </v>
    <v>       0.90000000       0.80000000       0.20000000 </v>
    <v>       0.80000000       0.60000000       0.40000000 </v>
    <v>       0.73333333       0.46666667       0.20000000 </v>
    <v>       0.66666667       0.33333333       0.00000000 </v>
    <v>       0.36666667       0.73333333       0.60000000 </v>
    <v>       0.13333333       0.26666667       0.40000000 </v>
    <v>       0.83333333       0.66666667       0.00000000 </v>
    <v>       0.93333333       0.86666667       0.80000000 </v>
    <v>       0.56666667       0.13333333       0.20000000 </v>
    <v>       0.40000000       0.80000000       0.20000000 </v>
    <v>       0.43333333       0.86666667       0.80000000 </v>
    <v>       0.86666667       0.73333333       0.60000000 </v>
    <v>       0.46666667       0.93333333       0.40000000 </v>
    <v>       0.16666667       0.33333333       0.00000000 </v>
    <v>       0.26666667       0.53333333       0.80000000 </v>
    <v>       0.20000000       0.40000000       0.60000000 </v>
    <v>       0.06666667       0.13333333       0.20000000 </v>
    <v>       0.76666667       0.53333333       0.80000000 </v>
    <v>       0.70000000       0.40000000       0.60000000 </v>
    <v>       0.60000000       0.20000000       0.80000000 </v>
    <v>       0.53333333       0.06666667       0.60000000 </v>
    <v>       0.33333333       0.66666667       0.00000000 </v>
    <v>       0.23333333       0.46666667       0.20000000 </v>
   </varray>
  </structure>
  <varray name="forces" >
   <v>      -0.88880627      -0.17117438       1.25330148 </v>
   <v>       0.71829268       0.56843102      -0.65042234 </v>
   <v>      -0.08604670       0.35898421      -0.38242518 </v>
   <v>       0.31898593      -0.24906229      -0.12088505 </v>
   <v>       0.26521798       0.39222736      -0.54098102 </v>
   <v>      -0.55079931       0.28653821      -0.20779137 </v>
   <v>       0.32321205      -0.54927176       0.25670579 </v>
   <v>      -0.51798969      -0.16878258       0.57477251 </v>
   <v>      -0.01219189       0.03240801      -0.12042924 </v>
   <v>       0.31828092       0.41431189      -0.49365511 </v>
   <v>      -0.61999112      -0.14286615       0.54275429 </v>
   <v>       0.14078444       0.49418094      -0.44313561 </v>
   <v>       0.32522386      -0.61541457       0.29773125 </v>
   <v>      -0.03998445       0.31139812      -0.05470341 </v>
   <v>      -0.24186953       0.20889937      -0.01022932 </v>
   <v>      -0.10837136      -0.77564783       1.16811283 </v>
   <v>      -0.74123410      -0.13038332       0.72991309 </v>
   <v>       0.45490889       0.44259090       0.27877710 </v>
   <v>       0.45299006      -0.63258271      -0.33283335 </v>
   <v>      -0.10330456      -0.27704970      -0.23368772 </v>
   <v>      -0.30967745       0.09264778      -0.27086142 </v>
   <v>      -0.75026560       0.56053606       0.09338085 </v>
   <v>       0.77327060      -0.26099021      -0.73460726 </v>
   <v>      -0.25731936      -0.08554247       0.57144602 </v>
   <v>       0.58689040       0.02500588      -1.04937616 </v>
   <v>      -0.01180596       0.50384329      -0.06379588 </v>
   <v>       0.00493643      -0.19698701      -0.52295403 </v>
   <v>       0.01900457      -0.49313409       0.75758278 </v>
   <v>       0.53765855       0.05688604      -0.29170449 </v>
  </varray>
  <varray name="stress" >
   <v>     -31.80607413      -1.39836253       3.01932974 </v>
   <v>      -1.39836246     -30.05248317       6.48456852 </v>
   <v>       3.01932969       6.48456842     -31.57636579 </v>
  </varray>
  <energy>
   <i name="e_fr_energy">   -329.89697720 </i>
   <i name="e_wo_entrp">   -329.88965632 </i>
   <i name="e_0_energy">     -0.02196263 </i>
  </energy>
  <time name="totalsc">  435.54  436.36</time>
 </calculation>
 <calculation>
  <scstep>
   <time name="dav">   20.83   20.86</time>
   <time name="total">   21.43   21.46</time>
   <energy>
    <i name="alphaZ">   1365.75951347 </i>
    <i name="ewald"> -11841.28785068 </i>
    <i name="hartreedc">  -3015.77210104 </i>
    <i name="XCdc">   -827.72570623 </i>
    <i name="pawpsdc">  20726.39612887 </i>
    <i name="pawaedc"> -19236.86774024 </i>
    <i name="eentropy">     -0.01324229 </i>
    <i name="bandstr">   -582.61206496 </i>
    <i name="atom">  13080.25727947 </i>
    <i name="e_fr_energy">   -331.86578364 </i>
    <i name="e_wo_entrp">   -331.85254135 </i>
    <i name="e_0_energy">   -331.86136954 </i>
   </energy>
  </scstep>
  <scstep>
   <time name="dav">   26.40   26.44</time>
   <time name="total">   27.00   27.04</time>
   <energy>
    <i name="e_fr_energy">   -332.39180026 </i>
    <i name="e_wo_entrp">   -332.38413525 </i>
    <i name="e_0_energy">   -332.38924525 </i>
   </energy>
  </scstep>
  <scstep>
   <time name="dav">   24.88   24.92</time>
   <time name="total">   25.48   25.52</time>
   <energy>
    <i name="e_fr_energy">   -331.13625568 </i>
    <i name="e_wo_entrp">   -331.12654087 </i>
    <i name="e_0_energy">   -331.13301741 </i>
   </energy>
  </scstep>
  <scstep>
   <time name="dav">   26.19   26.23</time>
   <time name="total">   26.80   26.85</time>
   <energy>
    <i name="e_fr_energy">   -330.84754018 </i>
    <i name="e_wo_entrp">   -330.83357826 </i>
    <i name="e_0_energy">   -330.84288621 </i>
   </energy>
  </scstep>
  <scstep>
   <time name="dav">   25.11   25.14</time>
   <time name="total">   25.71   25.74</time>
   <energy>
    <i name="e_fr_energy">   -330.45079146 </i>
    <i name="e_wo_entrp">   -330.43318532 </i>
    <i name="e_0_energy">   -330.44492274 </i>
   </energy>
  </scstep>
  <scstep>
   <time name="dav">   25.81   25.85</time>
   <time name="total">   26.41   26.45</time>
   <energy>
    <i name="e_fr_energy">   -330.31736176 </i>
    <i name="e_wo_entrp">   -330.29804574 </i>
    <i name="e_0_energy">   -330.31092308 </i>
   </energy>
  </scstep>
  <scstep>
   <time name="dav">   26.75   26.78</time>
   <time name="total">   27.35   27.40</time>
   <energy>
    <i name="e_fr_energy">   -330.33105423 </i>
    <i name="e_wo_entrp">   -330.31150841 </i>
    <i name="e_0_energy">   -330.32453896 </i>
   </energy>
  </scstep>
  <scstep>
   <time name="dav">   25.61   25.65</time>
   <time name="total">   26.21   26.25</time>
   <energy>
    <i name="e_fr_energy">   -330.33146677 </i>
    <i name="e_wo_entrp">   -330.31184239 </i>
    <i name="e_0_energy">   -330.32492531 </i>
   </energy>
  </scstep>
  <scstep>
   <time name="dav">   25.31   25.35</time>
   <time name="total">   25.91   25.96</time>
   <energy>
    <i name="e_fr_energy">   -330.33258489 </i>
    <i name="e_wo_entrp">   -330.31274382 </i>
    <i name="e_0_energy">   -330.32597120 </i>
   </energy>
  </scstep>
  <scstep>
   <time name="dav">   27.20   27.23</time>
   <time name="total">   27.81   27.85</time>
   <energy>
    <i name="e_fr_energy">   -330.33762654 </i>
    <i name="e_wo_entrp">   -330.31775392 </i>
    <i name="e_0_energy">   -330.33100234 </i>
   </energy>
  </scstep>
  <scstep>
   <time name="dav">   25.53   25.56</time>
   <time name="total">   26.13   26.16</time>
   <energy>
    <i name="e_fr_energy">   -330.33889814 </i>
    <i name="e_wo_entrp">   -330.31859230 </i>
    <i name="e_0_energy">   -330.33212953 </i>
   </energy>
  </scstep>
  <scstep>
   <time name="dav">   26.51   26.55</time>
   <time name="total">   27.12   27.16</time>
   <energy>
    <i name="e_fr_energy">   -330.33872375 </i>
    <i name="e_wo_entrp">   -330.31880405 </i>
    <i name="e_0_energy">   -330.33208385 </i>
   </energy>
  </scstep>
  <scstep>
   <time name="dav">   25.70   25.74</time>
   <time name="total">   26.30   26.35</time>
   <energy>
    <i name="e_fr_energy">   -330.33878737 </i>
    <i name="e_wo_entrp">   -330.31879720 </i>
    <i name="e_0_energy">   -330.33212398 </i>
   </energy>
  </scstep>
  <scstep>
   <time name="dav">   22.78   22.82</time>
   <time name="total">   22.83   22.86</time>
   <energy>
    <i name="alphaZ">   1365.75951347 </i>
    <i name="ewald"> -11841.28785068 </i>
    <i name="hartreedc">  -2926.80674297 </i>
    <i name="XCdc">   -830.29107378 </i>
    <i name="pawpsdc">  22225.75292096 </i>
    <i name="pawaedc"> -20737.31784778 </i>
    <i name="eentropy">     -0.02001033 </i>
    <i name="bandstr">   -666.38501121 </i>
    <i name="atom">  13080.25727947 </i>
    <i name="e_fr_energy">   -330.33882285 </i>
    <i name="e_wo_entrp">   -330.31881252 </i>
    <i name="e_0_energy">   -330.33215274 </i>
   </energy>
  </scstep>
  <structure>
   <crystal>
    <varray name="basis" >
     <v>      -3.14131790      -3.14973475      -3.15440184 </v>
     <v>       1.55605036       1.54349272      -7.84002137 </v>
     <v>       7.84996245      -7.86469673      -1.58350876 </v>
    </varray>
    <i name="volume">    464.27842762 </i>
    <varray name="rec_basis" >
     <v>      -0.13807130      -0.12725091      -0.05245608 </v>
     <v>       0.04269158       0.06404829      -0.10646804 </v>
     <v>       0.06367469      -0.06361788       0.00011317 </v>
    </varray>
   </crystal>
   <varray name="positions" >
    <v>       0.97036783       0.92470546       0.39782944 </v>
    <v>       0.62682694       0.27311313       0.40045327 </v>
    <v>       0.49935622       0.00284010      -0.00134605 </v>
    <v>      -0.00027909       0.00049927       0.00171813 </v>
    <v>       0.09725281       0.20444823       0.79961585 </v>
    <v>       0.03573331       0.06747018       0.59746737 </v>
    <v>       0.90055753       0.79769633       0.20263893 </v>
    <v>       0.80296684       0.59554757       0.39894378 </v>
    <v>       0.73352073       0.46734720       0.19986510 </v>
    <v>       0.66331886       0.33771678      -0.00029046 </v>
    <v>       0.37022589       0.72891502       0.59855688 </v>
    <v>       0.13053823       0.27067912       0.39893111 </v>
    <v>       0.83417438       0.66396019       0.00284507 </v>
    <v>       0.93184952       0.86780367       0.79893720 </v>
    <v>       0.56701382       0.13352903       0.19863660 </v>
    <v>       0.40245802       0.79154695       0.20201826 </v>
    <v>       0.43713985       0.86109816       0.79815241 </v>
    <v>       0.86030550       0.73418396       0.60003726 </v>
    <v>       0.46836363       0.93401125       0.40328344 </v>
    <v>       0.16960861       0.33346508       0.00052551 </v>
    <v>       0.26881835       0.53435454       0.79878312 </v>
    <v>       0.20129056       0.39971183       0.59603533 </v>
    <v>       0.06502955       0.13780634       0.20312824 </v>
    <v>       0.76743010       0.52967506       0.79948044 </v>
    <v>       0.69864761       0.40654898       0.60169949 </v>
    <v>       0.59719030       0.20182172       0.79844036 </v>
    <v>       0.53581071       0.06871704       0.60061074 </v>
    <v>       0.33428237       0.66139445       0.00154902 </v>
    <v>       0.23020100       0.46939336       0.20145415 </v>
   </varray>
  </structure>
  <varray name="forces" >
   <v>      -0.68419634      -0.39213838       0.85277558 </v>
   <v>       0.47820266       0.50612147      -0.47649149 </v>
   <v>      -0.00552166       0.09833670       0.02519284 </v>
   <v>       0.13600324      -0.17183207      -0.16500946 </v>
   <v>      -0.02201175       0.13606566      -0.12071119 </v>
   <v>      -0.36165320       0.21344686      -0.12489007 </v>
   <v>       0.16493641      -0.22841867       0.13410894 </v>
   <v>      -0.15696740      -0.10723520       0.13565086 </v>
   <v>       0.07128914      -0.16550598       0.18171212 </v>
   <v>       0.14665547       0.09542898      -0.11985564 </v>
   <v>      -0.47439891       0.19253325       0.47340800 </v>
   <v>       0.15021596       0.18359315      -0.21510749 </v>
   <v>       0.14910765      -0.18821145      -0.03058487 </v>
   <v>      -0.06163411       0.02780741      -0.05641699 </v>
   <v>       0.04243322      -0.05972240       0.02981125 </v>
   <v>       0.37636733      -0.63385044       0.49501973 </v>
   <v>      -0.11918424      -0.00379684       0.23098768 </v>
   <v>       0.10648338       0.27706208       0.12230026 </v>
   <v>       0.17121062      -0.36763806      -0.12263459 </v>
   <v>      -0.09617385      -0.11898638      -0.04202693 </v>
   <v>      -0.21975149       0.17850267      -0.02339355 </v>
   <v>      -0.54276067       0.57971033      -0.27095945 </v>
   <v>       0.53778622      -0.20561446      -0.36447713 </v>
   <v>      -0.09856345      -0.09510811       0.01964196 </v>
   <v>       0.11061942       0.20727923      -0.31456997 </v>
   <v>      -0.04576285       0.27421711      -0.05935939 </v>
   <v>      -0.11205514       0.09580255      -0.27495667 </v>
   <v>      -0.04380919      -0.06683586       0.28031073 </v>
   <v>       0.40313352      -0.26101315      -0.19947508 </v>
  </varray>
  <varray name="stress" >
   <v>      74.03515219      -1.13507871       1.28062129 </v>
   <v>      -1.13507874      72.47475492       3.25699566 </v>
   <v>       1.28062128       3.25699568      73.73674406 </v>
  </varray>
  <energy>
   <i name="e_fr_energy">   -330.33882285 </i>
   <i name="e_wo_entrp">   -330.33215274 </i>
   <i name="e_0_energy">     -0.02001033 </i>
  </energy>
  <time name="totalsc">  380.93  381.52</time>
 </calculation>
 <calculation>
  <scstep>
   <time name="dav">   21.30   21.34</time>
   <time name="total">   21.91   21.96</time>
   <energy>
    <i name="alphaZ">   1348.32440551 </i>
    <i name="ewald"> -11765.85823795 </i>
    <i name="hartreedc">  -2938.24857721 </i>
    <i name="XCdc">   -831.85451794 </i>
    <i name="pawpsdc">  22225.20982917 </i>
    <i name="pawaedc"> -20736.70462133 </i>
    <i name="eentropy">     -0.01907888 </i>
    <i name="bandstr">   -711.61968691 </i>
    <i name="atom">  13080.25727947 </i>
    <i name="e_fr_energy">   -330.51320607 </i>
    <i name="e_wo_entrp">   -330.49412720 </i>
    <i name="e_0_energy">   -330.50684645 </i>
   </energy>
  </scstep>
  <scstep>
   <time name="dav">   27.09   27.14</time>
   <time name="total">   27.72   27.76</time>
   <energy>
    <i name="e_fr_energy">   -330.56016250 </i>
    <i name="e_wo_entrp">   -330.53971433 </i>
    <i name="e_0_energy">   -330.55334644 </i>
   </energy>
  </scstep>
  <scstep>
   <time name="dav">   24.53   24.56</time>
   <time name="total">   25.13   25.17</time>
   <energy>
    <i name="e_fr_energy">   -330.50159978 </i>
    <i name="e_wo_entrp">   -330.48250243 </i>
    <i name="e_0_energy">   -330.49523400 </i>
   </energy>
  </scstep>
  <scstep>
   <time name="dav">   25.59   25.62</time>
   <time name="total">   26.20   26.25</time>
   <energy>
    <i name="e_fr_energy">   -330.45312311 </i>
    <i name="e_wo_entrp">   -330.43398899 </i>
    <i name="e_0_energy">   -330.44674507 </i>
   </energy>
  </scstep>
  <scstep>
   <time name="dav">   24.96   25.00</time>
   <time name="total">   25.57   25.60</time>
   <energy>
    <i name="e_fr_energy">   -330.41792239 </i>
    <i name="e_wo_entrp">   -330.39749532 </i>
    <i name="e_0_energy">   -330.41111337 </i>
   </energy>
  </scstep>
  <scstep>
   <time name="dav">   25.86   25.90</time>
   <time name="total">   26.47   26.50</time>
   <energy>
    <i name="e_fr_energy">   -330.41112560 </i>
    <i name="e_wo_entrp">   -330.39102658 </i>
    <i name="e_0_energy">   -330.40442593 </i>
   </energy>
  </scstep>
  <scstep>
   <time name="dav">   26.94   26.97</time>
   <time name="total">   27.56   27.60</time>
   <energy>
    <i name="e_fr_energy">   -330.41170934 </i>
    <i name="e_wo_entrp">   -330.39132913 </i>
    <i name="e_0_energy">   -330.40491594 </i>
   </energy>
  </scstep>
  <scstep>
   <time name="dav">   25.08   25.11</time>
   <time name="total">   25.68   25.72</time>
   <energy>
    <i name="e_fr_energy">   -330.41148559 </i>
    <i name="e_wo_entrp">   -330.39131182 </i>
    <i name="e_0_energy">   -330.40476100 </i>
   </energy>
  </scstep>
  <scstep>
   <time name="dav">   23.48   23.51</time>
   <time name="total">   24.08   24.11</time>
   <energy>
    <i name="e_fr_energy">   -330.41165494 </i>
    <i name="e_wo_entrp">   -330.39136614 </i>
    <i name="e_0_energy">   -330.40489201 </i>
   </energy>
  </scstep>
  <scstep>
   <time name="dav">   23.83   23.87</time>
   <time name="total">   24.44   24.48</time>
   <energy>
    <i name="e_fr_energy">   -330.41197054 </i>
    <i name="e_wo_entrp">   -330.39168035 </i>
    <i name="e_0_energy">   -330.40520715 </i>
   </energy>
  </scstep>
  <scstep>
   <time name="dav">   24.26   24.29</time>
   <time name="total">   24.86   24.90</time>
   <energy>
    <i name="e_fr_energy">   -330.41197279 </i>
    <i name="e_wo_entrp">   -330.39183484 </i>
    <i name="e_0_energy">   -330.40526014 </i>
   </energy>
  </scstep>
  <scstep>
   <time name="dav">   21.84   21.87</time>
   <time name="total">   21.88   21.91</time>
   <energy>
    <i name="alphaZ">   1348.32440551 </i>
    <i name="ewald"> -11765.85823795 </i>
    <i name="hartreedc">  -2961.95051706 </i>
    <i name="XCdc">   -831.16692487 </i>
    <i name="pawpsdc">  21793.27924024 </i>
    <i name="pawaedc"> -20304.20360423 </i>
    <i name="eentropy">     -0.02023573 </i>
    <i name="bandstr">   -689.07331922 </i>
    <i name="atom">  13080.25727947 </i>
    <i name="e_fr_energy">   -330.41191385 </i>
    <i name="e_wo_entrp">   -330.39167812 </i>
    <i name="e_0_energy">   -330.40516861 </i>
   </energy>
  </scstep>
  <structure>
   <crystal>
    <varray name="basis" >
     <v>      -3.15437126      -3.16053126      -3.16394695 </v>
     <v>       1.56649411       1.55730361      -7.87621382 </v>
     <v>       7.88348935      -7.89427287      -1.58658996 </v>
    </varray>
    <i name="volume">    470.28198617 </i>
    <varray name="rec_basis" >
     <v>      -0.13746600      -0.12674664      -0.05240115 </v>
     <v>       0.04244814       0.06368017      -0.10593109 </v>
     <v>       0.06340929      -0.06336795       0.00008216 </v>
    </varray>
   </crystal>
   <varray name="positions" >
    <v>       0.96934906       0.92706419       0.39841882 </v>
    <v>       0.62860416       0.27134974       0.40033037 </v>
    <v>       0.49953396       0.00206352      -0.00097920 </v>
    <v>      -0.00020137       0.00036298       0.00125061 </v>
    <v>       0.09800505       0.20323175       0.79972096 </v>
    <v>       0.03508023       0.06725078       0.59815715 </v>
    <v>       0.90040484       0.79832645       0.20192032 </v>
    <v>       0.80215389       0.59676505       0.39923069 </v>
    <v>       0.73347058       0.46716122       0.19990199 </v>
    <v>       0.66423433       0.33651789      -0.00021094 </v>
    <v>       0.36925169       0.73012326       0.59894918 </v>
    <v>       0.13130244       0.26958165       0.39922248 </v>
    <v>       0.83394425       0.66470050       0.00207032 </v>
    <v>       0.93225357       0.86749242       0.79922648 </v>
    <v>       0.56691876       0.13347544       0.19900774 </v>
    <v>       0.40178033       0.79385817       0.20146750 </v>
    <v>       0.43609665       0.86262077       0.79865457 </v>
    <v>       0.86203567       0.73394999       0.60002638 </v>
    <v>       0.46790557       0.93382680       0.40239025 </v>
    <v>       0.16880950       0.33342983       0.00038295 </v>
    <v>       0.26823397       0.53407576       0.79911483 </v>
    <v>       0.20093661       0.39979036       0.59711444 </v>
    <v>       0.06548256       0.13658383       0.20227763 </v>
    <v>       0.76721747       0.53067504       0.79962115 </v>
    <v>       0.69902492       0.40475894       0.60123820 </v>
    <v>       0.59795528       0.20132295       0.79886480 </v>
    <v>       0.53514043       0.06815729       0.60044533 </v>
    <v>       0.33401864       0.66283588       0.00112645 </v>
    <v>       0.23105697       0.46864757       0.20105854 </v>
   </varray>
  </structure>
  <varray name="forces" >
   <v>      -0.76215136      -0.32089501       0.98718278 </v>
   <v>       0.55502097       0.52989882      -0.53014357 </v>
   <v>      -0.03092891       0.17653489      -0.09377193 </v>
   <v>       0.18928433      -0.19207503      -0.15339566 </v>
   <v>       0.06591416       0.21670184      -0.24670619 </v>
   <v>      -0.41672270       0.23731514      -0.15386536 </v>
   <v>       0.21537472      -0.34541198       0.17748840 </v>
   <v>      -0.27982209      -0.13795614       0.27867431 </v>
   <v>       0.06104643      -0.11075494       0.08529079 </v>
   <v>       0.20729218       0.19739750      -0.24268764 </v>
   <v>      -0.53380256       0.08238374       0.51589495 </v>
   <v>       0.16104447       0.29325950      -0.30400629 </v>
   <v>       0.20240874      -0.32075962       0.05975262 </v>
   <v>      -0.05656607       0.10404352      -0.06691718 </v>
   <v>      -0.06233493       0.00419932       0.00963314 </v>
   <v>       0.25553929      -0.67027572       0.71853547 </v>
   <v>      -0.31354662      -0.02859357       0.37753127 </v>
   <v>       0.20853290       0.33497736       0.17229011 </v>
   <v>       0.26063242      -0.45565137      -0.19229843 </v>
   <v>      -0.09916722      -0.16780046      -0.09596171 </v>
   <v>      -0.25178329       0.15476030      -0.09488394 </v>
   <v>      -0.61256842       0.58124197      -0.16599484 </v>
   <v>       0.62416140      -0.22176723      -0.47764708 </v>
   <v>      -0.15738076      -0.08307188       0.20326963 </v>
   <v>       0.25993453       0.16517754      -0.55339717 </v>
   <v>      -0.04291361       0.34639373      -0.05954002 </v>
   <v>      -0.07461901       0.00525346      -0.35492273 </v>
   <v>      -0.02856103      -0.20725030       0.43616406 </v>
   <v>       0.45668206      -0.16727541      -0.23556775 </v>
  </varray>
  <varray name="stress" >
   <v>      43.63258219      -1.08847772       1.94547396 </v>
   <v>      -1.08847771      43.12162803       4.51768880 </v>
   <v>       1.94547380       4.51768870      43.46505793 </v>
  </varray>
  <energy>
   <i name="e_fr_energy">   -330.41191385 </i>
   <i name="e_wo_entrp">   -330.40516861 </i>
   <i name="e_0_energy">     -0.02023573 </i>
  </energy>
  <time name="totalsc">  319.97  320.46</time>
 </calculation>
 <calculation>
  <scstep>
   <time name="dav">   19.35   19.38</time>
   <time name="total">   19.97   20.00</time>
   <energy>
    <i name="alphaZ">   1333.26671906 </i>
    <i name="ewald"> -11798.96584686 </i>
    <i name="hartreedc">  -2876.61223032 </i>
    <i name="XCdc">   -832.83319794 </i>
    <i name="pawpsdc">  21793.23602780 </i>
    <i name="pawaedc"> -20304.26105419 </i>
    <i name="eentropy">     -0.01698944 </i>
    <i name="bandstr">   -724.56366926 </i>
    <i name="atom">  13080.25727947 </i>
    <i name="e_fr_energy">   -330.49296168 </i>
    <i name="e_wo_entrp">   -330.47597224 </i>
    <i name="e_0_energy">   -330.48729853 </i>
   </energy>
  </scstep>
  <scstep>
   <time name="dav">   24.10   24.14</time>
   <time name="total">   24.71   24.74</time>
   <energy>
    <i name="e_fr_energy">   -331.00301965 </i>
    <i name="e_wo_entrp">   -330.98497959 </i>
    <i name="e_0_energy">   -330.99700629 </i>
   </energy>
  </scstep>
  <scstep>
   <time name="dav">   26.19   26.22</time>
   <time name="total">   26.79   26.83</time>
   <energy>
    <i name="e_fr_energy">   -330.97093479 </i>
    <i name="e_wo_entrp">   -330.95460796 </i>
    <i name="e_0_energy">   -330.96549251 </i>
   </energy>
  </scstep>
  <scstep>
   <time name="dav">   26.24   26.29</time>
   <time name="total">   26.85   26.89</time>
   <energy>
    <i name="e_fr_energy">   -330.89725016 </i>
    <i name="e_wo_entrp">   -330.87848876 </i>
    <i name="e_0_energy">   -330.89099636 </i>
   </energy>
  </scstep>
  <scstep>
   <time name="dav">   25.49   25.53</time>
   <time name="total">   26.09   26.13</time>
   <energy>
    <i name="e_fr_energy">   -330.87743205 </i>
    <i name="e_wo_entrp">   -330.85885541 </i>
    <i name="e_0_energy">   -330.87123983 </i>
   </energy>
  </scstep>
  <scstep>
   <time name="dav">   25.94   25.97</time>
   <time name="total">   26.54   26.58</time>
   <energy>
    <i name="e_fr_energy">   -330.87432275 </i>
    <i name="e_wo_entrp">   -330.85606228 </i>
    <i name="e_0_energy">   -330.86823593 </i>
   </energy>
  </scstep>
  <scstep>
   <time name="dav">   27.33   27.37</time>
   <time name="total">   27.93   27.97</time>
   <energy>
    <i name="e_fr_energy">   -330.86624625 </i>
    <i name="e_wo_entrp">   -330.84756153 </i>
    <i name="e_0_energy">   -330.86001801 </i>
   </energy>
  </scstep>
  <scstep>
   <time name="dav">   26.73   26.77</time>
   <time name="total">   27.33   27.37</time>
   <energy>
    <i name="e_fr_energy">   -330.86467947 </i>
    <i name="e_wo_entrp">   -330.84597040 </i>
    <i name="e_0_energy">   -330.85844311 </i>
   </energy>
  </scstep>
  <scstep>
   <time name="dav">   24.30   24.33</time>
   <time name="total">   24.90   24.94</time>
   <energy>
    <i name="e_fr_energy">   -330.86445765 </i>
    <i name="e_wo_entrp">   -330.84587652 </i>
    <i name="e_0_energy">   -330.85826394 </i>
   </energy>
  </scstep>
  <scstep>
   <time name="dav">   23.68   23.72</time>
   <time name="total">   24.29   24.32</time>
   <energy>
    <i name="e_fr_energy">   -330.86451652 </i>
    <i name="e_wo_entrp">   -330.84580372 </i>
    <i name="e_0_energy">   -330.85827892 </i>
   </energy>
  </scstep>
  <scstep>
   <time name="dav">   24.24   24.28</time>
   <time name="total">   24.85   24.88</time>
   <energy>
    <i name="e_fr_energy">   -330.86479478 </i>
    <i name="e_wo_entrp">   -330.84621817 </i>
    <i name="e_0_energy">   -330.85860258 </i>
   </energy>
  </scstep>
  <scstep>
   <time name="dav">   22.66   22.70</time>
   <time name="total">   23.28   23.32</time>
   <energy>
    <i name="e_fr_energy">   -330.86461691 </i>
    <i name="e_wo_entrp">   -330.84597519 </i>
    <i name="e_0_energy">   -330.85840300 </i>
   </energy>
  </scstep>
  <scstep>
   <time name="dav">   16.13   16.16</time>
   <time name="total">   16.17   16.19</time>
   <energy>
    <i name="alphaZ">   1333.26671906 </i>
    <i name="ewald"> -11798.96584686 </i>
    <i name="hartreedc">  -2891.97286383 </i>
    <i name="XCdc">   -832.28545882 </i>
    <i name="pawpsdc">  21350.04097051 </i>
    <i name="pawaedc"> -19861.84656675 </i>
    <i name="eentropy">     -0.01863071 </i>
    <i name="bandstr">   -709.34017543 </i>
    <i name="atom">  13080.25727947 </i>
    <i name="e_fr_energy">   -330.86457335 </i>
    <i name="e_wo_entrp">   -330.84594264 </i>
    <i name="e_0_energy">   -330.85836311 </i>
   </energy>
  </scstep>
  <structure>
   <crystal>
    <varray name="basis" >
     <v>      -3.16787957      -3.17990294      -3.18841524 </v>
     <v>       1.56123959       1.54031620      -7.89869374 </v>
     <v>       7.91527262      -7.93493537      -1.60460385 </v>
    </varray>
    <i name="volume">    475.59327054 </i>
    <varray name="rec_basis" >
     <v>      -0.13698096      -0.12619006      -0.05168357 </v>
     <v>       0.04246777       0.06375273      -0.10577677 </v>
     <v>       0.06313850      -0.06307909       0.00017884 </v>
    </varray>
   </crystal>
   <varray name="positions" >
    <v>       0.97366021       0.91863580       0.39660954 </v>
    <v>       0.62232847       0.27754085       0.40059648 </v>
    <v>       0.49886430       0.00400182      -0.00199423 </v>
    <v>      -0.00017599       0.00092761       0.00273821 </v>
    <v>       0.09601387       0.20657216       0.79927836 </v>
    <v>       0.03719801       0.06801094       0.59581005 </v>
    <v>       0.90081114       0.79634690       0.20416528 </v>
    <v>       0.80472043       0.59322760       0.39847069 </v>
    <v>       0.73359351       0.46714746       0.20011996 </v>
    <v>       0.66149419       0.33993993      -0.00033998 </v>
    <v>       0.37197048       0.72602979       0.59720967 </v>
    <v>       0.12877092       0.27309701       0.39847007 </v>
    <v>       0.83461843       0.66287304       0.00435522 </v>
    <v>       0.93146500       0.86835689       0.79843083 </v>
    <v>       0.56728953       0.13348425       0.19821869 </v>
    <v>       0.40333398       0.78681052       0.20401194 </v>
    <v>       0.43870610       0.85839674       0.79726366 </v>
    <v>       0.85677262       0.73468905       0.59983668 </v>
    <v>       0.46958300       0.93422740       0.40521213 </v>
    <v>       0.17131705       0.33337074       0.00075743 </v>
    <v>       0.26982602       0.53482649       0.79783347 </v>
    <v>       0.20208617       0.40039563       0.59315930 </v>
    <v>       0.06380258       0.14046561       0.20523673 </v>
    <v>       0.76816718       0.52797141       0.79924048 </v>
    <v>       0.69761503       0.41012770       0.60223861 </v>
    <v>       0.59564314       0.20292858       0.79744250 </v>
    <v>       0.53710621       0.07009030       0.60061480 </v>
    <v>       0.33469035       0.65861623       0.00219606 </v>
    <v>       0.22872805       0.47089156       0.20281737 </v>
   </varray>
  </structure>
  <varray name="forces" >
   <v>      -0.38850106      -0.31039606       0.44272930 </v>
   <v>       0.19241403       0.25947420      -0.23006431 </v>
   <v>      -0.03870881      -0.05116399       0.20351071 </v>
   <v>       0.03939860      -0.12096515      -0.06146017 </v>
   <v>      -0.15611745       0.03970643       0.09522901 </v>
   <v>      -0.20796233       0.15313089      -0.05235497 </v>
   <v>       0.00964511       0.04397610       0.12287265 </v>
   <v>      -0.03498910      -0.04971804       0.00492092 </v>
   <v>       0.05225749      -0.13549336       0.21855811 </v>
   <v>       0.01254953      -0.01539957       0.05408077 </v>
   <v>      -0.18922532       0.18700088       0.21985922 </v>
   <v>       0.13075625       0.05832143      -0.05093616 </v>
   <v>       0.12667977       0.06683148      -0.14644900 </v>
   <v>       0.06749819      -0.03295115      -0.14103886 </v>
   <v>       0.11335797      -0.11046495      -0.03872143 </v>
   <v>       0.31046990      -0.33367591       0.14982990 </v>
   <v>       0.06896338       0.03685746      -0.01104824 </v>
   <v>       0.10570960       0.16356323       0.02725882 </v>
   <v>       0.04284513      -0.21798380      -0.10775118 </v>
   <v>      -0.04478593      -0.05920438      -0.00479755 </v>
   <v>      -0.16465738       0.16436505       0.03695536 </v>
   <v>      -0.34314665       0.41661983      -0.23873521 </v>
   <v>       0.39516053      -0.18904399      -0.13579961 </v>
   <v>       0.05586084      -0.08414630      -0.20155888 </v>
   <v>      -0.09071343       0.08752199       0.07760764 </v>
   <v>      -0.16490734       0.10437207       0.02905940 </v>
   <v>      -0.06043540       0.12028841      -0.18614364 </v>
   <v>       0.00879400       0.05183262      -0.02144302 </v>
   <v>       0.15178990      -0.24325543      -0.05416959 </v>
  </varray>
  <varray name="stress" >
   <v>      19.48964418      -0.68942611       0.24576096 </v>
   <v>      -0.68942590      15.98928711       2.47682904 </v>
   <v>       0.24576103       2.47682888      17.75467997 </v>
  </varray>
  <energy>
   <i name="e_fr_energy">   -330.86457335 </i>
   <i name="e_wo_entrp">   -330.85836311 </i>
   <i name="e_0_energy">     -0.01863071 </i>
  </energy>
  <time name="totalsc">  337.72  338.25</time>
 </calculation>
 <calculation>
  <scstep>
   <time name="dav">   18.88   18.99</time>
   <time name="total">   19.48   19.61</time>
   <energy>
    <i name="alphaZ">   1325.65441089 </i>
    <i name="ewald"> -11811.16546730 </i>
    <i name="hartreedc">  -2852.52013890 </i>
    <i name="XCdc">   -833.12413119 </i>
    <i name="pawpsdc">  21350.26984272 </i>
    <i name="pawaedc"> -19862.07634015 </i>
    <i name="eentropy">     -0.01602157 </i>
    <i name="bandstr">   -728.11651578 </i>
    <i name="atom">  13080.25727947 </i>
    <i name="e_fr_energy">   -330.83708181 </i>
    <i name="e_wo_entrp">   -330.82106025 </i>
    <i name="e_0_energy">   -330.83174129 </i>
   </energy>
  </scstep>
  <scstep>
   <time name="dav">   24.24   24.28</time>
   <time name="total">   24.84   24.89</time>
   <energy>
    <i name="e_fr_energy">   -330.96119851 </i>
    <i name="e_wo_entrp">   -330.94381414 </i>
    <i name="e_0_energy">   -330.95540372 </i>
   </energy>
  </scstep>
  <scstep>
   <time name="dav">   26.11   26.15</time>
   <time name="total">   26.71   26.75</time>
   <energy>
    <i name="e_fr_energy">   -330.94664836 </i>
    <i name="e_wo_entrp">   -330.93050511 </i>
    <i name="e_0_energy">   -330.94126727 </i>
   </energy>
  </scstep>
  <scstep>
   <time name="dav">   26.52   26.56</time>
   <time name="total">   27.13   27.17</time>
   <energy>
    <i name="e_fr_energy">   -330.93061415 </i>
    <i name="e_wo_entrp">   -330.91350355 </i>
    <i name="e_0_energy">   -330.92491062 </i>
   </energy>
  </scstep>
  <scstep>
   <time name="dav">   25.18   25.22</time>
   <time name="total">   25.78   25.83</time>
   <energy>
    <i name="e_fr_energy">   -330.92567102 </i>
    <i name="e_wo_entrp">   -330.90881282 </i>
    <i name="e_0_energy">   -330.92005162 </i>
   </energy>
  </scstep>
  <scstep>
   <time name="dav">   25.89   25.93</time>
   <time name="total">   26.49   26.53</time>
   <energy>
    <i name="e_fr_energy">   -330.92488435 </i>
    <i name="e_wo_entrp">   -330.90802518 </i>
    <i name="e_0_energy">   -330.91926463 </i>
   </energy>
  </scstep>
  <scstep>
   <time name="dav">   27.39   27.43</time>
   <time name="total">   27.99   28.03</time>
   <energy>
    <i name="e_fr_energy">   -330.92271915 </i>
    <i name="e_wo_entrp">   -330.90574003 </i>
    <i name="e_0_energy">   -330.91705944 </i>
   </energy>
  </scstep>
  <scstep>
   <time name="dav">   24.59   24.62</time>
   <time name="total">   25.19   25.23</time>
   <energy>
    <i name="e_fr_energy">   -330.92233717 </i>
    <i name="e_wo_entrp">   -330.90535626 </i>
    <i name="e_0_energy">   -330.91667687 </i>
   </energy>
  </scstep>
  <scstep>
   <time name="dav">   23.23   23.26</time>
   <time name="total">   23.83   23.86</time>
   <energy>
    <i name="e_fr_energy">   -330.92230718 </i>
    <i name="e_wo_entrp">   -330.90539858 </i>
    <i name="e_0_energy">   -330.91667098 </i>
   </energy>
  </scstep>
  <scstep>
   <time name="dav">   19.11   19.14</time>
   <time name="total">   19.15   19.18</time>
   <energy>
    <i name="alphaZ">   1325.65441089 </i>
    <i name="ewald"> -11811.16546730 </i>
    <i name="hartreedc">  -2861.16466411 </i>
    <i name="XCdc">   -832.82406360 </i>
    <i name="pawpsdc">  21157.11729095 </i>
    <i name="pawaedc"> -19668.90695211 </i>
    <i name="eentropy">     -0.01698157 </i>
    <i name="bandstr">   -719.87319050 </i>
    <i name="atom">  13080.25727947 </i>
    <i name="e_fr_energy">   -330.92233788 </i>
    <i name="e_wo_entrp">   -330.90535631 </i>
    <i name="e_0_energy">   -330.91667736 </i>
   </energy>
  </scstep>
  <structure>
   <crystal>
    <varray name="basis" >
     <v>      -3.17479542      -3.18982067      -3.20094227 </v>
     <v>       1.55854943       1.53161915      -7.91020279 </v>
     <v>       7.93154472      -7.95575337      -1.61382643 </v>
    </varray>
    <i name="volume">    478.32427080 </i>
    <varray name="rec_basis" >
     <v>      -0.13673442      -0.12590810      -0.05131987 </v>
     <v>       0.04247765       0.06378933      -0.10569837 </v>
     <v>       0.06300068      -0.06293242       0.00022770 </v>
    </varray>
   </crystal>
   <varray name="positions" >
    <v>       0.97587407       0.91432423       0.39568985 </v>
    <v>       0.61912038       0.28070953       0.40073093 </v>
    <v>       0.49852026       0.00499372      -0.00251213 </v>
    <v>      -0.00016553       0.00121586       0.00349612 </v>
    <v>       0.09499361       0.20828145       0.79905191 </v>
    <v>       0.03827671       0.06839965       0.59461321 </v>
    <v>       0.90102012       0.79533359       0.20531005 </v>
    <v>       0.80603507       0.59141771       0.39808422 </v>
    <v>       0.73365594       0.46714031       0.20023103 </v>
    <v>       0.66009218       0.34169118      -0.00040652 </v>
    <v>       0.37336464       0.72393581       0.59632419 </v>
    <v>       0.12747547       0.27489611       0.39808576 </v>
    <v>       0.83496344       0.66193740       0.00552025 </v>
    <v>       0.93106244       0.86879958       0.79802517 </v>
    <v>       0.56747897       0.13348888       0.19781650 </v>
    <v>       0.40413728       0.78320472       0.20531103 </v>
    <v>       0.44004455       0.85623590       0.79655591 </v>
    <v>       0.85409172       0.73506918       0.59974071 </v>
    <v>       0.47043372       0.93443065       0.40664978 </v>
    <v>       0.17259350       0.33333939       0.00094783 </v>
    <v>       0.27063614       0.53521022       0.79717986 </v>
    <v>       0.20267366       0.40070607       0.59114320 </v>
    <v>       0.06293667       0.14245050       0.20674364 </v>
    <v>       0.76865661       0.52658846       0.79904731 </v>
    <v>       0.69688529       0.41287363       0.60274669 </v>
    <v>       0.59446391       0.20375113       0.79671748 </v>
    <v>       0.53810290       0.07107803       0.60070007 </v>
    <v>       0.33504009       0.65645758       0.00274263 </v>
    <v>       0.22753618       0.47203951       0.20371331 </v>
   </varray>
  </structure>
  <varray name="forces" >
   <v>      -0.19429541      -0.31828453       0.16669373 </v>
   <v>       0.00887142       0.13441515      -0.09619105 </v>
   <v>      -0.05265143      -0.15921312       0.33828006 </v>
   <v>      -0.02333245      -0.08222410      -0.01775830 </v>
   <v>      -0.27998079      -0.05542723       0.26980038 </v>
   <v>      -0.10511592       0.11031186      -0.00682980 </v>
   <v>      -0.10035314       0.24846851       0.09584489 </v>
   <v>       0.09840286       0.00663759      -0.14724517 </v>
   <v>       0.04238400      -0.15464294       0.28718730 </v>
   <v>      -0.09630277      -0.13051334       0.21571121 </v>
   <v>       0.00395965       0.24671532       0.05345250 </v>
   <v>       0.10795203      -0.08112865       0.07949743 </v>
   <v>       0.09938887       0.22098952      -0.23710859 </v>
   <v>       0.11793041      -0.08427288      -0.17570431 </v>
   <v>       0.20314144      -0.16342719      -0.06858865 </v>
   <v>       0.33898150      -0.17015874      -0.12669260 </v>
   <v>       0.23037630       0.08220599      -0.17270290 </v>
   <v>       0.04047479       0.08541400      -0.03783849 </v>
   <v>      -0.05628487      -0.10375957      -0.07543044 </v>
   <v>      -0.00549903      -0.00911306       0.04421889 </v>
   <v>      -0.11966774       0.17180731       0.12004513 </v>
   <v>      -0.20326295       0.33203511      -0.27832477 </v>
   <v>       0.28003272      -0.17260382       0.01647982 </v>
   <v>       0.17397728      -0.07905562      -0.41763924 </v>
   <v>      -0.28674899       0.03617191       0.41892885 </v>
   <v>      -0.21409604      -0.01279410       0.06868707 </v>
   <v>      -0.04397513       0.19013001      -0.10529905 </v>
   <v>       0.03424193       0.19027775      -0.25456241 </v>
   <v>       0.00145145      -0.27896113       0.04308850 </v>
  </varray>
  <varray name="stress" >
   <v>       9.73863821      -0.21806623      -0.94362743 </v>
   <v>      -0.21806631       4.74497510       1.27089248 </v>
   <v>      -0.94362734       1.27089255       7.15612224 </v>
  </varray>
  <energy>
   <i name="e_fr_energy">   -330.92233788 </i>
   <i name="e_wo_entrp">   -330.91667736 </i>
   <i name="e_0_energy">     -0.01698157 </i>
  </energy>
  <time name="totalsc">  264.43  264.93</time>
 </calculation>
 <calculation>
  <scstep>
   <time name="dav">   18.54   18.57</time>
   <time name="total">   19.15   19.18</time>
   <energy>
    <i name="alphaZ">   1317.25007412 </i>
    <i name="ewald"> -11783.95446504 </i>
    <i name="hartreedc">  -2857.34171506 </i>
    <i name="XCdc">   -833.63262534 </i>
    <i name="pawpsdc">  21153.14250390 </i>
    <i name="pawaedc"> -19665.15896209 </i>
    <i name="eentropy">     -0.01729224 </i>
    <i name="bandstr">   -741.52605345 </i>
    <i name="atom">  13080.25727947 </i>
    <i name="e_fr_energy">   -330.98125572 </i>
    <i name="e_wo_entrp">   -330.96396349 </i>
    <i name="e_0_energy">   -330.97549164 </i>
   </energy>
  </scstep>
  <scstep>
   <time name="dav">   24.98   25.02</time>
   <time name="total">   25.60   25.64</time>
   <energy>
    <i name="e_fr_energy">   -331.02490024 </i>
    <i name="e_wo_entrp">   -331.00733787 </i>
    <i name="e_0_energy">   -331.01904612 </i>
   </energy>
  </scstep>
  <scstep>
   <time name="dav">   25.54   25.58</time>
   <time name="total">   26.15   26.20</time>
   <energy>
    <i name="e_fr_energy">   -331.00555491 </i>
    <i name="e_wo_entrp">   -330.98859800 </i>
    <i name="e_0_energy">   -330.99990261 </i>
   </energy>
  </scstep>
  <scstep>
   <time name="dav">   25.86   25.90</time>
   <time name="total">   26.46   26.50</time>
   <energy>
    <i name="e_fr_energy">   -330.99092693 </i>
    <i name="e_wo_entrp">   -330.97363019 </i>
    <i name="e_0_energy">   -330.98516135 </i>
   </energy>
  </scstep>
  <scstep>
   <time name="dav">   25.15   25.18</time>
   <time name="total">   25.74   25.78</time>
   <energy>
    <i name="e_fr_energy">   -330.98182176 </i>
    <i name="e_wo_entrp">   -330.96460978 </i>
    <i name="e_0_energy">   -330.97608443 </i>
   </energy>
  </scstep>
  <scstep>
   <time name="dav">   26.99   27.03</time>
   <time name="total">   27.59   27.64</time>
   <energy>
    <i name="e_fr_energy">   -330.98038505 </i>
    <i name="e_wo_entrp">   -330.96282398 </i>
    <i name="e_0_energy">   -330.97453136 </i>
   </energy>
  </scstep>
  <scstep>
   <time name="dav">   26.11   26.15</time>
   <time name="total">   26.71   26.74</time>
   <energy>
    <i name="e_fr_energy">   -330.97992436 </i>
    <i name="e_wo_entrp">   -330.96255957 </i>
    <i name="e_0_energy">   -330.97413609 </i>
   </energy>
  </scstep>
  <scstep>
   <time name="dav">   23.79   23.82</time>
   <time name="total">   24.40   24.43</time>
   <energy>
    <i name="e_fr_energy">   -330.97969090 </i>
    <i name="e_wo_entrp">   -330.96226174 </i>
    <i name="e_0_energy">   -330.97388118 </i>
   </energy>
  </scstep>
  <scstep>
   <time name="dav">   21.09   21.11</time>
   <time name="total">   21.12   21.16</time>
   <energy>
    <i name="alphaZ">   1317.25007412 </i>
    <i name="ewald"> -11783.95446504 </i>
    <i name="hartreedc">  -2868.98845331 </i>
    <i name="XCdc">   -833.28412915 </i>
    <i name="pawpsdc">  20931.12889971 </i>
    <i name="pawaedc"> -19442.65328747 </i>
    <i name="eentropy">     -0.01742617 </i>
    <i name="bandstr">   -730.71823822 </i>
    <i name="atom">  13080.25727947 </i>
    <i name="e_fr_energy">   -330.97974606 </i>
    <i name="e_wo_entrp">   -330.96231989 </i>
    <i name="e_0_energy">   -330.97393734 </i>
   </energy>
  </scstep>
  <structure>
   <crystal>
    <varray name="basis" >
     <v>      -3.18280268      -3.19521143      -3.20792462 </v>
     <v>       1.56520924       1.53078737      -7.92675598 </v>
     <v>       7.95528787      -7.96786405      -1.62238475 </v>
    </varray>
    <i name="volume">    481.37608180 </i>
    <varray name="rec_basis" >
     <v>      -0.13636498      -0.12572343      -0.05120576 </v>
     <v>       0.04232958       0.06374163      -0.10548710 </v>
     <v>       0.06281640      -0.06284145       0.00026794 </v>
    </varray>
   </crystal>
   <varray name="positions" >
    <v>       0.97752646       0.91303878       0.39592593 </v>
    <v>       0.61877468       0.28122649       0.40050076 </v>
    <v>       0.49880943       0.00359283      -0.00231071 </v>
    <v>       0.00025164       0.00108684       0.00359461 </v>
    <v>       0.09591178       0.20699396       0.79864768 </v>
    <v>       0.03828892       0.06849044       0.59423477 </v>
    <v>       0.90036881       0.79538681       0.20466416 </v>
    <v>       0.80582616       0.59201985       0.39825441 </v>
    <v>       0.73362456       0.46603129       0.20058973 </v>
    <v>       0.66064258       0.34065523      -0.00034241 </v>
    <v>       0.37235769       0.72425498       0.59589327 </v>
    <v>       0.12724075       0.27461667       0.39843424 </v>
[...]
       <r>    4.6284    1.0000 </r>
       <r>    4.6658    1.0000 </r>
       <r>    4.6891    1.0000 </r>
       <r>    4.7546    1.0000 </r>
       <r>    4.8122    1.0000 </r>
       <r>    4.8789    1.0000 </r>
       <r>    4.9478    1.0000 </r>
       <r>    5.0251    1.0000 </r>
       <r>    5.0504    1.0000 </r>
       <r>    5.1307    1.0000 </r>
       <r>    5.1583    1.0000 </r>
       <r>    5.2206    1.0000 </r>
       <r>    5.2699    1.0000 </r>
       <r>    5.3226    1.0000 </r>
       <r>    5.3937    1.0000 </r>
       <r>    5.4559    1.0000 </r>
       <r>    5.5120    1.0000 </r>
       <r>    5.5297    1.0000 </r>
       <r>    5.6185    1.0000 </r>
       <r>    5.6876    1.0000 </r>
       <r>    5.7412    1.0000 </r>
       <r>    5.7776    1.0000 </r>
       <r>    5.8102    1.0000 </r>
       <r>    5.8813    1.0000 </r>
       <r>    5.9419    1.0000 </r>
       <r>    6.0062    1.0000 </r>
       <r>    6.0636    1.0000 </r>
       <r>    6.0890    1.0000 </r>
       <r>    6.1355    1.0000 </r>
       <r>    6.1707    1.0000 </r>
       <r>    6.2509    1.0002 </r>
       <r>    6.3338    1.0018 </r>
       <r>    6.3411    1.0021 </r>
       <r>    6.3895    1.0052 </r>
       <r>    6.4539    1.0143 </r>
       <r>    6.5317    1.0313 </r>
       <r>    6.5739    1.0354 </r>
       <r>    6.6038    1.0298 </r>
       <r>    6.7317    0.8191 </r>
       <r>    6.7960    0.5774 </r>
       <r>    6.8695    0.2763 </r>
       <r>    6.9659    0.0217 </r>
       <r>    7.1143   -0.0277 </r>
       <r>    7.1527   -0.0189 </r>
       <r>    7.3122   -0.0012 </r>
       <r>    7.3617   -0.0004 </r>
       <r>    7.3939   -0.0002 </r>
       <r>    7.4912   -0.0000 </r>
       <r>    7.6736   -0.0000 </r>
       <r>    7.7967   -0.0000 </r>
       <r>    7.9973   -0.0000 </r>
       <r>    8.0509   -0.0000 </r>
       <r>    8.1047   -0.0000 </r>
       <r>    8.2528   -0.0000 </r>
       <r>    8.5349   -0.0000 </r>
       <r>    8.6092   -0.0000 </r>
       <r>    8.7472   -0.0000 </r>
       <r>    8.8507   -0.0000 </r>
       <r>    8.8787   -0.0000 </r>
       <r>    8.9693   -0.0000 </r>
       <r>    9.0320   -0.0000 </r>
      </set>
     </set>
    </set>
   </array>
  </eigenvalues>
  <separator name="orbital magnetization" >
   <v name="MAGDIPOLOUT">      0.00000000      0.00000000      0.00000000</v>
  </separator>
  <dos>
   <i name="efermi">      6.81441873 </i>
   <total>
    <array>
     <dimension dim="1">gridpoints</dimension>
     <dimension dim="2">spin</dimension>
     <field>energy</field>
     <field>total</field>
     <field>integrated</field>
     <set>
      <set comment="spin 1">
       <r>   -50.2822     0.0000     0.0000 </r>
       <r>   -50.0743     0.0000     0.0000 </r>
       <r>   -49.8664     0.0000     0.0000 </r>
       <r>   -49.6585     0.0000     0.0000 </r>
       <r>   -49.4506     0.0000     0.0000 </r>
       <r>   -49.2427    -0.0000    -0.0000 </r>
       <r>   -49.0348    -0.0000    -0.0000 </r>
       <r>   -48.8269    -0.0000    -0.0000 </r>
       <r>   -48.6190    -0.0000    -0.0000 </r>
       <r>   -48.4111    -0.0000    -0.0000 </r>
       <r>   -48.2032    -0.0000    -0.0000 </r>
       <r>   -47.9953    -0.0055    -0.0011 </r>
       <r>   -47.7874    -0.3153    -0.0667 </r>
       <r>   -47.5795     0.5117     0.0397 </r>
       <r>   -47.3716    15.5796     3.2786 </r>
       <r>   -47.1637    25.0510     8.4866 </r>
       <r>   -46.9558    14.3433    11.4685 </r>
       <r>   -46.7479     2.9720    12.0864 </r>
       <r>   -46.5400    -0.3833    12.0067 </r>
       <r>   -46.3321    -0.0320    12.0000 </r>
       <r>   -46.1242    -0.0002    12.0000 </r>
       <r>   -45.9163    -0.0000    12.0000 </r>
       <r>   -45.7085    -0.0000    12.0000 </r>
       <r>   -45.5006     0.0000    12.0000 </r>
       <r>   -45.2927     0.0000    12.0000 </r>
       <r>   -45.0848     0.0000    12.0000 </r>
       <r>   -44.8769     0.0000    12.0000 </r>
       <r>   -44.6690     0.0000    12.0000 </r>
       <r>   -44.4611     0.0000    12.0000 </r>
       <r>   -44.2532     0.0000    12.0000 </r>
       <r>   -44.0453     0.0000    12.0000 </r>
       <r>   -43.8374     0.0000    12.0000 </r>
       <r>   -43.6295     0.0000    12.0000 </r>
       <r>   -43.4216     0.0000    12.0000 </r>
       <r>   -43.2137     0.0000    12.0000 </r>
       <r>   -43.0058     0.0000    12.0000 </r>
       <r>   -42.7979     0.0000    12.0000 </r>
       <r>   -42.5900     0.0000    12.0000 </r>
       <r>   -42.3821     0.0000    12.0000 </r>
       <r>   -42.1742     0.0000    12.0000 </r>
       <r>   -41.9663     0.0000    12.0000 </r>
       <r>   -41.7584     0.0000    12.0000 </r>
       <r>   -41.5505     0.0000    12.0000 </r>
       <r>   -41.3426     0.0000    12.0000 </r>
       <r>   -41.1347     0.0000    12.0000 </r>
       <r>   -40.9269     0.0000    12.0000 </r>
       <r>   -40.7190     0.0000    12.0000 </r>
       <r>   -40.5111     0.0000    12.0000 </r>
       <r>   -40.3032     0.0000    12.0000 </r>
       <r>   -40.0953     0.0000    12.0000 </r>
       <r>   -39.8874     0.0000    12.0000 </r>
       <r>   -39.6795     0.0000    12.0000 </r>
       <r>   -39.4716     0.0000    12.0000 </r>
       <r>   -39.2637     0.0000    12.0000 </r>
       <r>   -39.0558     0.0000    12.0000 </r>
       <r>   -38.8479     0.0000    12.0000 </r>
       <r>   -38.6400     0.0000    12.0000 </r>
       <r>   -38.4321     0.0000    12.0000 </r>
       <r>   -38.2242     0.0000    12.0000 </r>
       <r>   -38.0163     0.0000    12.0000 </r>
       <r>   -37.8084     0.0000    12.0000 </r>
       <r>   -37.6005     0.0000    12.0000 </r>
       <r>   -37.3926     0.0000    12.0000 </r>
       <r>   -37.1847     0.0000    12.0000 </r>
       <r>   -36.9768     0.0000    12.0000 </r>
       <r>   -36.7689     0.0000    12.0000 </r>
       <r>   -36.5610     0.0000    12.0000 </r>
       <r>   -36.3531     0.0000    12.0000 </r>
       <r>   -36.1453     0.0000    12.0000 </r>
       <r>   -35.9374     0.0000    12.0000 </r>
       <r>   -35.7295     0.0000    12.0000 </r>
       <r>   -35.5216     0.0000    12.0000 </r>
       <r>   -35.3137     0.0000    12.0000 </r>
       <r>   -35.1058     0.0000    12.0000 </r>
       <r>   -34.8979     0.0000    12.0000 </r>
       <r>   -34.6900     0.0000    12.0000 </r>
       <r>   -34.4821     0.0000    12.0000 </r>
       <r>   -34.2742     0.0000    12.0000 </r>
       <r>   -34.0663     0.0000    12.0000 </r>
       <r>   -33.8584     0.0000    12.0000 </r>
       <r>   -33.6505     0.0000    12.0000 </r>
       <r>   -33.4426     0.0000    12.0000 </r>
       <r>   -33.2347     0.0000    12.0000 </r>
       <r>   -33.0268     0.0000    12.0000 </r>
       <r>   -32.8189     0.0000    12.0000 </r>
       <r>   -32.6110     0.0000    12.0000 </r>
       <r>   -32.4031     0.0000    12.0000 </r>
       <r>   -32.1952     0.0000    12.0000 </r>
       <r>   -31.9873     0.0000    12.0000 </r>
       <r>   -31.7794     0.0000    12.0000 </r>
       <r>   -31.5715     0.0000    12.0000 </r>
       <r>   -31.3637     0.0000    12.0000 </r>
       <r>   -31.1558     0.0000    12.0000 </r>
       <r>   -30.9479     0.0000    12.0000 </r>
       <r>   -30.7400     0.0000    12.0000 </r>
       <r>   -30.5321     0.0000    12.0000 </r>
       <r>   -30.3242     0.0000    12.0000 </r>
       <r>   -30.1163     0.0000    12.0000 </r>
       <r>   -29.9084     0.0000    12.0000 </r>
       <r>   -29.7005     0.0000    12.0000 </r>
       <r>   -29.4926     0.0000    12.0000 </r>
       <r>   -29.2847     0.0000    12.0000 </r>
       <r>   -29.0768     0.0000    12.0000 </r>
       <r>   -28.8689     0.0000    12.0000 </r>
       <r>   -28.6610     0.0000    12.0000 </r>
       <r>   -28.4531     0.0000    12.0000 </r>
       <r>   -28.2452     0.0000    12.0000 </r>
       <r>   -28.0373     0.0000    12.0000 </r>
       <r>   -27.8294     0.0000    12.0000 </r>
       <r>   -27.6215     0.0000    12.0000 </r>
       <r>   -27.4136     0.0000    12.0000 </r>
       <r>   -27.2057     0.0000    12.0000 </r>
       <r>   -26.9978     0.0000    12.0000 </r>
       <r>   -26.7899     0.0000    12.0000 </r>
       <r>   -26.5821     0.0000    12.0000 </r>
       <r>   -26.3742     0.0000    12.0000 </r>
       <r>   -26.1663     0.0000    12.0000 </r>
       <r>   -25.9584     0.0000    12.0000 </r>
       <r>   -25.7505     0.0000    12.0000 </r>
       <r>   -25.5426    -0.0000    12.0000 </r>
       <r>   -25.3347    -0.0000    12.0000 </r>
       <r>   -25.1268    -0.0000    12.0000 </r>
       <r>   -24.9189    -0.0000    12.0000 </r>
       <r>   -24.7110    -0.0000    12.0000 </r>
       <r>   -24.5031    -0.0005    11.9999 </r>
       <r>   -24.2952    -0.0592    11.9876 </r>
       <r>   -24.0873    -0.5137    11.8808 </r>
       <r>   -23.8794     4.2933    12.7734 </r>
       <r>   -23.6715    23.0548    17.5664 </r>
       <r>   -23.4636    55.9966    29.2078 </r>
       <r>   -23.2557    46.0259    38.7764 </r>
       <r>   -23.0478    30.0055    45.0144 </r>
       <r>   -22.8399    10.7762    47.2547 </r>
       <r>   -22.6320     3.0530    47.8894 </r>
       <r>   -22.4241     0.6479    48.0241 </r>
       <r>   -22.2162    -0.1101    48.0012 </r>
       <r>   -22.0083    -0.0059    48.0000 </r>
       <r>   -21.8005    -0.0000    48.0000 </r>
       <r>   -21.5926    -0.0000    48.0000 </r>
       <r>   -21.3847    -0.0000    48.0000 </r>
       <r>   -21.1768     0.0000    48.0000 </r>
       <r>   -20.9689     0.0000    48.0000 </r>
       <r>   -20.7610     0.0000    48.0000 </r>
       <r>   -20.5531     0.0000    48.0000 </r>
       <r>   -20.3452     0.0000    48.0000 </r>
       <r>   -20.1373     0.0000    48.0000 </r>
       <r>   -19.9294     0.0000    48.0000 </r>
       <r>   -19.7215     0.0000    48.0000 </r>
       <r>   -19.5136     0.0000    48.0000 </r>
       <r>   -19.3057     0.0000    48.0000 </r>
       <r>   -19.0978     0.0000    48.0000 </r>
       <r>   -18.8899     0.0000    48.0000 </r>
       <r>   -18.6820     0.0000    48.0000 </r>
       <r>   -18.4741     0.0000    48.0000 </r>
       <r>   -18.2662     0.0000    48.0000 </r>
       <r>   -18.0583     0.0000    48.0000 </r>
       <r>   -17.8504     0.0000    48.0000 </r>
       <r>   -17.6425     0.0000    48.0000 </r>
       <r>   -17.4346     0.0000    48.0000 </r>
       <r>   -17.2267     0.0000    48.0000 </r>
       <r>   -17.0189     0.0000    48.0000 </r>
       <r>   -16.8110     0.0000    48.0000 </r>
       <r>   -16.6031     0.0000    48.0000 </r>
       <r>   -16.3952     0.0000    48.0000 </r>
       <r>   -16.1873     0.0000    48.0000 </r>
       <r>   -15.9794     0.0000    48.0000 </r>
       <r>   -15.7715     0.0000    48.0000 </r>
       <r>   -15.5636     0.0000    48.0000 </r>
       <r>   -15.3557     0.0000    48.0000 </r>
       <r>   -15.1478     0.0000    48.0000 </r>
       <r>   -14.9399     0.0000    48.0000 </r>
       <r>   -14.7320     0.0000    48.0000 </r>
       <r>   -14.5241     0.0000    48.0000 </r>
       <r>   -14.3162     0.0000    48.0000 </r>
       <r>   -14.1083     0.0000    48.0000 </r>
       <r>   -13.9004     0.0000    48.0000 </r>
       <r>   -13.6925     0.0000    48.0000 </r>
       <r>   -13.4846     0.0000    48.0000 </r>
       <r>   -13.2767     0.0000    48.0000 </r>
       <r>   -13.0688     0.0000    48.0000 </r>
       <r>   -12.8609     0.0000    48.0000 </r>
       <r>   -12.6530     0.0000    48.0000 </r>
       <r>   -12.4451     0.0000    48.0000 </r>
       <r>   -12.2373     0.0000    48.0000 </r>
       <r>   -12.0294     0.0000    48.0000 </r>
       <r>   -11.8215     0.0000    48.0000 </r>
       <r>   -11.6136     0.0000    48.0000 </r>
       <r>   -11.4057     0.0000    48.0000 </r>
       <r>   -11.1978     0.0000    48.0000 </r>
       <r>   -10.9899     0.0000    48.0000 </r>
       <r>   -10.7820     0.0000    48.0000 </r>
       <r>   -10.5741     0.0000    48.0000 </r>
       <r>   -10.3662     0.0000    48.0000 </r>
       <r>   -10.1583     0.0000    48.0000 </r>
       <r>    -9.9504     0.0000    48.0000 </r>
       <r>    -9.7425     0.0000    48.0000 </r>
       <r>    -9.5346     0.0000    48.0000 </r>
       <r>    -9.3267     0.0000    48.0000 </r>
       <r>    -9.1188     0.0000    48.0000 </r>
       <r>    -8.9109     0.0000    48.0000 </r>
       <r>    -8.7030     0.0000    48.0000 </r>
       <r>    -8.4951     0.0000    48.0000 </r>
       <r>    -8.2872     0.0000    48.0000 </r>
       <r>    -8.0793     0.0000    48.0000 </r>
       <r>    -7.8714     0.0000    48.0000 </r>
       <r>    -7.6635     0.0000    48.0000 </r>
       <r>    -7.4557     0.0000    48.0000 </r>
       <r>    -7.2478     0.0000    48.0000 </r>
       <r>    -7.0399     0.0000    48.0000 </r>
       <r>    -6.8320     0.0000    48.0000 </r>
       <r>    -6.6241     0.0000    48.0000 </r>
       <r>    -6.4162     0.0000    48.0000 </r>
       <r>    -6.2083     0.0000    48.0000 </r>
       <r>    -6.0004     0.0000    48.0000 </r>
       <r>    -5.7925     0.0000    48.0000 </r>
       <r>    -5.5846     0.0000    48.0000 </r>
       <r>    -5.3767     0.0000    48.0000 </r>
       <r>    -5.1688     0.0000    48.0000 </r>
       <r>    -4.9609     0.0000    48.0000 </r>
       <r>    -4.7530     0.0000    48.0000 </r>
       <r>    -4.5451     0.0000    48.0000 </r>
       <r>    -4.3372     0.0000    48.0000 </r>
       <r>    -4.1293     0.0000    48.0000 </r>
       <r>    -3.9214     0.0000    48.0000 </r>
       <r>    -3.7135     0.0000    48.0000 </r>
       <r>    -3.5056     0.0000    48.0000 </r>
       <r>    -3.2977     0.0000    48.0000 </r>
       <r>    -3.0898     0.0000    48.0000 </r>
       <r>    -2.8819     0.0000    48.0000 </r>
       <r>    -2.6741     0.0000    48.0000 </r>
       <r>    -2.4662     0.0000    48.0000 </r>
       <r>    -2.2583    -0.0000    48.0000 </r>
       <r>    -2.0504    -0.0000    48.0000 </r>
       <r>    -1.8425    -0.0000    48.0000 </r>
       <r>    -1.6346    -0.0000    48.0000 </r>
       <r>    -1.4267    -0.0000    48.0000 </r>
       <r>    -1.2188    -0.0000    48.0000 </r>
       <r>    -1.0109    -0.0004    47.9999 </r>
       <r>    -0.8030    -0.0101    47.9978 </r>
       <r>    -0.5951     0.0288    48.0038 </r>
       <r>    -0.3872     0.4567    48.0987 </r>
       <r>    -0.1793     1.1556    48.3390 </r>
       <r>     0.0286     1.6873    48.6898 </r>
       <r>     0.2365     1.5773    49.0177 </r>
       <r>     0.4444     1.2298    49.2733 </r>
       <r>     0.6523     3.0416    49.9057 </r>
       <r>     0.8602     3.3489    50.6019 </r>
       <r>     1.0681     2.5330    51.1285 </r>
       <r>     1.2760     2.6009    51.6692 </r>
       <r>     1.4839     4.8375    52.6749 </r>
       <r>     1.6918     3.8644    53.4783 </r>
       <r>     1.8997     4.2898    54.3701 </r>
       <r>     2.1075     7.3815    55.9047 </r>
       <r>     2.3154    10.4992    58.0875 </r>
       <r>     2.5233    14.9898    61.2038 </r>
       <r>     2.7312    17.8742    64.9198 </r>
       <r>     2.9391    22.3135    69.5586 </r>
       <r>     3.1470    26.2087    75.0073 </r>
       <r>     3.3549    29.1684    81.0713 </r>
       <r>     3.5628    29.8249    87.2717 </r>
       <r>     3.7707    30.2806    93.5669 </r>
       <r>     3.9786    30.8691    99.9845 </r>
       <r>     4.1865    28.4847   105.9063 </r>
       <r>     4.3944    25.2166   111.1488 </r>
       <r>     4.6023    27.4066   116.8465 </r>
       <r>     4.8102    33.7994   123.8732 </r>
       <r>     5.0181    39.5330   132.0920 </r>
       <r>     5.2260    41.1803   140.6532 </r>
       <r>     5.4339    38.8708   148.7342 </r>
       <r>     5.6418    36.5766   156.3384 </r>
       <r>     5.8497    37.0391   164.0386 </r>
       <r>     6.0576    38.7742   172.0996 </r>
       <r>     6.2655    38.6987   180.1449 </r>
       <r>     6.4734    37.4848   187.9378 </r>
       <r>     6.6813    32.9830   194.7949 </r>
       <r>     6.8891    31.3966   201.3221 </r>
       <r>     7.0970    27.2080   206.9785 </r>
       <r>     7.3049    20.7927   211.3012 </r>
       <r>     7.5128    16.9598   214.8271 </r>
       <r>     7.7207    16.6423   218.2870 </r>
       <r>     7.9286    17.3255   221.8889 </r>
       <r>     8.1365    19.4232   225.9269 </r>
       <r>     8.3444    21.0292   230.2988 </r>
       <r>     8.5523    19.3435   234.3202 </r>
       <r>     8.7602    15.0928   237.4579 </r>
       <r>     8.9681     8.4808   239.2210 </r>
       <r>     9.1760     3.3791   239.9235 </r>
       <r>     9.3839     0.4317   240.0133 </r>
       <r>     9.5918    -0.0556   240.0017 </r>
       <r>     9.7997    -0.0082   240.0000 </r>
       <r>    10.0076    -0.0001   240.0000 </r>
       <r>    10.2155    -0.0000   240.0000 </r>
       <r>    10.4234    -0.0000   240.0000 </r>
       <r>    10.6313    -0.0000   240.0000 </r>
       <r>    10.8392     0.0000   240.0000 </r>
       <r>    11.0471     0.0000   240.0000 </r>
       <r>    11.2550     0.0000   240.0000 </r>
       <r>    11.4629     0.0000   240.0000 </r>
       <r>    11.6707     0.0000   240.0000 </r>
       <r>    11.8786     0.0000   240.0000 </r>
       <r>    12.0865     0.0000   240.0000 </r>
      </set>
     </set>
    </array>
   </total>
  </dos>
 </calculation>
 <structure name="finalpos" >
  <crystal>
   <varray name="basis" >
    <v>      -3.18454896      -3.19172160      -3.21351890 </v>
    <v>       1.56685222       1.49064217      -7.90305531 </v>
    <v>       7.96696224      -7.93974433      -1.65182008 </v>
   </varray>
   <i name="volume">    478.50772531 </i>
   <varray name="rec_basis" >
    <v>      -0.13627891      -0.12617390      -0.05081693 </v>
    <v>       0.04230312       0.06449694      -0.10598121 </v>
    <v>       0.06272534      -0.06311868       0.00053068 </v>
   </varray>
  </crystal>
  <varray name="positions" >
   <v>       0.99674095       0.89528663       0.40165632 </v>
   <v>       0.62172413       0.27947645       0.39891692 </v>
   <v>       0.49804239       0.00243301      -0.00035868 </v>
   <v>       0.00112238       0.00068450       0.00597839 </v>
   <v>       0.09651694       0.20883634       0.79599150 </v>
   <v>       0.03865914       0.07057044       0.59369322 </v>
   <v>       0.89978269       0.79219677       0.20524640 </v>
   <v>       0.79873833       0.59364874       0.39846635 </v>
   <v>       0.73451760       0.46252253       0.19968387 </v>
   <v>       0.66109802       0.33926538      -0.00066513 </v>
   <v>       0.36785422       0.72777195       0.59481471 </v>
   <v>       0.12762831       0.27333421       0.39830055 </v>
   <v>       0.83059468       0.66509688       0.00538928 </v>
   <v>       0.92988953       0.87315428       0.79956609 </v>
   <v>       0.56762807       0.13121005       0.20043579 </v>
   <v>       0.40290743       0.78093151       0.21029495 </v>
   <v>       0.43636239       0.86133941       0.79742656 </v>
   <v>       0.84914721       0.73761304       0.60193547 </v>
   <v>       0.47771901       0.93366058       0.40867525 </v>
   <v>       0.17200659       0.33235889       0.00021803 </v>
   <v>       0.26931366       0.53582626       0.79292128 </v>
   <v>       0.20010328       0.41413706       0.57965053 </v>
   <v>       0.06308549       0.13855182       0.21273439 </v>
   <v>       0.76723795       0.53073847       0.79897561 </v>
   <v>       0.69740371       0.41176165       0.59957414 </v>
   <v>       0.59635372       0.20445718       0.79475574 </v>
   <v>       0.53688912       0.07524555       0.59913669 </v>
   <v>       0.33219665       0.65866602       0.00219618 </v>
   <v>       0.22873641       0.46922439       0.20438960 </v>
  </varray>
 </structure>
</modeling>
