SQS with 1 vacancy for VFE and VRV      
           1
    -3.190000   -3.190000   -3.190000
     1.595000    1.595000   -7.975000
     7.975000   -7.975000   -1.595000
   Nb   Mo   Ta   Ti   W 
   6   6   5   6   6
Direct configuration=     1
   0.96666667  0.93333333  0.40000000
   0.63333333  0.26666667  0.40000000
   0.50000000  0.00000000  0.00000000
   0.00000000  0.00000000  0.00000000
   0.10000000  0.20000000  0.80000000
   0.03333333  0.06666667  0.60000000
   0.90000000  0.80000000  0.20000000
   0.80000000  0.60000000  0.40000000
   0.73333333  0.46666667  0.20000000
   0.66666667  0.33333333  0.00000000
   0.36666667  0.73333333  0.60000000
   0.13333333  0.26666667  0.40000000
   0.83333333  0.66666667  0.00000000
   0.93333333  0.86666667  0.80000000
   0.56666667  0.13333333  0.20000000
   0.40000000  0.80000000  0.20000000
   0.43333333  0.86666667  0.80000000
   0.86666667  0.73333333  0.60000000
   0.46666667  0.93333333  0.40000000
   0.16666667  0.33333333  0.00000000
   0.26666667  0.53333333  0.80000000
   0.20000000  0.40000000  0.60000000
   0.06666667  0.13333333  0.20000000
   0.76666667  0.53333333  0.80000000
   0.70000000  0.40000000  0.60000000
   0.60000000  0.20000000  0.80000000
   0.53333333  0.06666667  0.60000000
   0.33333333  0.66666667  0.00000000
   0.23333333  0.46666667  0.20000000
SQS with 1 vacancy for VFE and VRV      
           1
    -3.141318   -3.149735   -3.154402
     1.556050    1.543493   -7.840021
     7.849962   -7.864697   -1.583509
   Nb   Mo   Ta   Ti   W 
   6   6   5   6   6
Direct configuration=     2
   0.97036783  0.92470546  0.39782944
   0.62682694  0.27311313  0.40045327
   0.49935622  0.00284010 -0.00134605
  -0.00027909  0.00049927  0.00171813
   0.09725281  0.20444823  0.79961585
   0.03573331  0.06747018  0.59746737
   0.90055753  0.79769633  0.20263893
   0.80296684  0.59554757  0.39894378
   0.73352073  0.46734720  0.19986510
   0.66331886  0.33771678 -0.00029046
   0.37022589  0.72891502  0.59855688
   0.13053823  0.27067912  0.39893111
   0.83417438  0.66396019  0.00284507
   0.93184952  0.86780367  0.79893720
   0.56701382  0.13352903  0.19863660
   0.40245802  0.79154695  0.20201826
   0.43713985  0.86109816  0.79815241
   0.86030550  0.73418396  0.60003726
   0.46836363  0.93401125  0.40328344
   0.16960861  0.33346508  0.00052551
   0.26881835  0.53435454  0.79878312
   0.20129056  0.39971183  0.59603533
   0.06502955  0.13780634  0.20312824
   0.76743010  0.52967506  0.79948044
   0.69864761  0.40654898  0.60169949
   0.59719030  0.20182172  0.79844036
   0.53581071  0.06871704  0.60061074
   0.33428237  0.66139445  0.00154902
   0.23020100  0.46939336  0.20145415
SQS with 1 vacancy for VFE and VRV      
           1
    -3.154371   -3.160531   -3.163947
     1.566494    1.557304   -7.876214
     7.883489   -7.894273   -1.586590
   Nb   Mo   Ta   Ti   W 
   6   6   5   6   6
Direct configuration=     3
   0.96934906  0.92706419  0.39841882
   0.62860416  0.27134974  0.40033037
   0.49953396  0.00206352 -0.00097920
  -0.00020137  0.00036298  0.00125061
   0.09800505  0.20323175  0.79972096
   0.03508023  0.06725078  0.59815715
   0.90040484  0.79832645  0.20192032
   0.80215389  0.59676505  0.39923069
   0.73347058  0.46716122  0.19990199
   0.66423433  0.33651789 -0.00021094
   0.36925169  0.73012326  0.59894918
   0.13130244  0.26958165  0.39922248
   0.83394425  0.66470050  0.00207032
   0.93225357  0.86749242  0.79922648
   0.56691876  0.13347544  0.19900774
   0.40178033  0.79385817  0.20146750
   0.43609665  0.86262077  0.79865457
   0.86203567  0.73394999  0.60002638
   0.46790557  0.93382680  0.40239025
   0.16880950  0.33342983  0.00038295
   0.26823397  0.53407576  0.79911483
   0.20093661  0.39979036  0.59711444
   0.06548256  0.13658383  0.20227763
   0.76721747  0.53067504  0.79962115
   0.69902492  0.40475894  0.60123820
   0.59795528  0.20132295  0.79886480
   0.53514043  0.06815729  0.60044533
   0.33401864  0.66283588  0.00112645
   0.23105697  0.46864757  0.20105854
SQS with 1 vacancy for VFE and VRV      
           1
    -3.167880   -3.179903   -3.188415
     1.561240    1.540316   -7.898694
     7.915273   -7.934935   -1.604604
   Nb   Mo   Ta   Ti   W 
   6   6   5   6   6
Direct configuration=     4
   0.97366021  0.91863580  0.39660954
   0.62232847  0.27754085  0.40059648
   0.49886430  0.00400182 -0.00199423
  -0.00017599  0.00092761  0.00273821
   0.09601387  0.20657216  0.79927836
   0.03719801  0.06801094  0.59581005
   0.90081114  0.79634690  0.20416528
   0.80472043  0.59322760  0.39847069
   0.73359351  0.46714746  0.20011996
   0.66149419  0.33993993 -0.00033998
   0.37197048  0.72602979  0.59720967
   0.12877092  0.27309701  0.39847007
   0.83461843  0.66287304  0.00435522
   0.93146500  0.86835689  0.79843083
   0.56728953  0.13348425  0.19821869
   0.40333398  0.78681052  0.20401194
   0.43870610  0.85839674  0.79726366
   0.85677262  0.73468905  0.59983668
   0.46958300  0.93422740  0.40521213
   0.17131705  0.33337074  0.00075743
   0.26982602  0.53482649  0.79783347
   0.20208617  0.40039563  0.59315930
   0.06380258  0.14046561  0.20523673
   0.76816718  0.52797141  0.79924048
   0.69761503  0.41012770  0.60223861
   0.59564314  0.20292858  0.79744250
   0.53710621  0.07009030  0.60061480
   0.33469035  0.65861623  0.00219606
   0.22872805  0.47089156  0.20281737
SQS with 1 vacancy for VFE and VRV      
           1
    -3.174795   -3.189821   -3.200942
     1.558549    1.531619   -7.910203
     7.931545   -7.955753   -1.613826
   Nb   Mo   Ta   Ti   W 
   6   6   5   6   6
Direct configuration=     5
   0.97587407  0.91432423  0.39568985
   0.61912038  0.28070953  0.40073093
   0.49852026  0.00499372 -0.00251213
  -0.00016553  0.00121586  0.00349612
   0.09499361  0.20828145  0.79905191
   0.03827671  0.06839965  0.59461321
   0.90102012  0.79533359  0.20531005
   0.80603507  0.59141771  0.39808422
   0.73365594  0.46714031  0.20023103
   0.66009218  0.34169118 -0.00040652
   0.37336464  0.72393581  0.59632419
   0.12747547  0.27489611  0.39808576
   0.83496344  0.66193740  0.00552025
   0.93106244  0.86879958  0.79802517
   0.56747897  0.13348888  0.19781650
   0.40413728  0.78320472  0.20531103
   0.44004455  0.85623590  0.79655591
   0.85409172  0.73506918  0.59974071
   0.47043372  0.93443065  0.40664978
   0.17259350  0.33333939  0.00094783
   0.27063614  0.53521022  0.79717986
   0.20267366  0.40070607  0.59114320
   0.06293667  0.14245050  0.20674364
   0.76865661  0.52658846  0.79904731
   0.69688529  0.41287363  0.60274669
   0.59446391  0.20375113  0.79671748
   0.53810290  0.07107803  0.60070007
   0.33504009  0.65645758  0.00274263
   0.22753618  0.47203951  0.20371331
SQS with 1 vacancy for VFE and VRV      
           1
    -3.182803   -3.195211   -3.207925
     1.565209    1.530787   -7.926756
     7.955288   -7.967864   -1.622385
   Nb   Mo   Ta   Ti   W 
   6   6   5   6   6
Direct configuration=     6
   0.97752646  0.91303878  0.39592593
   0.61877468  0.28122649  0.40050076
   0.49880943  0.00359283 -0.00231071
   0.00025164  0.00108684  0.00359461
   0.09591178  0.20699396  0.79864768
   0.03828892  0.06849044  0.59423477
   0.90036881  0.79538681  0.20466416
   0.80582616  0.59201985  0.39825441
   0.73362456  0.46603129  0.20058973
   0.66064258  0.34065523 -0.00034241
   0.37235769  0.72425498  0.59589327
   0.12724075  0.27461667  0.39843424
   0.83411536  0.66320004  0.00528514
   0.93116799  0.86932025  0.79839606
   0.56737066  0.13364627  0.19848683
   0.40359650  0.78373340  0.20622153
   0.43907748  0.85722058  0.79683220
   0.85370707  0.73538735  0.59965995
   0.47113544  0.93439849  0.40671960
   0.17256877  0.33318129  0.00095258
   0.27029727  0.53500934  0.79665808
   0.20267500  0.40191408  0.59019067
   0.06244385  0.14240387  0.20755004
   0.76887054  0.52794582  0.79950673
   0.69727314  0.41128005  0.60215663
   0.59526673  0.20324637  0.79635978
   0.53773047  0.07168464  0.60027305
   0.33458657  0.65765052  0.00245152
   0.22849371  0.47138346  0.20421318
SQS with 1 vacancy for VFE and VRV      
           1
    -3.187791   -3.198570   -3.212275
     1.569358    1.530269   -7.937068
     7.970080   -7.975409   -1.627717
   Nb   Mo   Ta   Ti   W 
   6   6   5   6   6
Direct configuration=     7
   0.97855392  0.91223931  0.39607322
   0.61855957  0.28154808  0.40035750
   0.49898939  0.00272166 -0.00218507
   0.00051106  0.00100654  0.00365591
   0.09648229  0.20619370  0.79839688
   0.03829621  0.06854716  0.59399950
   0.89996341  0.79542038  0.20426259
   0.80569640  0.59239413  0.39836000
   0.73360538  0.46534149  0.20081301
   0.66098482  0.34001105 -0.00030219
   0.37173134  0.72445377  0.59562521
   0.12709512  0.27444269  0.39865091
   0.83358791  0.66398529  0.00513854
   0.93123389  0.86964372  0.79862647
   0.56730386  0.13374366  0.19890345
   0.40326103  0.78406149  0.20678728
   0.43847648  0.85783266  0.79700355
   0.85346786  0.73558525  0.59960962
   0.47157173  0.93437842  0.40676308
   0.17255341  0.33308299  0.00095558
   0.27008619  0.53488481  0.79633377
   0.20267504  0.40266585  0.58959824
   0.06213812  0.14237433  0.20805125
   0.76900386  0.52878944  0.79979192
   0.69751382  0.41028962  0.60179036
   0.59576555  0.20293276  0.79613767
   0.53749859  0.07206212  0.60000740
   0.33430436  0.65839246  0.00227018
   0.22908939  0.47097516  0.20452418
SQS with 1 vacancy for VFE and VRV      
           1
    -3.185056   -3.193682   -3.209226
     1.569128    1.523377   -7.926110
     7.966225   -7.962008   -1.630342
   Nb   Mo   Ta   Ti   W 
   6   6   5   6   6
Direct configuration=     8
   0.98008736  0.91092969  0.39626295
   0.61830823  0.28192555  0.40019671
   0.49918953  0.00176720 -0.00198615
   0.00080456  0.00092033  0.00382135
   0.09704819  0.20542051  0.79804993
   0.03831422  0.06857983  0.59366816
   0.89946291  0.79536189  0.20382553
   0.80552454  0.59277840  0.39848809
   0.73355198  0.46469633  0.20101456
   0.66134231  0.33935729 -0.00026904
   0.37103674  0.72460430  0.59526587
   0.12686162  0.27431414  0.39888749
   0.83287643  0.66483344  0.00504982
   0.93118586  0.87018218  0.79884081
   0.56719336  0.13384906  0.19938591
   0.40288840  0.78422652  0.20755488
   0.43782752  0.85854566  0.79711836
   0.85287401  0.73589756  0.59962310
   0.47227776  0.93433442  0.40691077
   0.17256846  0.33296642  0.00098233
   0.27000198  0.53475876  0.79583803
   0.20261653  0.40377416  0.58867467
   0.06174602  0.14235208  0.20882721
   0.76911055  0.52959732  0.80005942
   0.69783350  0.40931914  0.60141360
   0.59644185  0.20254776  0.79581078
   0.53726874  0.07254199  0.59968171
   0.33403571  0.65911247  0.00214978
   0.22972113  0.47050561  0.20485341
SQS with 1 vacancy for VFE and VRV      
           1
    -3.181601   -3.187508   -3.205375
     1.568837    1.514671   -7.912267
     7.961355   -7.945079   -1.633659
   Nb   Mo   Ta   Ti   W 
   6   6   5   6   6
Direct configuration=     9
   0.98202753  0.90927220  0.39650385
   0.61798999  0.28240339  0.39999311
   0.49944332  0.00055926 -0.00173403
   0.00117601  0.00081101  0.00403067
   0.09776376  0.20444255  0.79761167
   0.03833655  0.06862156  0.59324912
   0.89882938  0.79528849  0.20327275
   0.80530718  0.59326449  0.39864983
   0.73348499  0.46387977  0.20126978
   0.66179476  0.33852999 -0.00022671
   0.37015774  0.72479530  0.59481123
   0.12656667  0.27415122  0.39918670
   0.83197614  0.66590680  0.00493703
   0.93112516  0.87086324  0.79911157
   0.56705420  0.13398184  0.19999597
   0.40241805  0.78443443  0.20852546
   0.43700662  0.85944777  0.79726307
   0.85212283  0.73629278  0.59963987
   0.47317089  0.93427847  0.40709769
   0.17258757  0.33281890  0.00101622
   0.26989489  0.53459989  0.79521115
   0.20254086  0.40517765  0.58750608
   0.06125114  0.14232303  0.20980847
   0.76924548  0.53061918  0.80039729
   0.69823773  0.40809160  0.60093772
   0.59729692  0.20206092  0.79539770
   0.53697742  0.07314960  0.59926954
   0.33369548  0.66002369  0.00199708
   0.23052073  0.46991099  0.20527013
SQS with 1 vacancy for VFE and VRV      
           1
    -3.180682   -3.186623   -3.205381
     1.566974    1.511442   -7.908087
     7.959775   -7.943144   -1.634106
   Nb   Mo   Ta   Ti   W 
   6   6   5   6   6
Direct configuration=    10
   0.98278336  0.90850336  0.39664196
   0.61798009  0.28240563  0.40000295
   0.49929745  0.00089365 -0.00159015
   0.00114926  0.00089084  0.00422641
   0.09756184  0.20486230  0.79752392
   0.03837160  0.06852615  0.59319385
   0.89882479  0.79515571  0.20341519
   0.80512951  0.59326355  0.39868381
   0.73348811  0.46422525  0.20112082
   0.66175026  0.33872004 -0.00023207
   0.37015653  0.72468546  0.59466798
   0.12659022  0.27419253  0.39914618
   0.83199090  0.66556715  0.00508605
   0.93098431  0.87102333  0.79893754
   0.56698068  0.13376082  0.19999331
   0.40238115  0.78403751  0.20878728
   0.43710902  0.85945680  0.79710542
   0.85173004  0.73637427  0.59977502
   0.47350902  0.93420429  0.40724188
   0.17263935  0.33279903  0.00104216
   0.27015120  0.53464308  0.79501431
   0.20234100  0.40572566  0.58705411
   0.06126047  0.14226875  0.21008548
   0.76916864  0.53022820  0.80022049
   0.69828993  0.40855118  0.60098813
   0.59731148  0.20218258  0.79534807
   0.53701211  0.07316210  0.59919147
   0.33376407  0.65970309  0.00213674
   0.23029364  0.46998768  0.20519170
SQS with 1 vacancy for VFE and VRV      
           1
    -3.178122   -3.184157   -3.205395
     1.561783    1.502446   -7.896442
     7.955374   -7.937754   -1.635351
   Nb   Mo   Ta   Ti   W 
   6   6   5   6   6
Direct configuration=    11
   0.98489043  0.90635971  0.39702701
   0.61795249  0.28241188  0.40003038
   0.49889055  0.00182589 -0.00118932
   0.00107464  0.00111333  0.00477179
   0.09699867  0.20603258  0.79727929
   0.03846939  0.06826017  0.59303987
   0.89881217  0.79478551  0.20381213
   0.80463441  0.59326097  0.39877849
   0.73349635  0.46518845  0.20070566
   0.66162601  0.33924987 -0.00024705
   0.37015328  0.72437929  0.59426887
   0.12665578  0.27430770  0.39903324
   0.83203246  0.66462023  0.00550136
   0.93059163  0.87146971  0.79845257
   0.56677610  0.13314469  0.19998595
   0.40227881  0.78293089  0.20951692
   0.43739432  0.85948201  0.79666613
   0.85063542  0.73660152  0.60015156
   0.47445131  0.93399737  0.40764366
   0.17278367  0.33274363  0.00111444
   0.27086534  0.53476350  0.79446583
   0.20178340  0.40725361  0.58579459
   0.06128654  0.14211733  0.21085737
   0.76895501  0.52913826  0.79972796
   0.69843480  0.40983236  0.60112851
   0.59735191  0.20252175  0.79520975
   0.53710877  0.07319695  0.59897393
   0.33395559  0.65880928  0.00252599
   0.22966075  0.47020154  0.20497313
SQS with 1 vacancy for VFE and VRV      
           1
    -3.181206   -3.187771   -3.209324
     1.562470    1.501444   -7.902611
     7.963236   -7.945923   -1.638328
   Nb   Mo   Ta   Ti   W 
   6   6   5   6   6
Direct configuration=    12
   0.98579422  0.90544369  0.39727304
   0.61801062  0.28242451  0.39999311
   0.49875086  0.00211204 -0.00106873
   0.00107173  0.00117197  0.00495009
   0.09690167  0.20640990  0.79718391
   0.03849590  0.06823819  0.59298954
   0.89882685  0.79464418  0.20399209
   0.80435319  0.59330983  0.39881234
   0.73355674  0.46534104  0.20061274
   0.66157188  0.33939651 -0.00024110
   0.37006186  0.72437031  0.59412059
   0.12670321  0.27429561  0.39898703
   0.83202393  0.66439666  0.00557717
   0.93050746  0.87158265  0.79836439
   0.56674533  0.13290995  0.20002867
   0.40222939  0.78255988  0.20978537
   0.43749515  0.85947457  0.79657520
   0.85028857  0.73668292  0.60028383
   0.47482008  0.93390548  0.40777417
   0.17282772  0.33271577  0.00112589
   0.27103331  0.53480794  0.79426559
   0.20159333  0.40790891  0.58526361
   0.06128648  0.14201882  0.21113710
   0.76886906  0.52889015  0.79955293
   0.69846366  0.41020574  0.60110280
   0.59728468  0.20268127  0.79516731
   0.53708689  0.07326502  0.59890022
   0.33391251  0.65856161  0.00259146
   0.22943372  0.47027489  0.20489963
SQS with 1 vacancy for VFE and VRV      
           1
    -3.184125   -3.191190   -3.213042
     1.563121    1.500496   -7.908450
     7.970675   -7.953652   -1.641146
   Nb   Mo   Ta   Ti   W 
   6   6   5   6   6
Direct configuration=    13
   0.98664882  0.90457733  0.39750568
   0.61806556  0.28243646  0.39995787
   0.49861870  0.00238264 -0.00095476
   0.00106894  0.00122741  0.00511864
   0.09680986  0.20676675  0.79709371
   0.03852097  0.06821740  0.59294196
   0.89884076  0.79451050  0.20416222
   0.80408733  0.59335604  0.39884435
   0.73361378  0.46548536  0.20052489
   0.66152066  0.33953518 -0.00023548
   0.36997547  0.72436184  0.59398042
   0.12674805  0.27428417  0.39894336
   0.83201593  0.66418521  0.00564885
   0.93042787  0.87168947  0.79828101
   0.56671631  0.13268796  0.20006908
   0.40218276  0.78220899  0.21003918
   0.43759047  0.85946753  0.79648924
   0.84996066  0.73675989  0.60040888
   0.47516868  0.93381854  0.40789754
   0.17286938  0.33268943  0.00113673
   0.27119210  0.53484999  0.79407629
   0.20141350  0.40852869  0.58476160
   0.06128643  0.14192563  0.21140156
   0.76878793  0.52865554  0.79938749
   0.69849083  0.41055885  0.60107846
   0.59722109  0.20283215  0.79512718
   0.53706619  0.07332941  0.59883053
   0.33387186  0.65832739  0.00265337
   0.22921909  0.47034427  0.20483015
SQS with 1 vacancy for VFE and VRV      
           1
    -3.184138   -3.191976   -3.213399
     1.563450    1.499081   -7.907876
     7.970284   -7.953650   -1.642858
   Nb   Mo   Ta   Ti   W 
   6   6   5   6   6
Direct configuration=    14
   0.98730161  0.90392717  0.39775256
   0.61821390  0.28242472  0.39988402
   0.49861362  0.00238489 -0.00093524
   0.00110191  0.00119597  0.00518314
   0.09690169  0.20686100  0.79701683
   0.03851988  0.06832614  0.59293196
   0.89887618  0.79439531  0.20426587
   0.80386218  0.59338864  0.39884511
   0.73368085  0.46528641  0.20055217
   0.66148003  0.33953893 -0.00022778
   0.36981542  0.72449006  0.59394277
   0.12676595  0.27426858  0.39892575
   0.83188228  0.66431442  0.00558817
   0.93040269  0.87175100  0.79837723
   0.56673560  0.13264916  0.20012808
   0.40222935  0.78203454  0.21013259
   0.43753872  0.85945443  0.79654184
   0.84981173  0.73681231  0.60048820
   0.47539091  0.93376816  0.40796457
   0.17286393  0.33267129  0.00111685
   0.27116572  0.53487608  0.79395249
   0.20134694  0.40893591  0.58439722
   0.06127790  0.14182661  0.21156317
   0.76872891  0.52877608  0.79933617
   0.69848705  0.41056512  0.60096512
   0.59715613  0.20290215  0.79507789
   0.53697710  0.07349972  0.59883169
   0.33371960  0.65833529  0.00259702
   0.22915223  0.47033990  0.20480455
SQS with 1 vacancy for VFE and VRV      
           1
    -3.184175   -3.194334   -3.214470
     1.564437    1.494836   -7.906152
     7.969112   -7.953642   -1.647995
   Nb   Mo   Ta   Ti   W 
   6   6   5   6   6
Direct configuration=    15
   0.98925987  0.90197634  0.39849332
   0.61865890  0.28238956  0.39966245
   0.49859835  0.00239163 -0.00087668
   0.00120077  0.00110161  0.00537662
   0.09717713  0.20714384  0.79678614
   0.03851657  0.06865239  0.59290192
   0.89898241  0.79404966  0.20457685
   0.80318679  0.59348646  0.39884740
   0.73388208  0.46468947  0.20063409
   0.66135813  0.33955015 -0.00020467
   0.36933533  0.72487479  0.59382981
   0.12681965  0.27422182  0.39887294
   0.83148135  0.66470213  0.00540608
   0.93032712  0.87193556  0.79866588
   0.56679343  0.13253274  0.20030508
   0.40236911  0.78151110  0.21041287
   0.43738348  0.85941511  0.79669967
   0.84936493  0.73696956  0.60072616
   0.47605751  0.93361695  0.40816563
   0.17284761  0.33261688  0.00105721
   0.27108663  0.53495441  0.79358109
   0.20114729  0.41015792  0.58330396
   0.06125225  0.14152943  0.21204804
   0.76855187  0.52913777  0.79918219
   0.69847575  0.41058402  0.60062509
   0.59696129  0.20311220  0.79493001
   0.53670982  0.07401071  0.59883513
   0.33326289  0.65835902  0.00242798
   0.22895166  0.47032677  0.20472774
SQS with 1 vacancy for VFE and VRV      
           1
    -3.184250   -3.199049   -3.216611
     1.566410    1.486345   -7.902706
     7.966768   -7.953626   -1.658268
   Nb   Mo   Ta   Ti   W 
   6   6   5   6   6
Direct configuration=    16
   0.99317558  0.89807247  0.39997569
   0.61954879  0.28231946  0.39921918
   0.49856776  0.00240507 -0.00075956
   0.00139831  0.00091263  0.00576366
   0.09772785  0.20771000  0.79632446
   0.03850978  0.06930520  0.59284161
   0.89919475  0.79335778  0.20519906
   0.80183644  0.59368211  0.39885213
   0.73428471  0.46349502  0.20079827
   0.66111441  0.33957259 -0.00015843
   0.36837533  0.72564465  0.59360376
   0.12692709  0.27412830  0.39876733
   0.83067969  0.66547802  0.00504173
   0.93017568  0.87230454  0.79924312
   0.56690899  0.13229962  0.20065916
   0.40264864  0.78046351  0.21097378
   0.43707301  0.85933627  0.79701544
   0.84847135  0.73728390  0.60120214
   0.47739017  0.93331427  0.40856769
   0.17281507  0.33250806  0.00093798
   0.27092879  0.53511151  0.79283819
   0.20074828  0.41260402  0.58111651
   0.06120077  0.14093435  0.21301806
   0.76819782  0.52986160  0.79887402
   0.69845345  0.41062215  0.59994498
   0.59657174  0.20353260  0.79463413
   0.53617511  0.07503311  0.59884175
   0.33234992  0.65840662  0.00209000
   0.22855075  0.47030057  0.20457418
SQS with 1 vacancy for VFE and VRV      
           1
    -3.182491   -3.194247   -3.213185
     1.566126    1.484201   -7.894952
     7.961905   -7.940684   -1.657042
   Nb   Mo   Ta   Ti   W 
   6   6   5   6   6
Direct configuration=    17
   0.99479452  0.89676140  0.40072862
   0.61995397  0.28163736  0.39919124
   0.49848731  0.00222590 -0.00059173
   0.00142713  0.00086078  0.00591331
   0.09742459  0.20789273  0.79613829
   0.03845102  0.06960695  0.59316560
   0.89919799  0.79301080  0.20510985
   0.80094056  0.59375477  0.39882603
   0.73423591  0.46333400  0.20031492
   0.66118685  0.33938278 -0.00027673
   0.36803010  0.72627353  0.59378648
   0.12738810  0.27396638  0.39864241
   0.83014439  0.66560710  0.00522557
   0.92993117  0.87271275  0.79924365
   0.56699322  0.13214678  0.20075309
   0.40292853  0.78029583  0.21097208
   0.43673447  0.85993379  0.79711585
   0.84830132  0.73751202  0.60147804
   0.47775802  0.93333595  0.40869486
   0.17264544  0.33250083  0.00074923
   0.27048045  0.53519517  0.79266158
   0.20055717  0.41343100  0.58033725
   0.06151397  0.14026807  0.21319898
   0.76815295  0.53015088  0.79882533
   0.69837217  0.41063732  0.59971721
   0.59686359  0.20367655  0.79455306
   0.53623652  0.07528361  0.59886107
   0.33229234  0.65860789  0.00210617
   0.22857623  0.46999709  0.20455869
SQS with 1 vacancy for VFE and VRV      
           1
    -3.182681   -3.194767   -3.213556
     1.566157    1.484433   -7.895792
     7.962432   -7.942085   -1.657175
   Nb   Mo   Ta   Ti   W 
   6   6   5   6   6
Direct configuration=    18
   0.99461897  0.89690355  0.40064695
   0.61991006  0.28171129  0.39919425
   0.49849602  0.00224533 -0.00060992
   0.00142399  0.00086641  0.00589709
   0.09745748  0.20787292  0.79615848
   0.03845735  0.06957426  0.59313049
   0.89919765  0.79304840  0.20511952
   0.80103767  0.59374689  0.39882888
   0.73424125  0.46335142  0.20036731
   0.66117901  0.33940334 -0.00026391
   0.36806749  0.72620538  0.59376669
   0.12733815  0.27398393  0.39865594
   0.83020239  0.66559312  0.00520565
   0.92995767  0.87266851  0.79924361
   0.56698408  0.13216335  0.20074290
   0.40289820  0.78031400  0.21097225
   0.43677115  0.85986903  0.79710498
   0.84831972  0.73748731  0.60144814
   0.47771814  0.93333361  0.40868107
   0.17266385  0.33250161  0.00076969
   0.27052906  0.53518609  0.79268074
   0.20057796  0.41334132  0.58042174
   0.06148001  0.14034029  0.21317935
   0.76815782  0.53011952  0.79883061
   0.69838101  0.41063567  0.59974190
   0.59683196  0.20366094  0.79456185
   0.53622986  0.07525646  0.59885897
   0.33229857  0.65858607  0.00210442
   0.22857347  0.47002998  0.20456037
SQS with 1 vacancy for VFE and VRV      
           1
    -3.185230   -3.194029   -3.214336
     1.567664    1.486023   -7.899881
     7.968350   -7.940835   -1.656544
   Nb   Mo   Ta   Ti   W 
   6   6   5   6   6
Direct configuration=    19
   0.99565922  0.89614947  0.40117893
   0.62025731  0.28102442  0.39919521
   0.49838499  0.00212526 -0.00045144
   0.00139505  0.00084628  0.00598680
   0.09709648  0.20801910  0.79604315
   0.03842580  0.06981380  0.59344057
   0.89920485  0.79281092  0.20498453
   0.80027912  0.59379969  0.39878988
   0.73418011  0.46329718  0.19990430
   0.66128611  0.33921483 -0.00039496
   0.36786040  0.72673844  0.59399932
   0.12771169  0.27380513  0.39856015
   0.82996947  0.66553486  0.00539980
   0.92979856  0.87295037  0.79920287
   0.56708301  0.13199278  0.20075456
   0.40307171  0.78038257  0.21087687
   0.43650200  0.86048380  0.79717666
   0.84838017  0.73762408  0.60164083
   0.47786066  0.93340005  0.40873793
   0.17247083  0.33250668  0.00057890
   0.27009527  0.53527210  0.79262686
   0.20040259  0.41382977  0.57997711
   0.06185452  0.13972606  0.21319210
   0.76810434  0.53030716  0.79883593
   0.69825446  0.41071926  0.59960808
   0.59706404  0.20380163  0.79455739
   0.53637763  0.07532479  0.59888085
   0.33232390  0.65876318  0.00215514
   0.22864570  0.46973632  0.20456169
SQS with 1 vacancy for VFE and VRV      
           1
    -3.186596   -3.193634   -3.214755
     1.568471    1.486875   -7.902073
     7.971522   -7.940165   -1.656207
   Nb   Mo   Ta   Ti   W 
   6   6   5   6   6
Direct configuration=    20
   0.99621670  0.89574554  0.40146403
   0.62044327  0.28065656  0.39919577
   0.49832559  0.00206093 -0.00036655
   0.00137959  0.00083549  0.00603485
   0.09690303  0.20809741  0.79598132
   0.03840910  0.06994204  0.59360668
   0.89920862  0.79268376  0.20491222
   0.79987274  0.59382798  0.39876890
   0.73414710  0.46326819  0.19965626
   0.66134340  0.33911390 -0.00046515
   0.36774963  0.72702389  0.59412392
   0.12791174  0.27370939  0.39850887
   0.82984479  0.66550363  0.00550377
   0.92971334  0.87310133  0.79918102
   0.56713600  0.13190143  0.20076081
   0.40316461  0.78041931  0.21082579
   0.43635792  0.86081303  0.79721504
   0.84841268  0.73769730  0.60174407
   0.47793704  0.93343563  0.40876841
   0.17236733  0.33250943  0.00047666
   0.26986286  0.53531817  0.79259795
   0.20030845  0.41409142  0.57973889
   0.06205510  0.13939710  0.21319897
   0.76807571  0.53040765  0.79883877
   0.69818661  0.41076405  0.59953638
   0.59718837  0.20387697  0.79455503
   0.53645682  0.07536138  0.59889258
   0.33233751  0.65885803  0.00218231
   0.22868436  0.46957905  0.20456240
SQS with 1 vacancy for VFE and VRV      
           1
    -3.186463   -3.193392   -3.214739
     1.568177    1.487877   -7.902914
     7.971160   -7.940521   -1.655218
   Nb   Mo   Ta   Ti   W 
   6   6   5   6   6
Direct configuration=    21
   0.99633044  0.89565344  0.40151269
   0.62072755  0.28041507  0.39913243
   0.49825734  0.00215265 -0.00035468
   0.00132672  0.00080864  0.00602919
   0.09683186  0.20823873  0.79598769
   0.03846709  0.07007432  0.59362149
   0.89933334  0.79259882  0.20498438
   0.79963587  0.59380230  0.39870631
   0.73424851  0.46308953  0.19966881
   0.66130390  0.33914270 -0.00051318
   0.36777434  0.72717182  0.59426454
   0.12783080  0.27362318  0.39846255
   0.83003074  0.66540867  0.00547364
   0.92975586  0.87309264  0.79926867
   0.56721601  0.13175430  0.20069118
   0.40308777  0.78055894  0.21072375
   0.43634918  0.86093972  0.79725066
   0.84855935  0.73767816  0.60177978
   0.47789535  0.93348537  0.40874531
   0.17228950  0.33248018  0.00042050
   0.26976023  0.53541218  0.79266245
   0.20025692  0.41411292  0.57971735
   0.06227758  0.13922202  0.21310649
   0.76789806  0.53046111  0.79886750
   0.69803633  0.41097321  0.59954513
   0.59700567  0.20400149  0.79460265
   0.53654331  0.07531496  0.59894522
   0.33228357  0.65881994  0.00218066
   0.22868679  0.46951299  0.20451684
SQS with 1 vacancy for VFE and VRV      
           1
    -3.186064   -3.192666   -3.214691
     1.567293    1.490883   -7.905438
     7.970074   -7.941589   -1.652251
   Nb   Mo   Ta   Ti   W 
   6   6   5   6   6
Direct configuration=    22
   0.99667167  0.89537718  0.40165864
   0.62158043  0.27969065  0.39894238
   0.49805261  0.00242777 -0.00031906
   0.00116809  0.00072810  0.00601219
   0.09661834  0.20866264  0.79600682
   0.03864110  0.07047110  0.59366594
   0.89970750  0.79234404  0.20520085
   0.79892525  0.59372525  0.39851852
   0.73455273  0.46255362  0.19970641
   0.66118541  0.33922907 -0.00065723
   0.36784846  0.72761559  0.59468643
   0.12758798  0.27336456  0.39832357
   0.83058862  0.66512381  0.00538322
   0.92988345  0.87306662  0.79953159
   0.56745603  0.13131291  0.20048225
   0.40285727  0.78097775  0.21041766
   0.43632298  0.86131977  0.79735756
   0.84899937  0.73762078  0.60188691
   0.47777028  0.93363457  0.40867601
   0.17205601  0.33239242  0.00025201
   0.26945233  0.53569420  0.79285596
   0.20010233  0.41417740  0.57965272
   0.06294506  0.13869680  0.21282899
   0.76736508  0.53062152  0.79895370
   0.69758549  0.41160061  0.59957142
   0.59645752  0.20437501  0.79474556
   0.53680280  0.07517574  0.59910314
   0.33212173  0.65870570  0.00217570
   0.22869407  0.46931482  0.20438014
SQS with 1 vacancy for VFE and VRV      
           1
    -3.183582   -3.191119   -3.212771
     1.566570    1.490488   -7.901534
     7.964975   -7.938566   -1.651545
   Nb   Mo   Ta   Ti   W 
   6   6   5   6   6
Direct configuration=    23
   0.99678523  0.89522875  0.40165484
   0.62181599  0.27933954  0.39890064
   0.49803588  0.00243636 -0.00038400
   0.00109316  0.00065663  0.00595679