  29  29   0   0
  0.1632129E+02  0.5473281E-09  0.8209921E-09  0.1128346E-08  0.5000000E-15
  1.000000000000000E-004
  CAR 
 Nb - Mo - Ta - Ti - V SQS               
     11.75590615    -50.26192220  301      6.77720821      1.00000000
    -50.262  0.0000E+00  0.0000E+00
    -50.055  0.0000E+00  0.0000E+00
    -49.848  0.0000E+00  0.0000E+00
    -49.642  0.0000E+00  0.0000E+00
    -49.435  0.0000E+00  0.0000E+00
    -49.228 -0.1130E-34 -0.2337E-35
    -49.022 -0.3578E-27 -0.7397E-28
    -48.815 -0.1314E-20 -0.2717E-21
    -48.608 -0.5416E-15 -0.1120E-15
    -48.401 -0.2602E-10 -0.5379E-11
    -48.195 -0.1403E-06 -0.2902E-07
    -47.988 -0.8199E-04 -0.1698E-04
    -47.781 -0.4534E-02 -0.9543E-03
    -47.574  0.3111E-02 -0.3112E-03
    -47.368  0.2375E+00  0.4879E-01
    -47.161  0.4463E+00  0.1411E+00
    -46.954  0.3512E+00  0.2137E+00
    -46.748  0.1365E+00  0.2419E+00
    -46.541 -0.7040E-02  0.2404E+00
    -46.334 -0.1966E-02  0.2400E+00
    -46.127 -0.2017E-04  0.2400E+00
    -45.921 -0.2035E-07  0.2400E+00
    -45.714 -0.2236E-11  0.2400E+00
    -45.507 -0.3069E-16  0.2400E+00
    -45.300  0.0000E+00  0.2400E+00
    -45.094  0.0000E+00  0.2400E+00
    -44.887  0.0000E+00  0.2400E+00
    -44.680  0.0000E+00  0.2400E+00
    -44.474  0.0000E+00  0.2400E+00
    -44.267  0.0000E+00  0.2400E+00
    -44.060  0.0000E+00  0.2400E+00
    -43.853  0.0000E+00  0.2400E+00
    -43.647  0.0000E+00  0.2400E+00
    -43.440  0.0000E+00  0.2400E+00
    -43.233  0.0000E+00  0.2400E+00
    -43.027  0.0000E+00  0.2400E+00
    -42.820  0.0000E+00  0.2400E+00
    -42.613  0.0000E+00  0.2400E+00
    -42.406  0.0000E+00  0.2400E+00
    -42.200  0.0000E+00  0.2400E+00
    -41.993  0.0000E+00  0.2400E+00
    -41.786  0.0000E+00  0.2400E+00
    -41.579  0.0000E+00  0.2400E+00
    -41.373  0.0000E+00  0.2400E+00
    -41.166  0.0000E+00  0.2400E+00
    -40.959  0.0000E+00  0.2400E+00
    -40.753  0.0000E+00  0.2400E+00
    -40.546  0.0000E+00  0.2400E+00
    -40.339  0.0000E+00  0.2400E+00
    -40.132  0.0000E+00  0.2400E+00
    -39.926  0.0000E+00  0.2400E+00
    -39.719  0.0000E+00  0.2400E+00
    -39.512  0.0000E+00  0.2400E+00
    -39.305  0.0000E+00  0.2400E+00
    -39.099  0.0000E+00  0.2400E+00
    -38.892  0.0000E+00  0.2400E+00
    -38.685  0.0000E+00  0.2400E+00
    -38.479  0.0000E+00  0.2400E+00
    -38.272  0.0000E+00  0.2400E+00
    -38.065  0.0000E+00  0.2400E+00
    -37.858  0.0000E+00  0.2400E+00
    -37.652  0.0000E+00  0.2400E+00
    -37.445  0.0000E+00  0.2400E+00
    -37.238  0.0000E+00  0.2400E+00
    -37.031  0.0000E+00  0.2400E+00
    -36.825  0.0000E+00  0.2400E+00
    -36.618  0.0000E+00  0.2400E+00
    -36.411  0.0000E+00  0.2400E+00
    -36.205  0.0000E+00  0.2400E+00
    -35.998  0.0000E+00  0.2400E+00
    -35.791  0.0000E+00  0.2400E+00
    -35.584  0.0000E+00  0.2400E+00
    -35.378  0.0000E+00  0.2400E+00
    -35.171  0.0000E+00  0.2400E+00
    -34.964  0.0000E+00  0.2400E+00
    -34.757  0.0000E+00  0.2400E+00
    -34.551  0.0000E+00  0.2400E+00
    -34.344  0.0000E+00  0.2400E+00
    -34.137  0.0000E+00  0.2400E+00
    -33.931  0.0000E+00  0.2400E+00
    -33.724  0.0000E+00  0.2400E+00
    -33.517  0.0000E+00  0.2400E+00
    -33.310  0.0000E+00  0.2400E+00
    -33.104  0.0000E+00  0.2400E+00
    -32.897  0.0000E+00  0.2400E+00
    -32.690  0.0000E+00  0.2400E+00
    -32.483  0.0000E+00  0.2400E+00
    -32.277  0.0000E+00  0.2400E+00
    -32.070  0.0000E+00  0.2400E+00
    -31.863  0.0000E+00  0.2400E+00
    -31.657  0.0000E+00  0.2400E+00
    -31.450  0.0000E+00  0.2400E+00
    -31.243  0.0000E+00  0.2400E+00
    -31.036  0.0000E+00  0.2400E+00
    -30.830  0.0000E+00  0.2400E+00
    -30.623  0.0000E+00  0.2400E+00
    -30.416  0.0000E+00  0.2400E+00
    -30.209  0.0000E+00  0.2400E+00
    -30.003  0.0000E+00  0.2400E+00
    -29.796  0.0000E+00  0.2400E+00
    -29.589  0.0000E+00  0.2400E+00
    -29.383  0.0000E+00  0.2400E+00
    -29.176  0.0000E+00  0.2400E+00
    -28.969  0.0000E+00  0.2400E+00
    -28.762  0.0000E+00  0.2400E+00
    -28.556  0.0000E+00  0.2400E+00
    -28.349  0.0000E+00  0.2400E+00
    -28.142  0.0000E+00  0.2400E+00
    -27.936  0.0000E+00  0.2400E+00
    -27.729  0.0000E+00  0.2400E+00
    -27.522  0.0000E+00  0.2400E+00
    -27.315  0.0000E+00  0.2400E+00
    -27.109  0.0000E+00  0.2400E+00
    -26.902  0.0000E+00  0.2400E+00
    -26.695  0.0000E+00  0.2400E+00
    -26.488  0.0000E+00  0.2400E+00
    -26.282  0.0000E+00  0.2400E+00
    -26.075  0.0000E+00  0.2400E+00
    -25.868 -0.1996E-34  0.2400E+00
    -25.662 -0.5903E-27  0.2400E+00
    -25.455 -0.2026E-20  0.2400E+00
    -25.248 -0.7804E-15  0.2400E+00
    -25.041 -0.3480E-10  0.2400E+00
    -24.835 -0.1730E-06  0.2400E+00
    -24.628 -0.9091E-04  0.2400E+00
    -24.421 -0.4132E-02  0.2391E+00
    -24.214  0.1315E-01  0.2418E+00
    -24.008  0.1648E+00  0.2759E+00
    -23.801  0.2050E+00  0.3183E+00
    -23.594  0.4582E+00  0.4130E+00
    -23.388  0.8236E+00  0.5833E+00
    -23.181  0.8782E+00  0.7648E+00
    -22.974  0.6068E+00  0.8903E+00
    -22.767  0.1634E+00  0.9240E+00
    -22.561  0.1714E+00  0.9595E+00
    -22.354  0.6021E-02  0.9607E+00
    -22.147 -0.3454E-02  0.9600E+00
    -21.940 -0.7080E-04  0.9600E+00
    -21.734 -0.1592E-06  0.9600E+00
    -21.527 -0.4396E-10  0.9600E+00
    -21.320 -0.1482E-14  0.9600E+00
    -21.114  0.0000E+00  0.9600E+00
    -20.907  0.0000E+00  0.9600E+00
    -20.700  0.0000E+00  0.9600E+00
    -20.493  0.0000E+00  0.9600E+00
    -20.287  0.0000E+00  0.9600E+00
    -20.080  0.0000E+00  0.9600E+00
    -19.873  0.0000E+00  0.9600E+00
    -19.666  0.0000E+00  0.9600E+00
    -19.460  0.0000E+00  0.9600E+00
    -19.253  0.0000E+00  0.9600E+00
    -19.046  0.0000E+00  0.9600E+00
    -18.840  0.0000E+00  0.9600E+00
    -18.633  0.0000E+00  0.9600E+00
    -18.426  0.0000E+00  0.9600E+00
    -18.219  0.0000E+00  0.9600E+00
    -18.013  0.0000E+00  0.9600E+00
    -17.806  0.0000E+00  0.9600E+00
    -17.599  0.0000E+00  0.9600E+00
    -17.392  0.0000E+00  0.9600E+00
    -17.186  0.0000E+00  0.9600E+00
    -16.979  0.0000E+00  0.9600E+00
    -16.772  0.0000E+00  0.9600E+00
    -16.566  0.0000E+00  0.9600E+00
    -16.359  0.0000E+00  0.9600E+00
    -16.152  0.0000E+00  0.9600E+00
    -15.945  0.0000E+00  0.9600E+00
    -15.739  0.0000E+00  0.9600E+00
    -15.532  0.0000E+00  0.9600E+00
    -15.325  0.0000E+00  0.9600E+00
    -15.118  0.0000E+00  0.9600E+00
    -14.912  0.0000E+00  0.9600E+00
    -14.705  0.0000E+00  0.9600E+00
    -14.498  0.0000E+00  0.9600E+00
    -14.292  0.0000E+00  0.9600E+00
    -14.085  0.0000E+00  0.9600E+00
    -13.878  0.0000E+00  0.9600E+00
    -13.671  0.0000E+00  0.9600E+00
    -13.465  0.0000E+00  0.9600E+00
    -13.258  0.0000E+00  0.9600E+00
    -13.051  0.0000E+00  0.9600E+00
    -12.844  0.0000E+00  0.9600E+00
    -12.638  0.0000E+00  0.9600E+00
    -12.431  0.0000E+00  0.9600E+00
    -12.224  0.0000E+00  0.9600E+00
    -12.018  0.0000E+00  0.9600E+00
    -11.811  0.0000E+00  0.9600E+00
    -11.604  0.0000E+00  0.9600E+00
    -11.397  0.0000E+00  0.9600E+00
    -11.191  0.0000E+00  0.9600E+00
    -10.984  0.0000E+00  0.9600E+00
    -10.777  0.0000E+00  0.9600E+00
    -10.571  0.0000E+00  0.9600E+00
    -10.364  0.0000E+00  0.9600E+00
    -10.157  0.0000E+00  0.9600E+00
     -9.950  0.0000E+00  0.9600E+00
     -9.744  0.0000E+00  0.9600E+00
     -9.537  0.0000E+00  0.9600E+00
     -9.330  0.0000E+00  0.9600E+00
     -9.123  0.0000E+00  0.9600E+00
     -8.917  0.0000E+00  0.9600E+00
     -8.710  0.0000E+00  0.9600E+00
     -8.503  0.0000E+00  0.9600E+00
     -8.297  0.0000E+00  0.9600E+00
     -8.090  0.0000E+00  0.9600E+00
     -7.883  0.0000E+00  0.9600E+00
     -7.676  0.0000E+00  0.9600E+00
     -7.470  0.0000E+00  0.9600E+00
     -7.263  0.0000E+00  0.9600E+00
     -7.056  0.0000E+00  0.9600E+00
     -6.849  0.0000E+00  0.9600E+00
     -6.643  0.0000E+00  0.9600E+00
     -6.436  0.0000E+00  0.9600E+00
     -6.229  0.0000E+00  0.9600E+00
     -6.023  0.0000E+00  0.9600E+00
     -5.816  0.0000E+00  0.9600E+00
     -5.609  0.0000E+00  0.9600E+00
     -5.402  0.0000E+00  0.9600E+00
     -5.196  0.0000E+00  0.9600E+00
     -4.989  0.0000E+00  0.9600E+00
     -4.782  0.0000E+00  0.9600E+00
     -4.575  0.0000E+00  0.9600E+00
     -4.369  0.0000E+00  0.9600E+00
     -4.162  0.0000E+00  0.9600E+00
     -3.955  0.0000E+00  0.9600E+00
     -3.749  0.0000E+00  0.9600E+00
     -3.542  0.0000E+00  0.9600E+00
     -3.335  0.0000E+00  0.9600E+00
     -3.128  0.0000E+00  0.9600E+00
     -2.922  0.0000E+00  0.9600E+00
     -2.715  0.0000E+00  0.9600E+00
     -2.508  0.0000E+00  0.9600E+00
     -2.301  0.0000E+00  0.9600E+00
     -2.095  0.0000E+00  0.9600E+00
     -1.888  0.0000E+00  0.9600E+00
     -1.681 -0.1202E-30  0.9600E+00
     -1.475 -0.6310E-24  0.9600E+00
     -1.268 -0.3918E-18  0.9600E+00
     -1.061 -0.2776E-13  0.9600E+00
     -0.854 -0.2397E-09  0.9600E+00
     -0.648 -0.2462E-06  0.9600E+00
     -0.441 -0.2980E-04  0.9600E+00
     -0.234 -0.3364E-03  0.9599E+00
     -0.027  0.2203E-02  0.9604E+00
      0.179  0.1555E-01  0.9636E+00
      0.386  0.2452E-01  0.9687E+00
      0.593  0.3290E-01  0.9755E+00
      0.799  0.4284E-01  0.9843E+00
      1.006  0.3625E-01  0.9918E+00
      1.213  0.5414E-01  0.1003E+01
      1.420  0.6303E-01  0.1016E+01
      1.626  0.6507E-01  0.1029E+01
      1.833  0.7224E-01  0.1044E+01
      2.040  0.8878E-01  0.1063E+01
      2.247  0.1042E+00  0.1084E+01
      2.453  0.1209E+00  0.1109E+01
      2.660  0.2010E+00  0.1151E+01
      2.867  0.3197E+00  0.1217E+01
      3.073  0.4243E+00  0.1305E+01
      3.280  0.5198E+00  0.1412E+01
      3.487  0.5863E+00  0.1533E+01
      3.694  0.6278E+00  0.1663E+01
      3.900  0.6077E+00  0.1789E+01
      4.107  0.5895E+00  0.1911E+01
      4.314  0.5829E+00  0.2031E+01
      4.520  0.5815E+00  0.2151E+01
      4.727  0.5913E+00  0.2274E+01
      4.934  0.6594E+00  0.2410E+01
      5.141  0.7668E+00  0.2568E+01
      5.347  0.7815E+00  0.2730E+01
      5.554  0.7558E+00  0.2886E+01
      5.761  0.7821E+00  0.3048E+01
      5.968  0.8012E+00  0.3213E+01
      6.174  0.8404E+00  0.3387E+01
      6.381  0.8600E+00  0.3565E+01
      6.588  0.8382E+00  0.3738E+01
      6.794  0.7433E+00  0.3892E+01
      7.001  0.6492E+00  0.4026E+01
      7.208  0.5836E+00  0.4147E+01
      7.415  0.4922E+00  0.4249E+01
      7.621  0.4107E+00  0.4333E+01
      7.828  0.3895E+00  0.4414E+01
      8.035  0.3769E+00  0.4492E+01
      8.242  0.4535E+00  0.4586E+01
      8.448  0.4975E+00  0.4688E+01
      8.655  0.3694E+00  0.4765E+01
      8.862  0.1582E+00  0.4798E+01
      9.068  0.1535E-01  0.4801E+01
      9.275 -0.3140E-02  0.4800E+01
      9.482 -0.2618E-03  0.4800E+01
      9.689 -0.2508E-05  0.4800E+01
      9.895 -0.3008E-08  0.4800E+01
     10.102 -0.4373E-12  0.4800E+01
     10.309 -0.7641E-17  0.4800E+01
     10.516  0.0000E+00  0.4800E+01
     10.722  0.0000E+00  0.4800E+01
     10.929  0.0000E+00  0.4800E+01
     11.136  0.0000E+00  0.4800E+01
     11.342  0.0000E+00  0.4800E+01
     11.549  0.0000E+00  0.4800E+01
     11.756  0.0000E+00  0.4800E+01
