   29   29   50    1
  0.1632129E+02  0.5473281E-09  0.8209921E-09  0.1128346E-08  0.5000000E-15
  1.000000000000000E-004
  CAR 
 Nb - Mo - Ta - Ti - V SQS               
    194    172    120
 
  0.0000000E+00  0.0000000E+00  0.0000000E+00  0.2915452E-02
    1      -47.442930   1.000000
    2      -47.357228   1.000000
    3      -47.223144   1.000000
    4      -47.200651   1.000000
    5      -47.049960   1.000000
    6      -46.922999   1.000000
    7      -24.091725   1.000000
    8      -24.007668   1.000000
    9      -23.792616   1.000000
   10      -23.656310   1.000000
   11      -23.600556   1.000000
   12      -23.514820   1.000000
   13      -23.478553   1.000000
   14      -23.439567   1.000000
   15      -23.403395   1.000000
   16      -23.342089   1.000000
   17      -23.311588   1.000000
   18      -23.219936   1.000000
   19      -23.168553   1.000000
   20      -23.141774   1.000000
   21      -23.126397   1.000000
   22      -23.080819   1.000000
   23      -22.745907   1.000000
   24      -22.641582   1.000000
   25       -0.072951   1.000000
   26        1.247101   1.000000
   27        1.603237   1.000000
   28        2.394043   1.000000
   29        2.521533   1.000000
   30        2.581213   1.000000
   31        2.665790   1.000000
   32        2.798732   1.000000
   33        2.833803   1.000000
   34        2.935023   1.000000
   35        3.011359   1.000000
   36        3.095828   1.000000
   37        3.223187   1.000000
   38        3.246262   1.000000
   39        3.277021   1.000000
   40        3.303349   1.000000
   41        3.390725   1.000000
   42        3.469772   1.000000
   43        3.607342   1.000000
   44        3.661567   1.000000
   45        3.752413   1.000000
   46        3.771435   1.000000
   47        3.839512   1.000000
   48        3.912114   1.000000
   49        3.984777   1.000000
   50        4.106859   1.000000
   51        4.133425   1.000000
   52        4.167246   1.000000
   53        4.218856   1.000000
   54        4.314526   1.000000
   55        4.373520   1.000000
   56        4.564443   1.000000
   57        4.652516   1.000000
   58        4.705392   1.000000
   59        4.741235   1.000000
   60        4.834242   1.000000
   61        4.876571   1.000000
   62        4.908609   1.000000
   63        4.943677   1.000000
   64        5.030455   1.000000
   65        5.076011   1.000000
   66        5.134436   1.000000
   67        5.165623   1.000000
   68        5.183970   1.000000
   69        5.249725   1.000000
   70        5.335075   1.000000
   71        5.393414   1.000000
   72        5.469705   1.000000
   73        5.518876   1.000000
   74        5.589802   1.000000
   75        5.664482   1.000000
   76        5.671538   1.000000
   77        5.730946   1.000000
   78        5.818369   1.000000
   79        5.923533   1.000000
   80        5.934106   1.000000
   81        5.949965   1.000000
   82        6.074323   1.000004
   83        6.125242   1.000020
   84        6.183877   1.000112
   85        6.235825   1.000437
   86        6.310408   1.002354
   87        6.360104   1.006006
   88        6.418801   1.014740
   89        6.451315   1.021709
   90        6.533239   1.035454
   91        6.587210   1.019129
   92        6.667659   0.895187
   93        6.760125   0.571995
   94        6.846838   0.224232
   95        6.892287   0.091333
   96        6.917517   0.039588
   97        7.038508  -0.034538
   98        7.132451  -0.015363
   99        7.147612  -0.012513
  100        7.208522  -0.004668
  101        7.253916  -0.001918
  102        7.340003  -0.000254
  103        7.369530  -0.000116
  104        7.445675  -0.000012
  105        7.607568  -0.000000
  106        7.707714  -0.000000
  107        7.786681  -0.000000
  108        7.801492  -0.000000
  109        7.951570  -0.000000
  110        8.186731  -0.000000
  111        8.298963  -0.000000
  112        8.329656  -0.000000
  113        8.392328  -0.000000
  114        8.537375  -0.000000
  115        8.616898  -0.000000
  116        8.654677  -0.000000
  117        8.713937  -0.000000
  118        8.776474  -0.000000
  119        8.787988  -0.000000
  120        8.908754  -0.000000
 
  0.1428571E+00  0.0000000E+00 -0.1561251E-16  0.5830904E-02
    1      -47.442674   1.000000
    2      -47.354324   1.000000
    3      -47.223025   1.000000
    4      -47.200500   1.000000
    5      -47.049911   1.000000
    6      -46.926146   1.000000
    7      -24.089249   1.000000
    8      -23.954304   1.000000
    9      -23.789280   1.000000
   10      -23.653160   1.000000
   11      -23.601880   1.000000
   12      -23.514242   1.000000
   13      -23.476612   1.000000
   14      -23.441202   1.000000
   15      -23.406295   1.000000
   16      -23.343254   1.000000
   17      -23.312999   1.000000
   18      -23.222603   1.000000
   19      -23.173518   1.000000
   20      -23.143621   1.000000
   21      -23.127393   1.000000
   22      -23.083617   1.000000
   23      -22.747834   1.000000
   24      -22.705783   1.000000
   25        0.090987   1.000000
   26        1.389375   1.000000
   27        1.744491   1.000000
   28        2.417916   1.000000
   29        2.624866   1.000000
   30        2.705119   1.000000
   31        2.763574   1.000000
   32        2.895745   1.000000
   33        2.922672   1.000000
   34        3.012296   1.000000
   35        3.122852   1.000000
   36        3.173610   1.000000
   37        3.255685   1.000000
   38        3.304183   1.000000
   39        3.363090   1.000000
   40        3.433421   1.000000
   41        3.489549   1.000000
   42        3.520807   1.000000
   43        3.625709   1.000000
   44        3.672443   1.000000
   45        3.776363   1.000000
   46        3.808732   1.000000
   47        3.908846   1.000000
   48        4.001190   1.000000
   49        4.057157   1.000000
   50        4.143589   1.000000
   51        4.186431   1.000000
   52        4.218403   1.000000
   53        4.263216   1.000000
   54        4.357436   1.000000
   55        4.446589   1.000000
   56        4.551501   1.000000
   57        4.659037   1.000000
   58        4.718456   1.000000
   59        4.733036   1.000000
   60        4.828657   1.000000
   61        4.891824   1.000000
   62        4.943638   1.000000
   63        5.037601   1.000000
   64        5.077314   1.000000
   65        5.122057   1.000000
   66        5.160146   1.000000
   67        5.202395   1.000000
   68        5.235455   1.000000
   69        5.291349   1.000000
   70        5.398629   1.000000
   71        5.425710   1.000000
   72        5.465416   1.000000
   73        5.567817   1.000000
   74        5.624592   1.000000
   75        5.671864   1.000000
   76        5.723707   1.000000
   77        5.769695   1.000000
   78        5.834725   1.000000
   79        5.847272   1.000000
   80        5.884218   1.000000
   81        5.942903   1.000000
   82        6.010856   1.000000
   83        6.133161   1.000026
   84        6.179527   1.000100
   85        6.220647   1.000299
   86        6.274875   1.001099
   87        6.328281   1.003355
   88        6.406855   1.012522
   89        6.466668   1.025254
   90        6.525048   1.035267
   91        6.534635   1.035436
   92        6.638819   0.957030
   93        6.649105   0.937368
   94        6.691537   0.828253
   95        6.735679   0.671595
   96        6.887728   0.102392
   97        6.890377   0.095903
   98        6.961655  -0.015061
   99        7.040719  -0.034292
  100        7.133608  -0.015133
  101        7.209016  -0.004626
  102        7.224036  -0.003493
  103        7.305515  -0.000601
  104        7.373097  -0.000105
  105        7.415809  -0.000030
  106        7.497149  -0.000002
  107        7.626262  -0.000000
  108        7.680781  -0.000000
  109        7.851422  -0.000000
  110        7.970750  -0.000000
  111        8.110062  -0.000000
  112        8.151709  -0.000000
  113        8.285080  -0.000000
  114        8.358005  -0.000000
  115        8.437375  -0.000000
  116        8.461985  -0.000000
  117        8.543398  -0.000000
  118        8.583215  -0.000000
  119        8.609075  -0.000000
  120        8.684465  -0.000000
 
  0.2857143E+00  0.1387779E-16  0.3469447E-17  0.5830904E-02
    1      -47.442100   1.000000
    2      -47.347632   1.000000
    3      -47.222760   1.000000
    4      -47.200159   1.000000
    5      -47.049824   1.000000
    6      -46.933360   1.000000
    7      -24.087820   1.000000
    8      -23.808659   1.000000
    9      -23.778225   1.000000
   10      -23.641492   1.000000
   11      -23.604824   1.000000
   12      -23.513539   1.000000
   13      -23.471360   1.000000
   14      -23.445364   1.000000
   15      -23.412384   1.000000
   16      -23.345775   1.000000
   17      -23.316422   1.000000
   18      -23.228420   1.000000
   19      -23.184952   1.000000
   20      -23.149640   1.000000
   21      -23.128840   1.000000
   22      -23.090583   1.000000
   23      -22.886510   1.000000
   24      -22.743645   1.000000
   25        0.557035   1.000000
   26        1.776452   1.000000
   27        2.117528   1.000000
   28        2.535553   1.000000
   29        2.779212   1.000000
   30        2.867348   1.000000
   31        2.991141   1.000000
   32        3.073637   1.000000
   33        3.138774   1.000000
   34        3.209565   1.000000
   35        3.276887   1.000000
   36        3.324040   1.000000
   37        3.443699   1.000000
   38        3.466218   1.000000
   39        3.537949   1.000000
   40        3.589697   1.000000
   41        3.619600   1.000000
   42        3.683912   1.000000
   43        3.763026   1.000000
   44        3.850715   1.000000
   45        3.893691   1.000000
   46        3.926988   1.000000
   47        4.048994   1.000000
   48        4.113959   1.000000
   49        4.147575   1.000000
   50        4.260404   1.000000
   51        4.344037   1.000000
   52        4.398745   1.000000
   53        4.437623   1.000000
   54        4.489992   1.000000
   55        4.548129   1.000000
   56        4.602335   1.000000
   57        4.708403   1.000000
   58        4.765166   1.000000
   59        4.784754   1.000000
   60        4.866358   1.000000
   61        4.915752   1.000000
   62        4.994623   1.000000
   63        5.071550   1.000000
   64        5.127962   1.000000
   65        5.159436   1.000000
   66        5.193699   1.000000
   67        5.258510   1.000000
   68        5.317031   1.000000
   69        5.365972   1.000000
   70        5.410725   1.000000
   71        5.505984   1.000000
   72        5.562386   1.000000
   73        5.603825   1.000000
   74        5.660455   1.000000
   75        5.742014   1.000000
   76        5.796138   1.000000
   77        5.803746   1.000000
   78        5.833106   1.000000
   79        5.880290   1.000000
   80        5.930245   1.000000
   81        5.948866   1.000000
   82        5.984799   1.000000
   83        6.026878   1.000001
   84        6.049410   1.000002
   85        6.146889   1.000039
   86        6.188730   1.000128
   87        6.280337   1.001241
   88        6.330252   1.003485
   89        6.381582   1.008575
   90        6.413178   1.013669
   91        6.470381   1.026107
   92        6.508476   1.033614
   93        6.537366   1.035354
   94        6.587710   1.018785
   95        6.632122   0.968438
   96        6.703605   0.789290
   97        6.758338   0.579455
   98        6.841553   0.242728
   99        6.873639   0.139860
  100        6.920219   0.034980
  101        6.946736  -0.001251
  102        6.992715  -0.031415
  103        7.069928  -0.029240
  104        7.112179  -0.019656
  105        7.150360  -0.012035
  106        7.229330  -0.003154
  107        7.340508  -0.000251
  108        7.495647  -0.000002
  109        7.587451  -0.000000
  110        7.675206  -0.000000
  111        7.753066  -0.000000
  112        7.798419  -0.000000
  113        7.905708  -0.000000
  114        7.971316  -0.000000
  115        8.020574  -0.000000
  116        8.144256  -0.000000
  117        8.193912  -0.000000
  118        8.296509  -0.000000
  119        8.335665  -0.000000
  120        8.444961  -0.000000
 
  0.4285714E+00  0.5551115E-16 -0.4163336E-16  0.5830904E-02
    1      -47.441640   1.000000
    2      -47.342087   1.000000
    3      -47.222546   1.000000
    4      -47.199886   1.000000
    5      -47.049780   1.000000
    6      -46.939297   1.000000
    7      -24.087746   1.000000
    8      -23.777444   1.000000
    9      -23.677426   1.000000
   10      -23.608102   1.000000
   11      -23.561960   1.000000
   12      -23.513194   1.000000
   13      -23.466475   1.000000
   14      -23.449316   1.000000
   15      -23.416774   1.000000
   16      -23.347925   1.000000
   17      -23.320738   1.000000
   18      -23.235454   1.000000
   19      -23.194423   1.000000
   20      -23.155651   1.000000
   21      -23.132043   1.000000
   22      -23.123918   1.000000
   23      -23.067087   1.000000
   24      -22.744039   1.000000
   25        1.235388   1.000000
   26        2.008098   1.000000
   27        2.397859   1.000000
   28        2.661212   1.000000
   29        2.725027   1.000000
   30        2.973448   1.000000
   31        3.054660   1.000000
   32        3.209051   1.000000
   33        3.323309   1.000000
   34        3.418120   1.000000
   35        3.424114   1.000000
   36        3.450884   1.000000
   37        3.527194   1.000000
   38        3.617638   1.000000
   39        3.639474   1.000000
   40        3.679373   1.000000
   41        3.813190   1.000000
   42        3.875390   1.000000
   43        3.913172   1.000000
   44        3.981641   1.000000
   45        4.063113   1.000000
   46        4.103761   1.000000
   47        4.171445   1.000000
   48        4.262585   1.000000
   49        4.287515   1.000000
   50        4.354236   1.000000
   51        4.437498   1.000000
   52        4.510080   1.000000
   53        4.590599   1.000000
   54        4.597327   1.000000
   55        4.645085   1.000000
   56        4.723535   1.000000
   57        4.775358   1.000000
   58        4.797355   1.000000
   59        4.836817   1.000000
   60        4.935721   1.000000
   61        4.981318   1.000000
   62        5.033043   1.000000
   63        5.058028   1.000000
   64        5.091630   1.000000
   65        5.140154   1.000000
   66        5.198053   1.000000
   67        5.266182   1.000000
   68        5.316087   1.000000
   69        5.407954   1.000000
   70        5.448212   1.000000
   71        5.499180   1.000000
   72        5.563843   1.000000
   73        5.600531   1.000000
   74        5.636767   1.000000
   75        5.696740   1.000000
   76        5.723709   1.000000
   77        5.789536   1.000000
   78        5.819134   1.000000
   79        5.890831   1.000000
   80        5.940951   1.000000
   81        5.989026   1.000000
   82        6.024041   1.000001
   83        6.080556   1.000005
   84        6.104363   1.000011
   85        6.130646   1.000024
   86        6.153852   1.000048
   87        6.233317   1.000411
   88        6.261285   1.000805
   89        6.314298   1.002547
   90        6.362718   1.006282
   91        6.400094   1.011366
   92        6.433100   1.017661
   93        6.483772   1.029087
   94        6.507947   1.033538
   95        6.541172   1.035133
   96        6.594100   1.013997
   97        6.655954   0.922809
   98        6.670868   0.887011
   99        6.770607   0.527917
  100        6.811221   0.358362
  101        6.835223   0.265597
  102        6.901407   0.070787
  103        6.988595  -0.030071
  104        7.023599  -0.035450
  105        7.064250  -0.030417
  106        7.127449  -0.016375
  107        7.178400  -0.007842
  108        7.253585  -0.001931
  109        7.354330  -0.000175
  110        7.509474  -0.000001
  111        7.533415  -0.000001
  112        7.626356  -0.000000
  113        7.721684  -0.000000
  114        7.794846  -0.000000
  115        7.837074  -0.000000
  116        8.025650  -0.000000
  117        8.037111  -0.000000
  118        8.153170  -0.000000
  119        8.259759  -0.000000
  120        8.314873  -0.000000
 
 -0.6938894E-17  0.1428571E+00  0.1040834E-16  0.5830904E-02
    1      -47.442803   1.000000
    2      -47.357225   1.000000
    3      -47.223274   1.000000
    4      -47.200653   1.000000
    5      -47.049957   1.000000
    6      -46.922996   1.000000
    7      -24.091314   1.000000
    8      -24.007592   1.000000
    9      -23.788879   1.000000
   10      -23.656318   1.000000
   11      -23.600610   1.000000
   12      -23.514873   1.000000
   13      -23.478579   1.000000
   14      -23.439556   1.000000
   15      -23.403294   1.000000
   16      -23.342061   1.000000
   17      -23.311577   1.000000
   18      -23.219953   1.000000
   19      -23.173378   1.000000
   20      -23.141806   1.000000
   21      -23.126512   1.000000
   22      -23.080846   1.000000
   23      -22.745941   1.000000
   24      -22.641591   1.000000
   25       -0.001365   1.000000
   26        1.284864   1.000000
   27        1.671824   1.000000
   28        2.124875   1.000000
   29        2.533222   1.000000
   30        2.612948   1.000000
   31        2.665632   1.000000
   32        2.799788   1.000000
   33        2.823962   1.000000
   34        2.929165   1.000000
   35        3.027899   1.000000
   36        3.108962   1.000000
   37        3.138355   1.000000
   38        3.199362   1.000000
   39        3.311322   1.000000
   40        3.335014   1.000000
   41        3.408133   1.000000
   42        3.510161   1.000000
   43        3.586577   1.000000
   44        3.632057   1.000000
   45        3.719166   1.000000
   46        3.816458   1.000000
   47        3.863107   1.000000
   48        3.927830   1.000000
   49        4.046509   1.000000
   50        4.078430   1.000000
   51        4.153505   1.000000
   52        4.181996   1.000000
   53        4.247747   1.000000
   54        4.366725   1.000000
   55        4.428069   1.000000
   56        4.567418   1.000000
   57        4.636098   1.000000
   58        4.662360   1.000000
   59        4.778141   1.000000
   60        4.818419   1.000000
   61        4.896185   1.000000
   62        4.922026   1.000000
   63        4.967776   1.000000
   64        5.034558   1.000000
   65        5.081624   1.000000
   66        5.133381   1.000000
   67        5.193994   1.000000
   68        5.231475   1.000000
   69        5.266186   1.000000
   70        5.331662   1.000000
   71        5.400950   1.000000
   72        5.479049   1.000000
   73        5.536066   1.000000
   74        5.601377   1.000000
   75        5.694445   1.000000
   76        5.714383   1.000000
   77        5.769876   1.000000
   78        5.778156   1.000000
   79        5.917947   1.000000
   80        5.963287   1.000000
   81        5.980371   1.000000
   82        6.073285   1.000004
   83        6.129095   1.000023
   84        6.159077   1.000056
   85        6.239944   1.000484
   86        6.289203   1.001507
   87        6.328098   1.003343
   88        6.396960   1.010855
   89        6.454839   1.022519
   90        6.485819   1.029521
   91        6.537136   1.035363
   92        6.594287   1.013846
   93        6.648461   0.938675
   94        6.760772   0.569287
   95        6.804676   0.384979
   96        6.886690   0.104983
   97        6.994152  -0.031832
   98        7.085463  -0.025780
   99        7.166524  -0.009464
  100        7.230182  -0.003102
  101        7.346899  -0.000212
  102        7.383783  -0.000078
  103        7.438347  -0.000015
  104        7.500971  -0.000002
  105        7.617932  -0.000000
  106        7.674618  -0.000000
  107        7.747209  -0.000000
  108        7.833044  -0.000000
  109        7.944094  -0.000000
  110        8.056474  -0.000000
  111        8.194317  -0.000000
  112        8.320146  -0.000000
  113        8.388471  -0.000000
  114        8.484728  -0.000000
  115        8.534004  -0.000000
  116        8.570335  -0.000000
  117        8.664649  -0.000000
  118        8.716079  -0.000000
  119        8.745474  -0.000000
  120        8.802784  -0.000000
 
  0.1428571E+00  0.1428571E+00 -0.1387779E-16  0.5830904E-02
    1      -47.442794   1.000000
    2      -47.354326   1.000000
    3      -47.222904   1.000000
    4      -47.200495   1.000000
    5      -47.049915   1.000000
    6      -46.926148   1.000000
    7      -24.089667   1.000000
    8      -23.954345   1.000000
    9      -23.792928   1.000000
   10      -23.653162   1.000000
   11      -23.601862   1.000000
   12      -23.514238   1.000000
   13      -23.476588   1.000000
   14      -23.441212   1.000000
   15      -23.406296   1.000000
   16      -23.343259   1.000000
   17      -23.312989   1.000000
   18      -23.222567   1.000000
   19      -23.168935   1.000000
   20      -23.143570   1.000000
   21      -23.127322   1.000000
   22      -23.083575   1.000000
   23      -22.747809   1.000000
   24      -22.705777   1.000000
   25        0.092099   1.000000
   26        1.367141   1.000000
   27        1.759547   1.000000
   28        2.413109   1.000000
   29        2.613174   1.000000
   30        2.701597   1.000000
   31        2.762955   1.000000
   32        2.851350   1.000000
   33        2.902096   1.000000
   34        2.980963   1.000000
   35        3.073980   1.000000
   36        3.102426   1.000000
   37        3.206412   1.000000
   38        3.303554   1.000000
   39        3.353280   1.000000
   40        3.424992   1.000000
   41        3.463601   1.000000
   42        3.585023   1.000000
   43        3.660725   1.000000
   44        3.695462   1.000000
   45        3.717433   1.000000
   46        3.847336   1.000000
   47        3.912241   1.000000
   48        3.974271   1.000000
   49        4.087355   1.000000
   50        4.125758   1.000000
   51        4.208060   1.000000
   52        4.240500   1.000000
   53        4.292519   1.000000
   54        4.412049   1.000000
   55        4.461287   1.000000
   56        4.572147   1.000000
   57        4.651134   1.000000
   58        4.705894   1.000000
   59        4.832792   1.000000
   60        4.867523   1.000000
   61        4.904470   1.000000
   62        4.930442   1.000000
   63        4.981702   1.000000
   64        5.056887   1.000000
   65        5.087262   1.000000
   66        5.139464   1.000000
   67        5.175315   1.000000
   68        5.232635   1.000000
   69        5.314517   1.000000
   70        5.345083   1.000000
   71        5.396290   1.000000
   72        5.492620   1.000000
   73        5.501220   1.000000
   74        5.557600   1.000000
   75        5.654039   1.000000
   76        5.717668   1.000000
   77        5.758915   1.000000
   78        5.812790   1.000000
   79        5.855122   1.000000
   80        5.896696   1.000000
   81        5.922874   1.000000
   82        6.004820   1.000000
   83        6.091497   1.000007
   84        6.147508   1.000040
   85        6.186714   1.000122
   86        6.296121   1.001748
   87        6.339126   1.004121
   88        6.354976   1.005492
   89        6.428708   1.016736
   90        6.493848   1.031142
   91        6.600979   1.007995
   92        6.618272   0.988674
   93        6.686339   0.844002
   94        6.764589   0.553281
   95        6.836845   0.259664
   96        6.889351   0.098395
   97        6.917527   0.039571
   98        7.007020  -0.034481
   99        7.077902  -0.027496
  100        7.169782  -0.008997
  101        7.186655  -0.006843
  102        7.268529  -0.001403
  103        7.309185  -0.000550
  104        7.349997  -0.000196
  105        7.431474  -0.000019
  106        7.518965  -0.000001
  107        7.639849  -0.000000
  108        7.684539  -0.000000
  109        7.783410  -0.000000
  110        7.920435  -0.000000
  111        8.106085  -0.000000
  112        8.224017  -0.000000
  113        8.372808  -0.000000
  114        8.469307  -0.000000
  115        8.503190  -0.000000
  116        8.596076  -0.000000
  117        8.664842  -0.000000
  118        8.713873  -0.000000
  119        8.774237  -0.000000
  120        8.825977  -0.000000
 
  0.2857143E+00  0.1428571E+00  0.2775558E-16  0.5830904E-02
    1      -47.442374   1.000000
    2      -47.347637   1.000000
    3      -47.222481   1.000000
    4      -47.200151   1.000000
    5      -47.049831   1.000000
    6      -46.933366   1.000000
    7      -24.088792   1.000000
    8      -23.810390   1.000000
    9      -23.785050   1.000000
   10      -23.641481   1.000000
   11      -23.604728   1.000000
   12      -23.513518   1.000000
   13      -23.471291   1.000000
   14      -23.445399   1.000000
   15      -23.412469   1.000000
   16      -23.345807   1.000000
   17      -23.316409   1.000000
   18      -23.228366   1.000000
   19      -23.174214   1.000000
   20      -23.149534   1.000000
   21      -23.128720   1.000000
   22      -23.090478   1.000000
   23      -22.886483   1.000000
   24      -22.743586   1.000000
   25        0.493730   1.000000
   26        1.692140   1.000000
   27        2.077412   1.000000
   28        2.639461   1.000000
   29        2.713803   1.000000
   30        2.852133   1.000000
   31        2.988945   1.000000
   32        3.066963   1.000000
   33        3.117778   1.000000
   34        3.175267   1.000000
   35        3.249658   1.000000
   36        3.325179   1.000000
   37        3.364225   1.000000
   38        3.484260   1.000000
   39        3.528350   1.000000
   40        3.610298   1.000000
   41        3.648996   1.000000
   42        3.687196   1.000000
   43        3.747454   1.000000
   44        3.847653   1.000000
   45        3.902742   1.000000
   46        3.968200   1.000000
   47        4.039070   1.000000
   48        4.101952   1.000000
   49        4.160486   1.000000
   50        4.221463   1.000000
   51        4.289178   1.000000
   52        4.407147   1.000000
   53        4.448382   1.000000
   54        4.480477   1.000000
   55        4.524490   1.000000
   56        4.631795   1.000000
   57        4.712461   1.000000
   58        4.758571   1.000000
   59        4.829850   1.000000
   60        4.894973   1.000000
   61        4.963671   1.000000
   62        4.980938   1.000000
   63        5.057214   1.000000
   64        5.114147   1.000000
   65        5.166012   1.000000
   66        5.188839   1.000000
   67        5.248484   1.000000
   68        5.291205   1.000000
   69        5.347459   1.000000
   70        5.399838   1.000000
   71        5.481655   1.000000
   72        5.501119   1.000000
   73        5.561708   1.000000
   74        5.610985   1.000000
   75        5.656206   1.000000
   76        5.701703   1.000000
   77        5.750812   1.000000
   78        5.825785   1.000000
   79        5.848293   1.000000
   80        5.905176   1.000000
   81        5.957204   1.000000
   82        5.997858   1.000000
   83        6.076838   1.000004
   84        6.129715   1.000023
   85        6.147234   1.000039
   86        6.218161   1.000280
   87        6.232923   1.000407
   88        6.291178   1.001573
   89        6.370763   1.007194
   90        6.401705   1.011635
   91        6.480576   1.028396
   92        6.514626   1.034398
   93        6.562311   1.031230
   94        6.606214   1.002805
   95        6.627699   0.975384
   96        6.679894   0.862632
   97        6.739040   0.658287
   98        6.802213   0.395108
   99        6.875060   0.135857
  100        6.927958   0.022749
  101        6.977602  -0.025330
  102        7.018638  -0.035409
  103        7.075050  -0.028130
  104        7.125177  -0.016846
  105        7.185623  -0.006962
  106        7.225963  -0.003366
  107        7.375309  -0.000098
  108        7.545532  -0.000000
  109        7.617009  -0.000000
  110        7.733204  -0.000000
  111        7.811685  -0.000000
  112        7.964166  -0.000000
  113        8.021350  -0.000000
  114        8.173281  -0.000000
  115        8.253958  -0.000000
  116        8.371148  -0.000000
  117        8.425309  -0.000000
  118        8.490748  -0.000000
  119        8.546975  -0.000000
  120        8.582582  -0.000000
 
  0.4285714E+00  0.1428571E+00 -0.2081668E-16  0.5830904E-02
    1      -47.441859   1.000000
    2      -47.342091   1.000000
    3      -47.222324   1.000000
    4      -47.199879   1.000000
    5      -47.049786   1.000000
    6      -46.939302   1.000000
    7      -24.088501   1.000000
    8      -23.784515   1.000000
    9      -23.677480   1.000000
   10      -23.608019   1.000000
   11      -23.561921   1.000000
   12      -23.513188   1.000000
   13      -23.466412   1.000000
   14      -23.449349   1.000000
   15      -23.416854   1.000000
   16      -23.347954   1.000000
   17      -23.320723   1.000000
   18      -23.235428   1.000000
   19      -23.185543   1.000000
   20      -23.155554   1.000000
   21      -23.132007   1.000000
   22      -23.123881   1.000000
   23      -23.066994   1.000000
   24      -22.743993   1.000000
   25        1.137456   1.000000
   26        2.035684   1.000000
   27        2.325891   1.000000
   28        2.576143   1.000000
   29        2.711751   1.000000
   30        2.818328   1.000000
   31        3.126987   1.000000
   32        3.292209   1.000000
   33        3.329307   1.000000
   34        3.443968   1.000000
   35        3.470686   1.000000
   36        3.492335   1.000000
   37        3.555613   1.000000
   38        3.612475   1.000000
   39        3.668052   1.000000
   40        3.694245   1.000000
   41        3.764818   1.000000
   42        3.862137   1.000000
   43        3.911858   1.000000
   44        4.018327   1.000000
   45        4.050965   1.000000
   46        4.089642   1.000000
   47        4.152492   1.000000