 running on   96 total cores
 distrk:  each k-point on   96 cores,    1 groups
 distr:  one band on    8 cores,   12 groups
 using from now: INCAR     
 vasp.5.4.4.18Apr17-6-g9f103f2a35 (build Aug 09 2018 16:20:53) complex          
  
 POSCAR found :  5 types and      29 ions
 scaLAPACK will be used

 ----------------------------------------------------------------------------- 
|                                                                             |
|  ADVICE TO THIS USER RUNNING 'VASP/VAMP'   (HEAR YOUR MASTER'S VOICE ...):  |
|                                                                             |
|      You enforced a specific xc-type in the INCAR file,                     |
|      a different type was found on the POTCAR file                          |
|          I HOPE YOU KNOW, WHAT YOU ARE  DOING                               |
|                                                                             |
 ----------------------------------------------------------------------------- 

 LDA part: xc-table for Pade appr. of Perdew
 POSCAR found :  5 types and      29 ions
 POSCAR, INCAR and KPOINTS ok, starting setup
 FFT: planning ...
 WAVECAR not read
 initial charge from wavefunction
 entering main loop
       N       E                     dE             d eps       ncg     rms          rms(c)
DAV:   1    -0.404646715634E+04   -0.40465E+04   -0.16046E+05 60516   0.199E+03
DAV:   2    -0.964699012632E+04   -0.56005E+04   -0.52774E+04 74844   0.120E+03
DAV:   3    -0.104994073886E+05   -0.85242E+03   -0.82679E+03 82560   0.503E+02
DAV:   4    -0.107329466497E+05   -0.23354E+03   -0.21561E+03 82560   0.225E+02
DAV:   5    -0.108857924273E+05   -0.15285E+03   -0.13766E+03 82560   0.166E+02    0.533E+03
DAV:   6    -0.987688477510E+03    0.98981E+04   -0.23683E+04 65820   0.599E+02    0.252E+03
DAV:   7    -0.857449216880E+03    0.13024E+03   -0.16826E+04 70020   0.579E+02    0.193E+03
DAV:   8    -0.629244694459E+03    0.22820E+03   -0.48011E+03 73716   0.363E+02    0.173E+03
DAV:   9    -0.550721028626E+03    0.78524E+02   -0.74502E+02 71316   0.835E+01    0.165E+03
DAV:  10    -0.544217413018E+03    0.65036E+01   -0.14910E+02 77544   0.433E+01    0.161E+03
DAV:  11    -0.527737866719E+03    0.16480E+02   -0.21894E+01 75636   0.155E+01    0.159E+03
DAV:  12    -0.623549090008E+03   -0.95811E+02   -0.14309E+03 69132   0.197E+02    0.108E+03
DAV:  13    -0.595302859865E+03    0.28246E+02   -0.30452E+03 74412   0.276E+02    0.598E+02
DAV:  14    -0.417819115920E+03    0.17748E+03   -0.14103E+03 74832   0.163E+02    0.343E+02
DAV:  15    -0.425695933719E+03   -0.78768E+01   -0.12155E+03 78132   0.167E+02    0.260E+02
DAV:  16    -0.354315694238E+03    0.71380E+02   -0.47216E+02 73932   0.935E+01    0.197E+02
DAV:  17    -0.325405095769E+03    0.28911E+02   -0.34734E+02 72984   0.865E+01    0.172E+02
DAV:  18    -0.348697971160E+03   -0.23293E+02   -0.35069E+02 68928   0.102E+02    0.163E+02
DAV:  19    -0.335089158522E+03    0.13609E+02   -0.18781E+02 76632   0.697E+01    0.112E+02
DAV:  20    -0.312090809371E+03    0.22998E+02   -0.20932E+02 73836   0.535E+01    0.801E+01
DAV:  21    -0.316638726525E+03   -0.45479E+01   -0.12885E+02 64992   0.611E+01    0.593E+01
DAV:  22    -0.310264522346E+03    0.63742E+01   -0.40044E+01 78132   0.260E+01    0.444E+01
DAV:  23    -0.311359577299E+03   -0.10951E+01   -0.20730E+01 72204   0.183E+01    0.445E+01
DAV:  24    -0.310005322403E+03    0.13543E+01   -0.86180E+00 72384   0.140E+01    0.375E+01
DAV:  25    -0.308059341260E+03    0.19460E+01   -0.13165E+01 73320   0.146E+01    0.263E+01
DAV:  26    -0.307835772150E+03    0.22357E+00   -0.42840E+00 70620   0.906E+00    0.211E+01
DAV:  27    -0.307888750613E+03   -0.52978E-01   -0.48709E+00 69288   0.918E+00    0.185E+01
DAV:  28    -0.307646502469E+03    0.24225E+00   -0.11765E+00 70200   0.450E+00    0.153E+01
DAV:  29    -0.307641933348E+03    0.45691E-02   -0.61821E-01 76020   0.296E+00    0.135E+01
DAV:  30    -0.307269245427E+03    0.37269E+00   -0.16230E+00 71268   0.437E+00    0.111E+01
DAV:  31    -0.307244766680E+03    0.24479E-01   -0.34809E-01 74736   0.195E+00    0.899E+00
DAV:  32    -0.307254196472E+03   -0.94298E-02   -0.21598E-01 67116   0.193E+00    0.715E+00
DAV:  33    -0.307244660611E+03    0.95359E-02   -0.26524E-01 67680   0.168E+00    0.533E+00
DAV:  34    -0.307215141045E+03    0.29520E-01   -0.64398E-02 70884   0.954E-01    0.398E+00
DAV:  35    -0.307202932868E+03    0.12208E-01   -0.82453E-02 67560   0.112E+00    0.288E+00
DAV:  36    -0.307195953273E+03    0.69796E-02   -0.18588E-02 67212   0.494E-01    0.249E+00
DAV:  37    -0.307191717300E+03    0.42360E-02   -0.76093E-03 65700   0.317E-01    0.201E+00
DAV:  38    -0.307189362846E+03    0.23545E-02   -0.11514E-02 63660   0.394E-01    0.148E+00
DAV:  39    -0.307186832126E+03    0.25307E-02   -0.32413E-03 64884   0.204E-01    0.121E+00
DAV:  40    -0.307185132110E+03    0.17000E-02   -0.13090E-03 56640   0.141E-01    0.996E-01
DAV:  41    -0.307183769231E+03    0.13629E-02   -0.14171E-03 59232   0.159E-01    0.799E-01
DAV:  42    -0.307183393775E+03    0.37546E-03   -0.10468E-04 26880   0.565E-02    0.738E-01
DAV:  43    -0.307181543858E+03    0.18499E-02   -0.31387E-03 62160   0.202E-01    0.464E-01
DAV:  44    -0.307181120930E+03    0.42293E-03   -0.79542E-04 50604   0.119E-01    0.274E-01
DAV:  45    -0.307180859284E+03    0.26165E-03   -0.61471E-04 47880   0.996E-02    0.134E-01
DAV:  46    -0.307180821257E+03    0.38027E-04   -0.16504E-04 29760   0.558E-02
   1 F= -.30718082E+03 E0= -.30717697E+03  d E =-.307181E+03
 curvature:   0.00 expect dE= 0.000E+00 dE for cont linesearch  0.000E+00
 trial: gam= 0.00000 g(F)=  0.680E+00 g(S)=  0.134E+00 ort = 0.000E+00 (trialstep = 0.100E+01)
 search vector abs. value=  0.813E+00
 bond charge predicted
       N       E                     dE             d eps       ncg     rms          rms(c)
DAV:   1    -0.307682827826E+03   -0.50197E+00   -0.10271E+02 41748   0.392E+01    0.796E+00
DAV:   2    -0.309757763192E+03   -0.20749E+01   -0.21973E+01 74772   0.265E+01    0.109E+01
DAV:   3    -0.308278177440E+03    0.14796E+01   -0.13670E+01 73200   0.151E+01    0.699E+00
DAV:   4    -0.308179492423E+03    0.98685E-01   -0.73760E+00 67956   0.129E+01    0.656E+00
DAV:   5    -0.307853918418E+03    0.32557E+00   -0.38182E+00 69108   0.913E+00    0.358E+00
DAV:   6    -0.307771380899E+03    0.82538E-01   -0.15192E+00 70248   0.507E+00    0.283E+00
DAV:   7    -0.307725186076E+03    0.46195E-01   -0.88644E-01 74316   0.427E+00    0.192E+00
DAV:   8    -0.307713654297E+03    0.11532E-01   -0.39933E-01 76200   0.290E+00    0.147E+00
DAV:   9    -0.307696682771E+03    0.16972E-01   -0.19519E-01 73740   0.192E+00    0.896E-01
DAV:  10    -0.307692592794E+03    0.40900E-02   -0.63724E-02 70284   0.107E+00    0.644E-01
DAV:  11    -0.307693076876E+03   -0.48408E-03   -0.30033E-02 62892   0.745E-01    0.562E-01
DAV:  12    -0.307694046508E+03   -0.96963E-03   -0.17562E-02 69264   0.564E-01    0.339E-01
DAV:  13    -0.307694890350E+03   -0.84384E-03   -0.14439E-02 75420   0.447E-01    0.223E-01
DAV:  14    -0.307695256650E+03   -0.36630E-03   -0.11473E-02 64776   0.479E-01    0.288E-01
DAV:  15    -0.307694607581E+03    0.64907E-03   -0.69776E-03 62772   0.379E-01    0.112E-01
DAV:  16    -0.307694509262E+03    0.98320E-04   -0.12846E-03 56436   0.158E-01    0.745E-02
DAV:  17    -0.307694458853E+03    0.50409E-04   -0.39219E-04 38580   0.980E-02
   2 F= -.30769446E+03 E0= -.30769185E+03  d E =-.513638E+00
 trial-energy change:   -0.513638  1 .order   -0.508206   -0.813387   -0.203025
 step:   1.3109(harm=  1.3326)  dis= 0.05765  next Energy=  -307.726179 (dE=-0.545E+00)
 bond charge predicted
       N       E                     dE             d eps       ncg     rms          rms(c)
DAV:   1    -0.307715287012E+03   -0.20778E-01   -0.99583E+00 41304   0.123E+01    0.251E+00
DAV:   2    -0.307928704297E+03   -0.21342E+00   -0.21713E+00 73392   0.830E+00    0.373E+00
DAV:   3    -0.307782607252E+03    0.14610E+00   -0.14748E+00 72864   0.538E+00    0.220E+00
DAV:   4    -0.307775158028E+03    0.74492E-02   -0.68969E-01 68616   0.382E+00    0.210E+00
DAV:   5    -0.307739751181E+03    0.35407E-01   -0.38416E-01 69096   0.285E+00    0.115E+00
DAV:   6    -0.307731911607E+03    0.78396E-02   -0.15606E-01 70680   0.167E+00    0.882E-01
DAV:   7    -0.307727262380E+03    0.46492E-02   -0.83216E-02 74100   0.133E+00    0.590E-01
DAV:   8    -0.307726147942E+03    0.11144E-02   -0.39937E-02 74784   0.901E-01    0.464E-01
DAV:   9    -0.307724460168E+03    0.16878E-02   -0.17673E-02 65580   0.601E-01    0.284E-01
DAV:  10    -0.307724103851E+03    0.35632E-03   -0.58579E-03 61188   0.326E-01    0.210E-01
DAV:  11    -0.307724233025E+03   -0.12917E-03   -0.32997E-03 59028   0.248E-01    0.194E-01
DAV:  12    -0.307724343321E+03   -0.11030E-03   -0.23191E-03 61032   0.216E-01    0.114E-01
DAV:  13    -0.307724482954E+03   -0.13963E-03   -0.21516E-03 64968   0.213E-01    0.124E-01
DAV:  14    -0.307724408429E+03    0.74525E-04   -0.18813E-03 59484   0.213E-01    0.794E-02
DAV:  15    -0.307724331291E+03    0.77138E-04   -0.40605E-04 38760   0.118E-01
   3 F= -.30772433E+03 E0= -.30772225E+03  d E =-.543510E+00
 curvature:  -0.66 expect dE=-0.682E+00 dE for cont linesearch -0.512E-04
 trial: gam= 1.27428 g(F)=  0.226E+00 g(S)=  0.803E+00 ort =-0.792E-02 (trialstep = 0.371E+00)
 search vector abs. value=  0.233E+01
 bond charge predicted
       N       E                     dE             d eps       ncg     rms          rms(c)
DAV:   1    -0.307876801644E+03   -0.15239E+00   -0.39063E+01 41304   0.234E+01    0.390E+00
DAV:   2    -0.308534878471E+03   -0.65808E+00   -0.65951E+00 70836   0.131E+01    0.625E+00
DAV:   3    -0.308114504746E+03    0.42037E+00   -0.40244E+00 74400   0.869E+00    0.316E+00
DAV:   4    -0.308120219766E+03   -0.57150E-02   -0.14180E+00 67656   0.562E+00    0.318E+00
DAV:   5    -0.308026446881E+03    0.93773E-01   -0.80629E-01 69312   0.425E+00    0.144E+00
DAV:   6    -0.308020020794E+03    0.64261E-02   -0.31215E-01 71292   0.242E+00    0.140E+00
DAV:   7    -0.308009829633E+03    0.10191E-01   -0.18989E-01 72084   0.218E+00    0.968E-01
DAV:   8    -0.308001972424E+03    0.78572E-02   -0.84541E-02 73140   0.137E+00    0.476E-01
DAV:   9    -0.308000620444E+03    0.13520E-02   -0.26128E-02 70680   0.710E-01    0.371E-01
DAV:  10    -0.308000076053E+03    0.54439E-03   -0.98865E-03 60780   0.436E-01    0.274E-01
DAV:  11    -0.308000234840E+03   -0.15879E-03   -0.41655E-03 59268   0.282E-01    0.226E-01
DAV:  12    -0.308000569472E+03   -0.33463E-03   -0.41651E-03 62400   0.268E-01    0.185E-01
DAV:  13    -0.308000694750E+03   -0.12528E-03   -0.39029E-03 67272   0.294E-01    0.161E-01
DAV:  14    -0.308000634162E+03    0.60588E-04   -0.37442E-03 58872   0.304E-01    0.129E-01
DAV:  15    -0.308000443921E+03    0.19024E-03   -0.14198E-03 58008   0.177E-01    0.334E-02
DAV:  16    -0.308000427430E+03    0.16491E-04   -0.15461E-04 27036   0.819E-02
   4 F= -.30800043E+03 E0= -.30799948E+03  d E =-.276096E+00
 trial-energy change:   -0.276096  1 .order   -0.277949   -0.377785   -0.178114
 step:   0.7434(harm=  0.7018)  dis= 0.05313  next Energy=  -308.087973 (dE=-0.364E+00)
 bond charge predicted
       N       E                     dE             d eps       ncg     rms          rms(c)
DAV:   1    -0.307960508229E+03    0.39936E-01   -0.39309E+01 41304   0.235E+01    0.383E+00
DAV:   2    -0.308618631801E+03   -0.65812E+00   -0.66422E+00 70704   0.133E+01    0.617E+00
DAV:   3    -0.308187278892E+03    0.43135E+00   -0.39524E+00 73956   0.870E+00    0.297E+00
DAV:   4    -0.308194006610E+03   -0.67277E-02   -0.13092E+00 68472   0.544E+00    0.308E+00
DAV:   5    -0.308106864852E+03    0.87142E-01   -0.75687E-01 69168   0.413E+00    0.136E+00
DAV:   6    -0.308102396167E+03    0.44687E-02   -0.28697E-01 70968   0.233E+00    0.138E+00
DAV:   7    -0.308091412833E+03    0.10983E-01   -0.17754E-01 72024   0.211E+00    0.895E-01
DAV:   8    -0.308085143565E+03    0.62693E-02   -0.76113E-02 72936   0.130E+00    0.478E-01
DAV:   9    -0.308083693402E+03    0.14502E-02   -0.25634E-02 71004   0.700E-01    0.355E-01
DAV:  10    -0.308083256822E+03    0.43658E-03   -0.93494E-03 60804   0.424E-01    0.271E-01
DAV:  11    -0.308083423514E+03   -0.16669E-03   -0.43597E-03 58680   0.292E-01    0.220E-01
DAV:  12    -0.308083723279E+03   -0.29976E-03   -0.42094E-03 60372   0.268E-01    0.167E-01
DAV:  13    -0.308083727927E+03   -0.46480E-05   -0.32050E-03 68952   0.230E-01    0.105E-01
DAV:  14    -0.308083756381E+03   -0.28454E-04   -0.23695E-03 60240   0.240E-01    0.122E-01
DAV:  15    -0.308083613281E+03    0.14310E-03   -0.12188E-03 53448   0.181E-01    0.368E-02
DAV:  16    -0.308083595335E+03    0.17946E-04   -0.13466E-04 26832   0.799E-02
   5 F= -.30808360E+03 E0= -.30808341E+03  d E =-.359264E+00
 curvature:  -0.79 expect dE=-0.127E+00 dE for cont linesearch -0.321E-03
 trial: gam= 0.10902 g(F)=  0.154E+00 g(S)=  0.655E-02 ort =-0.308E-01 (trialstep = 0.445E+00)
 search vector abs. value=  0.181E+00
 bond charge predicted
       N       E                     dE             d eps       ncg     rms          rms(c)
DAV:   1    -0.308125882246E+03   -0.42269E-01   -0.40736E+00 41856   0.677E+00    0.641E-01
DAV:   2    -0.308167373415E+03   -0.41491E-01   -0.38694E-01 69432   0.333E+00    0.131E+00
DAV:   3    -0.308149966821E+03    0.17407E-01   -0.16200E-01 70584   0.209E+00    0.545E-01
DAV:   4    -0.308148415951E+03    0.15509E-02   -0.32445E-02 69048   0.847E-01    0.365E-01
DAV:   5    -0.308147260047E+03    0.11559E-02   -0.14099E-02 64644   0.533E-01    0.285E-01
DAV:   6    -0.308147112398E+03    0.14765E-03   -0.94906E-03 66696   0.456E-01    0.256E-01
DAV:   7    -0.308147037658E+03    0.74741E-04   -0.75447E-03 63912   0.407E-01    0.241E-01
DAV:   8    -0.308146588061E+03    0.44960E-03   -0.53108E-03 60336   0.340E-01    0.155E-01
DAV:   9    -0.308146364798E+03    0.22326E-03   -0.18709E-03 57120   0.203E-01    0.672E-02
DAV:  10    -0.308146325198E+03    0.39599E-04   -0.52974E-04 42336   0.111E-01
   6 F= -.30814633E+03 E0= -.30814631E+03  d E =-.627299E-01
 ZBRENT: can't locate minimum, use default step
 trial-energy change:   -0.062730  1 .order   -0.062616   -0.069951   -0.055281
 step:   1.7817(harm=  2.1239)  dis= 0.04383  next Energy=  -308.250372 (dE=-0.167E+00)
 bond charge predicted
       N       E                     dE             d eps       ncg     rms          rms(c)
DAV:   1    -0.308050984542E+03    0.95380E-01   -0.36563E+01 41436   0.204E+01    0.204E+00
DAV:   2    -0.308420198152E+03   -0.36921E+00   -0.35012E+00 69180   0.101E+01    0.379E+00
DAV:   3    -0.308283107504E+03    0.13709E+00   -0.14617E+00 70272   0.630E+00    0.173E+00
DAV:   4    -0.308264953685E+03    0.18154E-01   -0.30526E-01 67944   0.265E+00    0.109E+00
DAV:   5    -0.308254872697E+03    0.10081E-01   -0.12099E-01 66036   0.154E+00    0.835E-01
DAV:   6    -0.308254672149E+03    0.20055E-03   -0.80184E-02 72288   0.134E+00    0.796E-01
DAV:   7    -0.308252839090E+03    0.18331E-02   -0.64412E-02 70944   0.119E+00    0.674E-01
DAV:   8    -0.308249737187E+03    0.31019E-02   -0.46221E-02 68712   0.101E+00    0.485E-01
DAV:   9    -0.308247522455E+03    0.22147E-02   -0.19134E-02 68844   0.641E-01    0.216E-01
DAV:  10    -0.308247248760E+03    0.27369E-03   -0.64982E-03 63636   0.332E-01    0.151E-01
DAV:  11    -0.308247148832E+03    0.99928E-04   -0.28840E-03 61104   0.233E-01    0.984E-02
DAV:  12    -0.308247081213E+03    0.67619E-04   -0.10642E-03 53844   0.153E-01    0.675E-02
DAV:  13    -0.308247021071E+03    0.60142E-04   -0.34852E-04 36228   0.107E-01
   7 F= -.30824702E+03 E0= -.30824765E+03  d E =-.163426E+00
 curvature:  -1.18 expect dE=-0.863E-01 dE for cont linesearch -0.394E-02
 ZBRENT: extrapolating
 opt :   2.1128  next Energy=  -308.251102 (dE=-0.168E+00)
 bond charge predicted
       N       E                     dE             d eps       ncg     rms          rms(c)
DAV:   1    -0.308240031610E+03    0.70496E-02   -0.22531E+00 41592   0.503E+00    0.474E-01
DAV:   2    -0.308263173983E+03   -0.23142E-01   -0.21590E-01 69468   0.254E+00    0.962E-01
DAV:   3    -0.308253520386E+03    0.96536E-02   -0.88367E-02 70236   0.159E+00    0.389E-01
DAV:   4    -0.308252683590E+03    0.83680E-03   -0.17302E-02 66984   0.620E-01    0.266E-01
DAV:   5    -0.308252109476E+03    0.57411E-03   -0.80750E-03 64704   0.396E-01    0.211E-01
DAV:   6    -0.308251998031E+03    0.11145E-03   -0.52435E-03 63144   0.339E-01    0.185E-01
DAV:   7    -0.308251891562E+03    0.10647E-03   -0.39510E-03 62196   0.278E-01    0.147E-01
DAV:   8    -0.308251709187E+03    0.18237E-03   -0.21211E-03 58812   0.211E-01    0.100E-01
DAV:   9    -0.308251611751E+03    0.97436E-04   -0.79317E-04 47724   0.151E-01
   8 F= -.30825161E+03 E0= -.30825239E+03  d E =-.168016E+00
 curvature:  -1.22 expect dE=-0.112E+00 dE for cont linesearch -0.208E-04
 trial: gam= 0.52397 g(F)=  0.635E-01 g(S)=  0.287E-01 ort = 0.176E-02 (trialstep = 0.779E+00)
 search vector abs. value=  0.144E+00
 bond charge predicted
       N       E                     dE             d eps       ncg     rms          rms(c)
DAV:   1    -0.308297415961E+03   -0.45707E-01   -0.99586E+00 41280   0.125E+01    0.259E+00
DAV:   2    -0.308356672399E+03   -0.59256E-01   -0.14409E+00 71568   0.590E+00    0.195E+00
DAV:   3    -0.308384908234E+03   -0.28236E-01   -0.97583E-01 72060   0.476E+00    0.252E+00
DAV:   4    -0.308320930944E+03    0.63977E-01   -0.52228E-01 69960   0.365E+00    0.119E+00
DAV:   5    -0.308304204810E+03    0.16726E-01   -0.20731E-01 71568   0.181E+00    0.716E-01
DAV:   6    -0.308302054103E+03    0.21507E-02   -0.91808E-02 77028   0.123E+00    0.669E-01
DAV:   7    -0.308300368335E+03    0.16858E-02   -0.49791E-02 71256   0.977E-01    0.523E-01
DAV:   8    -0.308299124877E+03    0.12435E-02   -0.24263E-02 64284   0.735E-01    0.358E-01
DAV:   9    -0.308298337606E+03    0.78727E-03   -0.89455E-03 60240   0.414E-01    0.213E-01
DAV:  10    -0.308298532101E+03   -0.19449E-03   -0.36145E-03 61164   0.290E-01    0.195E-01
DAV:  11    -0.308298567919E+03   -0.35818E-04   -0.24519E-03 62820   0.225E-01    0.105E-01
DAV:  12    -0.308298740754E+03   -0.17283E-03   -0.22425E-03 66216   0.204E-01    0.112E-01
DAV:  13    -0.308298708687E+03    0.32067E-04   -0.16920E-03 57048   0.199E-01    0.705E-02
DAV:  14    -0.308298670395E+03    0.38292E-04   -0.39561E-04 39288   0.116E-01
   9 F= -.30829867E+03 E0= -.30829940E+03  d E =-.470586E-01
 trial-energy change:   -0.047059  1 .order   -0.046918   -0.072540   -0.021297
 step:   1.1026(harm=  1.1026)  dis= 0.02790  next Energy=  -308.302956 (dE=-0.513E-01)
 bond charge predicted
       N       E                     dE             d eps       ncg     rms          rms(c)
DAV:   1    -0.308301855031E+03   -0.31463E-02   -0.17238E+00 41292   0.521E+00    0.107E+00
DAV:   2    -0.308312327153E+03   -0.10472E-01   -0.24413E-01 71064   0.243E+00    0.819E-01
DAV:   3    -0.308317295032E+03   -0.49679E-02   -0.16842E-01 71640   0.200E+00    0.104E+00
DAV:   4    -0.308306303799E+03    0.10991E-01   -0.85498E-02 68868   0.148E+00    0.478E-01
DAV:   5    -0.308303653165E+03    0.26506E-02   -0.34769E-02 71676   0.743E-01    0.312E-01
DAV:   6    -0.308303445461E+03    0.20770E-03   -0.17200E-02 73764   0.554E-01    0.317E-01
DAV:   7    -0.308302882402E+03    0.56306E-03   -0.86465E-03 61692   0.431E-01    0.205E-01
DAV:   8    -0.308302687772E+03    0.19463E-03   -0.38859E-03 59448   0.288E-01    0.137E-01
DAV:   9    -0.308302595967E+03    0.91804E-04   -0.14006E-03 56016   0.172E-01    0.922E-02
DAV:  10    -0.308302613437E+03   -0.17470E-04   -0.43521E-04 38076   0.119E-01
  10 F= -.30830261E+03 E0= -.30830330E+03  d E =-.510017E-01
 curvature:  -0.85 expect dE=-0.109E+00 dE for cont linesearch -0.184E-06
 trial: gam= 1.36345 g(F)=  0.441E-01 g(S)=  0.834E-01 ort = 0.176E-03 (trialstep = 0.307E+00)
 search vector abs. value=  0.395E+00
 bond charge predicted
       N       E                     dE             d eps       ncg     rms          rms(c)
DAV:   1    -0.308312750090E+03   -0.10154E-01   -0.40172E+00 41472   0.676E+00    0.657E-01
DAV:   2    -0.308344713867E+03   -0.31964E-01   -0.36021E-01 68016   0.296E+00    0.886E-01
DAV:   3    -0.308342135997E+03    0.25779E-02   -0.10705E-01 68616   0.173E+00    0.678E-01
DAV:   4    -0.308338439191E+03    0.36968E-02   -0.28453E-02 69924   0.862E-01    0.351E-01
DAV:   5    -0.308337610987E+03    0.82820E-03   -0.12147E-02 64656   0.483E-01    0.308E-01
DAV:   6    -0.308337939503E+03   -0.32852E-03   -0.12503E-02 66576   0.539E-01    0.332E-01
DAV:   7    -0.308336975796E+03    0.96371E-03   -0.78864E-03 67656   0.419E-01    0.137E-01
DAV:   8    -0.308336754798E+03    0.22100E-03   -0.30814E-03 66072   0.222E-01    0.950E-02
DAV:   9    -0.308336654169E+03    0.10063E-03   -0.93244E-04 49092   0.152E-01    0.575E-02
DAV:  10    -0.308336624558E+03    0.29610E-04   -0.20366E-04 27708   0.955E-02
  11 F= -.30833662E+03 E0= -.30833722E+03  d E =-.340111E-01
 trial-energy change:   -0.034011  1 .order   -0.033604   -0.039215   -0.027993
 step:   0.7963(harm=  1.0724)  dis= 0.03965  next Energy=  -308.360592 (dE=-0.580E-01)
 bond charge predicted
       N       E                     dE             d eps       ncg     rms          rms(c)
DAV:   1    -0.308307262939E+03    0.29391E-01   -0.10233E+01 41544   0.108E+01    0.105E+00
DAV:   2    -0.308388845473E+03   -0.81583E-01   -0.91514E-01 67932   0.470E+00    0.144E+00
DAV:   3    -0.308381953933E+03    0.68915E-02   -0.28215E-01 68508   0.281E+00    0.109E+00
DAV:   4    -0.308372133446E+03    0.98205E-02   -0.71438E-02 68844   0.136E+00    0.532E-01
DAV:   5    -0.308370118382E+03    0.20151E-02   -0.30688E-02 67500   0.741E-01    0.462E-01
DAV:   6    -0.308371131032E+03   -0.10126E-02   -0.30530E-02 66708   0.854E-01    0.526E-01
DAV:   7    -0.308368591282E+03    0.25397E-02   -0.19876E-02 72936   0.650E-01    0.196E-01
DAV:   8    -0.308368175649E+03    0.41563E-03   -0.66615E-03 71556   0.302E-01    0.147E-01
DAV:   9    -0.308367972804E+03    0.20284E-03   -0.21628E-03 61548   0.205E-01    0.921E-02
DAV:  10    -0.308367933578E+03    0.39227E-04   -0.60833E-04 45540   0.122E-01
  12 F= -.30836793E+03 E0= -.30836836E+03  d E =-.653201E-01
 curvature:  -1.44 expect dE=-0.551E-01 dE for cont linesearch -0.484E-02
 ZBRENT: increasing intervall
 opt :   1.7750  next Energy=  -308.349937 (dE=-0.473E-01)
 bond charge predicted
       N       E                     dE             d eps       ncg     rms          rms(c)
DAV:   1    -0.308118696006E+03    0.24928E+00   -0.41098E+01 42180   0.217E+01    0.206E+00
DAV:   2    -0.308440537221E+03   -0.32184E+00   -0.35525E+00 67956   0.900E+00    0.299E+00
DAV:   3    -0.308400368646E+03    0.40169E-01   -0.11225E+00 68280   0.554E+00    0.206E+00
DAV:   4    -0.308364980817E+03    0.35388E-01   -0.25579E-01 71292   0.255E+00    0.103E+00
DAV:   5    -0.308357651277E+03    0.73295E-02   -0.11755E-01 67680   0.139E+00    0.857E-01
DAV:   6    -0.308361296262E+03   -0.36450E-02   -0.11333E-01 65964   0.166E+00    0.102E+00
DAV:   7    -0.308352301224E+03    0.89950E-02   -0.86451E-02 72672   0.134E+00    0.434E-01
DAV:   8    -0.308350630153E+03    0.16711E-02   -0.31130E-02 75228   0.700E-01    0.351E-01
DAV:   9    -0.308349496606E+03    0.11335E-02   -0.11993E-02 65460   0.482E-01    0.191E-01
DAV:  10    -0.308349362351E+03    0.13426E-03   -0.30309E-03 60996   0.248E-01    0.136E-01
DAV:  11    -0.308349348414E+03    0.13937E-04   -0.11831E-03 55308   0.156E-01    0.107E-01
DAV:  12    -0.308349398019E+03   -0.49605E-04   -0.12512E-03 55668   0.170E-01    0.986E-02
DAV:  13    -0.308349415239E+03   -0.17221E-04   -0.15503E-03 55212   0.191E-01    0.912E-02
DAV:  14    -0.308349331468E+03    0.83772E-04   -0.81867E-04 49572   0.148E-01
  13 F= -.30834933E+03 E0= -.30834945E+03  d E =-.467180E-01
 curvature:   5.37 expect dE= 0.666E+00 dE for cont linesearch  0.762E-01
 ZBRENT: bracketing found
 ZBRENT: interpolating
 opt :   1.1164  next Energy=  -308.373762 (dE=-0.711E-01)
 bond charge predicted
       N       E                     dE             d eps       ncg     rms          rms(c)
DAV:   1    -0.308272121376E+03    0.77294E-01   -0.18508E+01 42216   0.144E+01    0.140E+00
DAV:   2    -0.308428834772E+03   -0.15671E+00   -0.16817E+00 68556   0.656E+00    0.229E+00
DAV:   3    -0.308394516154E+03    0.34319E-01   -0.55779E-01 68448   0.393E+00    0.132E+00
DAV:   4    -0.308381616853E+03    0.12899E-01   -0.13428E-01 72012   0.179E+00    0.734E-01
DAV:   5    -0.308377678748E+03    0.39381E-02   -0.62795E-02 69756   0.114E+00    0.632E-01
DAV:   6    -0.308378265525E+03   -0.58678E-03   -0.53991E-02 70284   0.112E+00    0.627E-01
DAV:   7    -0.308375061131E+03    0.32044E-02   -0.32749E-02 71424   0.846E-01    0.315E-01
DAV:   8    -0.308374033250E+03    0.10279E-02   -0.14626E-02 73416   0.500E-01    0.203E-01
DAV:   9    -0.308373594400E+03    0.43885E-03   -0.41432E-03 61188   0.290E-01    0.115E-01
DAV:  10    -0.308373562075E+03    0.32325E-04   -0.13037E-03 55788   0.158E-01    0.910E-02
DAV:  11    -0.308373579698E+03   -0.17623E-04   -0.64005E-04 45924   0.133E-01
  14 F= -.30837358E+03 E0= -.30837390E+03  d E =-.709663E-01
 curvature:  -0.41 expect dE=-0.172E-01 dE for cont linesearch -0.180E-07
 trial: gam= 0.25754 g(F)=  0.398E-01 g(S)=  0.200E-02 ort = 0.132E-03 (trialstep = 0.469E+00)
 search vector abs. value=  0.681E-01
 bond charge predicted
       N       E                     dE             d eps       ncg     rms          rms(c)
DAV:   1    -0.308382953455E+03   -0.93914E-02   -0.15553E+00 41280   0.398E+00    0.352E-01
DAV:   2    -0.308394446546E+03   -0.11493E-01   -0.12195E-01 67608   0.183E+00    0.524E-01
DAV:   3    -0.308392921924E+03    0.15246E-02   -0.35483E-02 66924   0.101E+00    0.309E-01
DAV:   4    -0.308392207223E+03    0.71470E-03   -0.75580E-03 64008   0.463E-01    0.197E-01
DAV:   5    -0.308391919157E+03    0.28807E-03   -0.29224E-03 62292   0.244E-01    0.145E-01
DAV:   6    -0.308391947062E+03   -0.27905E-04   -0.20907E-03 57276   0.213E-01    0.147E-01
DAV:   7    -0.308391843005E+03    0.10406E-03   -0.23677E-03 61896   0.217E-01    0.106E-01
DAV:   8    -0.308391749780E+03    0.93225E-04   -0.11145E-03 53964   0.161E-01    0.727E-02
DAV:   9    -0.308391691844E+03    0.57936E-04   -0.42870E-04 39252   0.123E-01
  15 F= -.30839169E+03 E0= -.30839188E+03  d E =-.181121E-01
 ZBRENT: can't locate minimum, use default step
 trial-energy change:   -0.018112  1 .order   -0.018170   -0.019630   -0.016710
 step:   1.8752(harm=  3.1518)  dis= 0.04315  next Energy=  -308.439568 (dE=-0.660E-01)
 bond charge predicted
       N       E                     dE             d eps       ncg     rms          rms(c)
DAV:   1    -0.308353601776E+03    0.38148E-01   -0.14053E+01 41832   0.120E+01    0.106E+00
DAV:   2    -0.308454238139E+03   -0.10064E+00   -0.10703E+00 67476   0.531E+00    0.159E+00
DAV:   3    -0.308440493870E+03    0.13744E-01   -0.32565E-01 67176   0.302E+00    0.935E-01
DAV:   4    -0.308433515916E+03    0.69780E-02   -0.67235E-02 65508   0.138E+00    0.581E-01
DAV:   5    -0.308431635758E+03    0.18802E-02   -0.26923E-02 69948   0.750E-01    0.461E-01
DAV:   6    -0.308431369888E+03    0.26587E-03   -0.15662E-02 67836   0.600E-01    0.399E-01
DAV:   7    -0.308430898921E+03    0.47097E-03   -0.20509E-02 66864   0.601E-01    0.336E-01
DAV:   8    -0.308429975102E+03    0.92382E-03   -0.10787E-02 70632   0.488E-01    0.231E-01
DAV:   9    -0.308429467069E+03    0.50803E-03   -0.50273E-03 66048   0.334E-01    0.997E-02
DAV:  10    -0.308429429961E+03    0.37109E-04   -0.12528E-03 55860   0.154E-01    0.719E-02
DAV:  11    -0.308429385793E+03    0.44168E-04   -0.46879E-04 41964   0.108E-01
  16 F= -.30842939E+03 E0= -.30842928E+03  d E =-.558061E-01
 curvature:  -1.98 expect dE=-0.464E-01 dE for cont linesearch -0.935E-02
 ZBRENT: increasing intervall
 opt :   4.6880  next Energy=  -308.429964 (dE=-0.564E-01)
 bond charge predicted
       N       E                     dE             d eps       ncg     rms          rms(c)
DAV:   1    -0.308146538486E+03    0.28289E+00   -0.56395E+01 42828   0.240E+01    0.211E+00
DAV:   2    -0.308541016320E+03   -0.39448E+00   -0.41558E+00 67716   0.988E+00    0.325E+00
DAV:   3    -0.308476796386E+03    0.64220E-01   -0.13379E+00 68232   0.606E+00    0.185E+00
DAV:   4    -0.308447115276E+03    0.29681E-01   -0.26182E-01 66744   0.268E+00    0.111E+00
DAV:   5    -0.308443351088E+03    0.37642E-02   -0.11140E-01 69036   0.153E+00    0.982E-01
DAV:   6    -0.308439200797E+03    0.41503E-02   -0.56184E-02 67884   0.119E+00    0.719E-01
DAV:   7    -0.308439750234E+03   -0.54944E-03   -0.72839E-02 66444   0.109E+00    0.714E-01
DAV:   8    -0.308435611967E+03    0.41383E-02   -0.48646E-02 70164   0.103E+00    0.508E-01
DAV:   9    -0.308433084013E+03    0.25280E-02   -0.21983E-02 71868   0.705E-01    0.197E-01
DAV:  10    -0.308432846253E+03    0.23776E-03   -0.48927E-03 71268   0.268E-01    0.119E-01
DAV:  11    -0.308432824496E+03    0.21757E-04   -0.17456E-03 58548   0.183E-01    0.111E-01
DAV:  12    -0.308432751594E+03    0.72902E-04   -0.11041E-03 52800   0.158E-01    0.737E-02
DAV:  13    -0.308432760345E+03   -0.87505E-05   -0.62825E-04 46044   0.123E-01
  17 F= -.30843276E+03 E0= -.30843279E+03  d E =-.591806E-01
 curvature:  -0.12 expect dE=-0.138E-01 dE for cont linesearch -0.458E-03
 trial: gam= 0.00000 g(F)=  0.501E-01 g(S)=  0.625E-01 ort =-0.160E-01 (trialstep = 0.794E+00)
 search vector abs. value=  0.113E+00
 bond charge predicted
       N       E                     dE             d eps       ncg     rms          rms(c)
DAV:   1    -0.308595837068E+03   -0.16309E+00   -0.10563E+01 57180   0.153E+01    0.386E+00
DAV:   2    -0.308628332450E+03   -0.32495E-01   -0.25364E+00 75444   0.711E+00    0.304E+00
DAV:   3    -0.308600121683E+03    0.28211E-01   -0.24130E+00 72072   0.569E+00    0.325E+00
DAV:   4    -0.308511925250E+03    0.88196E-01   -0.11315E+00 68184   0.488E+00    0.206E+00
DAV:   5    -0.308474883434E+03    0.37042E-01   -0.51989E-01 71580   0.335E+00    0.127E+00
DAV:   6    -0.308466638480E+03    0.82450E-02   -0.25323E-01 71424   0.241E+00    0.113E+00
DAV:   7    -0.308457047510E+03    0.95910E-02   -0.13767E-01 71940   0.170E+00    0.583E-01
DAV:   8    -0.308455608695E+03    0.14388E-02   -0.41622E-02 74436   0.856E-01    0.428E-01
DAV:   9    -0.308454581072E+03    0.10276E-02   -0.12012E-02 63564   0.511E-01    0.296E-01
DAV:  10    -0.308454624968E+03   -0.43896E-04   -0.29789E-03 60384   0.249E-01    0.247E-01
DAV:  11    -0.308455071940E+03   -0.44697E-03   -0.17762E-03 60036   0.194E-01    0.203E-01
DAV:  12    -0.308455898482E+03   -0.82654E-03   -0.40675E-03 64836   0.303E-01    0.191E-01
DAV:  13    -0.308455818782E+03    0.79700E-04   -0.42234E-03 77004   0.290E-01    0.849E-02
DAV:  14    -0.308455758935E+03    0.59847E-04   -0.14122E-03 60192   0.141E-01    0.464E-02
DAV:  15    -0.308455725857E+03    0.33078E-04   -0.23181E-04 32388   0.848E-02
  18 F= -.30845573E+03 E0= -.30845606E+03  d E =-.229655E-01
 trial-energy change:   -0.022966  1 .order   -0.023612   -0.089435    0.042210
 step:   0.5344(harm=  0.5395)  dis= 0.00914  next Energy=  -308.462653 (dE=-0.299E-01)
 bond charge predicted
       N       E                     dE             d eps       ncg     rms          rms(c)
DAV:   1    -0.308477912919E+03   -0.22154E-01   -0.11396E+00 57372   0.504E+00    0.126E+00
DAV:   2    -0.308481785373E+03   -0.38725E-02   -0.27274E-01 76116   0.230E+00    0.104E+00
DAV:   3    -0.308478643731E+03    0.31416E-02   -0.27527E-01 71544   0.188E+00    0.107E+00
DAV:   4    -0.308470084849E+03    0.85589E-02   -0.12716E-01 67464   0.167E+00    0.717E-01
DAV:   5    -0.308464910148E+03    0.51747E-02   -0.57160E-02 70128   0.110E+00    0.428E-01
DAV:   6    -0.308464225410E+03    0.68474E-03   -0.30849E-02 69192   0.840E-01    0.397E-01
DAV:   7    -0.308463024636E+03    0.12008E-02   -0.16520E-02 66276   0.602E-01    0.196E-01
DAV:   8    -0.308462803684E+03    0.22095E-03   -0.50047E-03 63132   0.302E-01    0.139E-01
DAV:   9    -0.308462676242E+03    0.12744E-03   -0.13247E-03 57756   0.178E-01    0.956E-02
DAV:  10    -0.308462655443E+03    0.20798E-04   -0.13734E-04 26856   0.817E-02
  19 F= -.30846266E+03 E0= -.30846291E+03  d E =-.298951E-01
 curvature:  -0.27 expect dE=-0.104E-01 dE for cont linesearch -0.774E-06
 trial: gam= 0.34655 g(F)=  0.215E-01 g(S)=  0.170E-01 ort =-0.569E-03 (trialstep = 0.742E+00)
 search vector abs. value=  0.516E-01
 bond charge predicted
       N       E                     dE             d eps       ncg     rms          rms(c)
DAV:   1    -0.308459483510E+03    0.31927E-02   -0.36156E+00 41856   0.655E+00    0.806E-01
DAV:   2    -0.308499850233E+03   -0.40367E-01   -0.43982E-01 70332   0.323E+00    0.125E+00
DAV:   3    -0.308486024677E+03    0.13826E-01   -0.19561E-01 72348   0.204E+00    0.676E-01
DAV:   4    -0.308484628330E+03    0.13963E-02   -0.55013E-02 67392   0.114E+00    0.563E-01
DAV:   5    -0.308481487224E+03    0.31411E-02   -0.25980E-02 68832   0.716E-01    0.296E-01
DAV:   6    -0.308481640714E+03   -0.15349E-03   -0.14872E-02 70740   0.576E-01    0.311E-01
DAV:   7    -0.308480895259E+03    0.74546E-03   -0.10206E-02 70500   0.463E-01    0.169E-01
DAV:   8    -0.308480709019E+03    0.18624E-03   -0.34009E-03 68940   0.256E-01    0.120E-01
DAV:   9    -0.308480584934E+03    0.12408E-03   -0.10615E-03 51516   0.163E-01    0.775E-02
DAV:  10    -0.308480560797E+03    0.24137E-04   -0.21993E-04 28536   0.931E-02
  20 F= -.30848056E+03 E0= -.30848103E+03  d E =-.179054E-01
 trial-energy change:   -0.017905  1 .order   -0.017895   -0.028397   -0.007394
 step:   1.0034(harm=  1.0034)  dis= 0.01697  next Energy=  -308.481852 (dE=-0.192E-01)
 bond charge predicted
       N       E                     dE             d eps       ncg     rms          rms(c)
DAV:   1    -0.308479367803E+03    0.12171E-02   -0.45005E-01 41904   0.231E+00    0.280E-01
DAV:   2    -0.308484205922E+03   -0.48381E-02   -0.53420E-02 70128   0.112E+00    0.429E-01
DAV:   3    -0.308482639974E+03    0.15659E-02   -0.23380E-02 71448   0.703E-01    0.246E-01
DAV:   4    -0.308482437990E+03    0.20198E-03   -0.68257E-03 58596   0.403E-01    0.200E-01
DAV:   5    -0.308482051009E+03    0.38698E-03   -0.32160E-03 61140   0.258E-01    0.106E-01
DAV:   6    -0.308482088005E+03   -0.36995E-04   -0.18494E-03 55548   0.215E-01    0.118E-01
DAV:   7    -0.308481972806E+03    0.11520E-03   -0.13195E-03 55992   0.182E-01    0.581E-02
DAV:   8    -0.308481944229E+03    0.28577E-04   -0.33453E-04 35388   0.109E-01
  21 F= -.30848194E+03 E0= -.30848248E+03  d E =-.192888E-01
 curvature:  -0.68 expect dE=-0.495E-02 dE for cont linesearch -0.323E-05
 trial: gam= 0.16473 g(F)=  0.698E-02 g(S)=  0.334E-03 ort = 0.496E-03 (trialstep = 0.794E+00)
 search vector abs. value=  0.887E-02
 bond charge predicted
       N       E                     dE             d eps       ncg     rms          rms(c)
DAV:   1    -0.308484071867E+03   -0.20991E-02   -0.55721E-01 41688   0.249E+00    0.244E-01
DAV:   2    -0.308488717944E+03   -0.46461E-02   -0.50359E-02 68052   0.119E+00    0.374E-01
DAV:   3    -0.308487738393E+03    0.97955E-03   -0.18002E-02 67860   0.679E-01    0.218E-01
DAV:   4    -0.308487462911E+03    0.27548E-03   -0.45396E-03 59148   0.337E-01    0.154E-01
DAV:   5    -0.308487246491E+03    0.21642E-03   -0.20820E-03 58116   0.220E-01    0.922E-02
DAV:   6    -0.308487226017E+03    0.20474E-04   -0.89858E-04 49740   0.163E-01
  22 F= -.30848723E+03 E0= -.30848782E+03  d E =-.528179E-02
 ZBRENT: can't locate minimum, use default step
 trial-energy change:   -0.005282  1 .order   -0.005408   -0.005872   -0.004945
 step:   3.1778(harm=  5.0305)  dis= 0.01806  next Energy=  -308.500536 (dE=-0.186E-01)
 bond charge predicted
       N       E                     dE             d eps       ncg     rms          rms(c)
DAV:   1    -0.308468042960E+03    0.19204E-01   -0.50079E+00 41508   0.746E+00    0.736E-01
DAV:   2    -0.308512295140E+03   -0.44252E-01   -0.46709E-01 68112   0.366E+00    0.121E+00
DAV:   3    -0.308500025120E+03    0.12270E-01   -0.16877E-01 68784   0.205E+00    0.616E-01
DAV:   4    -0.308498913005E+03    0.11121E-02   -0.42485E-02 66696   0.103E+00    0.532E-01
DAV:   5    -0.308496061976E+03    0.28510E-02   -0.22160E-02 69156   0.705E-01    0.275E-01
DAV:   6    -0.308496092490E+03   -0.30514E-04   -0.94467E-03 63600   0.481E-01    0.285E-01
DAV:   7    -0.308495689777E+03    0.40271E-03   -0.99391E-03 66036   0.447E-01    0.211E-01
DAV:   8    -0.308495311047E+03    0.37873E-03   -0.45534E-03 63924   0.319E-01    0.144E-01
DAV:   9    -0.308495080411E+03    0.23064E-03   -0.18610E-03 57684   0.208E-01    0.627E-02
DAV:  10    -0.308495049511E+03    0.30900E-04   -0.51898E-04 43296   0.106E-01
  23 F= -.30849505E+03 E0= -.30849604E+03  d E =-.131053E-01
 curvature:  -2.44 expect dE=-0.183E-01 dE for cont linesearch -0.183E-03
 trial: gam= 0.91832 g(F)=  0.557E-02 g(S)=  0.192E-02 ort = 0.816E-03 (trialstep = 0.685E+00)
 search vector abs. value=  0.165E-01
 bond charge predicted
       N       E                     dE             d eps       ncg     rms          rms(c)
DAV:   1    -0.308499187224E+03   -0.41068E-02   -0.70679E-01 41280   0.305E+00    0.562E-01
DAV:   2    -0.308504690275E+03   -0.55031E-02   -0.89290E-02 71040   0.148E+00    0.611E-01
DAV:   3    -0.308503017961E+03    0.16723E-02   -0.59055E-02 70248   0.119E+00    0.547E-01
DAV:   4    -0.308501003125E+03    0.20148E-02   -0.26947E-02 62700   0.806E-01    0.321E-01
DAV:   5    -0.308499793413E+03    0.12097E-02   -0.12639E-02 67848   0.477E-01    0.199E-01
DAV:   6    -0.308499618871E+03    0.17454E-03   -0.64765E-03 60156   0.387E-01    0.179E-01
DAV:   7    -0.308499431434E+03    0.18744E-03   -0.36962E-03 58056   0.288E-01    0.115E-01
DAV:   8    -0.308499337985E+03    0.93450E-04   -0.14609E-03 57732   0.175E-01    0.675E-02
DAV:   9    -0.308499298422E+03    0.39562E-04   -0.22035E-04 28632   0.103E-01
  24 F= -.30849930E+03 E0= -.30850042E+03  d E =-.424891E-02
 trial-energy change:   -0.004249  1 .order   -0.004474   -0.005641   -0.003308
 step:   1.6558(harm=  1.6558)  dis= 0.01289  next Energy=  -308.501868 (dE=-0.682E-02)
 bond charge predicted
       N       E                     dE             d eps       ncg     rms          rms(c)
DAV:   1    -0.308500598255E+03   -0.12603E-02   -0.14194E+00 41280   0.433E+00    0.787E-01
DAV:   2    -0.308512169567E+03   -0.11571E-01   -0.18037E-01 70776   0.212E+00    0.889E-01
DAV:   3    -0.308507952331E+03    0.42172E-02   -0.12037E-01 69900   0.172E+00    0.760E-01
DAV:   4    -0.308504078386E+03    0.38739E-02   -0.52718E-02 65340   0.112E+00    0.447E-01
DAV:   5    -0.308501827602E+03    0.22508E-02   -0.25684E-02 70044   0.677E-01    0.293E-01
DAV:   6    -0.308501400002E+03    0.42760E-03   -0.12727E-02 62544   0.558E-01    0.246E-01
DAV:   7    -0.308501095249E+03    0.30475E-03   -0.66627E-03 66264   0.377E-01    0.164E-01
DAV:   8    -0.308500904390E+03    0.19086E-03   -0.24616E-03 60012   0.216E-01    0.939E-02
DAV:   9    -0.308500855848E+03    0.48542E-04   -0.36775E-04 35232   0.120E-01
  25 F= -.30850086E+03 E0= -.30850219E+03  d E =-.580634E-02
 curvature:  -1.66 expect dE=-0.293E-01 dE for cont linesearch -0.160E-04
 trial: gam= 2.57707 g(F)=  0.336E-02 g(S)=  0.144E-01 ort =-0.399E-03 (trialstep = 0.116E+00)
 search vector abs. value=  0.125E+00
 bond charge predicted
       N       E                     dE             d eps       ncg     rms          rms(c)
DAV:   1    -0.308502249410E+03   -0.13450E-02   -0.14416E-01 41340   0.120E+00    0.143E-01
DAV:   2    -0.308503385009E+03   -0.11356E-02   -0.12585E-02 69612   0.595E-01    0.244E-01
DAV:   3    -0.308502853551E+03    0.53146E-03   -0.50544E-03 64800   0.365E-01    0.117E-01
DAV:   4    -0.308502805240E+03    0.48310E-04   -0.14119E-03 54756   0.189E-01    0.103E-01
DAV:   5    -0.308502727015E+03    0.78226E-04   -0.10411E-03 52044   0.153E-01    0.707E-02
DAV:   6    -0.308502720496E+03    0.65185E-05   -0.56418E-04 43344   0.131E-01
  26 F= -.30850272E+03 E0= -.30850411E+03  d E =-.186465E-02
 ZBRENT: can't locate minimum, use default step
 trial-energy change:   -0.001865  1 .order   -0.001847   -0.001933   -0.001762
 step:   0.4631(harm=  1.3081)  dis= 0.01112  next Energy=  -308.511775 (dE=-0.109E-01)
 bond charge predicted
       N       E                     dE             d eps       ncg     rms          rms(c)
DAV:   1    -0.308502693646E+03    0.33369E-04   -0.12929E+00 41280   0.359E+00    0.369E-01
DAV:   2    -0.308513256977E+03   -0.10563E-01   -0.10927E-01 69072   0.179E+00    0.728E-01
DAV:   3    -0.308507966334E+03    0.52906E-02   -0.43050E-02 68748   0.109E+00    0.278E-01
DAV:   4    -0.308507762090E+03    0.20424E-03   -0.10545E-02 62376   0.501E-01    0.268E-01
DAV:   5    -0.308507045292E+03    0.71680E-03   -0.72923E-03 63672   0.375E-01    0.157E-01
DAV:   6    -0.308506977352E+03    0.67940E-04   -0.33614E-03 58488   0.291E-01    0.152E-01
DAV:   7    -0.308506867004E+03    0.11035E-03   -0.32251E-03 59364   0.267E-01    0.112E-01
DAV:   8    -0.308506775329E+03    0.91675E-04   -0.14013E-03 55200   0.186E-01    0.754E-02
DAV:   9    -0.308506690825E+03    0.84504E-04   -0.33307E-04 34320   0.123E-01
  27 F= -.30850669E+03 E0= -.30850832E+03  d E =-.583498E-02
 curvature:  -2.44 expect dE=-0.287E-01 dE for cont linesearch -0.182E-02
 ZBRENT: increasing intervall
 opt :   1.1578  next Energy=  -308.509548 (dE=-0.869E-02)
 bond charge predicted
       N       E                     dE             d eps       ncg     rms          rms(c)
DAV:   1    -0.308493095546E+03    0.13680E-01   -0.51737E+00 41280   0.719E+00    0.739E-01
DAV:   2    -0.308535785256E+03   -0.42690E-01   -0.43869E-01 68736   0.358E+00    0.149E+00
DAV:   3    -0.308514368741E+03    0.21417E-01   -0.17649E-01 68292   0.223E+00    0.552E-01
DAV:   4    -0.308513165412E+03    0.12033E-02   -0.39482E-02 70320   0.967E-01    0.513E-01
DAV:   5    -0.308510851238E+03    0.23142E-02   -0.28703E-02 68664   0.739E-01    0.332E-01
DAV:   6    -0.308510403392E+03    0.44785E-03   -0.13409E-02 62436   0.562E-01    0.295E-01
DAV:   7    -0.308509971552E+03    0.43184E-03   -0.11783E-02 65616   0.471E-01    0.209E-01
DAV:   8    -0.308509602230E+03    0.36932E-03   -0.49868E-03 64284   0.314E-01    0.137E-01
DAV:   9    -0.308509362113E+03    0.24012E-03   -0.16502E-03 56580   0.199E-01    0.590E-02
DAV:  10    -0.308509325894E+03    0.36219E-04   -0.36876E-04 37644   0.951E-02
  28 F= -.30850933E+03 E0= -.30851140E+03  d E =-.847005E-02
 curvature:  -3.83 expect dE=-0.388E-01 dE for cont linesearch -0.554E-04
 trial: gam= 0.16462 g(F)=  0.761E-02 g(S)=  0.254E-02 ort =-0.135E-02 (trialstep = 0.324E+00)
 search vector abs. value=  0.131E-01
 bond charge predicted
       N       E                     dE             d eps       ncg     rms          rms(c)
DAV:   1    -0.308511968192E+03   -0.26061E-02   -0.17481E-01 44496   0.169E+00    0.350E-01
DAV:   2    -0.308513189080E+03   -0.12209E-02   -0.26392E-02 70992   0.789E-01    0.300E-01
DAV:   3    -0.308513579180E+03   -0.39010E-03   -0.22801E-02 71592   0.672E-01    0.374E-01
DAV:   4    -0.308512501429E+03    0.10778E-02   -0.11484E-02 57768   0.530E-01    0.211E-01
DAV:   5    -0.308512080116E+03    0.42131E-03   -0.46359E-03 60924   0.314E-01    0.121E-01
DAV:   6    -0.308511983835E+03    0.96281E-04   -0.19648E-03 58656   0.237E-01    0.954E-02
DAV:   7    -0.308511921618E+03    0.62217E-04   -0.10004E-03 52344   0.164E-01    0.598E-02
DAV:   8    -0.308511888821E+03    0.32797E-04   -0.22942E-04 30480   0.108E-01
  29 F= -.30851189E+03 E0= -.30851402E+03  d E =-.256293E-02
 trial-energy change:   -0.002563  1 .order   -0.002604   -0.003218   -0.001990
 step:   0.8494(harm=  0.8494)  dis= 0.00461  next Energy=  -308.513541 (dE=-0.422E-02)
 bond charge predicted
       N       E                     dE             d eps       ncg     rms          rms(c)
DAV:   1    -0.308513566151E+03   -0.16445E-02   -0.45535E-01 44184   0.274E+00    0.553E-01
DAV:   2    -0.308515846998E+03   -0.22808E-02   -0.61433E-02 70584   0.119E+00    0.406E-01
DAV:   3    -0.308517788892E+03   -0.19419E-02   -0.51248E-02 71904   0.978E-01    0.603E-01
DAV:   4    -0.308514897794E+03    0.28911E-02   -0.29835E-02 59112   0.848E-01    0.331E-01
DAV:   5    -0.308513775411E+03    0.11224E-02   -0.10845E-02 67380   0.468E-01    0.175E-01
DAV:   6    -0.308513640528E+03    0.13488E-03   -0.51258E-03 61116   0.341E-01    0.156E-01
DAV:   7    -0.308513489808E+03    0.15072E-03   -0.24633E-03 60444   0.238E-01    0.935E-02
DAV:   8    -0.308513434259E+03    0.55550E-04   -0.80673E-04 50568   0.137E-01
  30 F= -.30851343E+03 E0= -.30851566E+03  d E =-.410836E-02
 curvature:  -0.56 expect dE=-0.526E-02 dE for cont linesearch -0.743E-06
 trial: gam= 0.90212 g(F)=  0.243E-02 g(S)=  0.696E-02 ort =-0.132E-03 (trialstep = 0.284E+00)
 search vector abs. value=  0.198E-01
 bond charge predicted
       N       E                     dE             d eps       ncg     rms          rms(c)
DAV:   1    -0.308514686131E+03   -0.11963E-02   -0.19857E-01 41328   0.162E+00    0.244E-01
DAV:   2    -0.308516223279E+03   -0.15371E-02   -0.24150E-02 69780   0.748E-01    0.228E-01
DAV:   3    -0.308516333432E+03   -0.11015E-03   -0.11282E-02 69180   0.512E-01    0.259E-01
DAV:   4    -0.308515832260E+03    0.50117E-03   -0.55308E-03 58092   0.368E-01    0.142E-01
DAV:   5    -0.308515650476E+03    0.18178E-03   -0.22160E-03 61680   0.211E-01    0.964E-02
DAV:   6    -0.308515628499E+03    0.21977E-04   -0.13425E-03 55488   0.182E-01    0.879E-02
DAV:   7    -0.308515551196E+03    0.77303E-04   -0.62856E-04 43284   0.145E-01
  31 F= -.30851555E+03 E0= -.30851782E+03  d E =-.211694E-02
 trial-energy change:   -0.002117  1 .order   -0.002186   -0.002630   -0.001741
 step:   0.8396(harm=  0.8396)  dis= 0.00642  next Energy=  -308.517326 (dE=-0.389E-02)
 bond charge predicted
       N       E                     dE             d eps       ncg     rms          rms(c)
DAV:   1    -0.308513430697E+03    0.21978E-02   -0.75985E-01 41304   0.318E+00    0.444E-01
DAV:   2    -0.308519407181E+03   -0.59765E-02   -0.88412E-02 68820   0.144E+00    0.425E-01
DAV:   3    -0.308519620243E+03   -0.21306E-03   -0.39472E-02 68568   0.959E-01    0.464E-01
DAV:   4    -0.308517859965E+03    0.17603E-02   -0.17394E-02 58932   0.664E-01    0.226E-01
DAV:   5    -0.308517157300E+03    0.70267E-03   -0.60482E-03 66228   0.315E-01    0.112E-01
DAV:   6    -0.308517344504E+03   -0.18720E-03   -0.34053E-03 61104   0.270E-01    0.173E-01
DAV:   7    -0.308517072110E+03    0.27239E-03   -0.18729E-03 58116   0.230E-01    0.707E-02
DAV:   8    -0.308517060469E+03    0.11641E-04   -0.74772E-04 47016   0.145E-01
  32 F= -.30851706E+03 E0= -.30851945E+03  d E =-.362621E-02
 curvature:  -0.90 expect dE=-0.161E-02 dE for cont linesearch -0.982E-05
 trial: gam= 0.24369 g(F)=  0.166E-02 g(S)=  0.132E-03 ort =-0.466E-03 (trialstep = 0.395E+00)
 search vector abs. value=  0.274E-02
 bond charge predicted
       N       E                     dE             d eps       ncg     rms          rms(c)
DAV:   1    -0.308517409306E+03   -0.33720E-03   -0.42559E-02 41592   0.687E-01    0.733E-02
DAV:   2    -0.308517880996E+03   -0.47169E-03   -0.45949E-03 68508   0.376E-01    0.149E-01
DAV:   3    -0.308517690697E+03    0.19030E-03   -0.17526E-03 54408   0.228E-01    0.607E-02
DAV:   4    -0.308517661336E+03    0.29361E-04   -0.20253E-04 31728   0.938E-02
  33 F= -.30851766E+03 E0= -.30852003E+03  d E =-.600866E-03
 ZBRENT: can't locate minimum, use default step
 trial-energy change:   -0.000601  1 .order   -0.000621   -0.000663   -0.000580
 step:   1.5796(harm=  3.1560)  dis= 0.00572  next Energy=  -308.519709 (dE=-0.265E-02)
 bond charge predicted
       N       E                     dE             d eps       ncg     rms          rms(c)
DAV:   1    -0.308517076882E+03    0.61381E-03   -0.38199E-01 41280   0.203E+00    0.188E-01
DAV:   2    -0.308520339473E+03   -0.32626E-02   -0.33532E-02 68856   0.993E-01    0.361E-01
DAV:   3    -0.308519278617E+03    0.10609E-02   -0.12056E-02 66096   0.615E-01    0.167E-01
DAV:   4    -0.308519107811E+03    0.17081E-03   -0.25509E-03 59256   0.257E-01    0.114E-01
DAV:   5    -0.308519017597E+03    0.90214E-04   -0.14500E-03 54036   0.194E-01    0.929E-02
DAV:   6    -0.308518957069E+03    0.60528E-04   -0.59400E-04 44832   0.126E-01
  34 F= -.30851896E+03 E0= -.30852136E+03  d E =-.189660E-02
 curvature:  -1.74 expect dE=-0.161E-02 dE for cont linesearch -0.546E-03
 trial: gam=-0.04786 g(F)=  0.865E-03 g(S)=  0.589E-04 ort = 0.929E-03 (trialstep = 0.632E+00)
 search vector abs. value=  0.841E-03
 bond charge predicted
       N       E                     dE             d eps       ncg     rms          rms(c)
DAV:   1    -0.308518984590E+03    0.33007E-04   -0.47407E-02 43620   0.771E-01    0.763E-02
DAV:   2    -0.308519477738E+03   -0.49315E-03   -0.53047E-03 68208   0.361E-01    0.117E-01
DAV:   3    -0.308519358859E+03    0.11888E-03   -0.17013E-03 59784   0.201E-01    0.645E-02
DAV:   4    -0.308519329337E+03    0.29522E-04   -0.23127E-04 32196   0.111E-01
  35 F= -.30851933E+03 E0= -.30852173E+03  d E =-.372268E-03
 trial-energy change:   -0.000372  1 .order   -0.000452   -0.000556   -0.000349
 step:   1.6945(harm=  1.6945)  dis= 0.00238  next Energy=  -308.519702 (dE=-0.745E-03)
 bond charge predicted
       N       E                     dE             d eps       ncg     rms          rms(c)
DAV:   1    -0.308518621517E+03    0.73734E-03   -0.13431E-01 41844   0.129E+00    0.134E-01
DAV:   2    -0.308520597604E+03   -0.19761E-02   -0.18217E-02 69612   0.753E-01    0.303E-01
DAV:   3    -0.308519715793E+03    0.88181E-03   -0.74871E-03 67416   0.462E-01    0.107E-01
DAV:   4    -0.308519636543E+03    0.79250E-04   -0.10106E-03 51648   0.160E-01    0.713E-02
DAV:   5    -0.308519613654E+03    0.22889E-04   -0.48302E-04 42672   0.120E-01
  36 F= -.30851961E+03 E0= -.30852204E+03  d E =-.656585E-03
 curvature:  -0.81 expect dE=-0.373E-03 dE for cont linesearch -0.313E-04
 trial: gam= 0.27218 g(F)=  0.348E-03 g(S)=  0.112E-03 ort = 0.180E-03 (trialstep = 0.844E+00)
 search vector abs. value=  0.620E-03
 reached required accuracy - stopping structural energy minimisation
 writing wavefunctions
VASP is done!
