<?xml version="1.0" encoding="ISO-8859-1"?>
<modeling>
 <generator>
  <i name="program" type="string">vasp </i>
  <i name="version" type="string">5.4.4.18Apr17-6-g9f103f2a35  </i>
  <i name="subversion" type="string">(build Aug 09 2018 16:20:53) complex            parallel </i>
  <i name="platform" type="string">LinuxIFC </i>
  <i name="date" type="string">2020 04 30 </i>
  <i name="time" type="string">00:36:32 </i>
 </generator>
 <incar>
  <i type="string" name="SYSTEM"> Nb - Mo - Ta - Ti - V SQS</i>
  <i type="string" name="PREC">normal</i>
  <i type="int" name="ICHARG">     0</i>
  <i type="int" name="IBRION">     2</i>
  <i type="int" name="NSW">    50</i>
  <i type="int" name="ISIF">     3</i>
  <i name="ENCUT">    600.00000000</i>
  <i type="string" name="LREAL"> Auto</i>
  <i type="int" name="ISMEAR">     1</i>
  <i name="SIGMA">      0.20000000</i>
  <v type="int" name="KPOINT_BSE">    -1     0     0     0</v>
  <i type="string" name="GGA"> PS</i>
 </incar>
 <structure name="primitive_cell" >
  <crystal>
   <varray name="basis" >
    <v>      -3.16000000      -3.16000000      -3.16000000 </v>
    <v>       1.58000000       1.58000000      -7.90000000 </v>
    <v>       7.90000000      -7.90000000      -1.58000000 </v>
   </varray>
   <i name="volume">    473.31744000 </i>
   <varray name="rec_basis" >
    <v>      -0.13713080      -0.12658228      -0.05274262 </v>
    <v>       0.04219409       0.06329114      -0.10548523 </v>
    <v>       0.06329114      -0.06329114       0.00000000 </v>
   </varray>
  </crystal>
  <varray name="positions" >
   <v>      -0.03333333      -0.06666667       0.40000000 </v>
   <v>       0.30000000      -0.40000000       0.40000000 </v>
   <v>      -0.10000000      -0.20000000       0.20000000 </v>
   <v>       0.06666667       0.13333333       0.20000000 </v>
   <v>       0.46666667      -0.06666667       0.40000000 </v>
   <v>       0.03333333       0.06666667      -0.40000000 </v>
   <v>      -0.36666667       0.26666667       0.40000000 </v>
   <v>       0.40000000      -0.20000000       0.20000000 </v>
   <v>      -0.20000000      -0.40000000       0.40000000 </v>
   <v>      -0.43333333       0.13333333       0.20000000 </v>
   <v>       0.36666667      -0.26666667      -0.40000000 </v>
   <v>       0.13333333       0.26666667       0.40000000 </v>
   <v>      -0.46666667       0.06666667      -0.40000000 </v>
   <v>       0.23333333       0.46666667       0.20000000 </v>
   <v>       0.20000000       0.40000000      -0.40000000 </v>
   <v>       0.00000000       0.00000000       0.00000000 </v>
   <v>      -0.06666667      -0.13333333      -0.20000000 </v>
   <v>      -0.30000000       0.40000000      -0.40000000 </v>
   <v>      -0.26666667       0.46666667       0.20000000 </v>
   <v>       0.33333333      -0.33333333       0.00000000 </v>
   <v>       0.43333333      -0.13333333      -0.20000000 </v>
   <v>      -0.50000000       0.00000000       0.00000000 </v>
   <v>       0.26666667      -0.46666667      -0.20000000 </v>
   <v>      -0.33333333       0.33333333       0.00000000 </v>
   <v>      -0.40000000       0.20000000      -0.20000000 </v>
   <v>      -0.16666667      -0.33333333       0.00000000 </v>
   <v>      -0.23333333      -0.46666667      -0.20000000 </v>
   <v>       0.16666667       0.33333333       0.00000000 </v>
   <v>       0.10000000       0.20000000      -0.20000000 </v>
  </varray>
 </structure>
 <varray name="primitive_index" >
  <v type="int" >        1 </v>
  <v type="int" >       18 </v>
  <v type="int" >        7 </v>
  <v type="int" >       23 </v>
  <v type="int" >       19 </v>
  <v type="int" >        6 </v>
  <v type="int" >        2 </v>
  <v type="int" >       16 </v>
  <v type="int" >        8 </v>
  <v type="int" >       15 </v>
  <v type="int" >       11 </v>
  <v type="int" >       12 </v>
  <v type="int" >       27 </v>
  <v type="int" >       29 </v>
  <v type="int" >       22 </v>
  <v type="int" >        4 </v>
  <v type="int" >       14 </v>
  <v type="int" >       25 </v>
  <v type="int" >        9 </v>
  <v type="int" >       28 </v>
  <v type="int" >       17 </v>
  <v type="int" >        3 </v>
  <v type="int" >       21 </v>
  <v type="int" >       10 </v>
  <v type="int" >       26 </v>
  <v type="int" >       13 </v>
  <v type="int" >       24 </v>
  <v type="int" >       20 </v>
  <v type="int" >        5 </v>
 </varray>
 <kpoints>
  <generation param="Gamma">
   <v type="int" name="divisions">       7        7        7 </v>
   <v name="usershift">      0.00000000       0.00000000       0.00000000 </v>
   <v name="genvec1">      0.14285714       0.00000000       0.00000000 </v>
   <v name="genvec2">     -0.00000000       0.14285714       0.00000000 </v>
   <v name="genvec3">      0.00000000       0.00000000       0.14285714 </v>
   <v name="shift">      0.00000000       0.00000000       0.00000000 </v>
  </generation>
  <varray name="kpointlist" >
   <v>       0.00000000       0.00000000       0.00000000 </v>
   <v>       0.14285714       0.00000000      -0.00000000 </v>
   <v>       0.28571429       0.00000000       0.00000000 </v>
   <v>       0.42857143       0.00000000      -0.00000000 </v>
   <v>      -0.00000000       0.14285714       0.00000000 </v>
   <v>       0.14285714       0.14285714      -0.00000000 </v>
   <v>       0.28571429       0.14285714       0.00000000 </v>
   <v>       0.42857143       0.14285714      -0.00000000 </v>
   <v>      -0.42857143       0.14285714       0.00000000 </v>
   <v>      -0.28571429       0.14285714       0.00000000 </v>
   <v>      -0.14285714       0.14285714       0.00000000 </v>
   <v>       0.00000000       0.28571429      -0.00000000 </v>
   <v>       0.14285714       0.28571429      -0.00000000 </v>
   <v>       0.28571429       0.28571429      -0.00000000 </v>
   <v>       0.42857143       0.28571429      -0.00000000 </v>
   <v>      -0.42857143       0.28571429      -0.00000000 </v>
   <v>      -0.28571429       0.28571429      -0.00000000 </v>
   <v>      -0.14285714       0.28571429      -0.00000000 </v>
   <v>      -0.00000000       0.42857143      -0.00000000 </v>
   <v>       0.14285714       0.42857143       0.00000000 </v>
   <v>       0.28571429       0.42857143       0.00000000 </v>
   <v>       0.42857143       0.42857143      -0.00000000 </v>
   <v>      -0.42857143       0.42857143       0.00000000 </v>
   <v>      -0.28571429       0.42857143      -0.00000000 </v>
   <v>      -0.14285714       0.42857143      -0.00000000 </v>
   <v>       0.00000000       0.00000000       0.14285714 </v>
   <v>       0.14285714       0.00000000       0.14285714 </v>
   <v>       0.28571429       0.00000000       0.14285714 </v>
   <v>       0.42857143       0.00000000       0.14285714 </v>
   <v>      -0.42857143       0.00000000       0.14285714 </v>
   <v>      -0.28571429       0.00000000       0.14285714 </v>
   <v>      -0.14285714      -0.00000000       0.14285714 </v>
   <v>      -0.00000000       0.14285714       0.14285714 </v>
   <v>       0.14285714       0.14285714       0.14285714 </v>
   <v>       0.28571429       0.14285714       0.14285714 </v>
   <v>       0.42857143       0.14285714       0.14285714 </v>
   <v>      -0.42857143       0.14285714       0.14285714 </v>
   <v>      -0.28571429       0.14285714       0.14285714 </v>
   <v>      -0.14285714       0.14285714       0.14285714 </v>
   <v>      -0.00000000       0.28571429       0.14285714 </v>
   <v>       0.14285714       0.28571429       0.14285714 </v>
   <v>       0.28571429       0.28571429       0.14285714 </v>
   <v>       0.42857143       0.28571429       0.14285714 </v>
   <v>      -0.42857143       0.28571429       0.14285714 </v>
   <v>      -0.28571429       0.28571429       0.14285714 </v>
   <v>      -0.14285714       0.28571429       0.14285714 </v>
   <v>       0.00000000       0.42857143       0.14285714 </v>
   <v>       0.14285714       0.42857143       0.14285714 </v>
   <v>       0.28571429       0.42857143       0.14285714 </v>
   <v>       0.42857143       0.42857143       0.14285714 </v>
   <v>      -0.42857143       0.42857143       0.14285714 </v>
   <v>      -0.28571429       0.42857143       0.14285714 </v>
   <v>      -0.14285714       0.42857143       0.14285714 </v>
   <v>       0.00000000      -0.42857143       0.14285714 </v>
   <v>       0.14285714      -0.42857143       0.14285714 </v>
   <v>       0.28571429      -0.42857143       0.14285714 </v>
   <v>       0.42857143      -0.42857143       0.14285714 </v>
   <v>      -0.42857143      -0.42857143       0.14285714 </v>
   <v>      -0.28571429      -0.42857143       0.14285714 </v>
   <v>      -0.14285714      -0.42857143       0.14285714 </v>
   <v>       0.00000000      -0.28571429       0.14285714 </v>
   <v>       0.14285714      -0.28571429       0.14285714 </v>
   <v>       0.28571429      -0.28571429       0.14285714 </v>
   <v>       0.42857143      -0.28571429       0.14285714 </v>
   <v>      -0.42857143      -0.28571429       0.14285714 </v>
   <v>      -0.28571429      -0.28571429       0.14285714 </v>
   <v>      -0.14285714      -0.28571429       0.14285714 </v>
   <v>       0.00000000      -0.14285714       0.14285714 </v>
   <v>       0.14285714      -0.14285714       0.14285714 </v>
   <v>       0.28571429      -0.14285714       0.14285714 </v>
   <v>       0.42857143      -0.14285714       0.14285714 </v>
   <v>      -0.42857143      -0.14285714       0.14285714 </v>
   <v>      -0.28571429      -0.14285714       0.14285714 </v>
   <v>      -0.14285714      -0.14285714       0.14285714 </v>
   <v>       0.00000000       0.00000000       0.28571429 </v>
   <v>       0.14285714       0.00000000       0.28571429 </v>
   <v>       0.28571429       0.00000000       0.28571429 </v>
   <v>       0.42857143       0.00000000       0.28571429 </v>
   <v>      -0.42857143      -0.00000000       0.28571429 </v>
   <v>      -0.28571429      -0.00000000       0.28571429 </v>
   <v>      -0.14285714      -0.00000000       0.28571429 </v>
   <v>      -0.00000000       0.14285714       0.28571429 </v>
   <v>       0.14285714       0.14285714       0.28571429 </v>
   <v>       0.28571429       0.14285714       0.28571429 </v>
   <v>       0.42857143       0.14285714       0.28571429 </v>
   <v>      -0.42857143       0.14285714       0.28571429 </v>
   <v>      -0.28571429       0.14285714       0.28571429 </v>
   <v>      -0.14285714       0.14285714       0.28571429 </v>
   <v>      -0.00000000       0.28571429       0.28571429 </v>
   <v>       0.14285714       0.28571429       0.28571429 </v>
   <v>       0.28571429       0.28571429       0.28571429 </v>
   <v>       0.42857143       0.28571429       0.28571429 </v>
   <v>      -0.42857143       0.28571429       0.28571429 </v>
   <v>      -0.28571429       0.28571429       0.28571429 </v>
   <v>      -0.14285714       0.28571429       0.28571429 </v>
   <v>       0.00000000       0.42857143       0.28571429 </v>
   <v>       0.14285714       0.42857143       0.28571429 </v>
   <v>       0.28571429       0.42857143       0.28571429 </v>
   <v>       0.42857143       0.42857143       0.28571429 </v>
   <v>      -0.42857143       0.42857143       0.28571429 </v>
   <v>      -0.28571429       0.42857143       0.28571429 </v>
   <v>      -0.14285714       0.42857143       0.28571429 </v>
   <v>      -0.00000000      -0.42857143       0.28571429 </v>
   <v>       0.14285714      -0.42857143       0.28571429 </v>
   <v>       0.28571429      -0.42857143       0.28571429 </v>
   <v>       0.42857143      -0.42857143       0.28571429 </v>
   <v>      -0.42857143      -0.42857143       0.28571429 </v>
   <v>      -0.28571429      -0.42857143       0.28571429 </v>
   <v>      -0.14285714      -0.42857143       0.28571429 </v>
   <v>       0.00000000      -0.28571429       0.28571429 </v>
   <v>       0.14285714      -0.28571429       0.28571429 </v>
   <v>       0.28571429      -0.28571429       0.28571429 </v>
   <v>       0.42857143      -0.28571429       0.28571429 </v>
   <v>      -0.42857143      -0.28571429       0.28571429 </v>
   <v>      -0.28571429      -0.28571429       0.28571429 </v>
   <v>      -0.14285714      -0.28571429       0.28571429 </v>
   <v>       0.00000000      -0.14285714       0.28571429 </v>
   <v>       0.14285714      -0.14285714       0.28571429 </v>
   <v>       0.28571429      -0.14285714       0.28571429 </v>
   <v>       0.42857143      -0.14285714       0.28571429 </v>
   <v>      -0.42857143      -0.14285714       0.28571429 </v>
   <v>      -0.28571429      -0.14285714       0.28571429 </v>
   <v>      -0.14285714      -0.14285714       0.28571429 </v>
   <v>       0.00000000       0.00000000       0.42857143 </v>
   <v>       0.14285714       0.00000000       0.42857143 </v>
   <v>       0.28571429       0.00000000       0.42857143 </v>
   <v>       0.42857143      -0.00000000       0.42857143 </v>
   <v>      -0.42857143      -0.00000000       0.42857143 </v>
   <v>      -0.28571429       0.00000000       0.42857143 </v>
   <v>      -0.14285714      -0.00000000       0.42857143 </v>
   <v>      -0.00000000       0.14285714       0.42857143 </v>
   <v>       0.14285714       0.14285714       0.42857143 </v>
   <v>       0.28571429       0.14285714       0.42857143 </v>
   <v>       0.42857143       0.14285714       0.42857143 </v>
   <v>      -0.42857143       0.14285714       0.42857143 </v>
   <v>      -0.28571429       0.14285714       0.42857143 </v>
   <v>      -0.14285714       0.14285714       0.42857143 </v>
   <v>       0.00000000       0.28571429       0.42857143 </v>
   <v>       0.14285714       0.28571429       0.42857143 </v>
   <v>       0.28571429       0.28571429       0.42857143 </v>
   <v>       0.42857143       0.28571429       0.42857143 </v>
   <v>      -0.42857143       0.28571429       0.42857143 </v>
   <v>      -0.28571429       0.28571429       0.42857143 </v>
   <v>      -0.14285714       0.28571429       0.42857143 </v>
   <v>       0.00000000       0.42857143       0.42857143 </v>
   <v>       0.14285714       0.42857143       0.42857143 </v>
   <v>       0.28571429       0.42857143       0.42857143 </v>
   <v>       0.42857143       0.42857143       0.42857143 </v>
   <v>      -0.42857143       0.42857143       0.42857143 </v>
   <v>      -0.28571429       0.42857143       0.42857143 </v>
   <v>      -0.14285714       0.42857143       0.42857143 </v>
   <v>       0.00000000      -0.42857143       0.42857143 </v>
   <v>       0.14285714      -0.42857143       0.42857143 </v>
   <v>       0.28571429      -0.42857143       0.42857143 </v>
   <v>       0.42857143      -0.42857143       0.42857143 </v>
   <v>      -0.42857143      -0.42857143       0.42857143 </v>
   <v>      -0.28571429      -0.42857143       0.42857143 </v>
   <v>      -0.14285714      -0.42857143       0.42857143 </v>
   <v>      -0.00000000      -0.28571429       0.42857143 </v>
   <v>       0.14285714      -0.28571429       0.42857143 </v>
   <v>       0.28571429      -0.28571429       0.42857143 </v>
   <v>       0.42857143      -0.28571429       0.42857143 </v>
   <v>      -0.42857143      -0.28571429       0.42857143 </v>
   <v>      -0.28571429      -0.28571429       0.42857143 </v>
   <v>      -0.14285714      -0.28571429       0.42857143 </v>
   <v>       0.00000000      -0.14285714       0.42857143 </v>
   <v>       0.14285714      -0.14285714       0.42857143 </v>
   <v>       0.28571429      -0.14285714       0.42857143 </v>
   <v>       0.42857143      -0.14285714       0.42857143 </v>
   <v>      -0.42857143      -0.14285714       0.42857143 </v>
   <v>      -0.28571429      -0.14285714       0.42857143 </v>
   <v>      -0.14285714      -0.14285714       0.42857143 </v>
  </varray>
  <varray name="weights" >
   <v>       0.00291545 </v>
   <v>       0.00583090 </v>
   <v>       0.00583090 </v>
   <v>       0.00583090 </v>
   <v>       0.00583090 </v>
   <v>       0.00583090 </v>
   <v>       0.00583090 </v>
   <v>       0.00583090 </v>
   <v>       0.00583090 </v>
   <v>       0.00583090 </v>
   <v>       0.00583090 </v>
   <v>       0.00583090 </v>
   <v>       0.00583090 </v>
   <v>       0.00583090 </v>
   <v>       0.00583090 </v>
   <v>       0.00583090 </v>
   <v>       0.00583090 </v>
   <v>       0.00583090 </v>
   <v>       0.00583090 </v>
   <v>       0.00583090 </v>
   <v>       0.00583090 </v>
   <v>       0.00583090 </v>
   <v>       0.00583090 </v>
   <v>       0.00583090 </v>
   <v>       0.00583090 </v>
   <v>       0.00583090 </v>
   <v>       0.00583090 </v>
   <v>       0.00583090 </v>
   <v>       0.00583090 </v>
   <v>       0.00583090 </v>
   <v>       0.00583090 </v>
   <v>       0.00583090 </v>
   <v>       0.00583090 </v>
   <v>       0.00583090 </v>
   <v>       0.00583090 </v>
   <v>       0.00583090 </v>
   <v>       0.00583090 </v>
   <v>       0.00583090 </v>
   <v>       0.00583090 </v>
   <v>       0.00583090 </v>
   <v>       0.00583090 </v>
   <v>       0.00583090 </v>
   <v>       0.00583090 </v>
   <v>       0.00583090 </v>
   <v>       0.00583090 </v>
   <v>       0.00583090 </v>
   <v>       0.00583090 </v>
   <v>       0.00583090 </v>
   <v>       0.00583090 </v>
   <v>       0.00583090 </v>
   <v>       0.00583090 </v>
   <v>       0.00583090 </v>
   <v>       0.00583090 </v>
   <v>       0.00583090 </v>
   <v>       0.00583090 </v>
   <v>       0.00583090 </v>
   <v>       0.00583090 </v>
   <v>       0.00583090 </v>
   <v>       0.00583090 </v>
   <v>       0.00583090 </v>
   <v>       0.00583090 </v>
   <v>       0.00583090 </v>
   <v>       0.00583090 </v>
   <v>       0.00583090 </v>
   <v>       0.00583090 </v>
   <v>       0.00583090 </v>
   <v>       0.00583090 </v>
   <v>       0.00583090 </v>
   <v>       0.00583090 </v>
   <v>       0.00583090 </v>
   <v>       0.00583090 </v>
   <v>       0.00583090 </v>
   <v>       0.00583090 </v>
   <v>       0.00583090 </v>
   <v>       0.00583090 </v>
   <v>       0.00583090 </v>
   <v>       0.00583090 </v>
   <v>       0.00583090 </v>
   <v>       0.00583090 </v>
   <v>       0.00583090 </v>
   <v>       0.00583090 </v>
   <v>       0.00583090 </v>
   <v>       0.00583090 </v>
   <v>       0.00583090 </v>
   <v>       0.00583090 </v>
   <v>       0.00583090 </v>
   <v>       0.00583090 </v>
   <v>       0.00583090 </v>
   <v>       0.00583090 </v>
   <v>       0.00583090 </v>
   <v>       0.00583090 </v>
   <v>       0.00583090 </v>
   <v>       0.00583090 </v>
   <v>       0.00583090 </v>
   <v>       0.00583090 </v>
   <v>       0.00583090 </v>
   <v>       0.00583090 </v>
   <v>       0.00583090 </v>
   <v>       0.00583090 </v>
   <v>       0.00583090 </v>
   <v>       0.00583090 </v>
   <v>       0.00583090 </v>
   <v>       0.00583090 </v>
   <v>       0.00583090 </v>
   <v>       0.00583090 </v>
   <v>       0.00583090 </v>
   <v>       0.00583090 </v>
   <v>       0.00583090 </v>
   <v>       0.00583090 </v>
   <v>       0.00583090 </v>
   <v>       0.00583090 </v>
   <v>       0.00583090 </v>
   <v>       0.00583090 </v>
   <v>       0.00583090 </v>
   <v>       0.00583090 </v>
   <v>       0.00583090 </v>
   <v>       0.00583090 </v>
   <v>       0.00583090 </v>
   <v>       0.00583090 </v>
   <v>       0.00583090 </v>
   <v>       0.00583090 </v>
   <v>       0.00583090 </v>
   <v>       0.00583090 </v>
   <v>       0.00583090 </v>
   <v>       0.00583090 </v>
   <v>       0.00583090 </v>
   <v>       0.00583090 </v>
   <v>       0.00583090 </v>
   <v>       0.00583090 </v>
   <v>       0.00583090 </v>
   <v>       0.00583090 </v>
   <v>       0.00583090 </v>
   <v>       0.00583090 </v>
   <v>       0.00583090 </v>
   <v>       0.00583090 </v>
   <v>       0.00583090 </v>
   <v>       0.00583090 </v>
   <v>       0.00583090 </v>
   <v>       0.00583090 </v>
   <v>       0.00583090 </v>
   <v>       0.00583090 </v>
   <v>       0.00583090 </v>
   <v>       0.00583090 </v>
   <v>       0.00583090 </v>
   <v>       0.00583090 </v>
   <v>       0.00583090 </v>
   <v>       0.00583090 </v>
   <v>       0.00583090 </v>
   <v>       0.00583090 </v>
   <v>       0.00583090 </v>
   <v>       0.00583090 </v>
   <v>       0.00583090 </v>
   <v>       0.00583090 </v>
   <v>       0.00583090 </v>
   <v>       0.00583090 </v>
   <v>       0.00583090 </v>
   <v>       0.00583090 </v>
   <v>       0.00583090 </v>
   <v>       0.00583090 </v>
   <v>       0.00583090 </v>
   <v>       0.00583090 </v>
   <v>       0.00583090 </v>
   <v>       0.00583090 </v>
   <v>       0.00583090 </v>
   <v>       0.00583090 </v>
   <v>       0.00583090 </v>
   <v>       0.00583090 </v>
   <v>       0.00583090 </v>
   <v>       0.00583090 </v>
   <v>       0.00583090 </v>
   <v>       0.00583090 </v>
   <v>       0.00583090 </v>
  </varray>
 </kpoints>
 <parameters>
  <separator name="general" >
   <i type="string" name="SYSTEM">Nb - Mo - Ta - Ti - V SQS</i>
   <i type="logical" name="LCOMPAT"> F  </i>
  </separator>
  <separator name="electronic" >
   <i type="string" name="PREC">normal</i>
   <i name="ENMAX">    600.00000000</i>
   <i name="ENAUG">    455.65900000</i>
   <i name="EDIFF">      0.00010000</i>
   <i type="int" name="IALGO">    38</i>
   <i type="int" name="IWAVPR">    11</i>
   <i type="int" name="NBANDS">   120</i>
   <i name="NELECT">    194.00000000</i>
   <i type="int" name="TURBO">     0</i>
   <i type="int" name="IRESTART">     0</i>
   <i type="int" name="NREBOOT">     0</i>
   <i type="int" name="NMIN">     0</i>
   <i name="EREF">      0.00000000</i>
   <separator name="electronic smearing" >
    <i type="int" name="ISMEAR">     1</i>
    <i name="SIGMA">      0.20000000</i>
    <i name="KSPACING">      0.50000000</i>
    <i type="logical" name="KGAMMA"> T  </i>
   </separator>
   <separator name="electronic projectors" >
    <i type="logical" name="LREAL"> T  </i>
    <v name="ROPT">     -0.00050000     -0.00050000     -0.00050000     -0.00050000     -0.00050000</v>
    <i type="int" name="LMAXPAW">  -100</i>
    <i type="int" name="LMAXMIX">     2</i>
    <i type="logical" name="NLSPLINE"> F  </i>
   </separator>
   <separator name="electronic startup" >
    <i type="int" name="ISTART">     0</i>
    <i type="int" name="ICHARG">     0</i>
    <i type="int" name="INIWAV">     1</i>
   </separator>
   <separator name="electronic spin" >
    <i type="int" name="ISPIN">     1</i>
    <i type="logical" name="LNONCOLLINEAR"> F  </i>
    <v name="MAGMOM">      1.00000000      1.00000000      1.00000000      1.00000000      1.00000000      1.00000000      1.00000000      1.00000000      1.00000000      1.00000000      1.00000000      1.00000000      1.00000000      1.00000000      1.00000000      1.00000000      1.00000000      1.00000000      1.00000000      1.00000000
      1.00000000      1.00000000      1.00000000      1.00000000      1.00000000      1.00000000      1.00000000      1.00000000      1.00000000</v>
    <i name="NUPDOWN">     -1.00000000</i>
    <i type="logical" name="LSORBIT"> F  </i>
    <v name="SAXIS">      0.00000000      0.00000000      1.00000000</v>
    <i type="logical" name="LSPIRAL"> F  </i>
    <v name="QSPIRAL">      0.00000000      0.00000000      0.00000000</v>
    <i type="logical" name="LZEROZ"> F  </i>
   </separator>
   <separator name="electronic exchange-correlation" >
    <i type="logical" name="LASPH"> F  </i>
    <i type="logical" name="LMETAGGA"> F  </i>
   </separator>
   <separator name="electronic convergence" >
    <i type="int" name="NELM">    60</i>
    <i type="int" name="NELMDL">    -5</i>
    <i type="int" name="NELMIN">     2</i>
    <i name="ENINI">    600.00000000</i>
    <separator name="electronic convergence detail" >
     <i type="logical" name="LDIAG"> T  </i>
     <i type="logical" name="LSUBROT"> F  </i>
     <i name="WEIMIN">      0.00100000</i>
     <i name="EBREAK">      0.00000021</i>
     <i name="DEPER">      0.30000000</i>
     <i type="int" name="NRMM">     4</i>
     <i name="TIME">      0.40000000</i>
    </separator>
   </separator>
   <separator name="electronic mixer" >
    <i name="AMIX">      0.40000000</i>
    <i name="BMIX">      1.00000000</i>
    <i name="AMIN">      0.10000000</i>
    <i name="AMIX_MAG">      1.60000000</i>
    <i name="BMIX_MAG">      1.00000000</i>
    <separator name="electronic mixer details" >
     <i type="int" name="IMIX">     4</i>
     <i type="logical" name="MIXFIRST"> F  </i>
     <i type="int" name="MAXMIX">   -45</i>
     <i name="WC">    100.00000000</i>
     <i type="int" name="INIMIX">     1</i>
     <i type="int" name="MIXPRE">     1</i>
     <i type="int" name="MREMOVE">     5</i>
    </separator>
   </separator>
   <separator name="electronic dipolcorrection" >
    <i type="logical" name="LDIPOL"> F  </i>
    <i type="logical" name="LMONO"> F  </i>
    <i type="int" name="IDIPOL">     0</i>
    <i name="EPSILON">      1.00000000</i>
    <v name="DIPOL">   -100.00000000   -100.00000000   -100.00000000</v>
    <i name="EFIELD">      0.00000000</i>
   </separator>
  </separator>
  <separator name="grids" >
   <i type="int" name="NGX">    36</i>
   <i type="int" name="NGY">    50</i>
   <i type="int" name="NGZ">    70</i>
   <i type="int" name="NGXF">    72</i>
   <i type="int" name="NGYF">   100</i>
   <i type="int" name="NGZF">   140</i>
   <i type="logical" name="ADDGRID"> F  </i>
  </separator>
  <separator name="ionic" >
   <i type="int" name="NSW">    50</i>
   <i type="int" name="IBRION">     2</i>
   <i type="int" name="MDALGO">     0</i>
   <i type="int" name="ISIF">     3</i>
   <i name="PSTRESS">      0.00000000</i>
   <i name="EDIFFG">      0.00100000</i>
   <i type="int" name="NFREE">     1</i>
   <i name="POTIM">      0.50000000</i>
   <i name="SMASS">     -3.00000000</i>
   <i name="SCALEE">      1.00000000</i>
  </separator>
  <separator name="ionic md" >
   <i name="TEBEG">      0.00010000</i>
   <i name="TEEND">      0.00010000</i>
   <i type="int" name="NBLOCK">     1</i>
   <i type="int" name="KBLOCK">    50</i>
   <i type="int" name="NPACO">   256</i>
   <i name="APACO">     16.00000000</i>
  </separator>
  <separator name="symmetry" >
   <i type="int" name="ISYM">     2</i>
   <i name="SYMPREC">      0.00001000</i>
  </separator>
  <separator name="dos" >
   <i type="int" name="LORBIT">     0</i>
   <v name="RWIGS">     -1.00000000     -1.00000000     -1.00000000     -1.00000000     -1.00000000</v>
   <i type="int" name="NEDOS">   301</i>
   <i name="EMIN">     10.00000000</i>
   <i name="EMAX">    -10.00000000</i>
   <i name="EFERMI">      0.00000000</i>
  </separator>
  <separator name="writing" >
   <i type="int" name="NWRITE">     2</i>
   <i type="logical" name="LWAVE"> T  </i>
   <i type="logical" name="LDOWNSAMPLE"> F  </i>
   <i type="logical" name="LCHARG"> T  </i>
   <i type="logical" name="LPARD"> F  </i>
   <i type="logical" name="LVTOT"> F  </i>
   <i type="logical" name="LVHAR"> F  </i>
   <i type="logical" name="LELF"> F  </i>
   <i type="logical" name="LOPTICS"> F  </i>
   <v name="STM">      0.00000000      0.00000000      0.00000000      0.00000000      0.00000000      0.00000000      0.00000000</v>
  </separator>
  <separator name="performance" >
   <i type="int" name="NPAR">    12</i>
   <i type="int" name="NSIM">     4</i>
   <i type="int" name="NBLK">    -1</i>
   <i type="logical" name="LPLANE"> T  </i>
   <i type="logical" name="LSCALAPACK"> T  </i>
   <i type="logical" name="LSCAAWARE"> F  </i>
   <i type="logical" name="LSCALU"> F  </i>
   <i type="logical" name="LASYNC"> F  </i>
   <i type="logical" name="LORBITALREAL"> F  </i>
  </separator>
  <separator name="miscellaneous" >
   <i type="int" name="IDIOT">     3</i>
   <i type="int" name="ISPECIAL">     0</i>
   <i type="logical" name="LMUSIC"> F  </i>
   <v name="POMASS">     92.91000000     95.94000000    180.94800000     47.88000000     50.94100000</v>
   <v name="DARWINR">      0.00000000      0.00000000      0.00000000      0.00000000      0.00000000</v>
   <v name="DARWINV">      1.00000000      1.00000000      1.00000000      1.00000000      1.00000000</v>
   <i type="logical" name="LCORR"> T  </i>
  </separator>
  <i type="logical" name="GGA_COMPAT"> T  </i>
  <i type="logical" name="LBERRY"> F  </i>
  <i type="int" name="ICORELEVEL">     0</i>
  <i type="logical" name="LDAU"> F  </i>
  <i type="int" name="I_CONSTRAINED_M">     0</i>
  <separator name="electronic exchange-correlation" >
   <i type="string" name="GGA">PS</i>
   <i type="int" name="VOSKOWN">     0</i>
   <i type="logical" name="LHFCALC"> F  </i>
   <i type="string" name="PRECFOCK"></i>
   <i type="logical" name="LSYMGRAD"> F  </i>
   <i type="logical" name="LHFONE"> F  </i>
   <i type="logical" name="LRHFCALC"> F  </i>
   <i type="logical" name="LTHOMAS"> F  </i>
   <i type="logical" name="LMODELHF"> F  </i>
   <i name="ENCUT4O">     -1.00000000</i>
   <i type="int" name="EXXOEP">     0</i>
   <i type="int" name="FOURORBIT">     0</i>
   <i name="AEXX">      0.00000000</i>
   <i name="HFALPHA">      0.00000000</i>
   <i name="MCALPHA">      0.00000000</i>
   <i name="ALDAX">      1.00000000</i>
   <i name="AGGAX">      1.00000000</i>
   <i name="ALDAC">      1.00000000</i>
   <i name="AGGAC">      1.00000000</i>
   <i type="int" name="NKREDX">     1</i>
   <i type="int" name="NKREDY">     1</i>
   <i type="int" name="NKREDZ">     1</i>
   <i type="logical" name="SHIFTRED"> F  </i>
   <i type="logical" name="ODDONLY"> F  </i>
   <i type="logical" name="EVENONLY"> F  </i>
   <i type="int" name="LMAXFOCK">     0</i>
   <i type="int" name="NMAXFOCKAE">     0</i>
   <i type="logical" name="LFOCKAEDFT"> F  </i>
   <i name="HFSCREEN">      0.00000000</i>
   <i name="HFSCREENC">      0.00000000</i>
   <i type="int" name="NBANDSGWLOW">     0</i>
  </separator>
  <separator name="vdW DFT" >
   <i type="logical" name="LUSE_VDW"> F  </i>
   <i name="Zab_VDW">     -0.84910000</i>
   <i name="PARAM1">      0.12340000</i>
   <i name="PARAM2">      1.00000000</i>
   <i name="PARAM3">      0.00000000</i>
  </separator>
  <separator name="model GW" >
   <i type="int" name="MODEL_GW">     0</i>
   <i name="MODEL_EPS0">      9.79277462</i>
   <i name="MODEL_ALPHA">      1.00000000</i>
  </separator>
  <separator name="linear response parameters" >
   <i type="logical" name="LEPSILON"> F  </i>
   <i type="logical" name="LRPA"> F  </i>
   <i type="logical" name="LNABLA"> F  </i>
   <i type="logical" name="LVEL"> F  </i>
   <i type="int" name="KINTER">     0</i>
   <i name="CSHIFT">      0.10000000</i>
   <i name="OMEGAMAX">     -1.00000000</i>
   <i name="DEG_THRESHOLD">      0.00200000</i>
   <i name="RTIME">     -0.10000000</i>
   <i name="WPLASMAI">      0.00000000</i>
   <v name="DFIELD">      0.00000000      0.00000000      0.00000000</v>
   <v name="WPLASMA">      0.00000000      0.00000000      0.00000000      0.00000000      0.00000000      0.00000000      0.00000000      0.00000000      0.00000000</v>
  </separator>
  <separator name="orbital magnetization" >
   <i type="logical" name="NUCIND"> F  </i>
   <v name="MAGPOS">      0.00000000      0.00000000      0.00000000</v>
   <i type="logical" name="LNICSALL"> T  </i>
   <i type="logical" name="ORBITALMAG"> F  </i>
   <i type="logical" name="LMAGBLOCH"> F  </i>
   <i type="logical" name="LCHIMAG"> F  </i>
   <i type="logical" name="LGAUGE"> T  </i>
   <i type="int" name="MAGATOM">     0</i>
   <v name="MAGDIPOL">      0.00000000      0.00000000      0.00000000</v>
   <v name="AVECCONST">      0.00000000      0.00000000      0.00000000</v>
  </separator>
  <separator name="response functions" >
   <i type="logical" name="LADDER"> F  </i>
   <i type="logical" name="LRPAFORCE"> F  </i>
   <i type="logical" name="LFXC"> F  </i>
   <i type="logical" name="LHARTREE"> T  </i>
   <i type="int" name="IBSE">     0</i>
   <v type="int" name="KPOINT">    -1     0     0     0</v>
   <i type="logical" name="LTCTE"> F  </i>
   <i type="logical" name="LTETE"> F  </i>
   <i type="logical" name="LTRIPLET"> F  </i>
   <i type="logical" name="LFXCEPS"> F  </i>
   <i type="logical" name="LFXHEG"> F  </i>
   <i type="int" name="NATURALO">     2</i>
   <i type="logical" name="L2ORDER"> F  </i>
   <i type="logical" name="LMP2LT"> F  </i>
   <i type="logical" name="LUSEW"> F  </i>
   <i name="ENCUTGW">     -2.00000000</i>
   <i name="ENCUTGWSOFT">     -2.00000000</i>
   <i name="ENCUTLF">     -1.00000000</i>
   <i type="int" name="LMAXMP2">    -1</i>
   <i name="SCISSOR">      0.00000000</i>
   <i type="int" name="NOMEGA">     0</i>
   <i type="int" name="NOMEGAR">     0</i>
   <i type="int" name="NBANDSGW">    -1</i>
   <i type="int" name="NBANDSO">    -1</i>
   <i type="int" name="NBANDSV">    -1</i>
   <i type="int" name="NELM">     1</i>
   <i type="int" name="NELMHF">     1</i>
   <i type="int" name="DIM">     3</i>
   <i type="int" name="ANTIRES">     0</i>
   <i name="OMEGAMAX">    -30.00000000</i>
   <i name="OMEGAMIN">    -30.00000000</i>
   <i name="OMEGATL">   -200.00000000</i>
   <i type="int" name="OMEGAGRID">   140</i>
   <i name="CSHIFT">     -0.10000000</i>
   <i type="logical" name="SELFENERGY"> F  </i>
   <i type="logical" name="LSPECTRAL"> F  </i>
   <i type="logical" name="LSPECTRALGW"> F  </i>
   <i type="logical" name="LSINGLES"> F  </i>
   <i type="logical" name="LFERMIGW"> F  </i>
   <i type="logical" name="ODDONLYGW"> F  </i>
   <i type="logical" name="EVENONLYGW"> F  </i>
   <i type="int" name="NKREDLFX">     1</i>
   <i type="int" name="NKREDLFY">     1</i>
   <i type="int" name="NKREDLFZ">     1</i>
   <i type="int" name="MAXMEM">  2800</i>
   <i type="int" name="TELESCOPE">     0</i>
   <i type="int" name="TAUPAR">     1</i>
   <i type="int" name="OMEGAPAR">    -1</i>
   <i name="LAMBDA">      1.00000000</i>
  </separator>
  <separator name="External order field" >
   <i name="OFIELD_KAPPA">      0.00000000</i>
   <v name="OFIELD_K">      0.00000000      0.00000000      0.00000000</v>
   <i name="OFIELD_Q6_NEAR">      0.00000000</i>
   <i name="OFIELD_Q6_FAR">      0.00000000</i>
   <i name="OFIELD_A">      0.00000000</i>
  </separator>
  <separator name="solvation model" >
   <i type="logical" name="LSOL"> F  </i>
  </separator>
 </parameters>
 <atominfo>
  <atoms>      29 </atoms>
  <types>       5 </types>
  <array name="atoms" >
   <dimension dim="1">ion</dimension>
   <field type="string">element</field>
   <field type="int">atomtype</field>
   <set>
    <rc><c>Nb</c><c>   1</c></rc>
    <rc><c>Nb</c><c>   1</c></rc>
    <rc><c>Nb</c><c>   1</c></rc>
    <rc><c>Nb</c><c>   1</c></rc>
    <rc><c>Nb</c><c>   1</c></rc>
    <rc><c>Nb</c><c>   1</c></rc>
    <rc><c>Mo</c><c>   2</c></rc>
    <rc><c>Mo</c><c>   2</c></rc>
    <rc><c>Mo</c><c>   2</c></rc>
    <rc><c>Mo</c><c>   2</c></rc>
    <rc><c>Mo</c><c>   2</c></rc>
    <rc><c>Mo</c><c>   2</c></rc>
    <rc><c>Ta</c><c>   3</c></rc>
    <rc><c>Ta</c><c>   3</c></rc>
    <rc><c>Ta</c><c>   3</c></rc>
    <rc><c>Ta</c><c>   3</c></rc>
    <rc><c>Ta</c><c>   3</c></rc>
    <rc><c>Ta</c><c>   3</c></rc>
    <rc><c>Ti</c><c>   4</c></rc>
    <rc><c>Ti</c><c>   4</c></rc>
    <rc><c>Ti</c><c>   4</c></rc>
    <rc><c>Ti</c><c>   4</c></rc>
    <rc><c>Ti</c><c>   4</c></rc>
    <rc><c>V </c><c>   5</c></rc>
    <rc><c>V </c><c>   5</c></rc>
    <rc><c>V </c><c>   5</c></rc>
    <rc><c>V </c><c>   5</c></rc>
    <rc><c>V </c><c>   5</c></rc>
    <rc><c>V </c><c>   5</c></rc>
   </set>
  </array>
  <array name="atomtypes" >
   <dimension dim="1">type</dimension>
   <field type="int">atomspertype</field>
   <field type="string">element</field>
   <field>mass</field>
   <field>valence</field>
   <field type="string">pseudopotential</field>
   <set>
    <rc><c>   6</c><c>Nb</c><c>     92.91000000</c><c>     13.00000000</c><c>  PAW_PBE Nb_sv 25May2007               </c></rc>
    <rc><c>   6</c><c>Mo</c><c>     95.94000000</c><c>      6.00000000</c><c>  PAW_PBE Mo 08Apr2002                  </c></rc>
    <rc><c>   6</c><c>Ta</c><c>    180.94800000</c><c>      5.00000000</c><c>  PAW_PBE Ta 17Jan2003                  </c></rc>
    <rc><c>   5</c><c>Ti</c><c>     47.88000000</c><c>      4.00000000</c><c>  PAW_PBE Ti 08Apr2002                  </c></rc>
    <rc><c>   6</c><c>V </c><c>     50.94100000</c><c>      5.00000000</c><c>  PAW_PBE V 08Apr2002                   </c></rc>
   </set>
  </array>
 </atominfo>
 <structure name="initialpos" >
  <crystal>
   <varray name="basis" >
    <v>      -3.16000000      -3.16000000      -3.16000000 </v>
    <v>       1.58000000       1.58000000      -7.90000000 </v>
    <v>       7.90000000      -7.90000000      -1.58000000 </v>
   </varray>
   <i name="volume">    473.31744000 </i>
   <varray name="rec_basis" >
    <v>      -0.13713080      -0.12658228      -0.05274262 </v>
    <v>       0.04219409       0.06329114      -0.10548523 </v>
    <v>       0.06329114      -0.06329114       0.00000000 </v>
   </varray>
  </crystal>
  <varray name="positions" >
   <v>       0.96666667       0.93333333       0.40000000 </v>
   <v>       0.63333333       0.26666667       0.40000000 </v>
   <v>       0.50000000       0.00000000       0.00000000 </v>
   <v>       0.00000000       0.00000000       0.00000000 </v>
   <v>       0.10000000       0.20000000       0.80000000 </v>
   <v>       0.03333333       0.06666667       0.60000000 </v>
   <v>       0.90000000       0.80000000       0.20000000 </v>
   <v>       0.80000000       0.60000000       0.40000000 </v>
   <v>       0.73333333       0.46666667       0.20000000 </v>
   <v>       0.66666667       0.33333333       0.00000000 </v>
   <v>       0.36666667       0.73333333       0.60000000 </v>
   <v>       0.13333333       0.26666667       0.40000000 </v>
   <v>       0.83333333       0.66666667       0.00000000 </v>
   <v>       0.93333333       0.86666667       0.80000000 </v>
   <v>       0.56666667       0.13333333       0.20000000 </v>
   <v>       0.40000000       0.80000000       0.20000000 </v>
   <v>       0.43333333       0.86666667       0.80000000 </v>
   <v>       0.30000000       0.60000000       0.40000000 </v>
   <v>       0.46666667       0.93333333       0.40000000 </v>
   <v>       0.16666667       0.33333333       0.00000000 </v>
   <v>       0.26666667       0.53333333       0.80000000 </v>
   <v>       0.20000000       0.40000000       0.60000000 </v>
   <v>       0.06666667       0.13333333       0.20000000 </v>
   <v>       0.76666667       0.53333333       0.80000000 </v>
   <v>       0.70000000       0.40000000       0.60000000 </v>
   <v>       0.60000000       0.20000000       0.80000000 </v>
   <v>       0.53333333       0.06666667       0.60000000 </v>
   <v>       0.33333333       0.66666667       0.00000000 </v>
   <v>       0.23333333       0.46666667       0.20000000 </v>
  </varray>
 </structure>
 <calculation>
  <scstep>
   <time name="dav">   43.47   43.52</time>
   <time name="total">   43.59   43.65</time>
   <energy>
    <i name="alphaZ">   1169.09370839 </i>
    <i name="ewald"> -11149.51257740 </i>
    <i name="hartreedc">   -111.86300440 </i>
    <i name="XCdc">   -942.58098663 </i>
    <i name="pawpsdc"> 587642.82106514 </i>
    <i name="pawaedc">-586372.58683745 </i>
    <i name="eentropy">      0.00278579 </i>
    <i name="bandstr">  -7193.18650068 </i>
    <i name="atom">  12911.34519091 </i>
    <i name="e_fr_energy">  -4046.46715634 </i>
    <i name="e_wo_entrp">  -4046.46994213 </i>
    <i name="e_0_energy">  -4046.46808494 </i>
   </energy>
  </scstep>
  <scstep>
   <time name="dav">   51.31   51.37</time>
   <time name="total">   51.32   51.38</time>
   <energy>
    <i name="e_fr_energy">  -9646.99012632 </i>
    <i name="e_wo_entrp">  -9646.99006261 </i>
    <i name="e_0_energy">  -9646.99010508 </i>
   </energy>
  </scstep>
  <scstep>
   <time name="dav">   55.75   55.81</time>
   <time name="total">   55.76   55.81</time>
   <energy>
    <i name="e_fr_energy"> -10499.40738855 </i>
    <i name="e_wo_entrp"> -10499.40938885 </i>
    <i name="e_0_energy"> -10499.40805532 </i>
   </energy>
  </scstep>
  <scstep>
   <time name="dav">   55.87   55.94</time>
   <time name="total">   55.88   55.95</time>
   <energy>
    <i name="e_fr_energy"> -10732.94664970 </i>
    <i name="e_wo_entrp"> -10732.94448792 </i>
    <i name="e_0_energy"> -10732.94592910 </i>
   </energy>
  </scstep>
  <scstep>
   <time name="dav">   55.69   55.75</time>
   <time name="total">   56.31   56.36</time>
   <energy>
    <i name="e_fr_energy"> -10885.79242733 </i>
    <i name="e_wo_entrp"> -10885.79238472 </i>
    <i name="e_0_energy"> -10885.79241313 </i>
   </energy>
  </scstep>
  <scstep>
   <time name="dav">   46.31   46.36</time>
   <time name="total">   47.07   47.12</time>
   <energy>
    <i name="e_fr_energy">   -987.68847751 </i>
    <i name="e_wo_entrp">   -987.69012480 </i>
    <i name="e_0_energy">   -987.68902661 </i>
   </energy>
  </scstep>
  <scstep>
   <time name="dav">   48.66   48.71</time>
   <time name="total">   49.37   49.42</time>
   <energy>
    <i name="e_fr_energy">   -857.44921688 </i>
    <i name="e_wo_entrp">   -857.45082469 </i>
    <i name="e_0_energy">   -857.44975282 </i>
   </energy>
  </scstep>
  <scstep>
   <time name="dav">   50.70   50.75</time>
   <time name="total">   51.36   51.42</time>
   <energy>
    <i name="e_fr_energy">   -629.24469446 </i>
    <i name="e_wo_entrp">   -629.24387126 </i>
    <i name="e_0_energy">   -629.24442006 </i>
   </energy>
  </scstep>
  <scstep>
   <time name="dav">   49.36   49.41</time>
   <time name="total">   50.01   50.06</time>
   <energy>
    <i name="e_fr_energy">   -550.72102863 </i>
    <i name="e_wo_entrp">   -550.71744229 </i>
    <i name="e_0_energy">   -550.71983318 </i>
   </energy>
  </scstep>
  <scstep>
   <time name="dav">   52.91   52.97</time>
   <time name="total">   53.58   53.64</time>
   <energy>
    <i name="e_fr_energy">   -544.21741302 </i>
    <i name="e_wo_entrp">   -544.21373318 </i>
    <i name="e_0_energy">   -544.21618641 </i>
   </energy>
  </scstep>
  <scstep>
   <time name="dav">   51.84   51.92</time>
   <time name="total">   52.48   52.56</time>
   <energy>
    <i name="e_fr_energy">   -527.73786672 </i>
    <i name="e_wo_entrp">   -527.73326128 </i>
    <i name="e_0_energy">   -527.73633157 </i>
   </energy>
  </scstep>
  <scstep>
   <time name="dav">   48.23   48.28</time>
   <time name="total">   48.88   48.93</time>
   <energy>
    <i name="e_fr_energy">   -623.54909001 </i>
    <i name="e_wo_entrp">   -623.55254203 </i>
    <i name="e_0_energy">   -623.55024068 </i>
   </energy>
  </scstep>
  <scstep>
   <time name="dav">   51.13   51.18</time>
   <time name="total">   51.77   51.82</time>
   <energy>
    <i name="e_fr_energy">   -595.30285987 </i>
    <i name="e_wo_entrp">   -595.30297426 </i>
    <i name="e_0_energy">   -595.30289800 </i>
   </energy>
  </scstep>
  <scstep>
   <time name="dav">   51.40   51.50</time>
   <time name="total">   52.05   52.16</time>
   <energy>
    <i name="e_fr_energy">   -417.81911592 </i>
    <i name="e_wo_entrp">   -417.82559580 </i>
    <i name="e_0_energy">   -417.82127588 </i>
   </energy>
  </scstep>
  <scstep>
   <time name="dav">   53.24   53.34</time>
   <time name="total">   53.88   53.98</time>
   <energy>
    <i name="e_fr_energy">   -425.69593372 </i>
    <i name="e_wo_entrp">   -425.69350802 </i>
    <i name="e_0_energy">   -425.69512515 </i>
   </energy>
  </scstep>
  <scstep>
   <time name="dav">   51.12   51.17</time>
   <time name="total">   51.78   51.84</time>
   <energy>
    <i name="e_fr_energy">   -354.31569424 </i>
    <i name="e_wo_entrp">   -354.31034493 </i>
    <i name="e_0_energy">   -354.31391114 </i>
   </energy>
  </scstep>
  <scstep>
   <time name="dav">   50.71   50.76</time>
   <time name="total">   51.36   51.41</time>
   <energy>
    <i name="e_fr_energy">   -325.40509577 </i>
    <i name="e_wo_entrp">   -325.38095964 </i>
    <i name="e_0_energy">   -325.39705039 </i>
   </energy>
  </scstep>
  <scstep>
   <time name="dav">   48.37   48.43</time>
   <time name="total">   49.03   49.10</time>
   <energy>
    <i name="e_fr_energy">   -348.69797116 </i>
    <i name="e_wo_entrp">   -348.68778342 </i>
    <i name="e_0_energy">   -348.69457525 </i>
   </energy>
  </scstep>
  <scstep>
   <time name="dav">   52.70   52.76</time>
   <time name="total">   53.35   53.41</time>
   <energy>
    <i name="e_fr_energy">   -335.08915852 </i>
    <i name="e_wo_entrp">   -335.07994310 </i>
    <i name="e_0_energy">   -335.08608671 </i>
   </energy>
  </scstep>
  <scstep>
   <time name="dav">   51.16   51.22</time>
   <time name="total">   51.82   51.89</time>
   <energy>
    <i name="e_fr_energy">   -312.09080937 </i>
    <i name="e_wo_entrp">   -312.08321849 </i>
    <i name="e_0_energy">   -312.08827908 </i>
   </energy>
  </scstep>
  <scstep>
   <time name="dav">   46.17   46.22</time>
   <time name="total">   46.82   46.88</time>
   <energy>
    <i name="e_fr_energy">   -316.63872653 </i>
    <i name="e_wo_entrp">   -316.64706835 </i>
    <i name="e_0_energy">   -316.64150713 </i>
   </energy>
  </scstep>
  <scstep>
   <time name="dav">   53.73   53.78</time>
   <time name="total">   54.39   54.45</time>
   <energy>
    <i name="e_fr_energy">   -310.26452235 </i>
    <i name="e_wo_entrp">   -310.26228978 </i>
    <i name="e_0_energy">   -310.26377816 </i>
   </energy>
  </scstep>
  <scstep>
   <time name="dav">   50.07   50.12</time>
   <time name="total">   50.72   50.77</time>
   <energy>
    <i name="e_fr_energy">   -311.35957730 </i>
    <i name="e_wo_entrp">   -311.35523548 </i>
    <i name="e_0_energy">   -311.35813003 </i>
   </energy>
  </scstep>
  <scstep>
   <time name="dav">   50.33   50.38</time>
   <time name="total">   50.99   51.05</time>
   <energy>
    <i name="e_fr_energy">   -310.00532240 </i>
    <i name="e_wo_entrp">   -309.99101141 </i>
    <i name="e_0_energy">   -310.00055207 </i>
   </energy>
  </scstep>
  <scstep>
   <time name="dav">   50.77   50.82</time>
   <time name="total">   51.42   51.47</time>
   <energy>
    <i name="e_fr_energy">   -308.05934126 </i>
    <i name="e_wo_entrp">   -308.05062218 </i>
    <i name="e_0_energy">   -308.05643490 </i>
   </energy>
  </scstep>
  <scstep>
   <time name="dav">   49.08   49.13</time>
   <time name="total">   49.75   49.81</time>
   <energy>
    <i name="e_fr_energy">   -307.83577215 </i>
    <i name="e_wo_entrp">   -307.81890994 </i>
    <i name="e_0_energy">   -307.83015141 </i>
   </energy>
  </scstep>
  <scstep>
   <time name="dav">   48.30   48.38</time>
   <time name="total">   48.95   49.03</time>
   <energy>
    <i name="e_fr_energy">   -307.88875061 </i>
    <i name="e_wo_entrp">   -307.87568543 </i>
    <i name="e_0_energy">   -307.88439555 </i>
   </energy>
  </scstep>
  <scstep>
   <time name="dav">   48.73   48.77</time>
   <time name="total">   49.37   49.43</time>
   <energy>
    <i name="e_fr_energy">   -307.64650247 </i>
    <i name="e_wo_entrp">   -307.63984151 </i>
    <i name="e_0_energy">   -307.64428215 </i>
   </energy>
  </scstep>
  <scstep>
   <time name="dav">   52.86   52.92</time>
   <time name="total">   53.51   53.56</time>
   <energy>
    <i name="e_fr_energy">   -307.64193335 </i>
    <i name="e_wo_entrp">   -307.63108848 </i>
    <i name="e_0_energy">   -307.63831839 </i>
   </energy>
  </scstep>
  <scstep>
   <time name="dav">   49.41   49.46</time>
   <time name="total">   50.08   50.15</time>
   <energy>
    <i name="e_fr_energy">   -307.26924543 </i>
    <i name="e_wo_entrp">   -307.25981839 </i>
    <i name="e_0_energy">   -307.26610308 </i>
   </energy>
  </scstep>
  <scstep>
   <time name="dav">   51.29   51.34</time>
   <time name="total">   51.94   51.99</time>
   <energy>
    <i name="e_fr_energy">   -307.24476668 </i>
    <i name="e_wo_entrp">   -307.23490994 </i>
    <i name="e_0_energy">   -307.24148110 </i>
   </energy>
  </scstep>
  <scstep>
   <time name="dav">   46.83   46.88</time>
   <time name="total">   47.49   47.54</time>
   <energy>
    <i name="e_fr_energy">   -307.25419647 </i>
    <i name="e_wo_entrp">   -307.24505432 </i>
    <i name="e_0_energy">   -307.25114909 </i>
   </energy>
  </scstep>
  <scstep>
   <time name="dav">   47.46   47.51</time>
   <time name="total">   48.11   48.16</time>
   <energy>
    <i name="e_fr_energy">   -307.24466061 </i>
    <i name="e_wo_entrp">   -307.23484713 </i>
    <i name="e_0_energy">   -307.24138945 </i>
   </energy>
  </scstep>
  <scstep>
   <time name="dav">   49.00   49.06</time>
   <time name="total">   49.64   49.73</time>
   <energy>
    <i name="e_fr_energy">   -307.21514105 </i>
    <i name="e_wo_entrp">   -307.20580152 </i>
    <i name="e_0_energy">   -307.21202787 </i>
   </energy>
  </scstep>
  <scstep>
   <time name="dav">   47.12   47.20</time>
   <time name="total">   47.77   47.84</time>
   <energy>
    <i name="e_fr_energy">   -307.20293287 </i>
    <i name="e_wo_entrp">   -307.19226016 </i>
    <i name="e_0_energy">   -307.19937530 </i>
   </energy>
  </scstep>
  <scstep>
   <time name="dav">   47.20   47.28</time>
   <time name="total">   47.87   47.96</time>
   <energy>
    <i name="e_fr_energy">   -307.19595327 </i>
    <i name="e_wo_entrp">   -307.18543628 </i>
    <i name="e_0_energy">   -307.19244761 </i>
   </energy>
  </scstep>
  <scstep>
   <time name="dav">   46.39   46.45</time>
   <time name="total">   47.03   47.10</time>
   <energy>
    <i name="e_fr_energy">   -307.19171730 </i>
    <i name="e_wo_entrp">   -307.18100607 </i>
    <i name="e_0_energy">   -307.18814689 </i>
   </energy>
  </scstep>
  <scstep>
   <time name="dav">   45.29   45.34</time>
   <time name="total">   45.96   46.01</time>
   <energy>
    <i name="e_fr_energy">   -307.18936285 </i>
    <i name="e_wo_entrp">   -307.17830710 </i>
    <i name="e_0_energy">   -307.18567760 </i>
   </energy>
  </scstep>
  <scstep>
   <time name="dav">   45.97   46.01</time>
   <time name="total">   46.61   46.66</time>
   <energy>
    <i name="e_fr_energy">   -307.18683213 </i>
    <i name="e_wo_entrp">   -307.17587921 </i>
    <i name="e_0_energy">   -307.18318115 </i>
   </energy>
  </scstep>
  <scstep>
   <time name="dav">   41.46   41.50</time>
   <time name="total">   42.12   42.17</time>
   <energy>
    <i name="e_fr_energy">   -307.18513211 </i>
    <i name="e_wo_entrp">   -307.17405237 </i>
    <i name="e_0_energy">   -307.18143886 </i>
   </energy>
  </scstep>
  <scstep>
   <time name="dav">   42.75   42.79</time>
   <time name="total">   43.39   43.44</time>
   <energy>
    <i name="e_fr_energy">   -307.18376923 </i>
    <i name="e_wo_entrp">   -307.17252091 </i>
    <i name="e_0_energy">   -307.18001979 </i>
   </energy>
  </scstep>
  <scstep>
   <time name="dav">   25.44   25.46</time>
   <time name="total">   26.11   26.14</time>
   <energy>
    <i name="e_fr_energy">   -307.18339377 </i>
    <i name="e_wo_entrp">   -307.17209983 </i>
    <i name="e_0_energy">   -307.17962913 </i>
   </energy>
  </scstep>
  <scstep>
   <time name="dav">   44.40   44.44</time>
   <time name="total">   45.05   45.09</time>
   <energy>
    <i name="e_fr_energy">   -307.18154386 </i>
    <i name="e_wo_entrp">   -307.17009778 </i>
    <i name="e_0_energy">   -307.17772850 </i>
   </energy>
  </scstep>
  <scstep>
   <time name="dav">   38.04   38.08</time>
   <time name="total">   38.70   38.75</time>
   <energy>
    <i name="e_fr_energy">   -307.18112093 </i>
    <i name="e_wo_entrp">   -307.16957430 </i>
    <i name="e_0_energy">   -307.17727205 </i>
   </energy>
  </scstep>
  <scstep>
   <time name="dav">   36.56   36.59</time>
   <time name="total">   37.20   37.24</time>
   <energy>
    <i name="e_fr_energy">   -307.18085928 </i>
    <i name="e_wo_entrp">   -307.16928342 </i>
    <i name="e_0_energy">   -307.17700066 </i>
   </energy>
  </scstep>
  <scstep>
   <time name="dav">   26.85   26.87</time>
   <time name="total">   26.93   26.96</time>
   <energy>
    <i name="alphaZ">   1169.09370839 </i>
    <i name="ewald"> -11149.51257740 </i>
    <i name="hartreedc">  -3109.44918527 </i>
    <i name="XCdc">   -852.46676484 </i>
    <i name="pawpsdc">  18812.09942164 </i>
    <i name="pawaedc"> -17341.42384426 </i>
    <i name="eentropy">     -0.01155349 </i>
    <i name="bandstr">   -746.85521693 </i>
    <i name="atom">  12911.34519091 </i>
    <i name="e_fr_energy">   -307.18082126 </i>
    <i name="e_wo_entrp">   -307.16926777 </i>
    <i name="e_0_energy">   -307.17697009 </i>
   </energy>
  </scstep>
  <structure>
   <crystal>
    <varray name="basis" >
     <v>      -3.16000000      -3.16000000      -3.16000000 </v>
     <v>       1.58000000       1.58000000      -7.90000000 </v>
     <v>       7.90000000      -7.90000000      -1.58000000 </v>
    </varray>
    <i name="volume">    473.31744000 </i>
    <varray name="rec_basis" >
     <v>      -0.13713080      -0.12658228      -0.05274262 </v>
     <v>       0.04219409       0.06329114      -0.10548523 </v>
     <v>       0.06329114      -0.06329114       0.00000000 </v>
    </varray>
   </crystal>
   <varray name="positions" >
    <v>       0.96666667       0.93333333       0.40000000 </v>
    <v>       0.63333333       0.26666667       0.40000000 </v>
    <v>       0.50000000       0.00000000       0.00000000 </v>
    <v>       0.00000000       0.00000000       0.00000000 </v>
    <v>       0.10000000       0.20000000       0.80000000 </v>
    <v>       0.03333333       0.06666667       0.60000000 </v>
    <v>       0.90000000       0.80000000       0.20000000 </v>
    <v>       0.80000000       0.60000000       0.40000000 </v>
    <v>       0.73333333       0.46666667       0.20000000 </v>
    <v>       0.66666667       0.33333333       0.00000000 </v>
    <v>       0.36666667       0.73333333       0.60000000 </v>
    <v>       0.13333333       0.26666667       0.40000000 </v>
    <v>       0.83333333       0.66666667       0.00000000 </v>
    <v>       0.93333333       0.86666667       0.80000000 </v>
    <v>       0.56666667       0.13333333       0.20000000 </v>
    <v>       0.40000000       0.80000000       0.20000000 </v>
    <v>       0.43333333       0.86666667       0.80000000 </v>
    <v>       0.30000000       0.60000000       0.40000000 </v>
    <v>       0.46666667       0.93333333       0.40000000 </v>
    <v>       0.16666667       0.33333333       0.00000000 </v>
    <v>       0.26666667       0.53333333       0.80000000 </v>
    <v>       0.20000000       0.40000000       0.60000000 </v>
    <v>       0.06666667       0.13333333       0.20000000 </v>
    <v>       0.76666667       0.53333333       0.80000000 </v>
    <v>       0.70000000       0.40000000       0.60000000 </v>
    <v>       0.60000000       0.20000000       0.80000000 </v>
    <v>       0.53333333       0.06666667       0.60000000 </v>
    <v>       0.33333333       0.66666667       0.00000000 </v>
    <v>       0.23333333       0.46666667       0.20000000 </v>
   </varray>
  </structure>
  <varray name="forces" >
   <v>       0.50715463      -0.40464897       0.74172961 </v>
   <v>       0.46618449      -0.25554453      -0.02872871 </v>
   <v>      -0.18873300       0.40018696      -0.25483472 </v>
   <v>       0.41139160      -0.14315160      -0.08371999 </v>
   <v>      -0.10886642       0.91164889      -0.60904184 </v>
   <v>      -0.32107453       0.15460794      -0.63322958 </v>
   <v>       0.00193206      -0.64533851       0.18511476 </v>
   <v>      -0.16544937      -0.37849759       0.45225933 </v>
   <v>      -0.27900444       0.30377759       0.09198045 </v>
   <v>       0.16651035       0.51425566      -0.62526994 </v>
   <v>      -0.29408022      -0.44877327       0.22942618 </v>
   <v>       0.21457936       0.11527989      -0.54663241 </v>
   <v>      -0.11700292      -0.39220743       0.48770720 </v>
   <v>      -0.50062544       0.72066976       0.21956685 </v>
   <v>      -0.25895932       0.50558287      -0.14560113 </v>
   <v>      -0.54253508      -0.23333707       0.85083498 </v>
   <v>      -0.56556977      -0.02824336       0.77857482 </v>
   <v>       0.04514797      -0.38735618      -0.17466391 </v>
   <v>       0.65494449      -0.26023170       0.17407243 </v>
   <v>      -0.02942569      -0.15323490      -0.42062316 </v>
   <v>      -0.50779295      -0.54802088      -0.33511777 </v>
   <v>       0.05265366       0.20914730      -0.20645629 </v>
   <v>       0.46654851       0.09593074      -0.89038517 </v>
   <v>       0.13970981      -0.09817774       0.64220021 </v>
   <v>       0.64901168       0.25665923       0.07324910 </v>
   <v>      -0.11666830       0.38040296      -0.21255226 </v>
   <v>       0.19782247      -0.33320396      -0.15788093 </v>
   <v>      -0.30219442      -0.13667859       0.59144228 </v>
   <v>       0.32439080       0.27849648      -0.19342039 </v>
  </varray>
  <varray name="stress" >
   <v>     -17.79383344      -0.92666098       3.26662990 </v>
   <v>      -0.92666090     -17.03754022       3.76346759 </v>
   <v>       3.26662986       3.76346751     -16.19527713 </v>
  </varray>
  <energy>
   <i name="e_fr_energy">   -307.18082126 </i>
   <i name="e_wo_entrp">   -307.17697009 </i>
   <i name="e_0_energy">     -0.01155349 </i>
  </energy>
  <time name="totalsc"> 2248.45 2251.25</time>
 </calculation>
 <calculation>
  <scstep>
   <time name="dav">   33.20   33.24</time>
   <time name="total">   33.84   33.88</time>
   <energy>
    <i name="alphaZ">   1198.91563253 </i>
    <i name="ewald"> -11304.66643114 </i>
    <i name="hartreedc">  -3077.96855581 </i>
    <i name="XCdc">   -849.32110646 </i>
    <i name="pawpsdc">  18813.83029835 </i>
    <i name="pawaedc"> -17343.15603179 </i>
    <i name="eentropy">     -0.00736151 </i>
    <i name="bandstr">   -656.65446291 </i>
    <i name="atom">  12911.34519091 </i>
    <i name="e_fr_energy">   -307.68282783 </i>
    <i name="e_wo_entrp">   -307.67546632 </i>
    <i name="e_0_energy">   -307.68037399 </i>
   </energy>
  </scstep>
  <scstep>
   <time name="dav">   51.96   52.01</time>
   <time name="total">   52.62   52.68</time>
   <energy>
    <i name="e_fr_energy">   -309.75776319 </i>
    <i name="e_wo_entrp">   -309.75490631 </i>
    <i name="e_0_energy">   -309.75681090 </i>
   </energy>
  </scstep>
  <scstep>
   <time name="dav">   50.94   50.99</time>
   <time name="total">   51.58   51.64</time>
   <energy>
    <i name="e_fr_energy">   -308.27817744 </i>
    <i name="e_wo_entrp">   -308.27103872 </i>
    <i name="e_0_energy">   -308.27579787 </i>
   </energy>
  </scstep>
  <scstep>
   <time name="dav">   48.08   48.12</time>
   <time name="total">   48.74   48.79</time>
   <energy>
    <i name="e_fr_energy">   -308.17949242 </i>
    <i name="e_wo_entrp">   -308.16933259 </i>
    <i name="e_0_energy">   -308.17610581 </i>
   </energy>
  </scstep>
  <scstep>
   <time name="dav">   48.90   48.95</time>
   <time name="total">   49.55   49.60</time>
   <energy>
    <i name="e_fr_energy">   -307.85391842 </i>
    <i name="e_wo_entrp">   -307.85005370 </i>
    <i name="e_0_energy">   -307.85263018 </i>
   </energy>
  </scstep>
  <scstep>
   <time name="dav">   49.27   49.32</time>
   <time name="total">   49.92   49.98</time>
   <energy>
    <i name="e_fr_energy">   -307.77138090 </i>
    <i name="e_wo_entrp">   -307.76462304 </i>
    <i name="e_0_energy">   -307.76912828 </i>
   </energy>
  </scstep>
  <scstep>
   <time name="dav">   51.67   51.73</time>
   <time name="total">   52.32   52.37</time>
   <energy>
    <i name="e_fr_energy">   -307.72518608 </i>
    <i name="e_wo_entrp">   -307.71928468 </i>
    <i name="e_0_energy">   -307.72321894 </i>
   </energy>
  </scstep>
  <scstep>
   <time name="dav">   52.93   53.01</time>
   <time name="total">   53.59   53.68</time>
   <energy>
    <i name="e_fr_energy">   -307.71365430 </i>
    <i name="e_wo_entrp">   -307.70470689 </i>
    <i name="e_0_energy">   -307.71067183 </i>
   </energy>
  </scstep>
  <scstep>
   <time name="dav">   51.21   51.27</time>
   <time name="total">   51.85   51.92</time>
   <energy>
    <i name="e_fr_energy">   -307.69668277 </i>
    <i name="e_wo_entrp">   -307.68872256 </i>
    <i name="e_0_energy">   -307.69402937 </i>
   </energy>
  </scstep>
  <scstep>
   <time name="dav">   49.38   49.45</time>
   <time name="total">   50.01   50.11</time>
   <energy>
    <i name="e_fr_energy">   -307.69259279 </i>
    <i name="e_wo_entrp">   -307.68485707 </i>
    <i name="e_0_energy">   -307.69001422 </i>
   </energy>
  </scstep>
  <scstep>
   <time name="dav">   45.04   45.10</time>
   <time name="total">   45.68   45.74</time>
   <energy>
    <i name="e_fr_energy">   -307.69307688 </i>
    <i name="e_wo_entrp">   -307.68524562 </i>
    <i name="e_0_energy">   -307.69046646 </i>
   </energy>
  </scstep>
  <scstep>
   <time name="dav">   48.63   48.69</time>
   <time name="total">   49.29   49.36</time>
   <energy>
    <i name="e_fr_energy">   -307.69404651 </i>
    <i name="e_wo_entrp">   -307.68627089 </i>
    <i name="e_0_energy">   -307.69145464 </i>
   </energy>
  </scstep>
  <scstep>
   <time name="dav">   52.21   52.28</time>
   <time name="total">   52.85   52.92</time>
   <energy>
    <i name="e_fr_energy">   -307.69489035 </i>
    <i name="e_wo_entrp">   -307.68714411 </i>
    <i name="e_0_energy">   -307.69230827 </i>
   </energy>
  </scstep>
  <scstep>
   <time name="dav">   46.26   46.30</time>
   <time name="total">   46.92   46.97</time>
   <energy>
    <i name="e_fr_energy">   -307.69525665 </i>
    <i name="e_wo_entrp">   -307.68773268 </i>
    <i name="e_0_energy">   -307.69274866 </i>
   </energy>
  </scstep>
  <scstep>
   <time name="dav">   45.13   45.18</time>
   <time name="total">   45.78   45.82</time>
   <energy>
    <i name="e_fr_energy">   -307.69460758 </i>
    <i name="e_wo_entrp">   -307.68663270 </i>
    <i name="e_0_energy">   -307.69194929 </i>
   </energy>
  </scstep>
  <scstep>
   <time name="dav">   42.04   42.08</time>
   <time name="total">   42.69   42.74</time>
   <energy>
    <i name="e_fr_energy">   -307.69450926 </i>
    <i name="e_wo_entrp">   -307.68670563 </i>
    <i name="e_0_energy">   -307.69190805 </i>
   </energy>
  </scstep>
  <scstep>
   <time name="dav">   32.03   32.06</time>
   <time name="total">   32.10   32.13</time>
   <energy>
    <i name="alphaZ">   1198.91563253 </i>
    <i name="ewald"> -11304.66643114 </i>
    <i name="hartreedc">  -3028.06380781 </i>
    <i name="XCdc">   -850.83126246 </i>
    <i name="pawpsdc">  19349.69598283 </i>
    <i name="pawaedc"> -17880.11460675 </i>
    <i name="eentropy">     -0.00783063 </i>
    <i name="bandstr">   -703.96732634 </i>
    <i name="atom">  12911.34519091 </i>
    <i name="e_fr_energy">   -307.69445885 </i>
    <i name="e_wo_entrp">   -307.68662823 </i>
    <i name="e_0_energy">   -307.69184864 </i>
   </energy>
  </scstep>
  <structure>
   <crystal>
    <varray name="basis" >
     <v>      -3.13600066      -3.13794673      -3.14576678 </v>
     <v>       1.55278143       1.55143974      -7.83166442 </v>
     <v>       7.83197811      -7.84037311      -1.56935357 </v>
    </varray>
    <i name="volume">    461.54410382 </i>
    <varray name="rec_basis" >
     <v>      -0.13831382      -0.12761632      -0.05270402 </v>
     <v>       0.04276826       0.06404387      -0.10652015 </v>
     <v>       0.06382015      -0.06379627       0.00001566 </v>
    </varray>
   </crystal>
   <varray name="positions" >
    <v>       0.96389533       0.92935556       0.40278404 </v>
    <v>       0.63188288       0.26698155       0.40220368 </v>
    <v>       0.49945318       0.00213455      -0.00179817 </v>
    <v>      -0.00163438       0.00082636       0.00169320 </v>
    <v>       0.09670275       0.20566131       0.79688403 </v>
    <v>       0.03612449       0.06970761       0.59854758 </v>
    <v>       0.90345707       0.79709147       0.20197633 </v>
    <v>       0.80225515       0.59620604       0.40065051 </v>
    <v>       0.73308999       0.46655820       0.19822057 </v>
    <v>       0.66401569       0.33842439      -0.00106178 </v>
    <v>       0.37076892       0.73019694       0.60047233 </v>
    <v>       0.13260067       0.27023720       0.40030319 </v>
    <v>       0.83526151       0.66274908       0.00084029 </v>
    <v>       0.93168568       0.86673071       0.79627098 </v>
    <v>       0.56566288       0.13509086       0.19766560 </v>
    <v>       0.40284918       0.79385338       0.19905592 </v>
    <v>       0.43526632       0.86146711       0.79835936 </v>
    <v>       0.30251120       0.59979802       0.40132058 </v>
    <v>       0.46348008       0.93298610       0.40279434 </v>
    <v>       0.16886734       0.33494606       0.00037803 </v>
    <v>       0.27422527       0.53233178       0.80012283 </v>
    <v>       0.19889979       0.40179641       0.59952217 </v>
    <v>       0.06525991       0.13910699       0.20113162 </v>
    <v>       0.76470791       0.53004986       0.80072635 </v>
    <v>       0.69395272       0.40173201       0.60119798 </v>
    <v>       0.59898966       0.20200567       0.79848228 </v>
    <v>       0.53446111       0.06685540       0.60162140 </v>
    <v>       0.33466227       0.66262443      -0.00050537 </v>
    <v>       0.22997877       0.46916162       0.20014013 </v>
   </varray>
  </structure>
  <varray name="forces" >
   <v>       0.54273341      -0.33699901       0.48616303 </v>
   <v>       0.14796485      -0.13457711       0.13761897 </v>
   <v>      -0.23656473       0.25699632       0.03173082 </v>
   <v>       0.06931344       0.04266159      -0.09489435 </v>
   <v>      -0.05542251       0.47488725      -0.31948593 </v>
   <v>      -0.17206048       0.08956467      -0.41341897 </v>
   <v>      -0.00119510      -0.26800474       0.16488300 </v>
   <v>      -0.01295068      -0.34653530       0.12644140 </v>
   <v>      -0.12362952       0.00842173       0.17084377 </v>
   <v>      -0.00942757       0.42622194      -0.33398889 </v>
   <v>      -0.28986935      -0.38178973       0.12781746 </v>
   <v>       0.16345049       0.09841873      -0.19734505 </v>
   <v>      -0.16397184      -0.02930935      -0.02597890 </v>
   <v>      -0.41454102       0.56438437       0.25771284 </v>
   <v>      -0.02307304       0.18703917      -0.08365579 </v>
   <v>      -0.22488864      -0.08141854       0.20822501 </v>
   <v>      -0.21442150       0.04708472       0.40516240 </v>
   <v>       0.12232438      -0.37499516      -0.02714199 </v>
   <v>       0.36016186      -0.10891120       0.12281810 </v>
   <v>      -0.10831190      -0.10859158      -0.31859438 </v>
   <v>      -0.39655065      -0.35532736      -0.15392725 </v>
   <v>       0.20466678       0.27517141      -0.27929688 </v>
   <v>       0.38413001      -0.03120901      -0.51285687 </v>
   <v>       0.01882012      -0.11389441       0.46950071 </v>
   <v>       0.60104852       0.07923785      -0.00403933 </v>
   <v>      -0.15084941       0.38179871      -0.16918641 </v>
   <v>       0.08735639      -0.40007222      -0.16387901 </v>
   <v>      -0.26558751      -0.09248656       0.49237482 </v>
   <v>       0.16134520       0.23223279      -0.10360233 </v>
  </varray>
  <varray name="stress" >
   <v>      27.05289579      -0.25002280       2.91431836 </v>
   <v>      -0.25002279      28.00976898       3.91502330 </v>
   <v>       2.91431836       3.91502316      29.87682545 </v>
  </varray>
  <energy>
   <i name="e_fr_energy">   -307.69445885 </i>
   <i name="e_wo_entrp">   -307.69184864 </i>
   <i name="e_0_energy">     -0.00783063 </i>
  </energy>
  <time name="totalsc">  829.03  830.06</time>
 </calculation>
 <calculation>
  <scstep>
   <time name="dav">   33.15   33.19</time>
   <time name="total">   33.80   33.85</time>
   <energy>
    <i name="alphaZ">   1208.39605688 </i>
    <i name="ewald"> -11351.60255756 </i>
    <i name="hartreedc">  -3019.67315902 </i>
    <i name="XCdc">   -849.84798429 </i>
    <i name="pawpsdc">  19349.19259173 </i>
    <i name="pawaedc"> -17879.54188879 </i>
    <i name="eentropy">     -0.00679906 </i>
    <i name="bandstr">   -675.97673781 </i>
    <i name="atom">  12911.34519091 </i>
    <i name="e_fr_energy">   -307.71528701 </i>
    <i name="e_wo_entrp">   -307.70848795 </i>
    <i name="e_0_energy">   -307.71302066 </i>
   </energy>
  </scstep>
  <scstep>
   <time name="dav">   51.31   51.38</time>
   <time name="total">   51.96   52.03</time>
   <energy>
    <i name="e_fr_energy">   -307.92870430 </i>
    <i name="e_wo_entrp">   -307.92658217 </i>
    <i name="e_0_energy">   -307.92799692 </i>
   </energy>
  </scstep>
  <scstep>
   <time name="dav">   51.14   51.21</time>
   <time name="total">   51.80   51.88</time>
   <energy>
    <i name="e_fr_energy">   -307.78260725 </i>
    <i name="e_wo_entrp">   -307.77575135 </i>
    <i name="e_0_energy">   -307.78032195 </i>
   </energy>
  </scstep>
  <scstep>
   <time name="dav">   48.53   48.59</time>
   <time name="total">   49.17   49.24</time>
   <energy>
    <i name="e_fr_energy">   -307.77515803 </i>
    <i name="e_wo_entrp">   -307.76718708 </i>
    <i name="e_0_energy">   -307.77250104 </i>
   </energy>
  </scstep>
  <scstep>
   <time name="dav">   48.79   48.83</time>
   <time name="total">   49.44   49.50</time>
   <energy>
    <i name="e_fr_energy">   -307.73975118 </i>
    <i name="e_wo_entrp">   -307.73435033 </i>
    <i name="e_0_energy">   -307.73795090 </i>
   </energy>
  </scstep>
  <scstep>
   <time name="dav">   49.97   50.01</time>
   <time name="total">   50.61   50.67</time>
   <energy>
    <i name="e_fr_energy">   -307.73191161 </i>
    <i name="e_wo_entrp">   -307.72582756 </i>
    <i name="e_0_energy">   -307.72988359 </i>
   </energy>
  </scstep>
  <scstep>
   <time name="dav">   51.65   51.70</time>
   <time name="total">   52.31   52.37</time>
   <energy>
    <i name="e_fr_energy">   -307.72726238 </i>
    <i name="e_wo_entrp">   -307.72153652 </i>
    <i name="e_0_energy">   -307.72535376 </i>
   </energy>
  </scstep>
  <scstep>
   <time name="dav">   52.05   52.10</time>
   <time name="total">   52.70   52.75</time>
   <energy>
    <i name="e_fr_energy">   -307.72614794 </i>
    <i name="e_wo_entrp">   -307.71951851 </i>
    <i name="e_0_energy">   -307.72393813 </i>
   </energy>
  </scstep>
  <scstep>
   <time name="dav">   46.87   46.91</time>
   <time name="total">   47.53   47.58</time>
   <energy>
    <i name="e_fr_energy">   -307.72446017 </i>
    <i name="e_wo_entrp">   -307.71819781 </i>
    <i name="e_0_energy">   -307.72237272 </i>
   </energy>
  </scstep>
  <scstep>
   <time name="dav">   44.60   44.64</time>
   <time name="total">   45.25   45.29</time>
   <energy>
    <i name="e_fr_energy">   -307.72410385 </i>
    <i name="e_wo_entrp">   -307.71785221 </i>
    <i name="e_0_energy">   -307.72201997 </i>
   </energy>
  </scstep>
  <scstep>
   <time name="dav">   43.19   43.23</time>
   <time name="total">   43.84   43.89</time>
   <energy>
    <i name="e_fr_energy">   -307.72423302 </i>
    <i name="e_wo_entrp">   -307.71801406 </i>
    <i name="e_0_energy">   -307.72216004 </i>
   </energy>
  </scstep>
  <scstep>
   <time name="dav">   44.30   44.34</time>
   <time name="total">   44.95   44.99</time>
   <energy>
    <i name="e_fr_energy">   -307.72434332 </i>
    <i name="e_wo_entrp">   -307.71807435 </i>
    <i name="e_0_energy">   -307.72225366 </i>
   </energy>
  </scstep>
  <scstep>
   <time name="dav">   46.68   46.73</time>
   <time name="total">   47.32   47.40</time>
   <energy>
    <i name="e_fr_energy">   -307.72448295 </i>
    <i name="e_wo_entrp">   -307.71837156 </i>
    <i name="e_0_energy">   -307.72244582 </i>
   </energy>
  </scstep>
  <scstep>
   <time name="dav">   43.49   43.53</time>
   <time name="total">   44.14   44.18</time>
   <energy>
    <i name="e_fr_energy">   -307.72440843 </i>
    <i name="e_wo_entrp">   -307.71813570 </i>
    <i name="e_0_energy">   -307.72231752 </i>
   </energy>
  </scstep>
  <scstep>
   <time name="dav">   32.14   32.17</time>
   <time name="total">   32.22   32.25</time>
   <energy>
    <i name="alphaZ">   1208.39605688 </i>
    <i name="ewald"> -11351.60255756 </i>
    <i name="hartreedc">  -3004.47610673 </i>
    <i name="XCdc">   -850.31019403 </i>
    <i name="pawpsdc">  19531.46672681 </i>
    <i name="pawaedc"> -18062.07971067 </i>
    <i name="eentropy">     -0.00625539 </i>
    <i name="bandstr">   -690.45748151 </i>
    <i name="atom">  12911.34519091 </i>
    <i name="e_fr_energy">   -307.72433129 </i>
    <i name="e_wo_entrp">   -307.71807590 </i>
    <i name="e_0_energy">   -307.72224616 </i>
   </energy>
  </scstep>
  <structure>
   <crystal>
    <varray name="basis" >
     <v>      -3.12853995      -3.13109100      -3.14134208 </v>
     <v>       1.54431995       1.54256118      -7.81042084 </v>
     <v>       7.81083205      -7.82183682      -1.56604389 </v>
    </varray>
    <i name="volume">    457.92307747 </i>
    <varray name="rec_basis" >
     <v>      -0.13868608      -0.12794160      -0.05269030 </v>
     <v>       0.04294966       0.06428138      -0.10684623 </v>
     <v>       0.06398640      -0.06395496       0.00002062 </v>
    </varray>
   </crystal>
   <varray name="positions" >
    <v>       0.96303150       0.92810728       0.40365678 </v>
    <v>       0.63142766       0.26708101       0.40289437 </v>
    <v>       0.49928018       0.00280497      -0.00236176 </v>
    <v>      -0.00214759       0.00108648       0.00222390 </v>
    <v>       0.09566517       0.20744006       0.79590745 </v>
    <v>       0.03699512       0.07066176       0.59809220 </v>
    <v>       0.90454186       0.79617715       0.20259567 </v>
    <v>       0.80296528       0.59501389       0.40085439 </v>
    <v>       0.73301464       0.46652408       0.19766291 </v>
    <v>       0.66318028       0.34002400      -0.00139458 </v>
    <v>       0.37205650       0.72921076       0.60062028 </v>
    <v>       0.13236699       0.27135880       0.40039815 </v>
    <v>       0.83586936       0.66151821       0.00110367 </v>
    <v>       0.93117131       0.86675104       0.79510235 </v>
    <v>       0.56534750       0.13564297       0.19693398 </v>
    <v>       0.40374864       0.79192206       0.19876009 </v>
    <v>       0.43587815       0.85983344       0.79784525 </v>
    <v>       0.30329696       0.59973396       0.40173436 </v>
    <v>       0.46248198       0.93287815       0.40367023 </v>
    <v>       0.16955412       0.33545196       0.00049638 </v>
    <v>       0.27659234       0.53201506       0.80016106 </v>
    <v>       0.19855347       0.40236088       0.59937241 </v>
    <v>       0.06481231       0.14092078       0.20148617 </v>
    <v>       0.76409840       0.52901925       0.80095415 </v>
    <v>       0.69205734       0.40227779       0.60157362 </v>
    <v>       0.59867162       0.20263576       0.79800660 </v>
    <v>       0.53481327       0.06691447       0.60212950 </v>
    <v>       0.33508323       0.66135449      -0.00066370 </v>
    <v>       0.22892574       0.46994617       0.20018411 </v>
   </varray>
  </structure>
  <varray name="forces" >
   <v>       0.55954190      -0.32129947       0.40671219 </v>
   <v>       0.04441689      -0.09950755       0.19148393 </v>
   <v>      -0.24945370       0.21631339       0.12802730 </v>
   <v>      -0.03465226       0.09157291      -0.10025648 </v>
   <v>      -0.04181610       0.31982875      -0.22445421 </v>
   <v>      -0.11873182       0.05865976      -0.33546509 </v>
   <v>       0.00632198      -0.13986893       0.15804207 </v>
   <v>       0.04528199      -0.32667216       0.01331890 </v>
   <v>      -0.06058231      -0.10577926       0.20011808 </v>
   <v>      -0.07260275       0.38645754      -0.21271016 </v>
   <v>      -0.28479894      -0.35779668       0.08964598 </v>
   <v>       0.13680636       0.08828415      -0.07324260 </v>
   <v>      -0.18060282       0.09388555      -0.20543187 </v>
   <v>      -0.39630051       0.50844436       0.26463038 </v>
   <v>       0.05416625       0.09796875      -0.07554579 </v>
   <v>      -0.11423340      -0.01555080      -0.00441867 </v>
   <v>      -0.10880084       0.06531304       0.27415381 </v>
   <v>       0.14336563      -0.35603654       0.01491090 </v>
   <v>       0.26154067      -0.06467483       0.10729539 </v>
   <v>      -0.13716768      -0.10027468      -0.27352731 </v>
   <v>      -0.34403047      -0.27399662      -0.08746366 </v>
   <v>       0.25718084       0.29431800      -0.30937493 </v>
   <v>       0.34626254      -0.05759596      -0.38326542 </v>
   <v>      -0.02963210      -0.10901385       0.39290317 </v>
   <v>       0.56754109       0.01794544      -0.02717474 </v>
   <v>      -0.16480442       0.37970240      -0.14702564 </v>
   <v>       0.05203772      -0.42211276      -0.15581903 </v>
   <v>      -0.24187300      -0.07288266       0.44746911 </v>
   <v>       0.10561926       0.20436869      -0.07353559 </v>
  </varray>
  <varray name="stress" >
   <v>      42.66083597       0.22280333       2.81717817 </v>
   <v>       0.22280331      43.73214129       3.86524458 </v>
   <v>       2.81717818       3.86524463      46.16221417 </v>
  </varray>
  <energy>
   <i name="e_fr_energy">   -307.72433129 </i>
   <i name="e_wo_entrp">   -307.72224616 </i>
   <i name="e_0_energy">     -0.00625539 </i>
  </energy>
  <time name="totalsc">  716.12  716.98</time>
 </calculation>
 <calculation>
  <scstep>
   <time name="dav">   33.04   33.07</time>
   <time name="total">   33.69   33.72</time>
   <energy>
    <i name="alphaZ">   1194.58069595 </i>
    <i name="ewald"> -11340.50045986 </i>
    <i name="hartreedc">  -2962.01977974 </i>
    <i name="XCdc">   -851.93390312 </i>
    <i name="pawpsdc">  19531.26327172 </i>
    <i name="pawaedc"> -18061.86018063 </i>
    <i name="eentropy">     -0.00636122 </i>
    <i name="bandstr">   -728.74527564 </i>
    <i name="atom">  12911.34519091 </i>
    <i name="e_fr_energy">   -307.87680164 </i>
    <i name="e_wo_entrp">   -307.87044042 </i>
    <i name="e_0_energy">   -307.87468124 </i>
   </energy>
  </scstep>
  <scstep>
   <time name="dav">   49.71   49.76</time>
   <time name="total">   50.37   50.43</time>
   <energy>
    <i name="e_fr_energy">   -308.53487847 </i>
    <i name="e_wo_entrp">   -308.53400624 </i>
    <i name="e_0_energy">   -308.53458773 </i>
   </energy>
  </scstep>
  <scstep>
   <time name="dav">   51.66   51.71</time>
   <time name="total">   52.31   52.36</time>
   <energy>
    <i name="e_fr_energy">   -308.11450475 </i>
    <i name="e_wo_entrp">   -308.11089957 </i>
    <i name="e_0_energy">   -308.11330302 </i>
   </energy>
  </scstep>
  <scstep>
   <time name="dav">   47.83   47.88</time>
   <time name="total">   48.50   48.56</time>
   <energy>
    <i name="e_fr_energy">   -308.12021977 </i>
    <i name="e_wo_entrp">   -308.11712252 </i>
    <i name="e_0_energy">   -308.11918735 </i>
   </energy>
  </scstep>
  <scstep>
   <time name="dav">   48.78   48.84</time>
   <time name="total">   49.43   49.49</time>
   <energy>
    <i name="e_fr_energy">   -308.02644688 </i>
    <i name="e_wo_entrp">   -308.02462036 </i>
    <i name="e_0_energy">   -308.02583804 </i>
   </energy>
  </scstep>
  <scstep>
   <time name="dav">   50.10   50.15</time>
   <time name="total">   50.76   50.83</time>
   <energy>
    <i name="e_fr_energy">   -308.02002079 </i>
    <i name="e_wo_entrp">   -308.01626402 </i>
    <i name="e_0_energy">   -308.01876854 </i>
   </energy>
  </scstep>
  <scstep>
   <time name="dav">   50.38   50.43</time>
   <time name="total">   51.03   51.08</time>
   <energy>
    <i name="e_fr_energy">   -308.00982963 </i>
    <i name="e_wo_entrp">   -308.00705245 </i>
    <i name="e_0_energy">   -308.00890391 </i>
   </energy>
  </scstep>
  <scstep>
   <time name="dav">   51.40   51.45</time>
   <time name="total">   52.06   52.13</time>
   <energy>
    <i name="e_fr_energy">   -308.00197242 </i>
    <i name="e_wo_entrp">   -307.99934284 </i>
[...]
       <r>    4.8299    1.0000 </r>
       <r>    4.8694    1.0000 </r>
       <r>    4.9253    1.0000 </r>
       <r>    5.0110    1.0000 </r>
       <r>    5.0544    1.0000 </r>
       <r>    5.1162    1.0000 </r>
       <r>    5.1972    1.0000 </r>
       <r>    5.2211    1.0000 </r>
       <r>    5.2683    1.0000 </r>
       <r>    5.3526    1.0000 </r>
       <r>    5.3967    1.0000 </r>
       <r>    5.4375    1.0000 </r>
       <r>    5.5085    1.0000 </r>
       <r>    5.5634    1.0000 </r>
       <r>    5.6206    1.0000 </r>
       <r>    5.6754    1.0000 </r>
       <r>    5.7319    1.0000 </r>
       <r>    5.8002    1.0000 </r>
       <r>    5.8680    1.0000 </r>
       <r>    5.9033    1.0000 </r>
       <r>    5.9113    1.0000 </r>
       <r>    5.9982    1.0000 </r>
       <r>    6.0234    1.0000 </r>
       <r>    6.1384    1.0000 </r>
       <r>    6.1789    1.0001 </r>
       <r>    6.2386    1.0005 </r>
       <r>    6.3205    1.0029 </r>
       <r>    6.3402    1.0042 </r>
       <r>    6.4014    1.0116 </r>
       <r>    6.4405    1.0193 </r>
       <r>    6.4679    1.0255 </r>
       <r>    6.4981    1.0319 </r>
       <r>    6.5718    1.0277 </r>
       <r>    6.6041    1.0049 </r>
       <r>    6.6614    0.9103 </r>
       <r>    6.7106    0.7653 </r>
       <r>    6.7256    0.7106 </r>
       <r>    6.8182    0.3305 </r>
       <r>    6.8849    0.1096 </r>
       <r>    6.9688   -0.0202 </r>
       <r>    6.9949   -0.0320 </r>
       <r>    7.1015   -0.0221 </r>
       <r>    7.1828   -0.0073 </r>
       <r>    7.2695   -0.0014 </r>
       <r>    7.3618   -0.0001 </r>
       <r>    7.4669   -0.0000 </r>
       <r>    7.5640   -0.0000 </r>
       <r>    7.6367   -0.0000 </r>
       <r>    7.6949   -0.0000 </r>
       <r>    7.8002   -0.0000 </r>
       <r>    7.8722   -0.0000 </r>
       <r>    8.0111   -0.0000 </r>
       <r>    8.1881   -0.0000 </r>
       <r>    8.3312   -0.0000 </r>
       <r>    8.4086   -0.0000 </r>
       <r>    8.5339   -0.0000 </r>
       <r>    8.6356   -0.0000 </r>
       <r>    8.6965   -0.0000 </r>
       <r>    8.7102   -0.0000 </r>
       <r>    8.8063   -0.0000 </r>
       <r>    8.8897   -0.0000 </r>
      </set>
     </set>
    </set>
   </array>
  </eigenvalues>
  <separator name="orbital magnetization" >
   <v name="MAGDIPOLOUT">      0.00000000      0.00000000      0.00000000</v>
  </separator>
  <dos>
   <i name="efermi">      6.77720821 </i>
   <total>
    <array>
     <dimension dim="1">gridpoints</dimension>
     <dimension dim="2">spin</dimension>
     <field>energy</field>
     <field>total</field>
     <field>integrated</field>
     <set>
      <set comment="spin 1">
       <r>   -50.2619     0.0000     0.0000 </r>
       <r>   -50.0552     0.0000     0.0000 </r>
       <r>   -49.8485     0.0000     0.0000 </r>
       <r>   -49.6417     0.0000     0.0000 </r>
       <r>   -49.4350     0.0000     0.0000 </r>
       <r>   -49.2283    -0.0000    -0.0000 </r>
       <r>   -49.0216    -0.0000    -0.0000 </r>
       <r>   -48.8148    -0.0000    -0.0000 </r>
       <r>   -48.6081    -0.0000    -0.0000 </r>
       <r>   -48.4014    -0.0000    -0.0000 </r>
       <r>   -48.1947    -0.0000    -0.0000 </r>
       <r>   -47.9879    -0.0041    -0.0008 </r>
       <r>   -47.7812    -0.2267    -0.0477 </r>
       <r>   -47.5745     0.1555    -0.0156 </r>
       <r>   -47.3678    11.8756     2.4394 </r>
       <r>   -47.1610    22.3161     7.0527 </r>
       <r>   -46.9543    17.5591    10.6827 </r>
       <r>   -46.7476     6.8237    12.0933 </r>
       <r>   -46.5409    -0.3520    12.0205 </r>
       <r>   -46.3341    -0.0983    12.0002 </r>
       <r>   -46.1274    -0.0010    12.0000 </r>
       <r>   -45.9207    -0.0000    12.0000 </r>
       <r>   -45.7139    -0.0000    12.0000 </r>
       <r>   -45.5072    -0.0000    12.0000 </r>
       <r>   -45.3005     0.0000    12.0000 </r>
       <r>   -45.0938     0.0000    12.0000 </r>
       <r>   -44.8870     0.0000    12.0000 </r>
       <r>   -44.6803     0.0000    12.0000 </r>
       <r>   -44.4736     0.0000    12.0000 </r>
       <r>   -44.2669     0.0000    12.0000 </r>
       <r>   -44.0601     0.0000    12.0000 </r>
       <r>   -43.8534     0.0000    12.0000 </r>
       <r>   -43.6467     0.0000    12.0000 </r>
       <r>   -43.4400     0.0000    12.0000 </r>
       <r>   -43.2332     0.0000    12.0000 </r>
       <r>   -43.0265     0.0000    12.0000 </r>
       <r>   -42.8198     0.0000    12.0000 </r>
       <r>   -42.6131     0.0000    12.0000 </r>
       <r>   -42.4063     0.0000    12.0000 </r>
       <r>   -42.1996     0.0000    12.0000 </r>
       <r>   -41.9929     0.0000    12.0000 </r>
       <r>   -41.7862     0.0000    12.0000 </r>
       <r>   -41.5794     0.0000    12.0000 </r>
       <r>   -41.3727     0.0000    12.0000 </r>
       <r>   -41.1660     0.0000    12.0000 </r>
       <r>   -40.9592     0.0000    12.0000 </r>
       <r>   -40.7525     0.0000    12.0000 </r>
       <r>   -40.5458     0.0000    12.0000 </r>
       <r>   -40.3391     0.0000    12.0000 </r>
       <r>   -40.1323     0.0000    12.0000 </r>
       <r>   -39.9256     0.0000    12.0000 </r>
       <r>   -39.7189     0.0000    12.0000 </r>
       <r>   -39.5122     0.0000    12.0000 </r>
       <r>   -39.3054     0.0000    12.0000 </r>
       <r>   -39.0987     0.0000    12.0000 </r>
       <r>   -38.8920     0.0000    12.0000 </r>
       <r>   -38.6853     0.0000    12.0000 </r>
       <r>   -38.4785     0.0000    12.0000 </r>
       <r>   -38.2718     0.0000    12.0000 </r>
       <r>   -38.0651     0.0000    12.0000 </r>
       <r>   -37.8584     0.0000    12.0000 </r>
       <r>   -37.6516     0.0000    12.0000 </r>
       <r>   -37.4449     0.0000    12.0000 </r>
       <r>   -37.2382     0.0000    12.0000 </r>
       <r>   -37.0315     0.0000    12.0000 </r>
       <r>   -36.8247     0.0000    12.0000 </r>
       <r>   -36.6180     0.0000    12.0000 </r>
       <r>   -36.4113     0.0000    12.0000 </r>
       <r>   -36.2045     0.0000    12.0000 </r>
       <r>   -35.9978     0.0000    12.0000 </r>
       <r>   -35.7911     0.0000    12.0000 </r>
       <r>   -35.5844     0.0000    12.0000 </r>
       <r>   -35.3776     0.0000    12.0000 </r>
       <r>   -35.1709     0.0000    12.0000 </r>
       <r>   -34.9642     0.0000    12.0000 </r>
       <r>   -34.7575     0.0000    12.0000 </r>
       <r>   -34.5507     0.0000    12.0000 </r>
       <r>   -34.3440     0.0000    12.0000 </r>
       <r>   -34.1373     0.0000    12.0000 </r>
       <r>   -33.9306     0.0000    12.0000 </r>
       <r>   -33.7238     0.0000    12.0000 </r>
       <r>   -33.5171     0.0000    12.0000 </r>
       <r>   -33.3104     0.0000    12.0000 </r>
       <r>   -33.1037     0.0000    12.0000 </r>
       <r>   -32.8969     0.0000    12.0000 </r>
       <r>   -32.6902     0.0000    12.0000 </r>
       <r>   -32.4835     0.0000    12.0000 </r>
       <r>   -32.2768     0.0000    12.0000 </r>
       <r>   -32.0700     0.0000    12.0000 </r>
       <r>   -31.8633     0.0000    12.0000 </r>
       <r>   -31.6566     0.0000    12.0000 </r>
       <r>   -31.4498     0.0000    12.0000 </r>
       <r>   -31.2431     0.0000    12.0000 </r>
       <r>   -31.0364     0.0000    12.0000 </r>
       <r>   -30.8297     0.0000    12.0000 </r>
       <r>   -30.6229     0.0000    12.0000 </r>
       <r>   -30.4162     0.0000    12.0000 </r>
       <r>   -30.2095     0.0000    12.0000 </r>
       <r>   -30.0028     0.0000    12.0000 </r>
       <r>   -29.7960     0.0000    12.0000 </r>
       <r>   -29.5893     0.0000    12.0000 </r>
       <r>   -29.3826     0.0000    12.0000 </r>
       <r>   -29.1759     0.0000    12.0000 </r>
       <r>   -28.9691     0.0000    12.0000 </r>
       <r>   -28.7624     0.0000    12.0000 </r>
       <r>   -28.5557     0.0000    12.0000 </r>
       <r>   -28.3490     0.0000    12.0000 </r>
       <r>   -28.1422     0.0000    12.0000 </r>
       <r>   -27.9355     0.0000    12.0000 </r>
       <r>   -27.7288     0.0000    12.0000 </r>
       <r>   -27.5221     0.0000    12.0000 </r>
       <r>   -27.3153     0.0000    12.0000 </r>
       <r>   -27.1086     0.0000    12.0000 </r>
       <r>   -26.9019     0.0000    12.0000 </r>
       <r>   -26.6951     0.0000    12.0000 </r>
       <r>   -26.4884     0.0000    12.0000 </r>
       <r>   -26.2817     0.0000    12.0000 </r>
       <r>   -26.0750     0.0000    12.0000 </r>
       <r>   -25.8682    -0.0000    12.0000 </r>
       <r>   -25.6615    -0.0000    12.0000 </r>
       <r>   -25.4548    -0.0000    12.0000 </r>
       <r>   -25.2481    -0.0000    12.0000 </r>
       <r>   -25.0413    -0.0000    12.0000 </r>
       <r>   -24.8346    -0.0000    12.0000 </r>
       <r>   -24.6279    -0.0045    11.9991 </r>
       <r>   -24.4212    -0.2066    11.9563 </r>
       <r>   -24.2144     0.6573    12.0922 </r>
       <r>   -24.0077     8.2403    13.7957 </r>
       <r>   -23.8010    10.2524    15.9152 </r>
       <r>   -23.5943    22.9088    20.6510 </r>
       <r>   -23.3875    41.1798    29.1639 </r>
       <r>   -23.1808    43.9090    38.2411 </r>
       <r>   -22.9741    30.3424    44.5136 </r>
       <r>   -22.7674     8.1677    46.2021 </r>
       <r>   -22.5606     8.5721    47.9742 </r>
       <r>   -22.3539     0.3010    48.0364 </r>
       <r>   -22.1472    -0.1727    48.0007 </r>
       <r>   -21.9404    -0.0035    48.0000 </r>
       <r>   -21.7337    -0.0000    48.0000 </r>
       <r>   -21.5270    -0.0000    48.0000 </r>
       <r>   -21.3203    -0.0000    48.0000 </r>
       <r>   -21.1135     0.0000    48.0000 </r>
       <r>   -20.9068     0.0000    48.0000 </r>
       <r>   -20.7001     0.0000    48.0000 </r>
       <r>   -20.4934     0.0000    48.0000 </r>
       <r>   -20.2866     0.0000    48.0000 </r>
       <r>   -20.0799     0.0000    48.0000 </r>
       <r>   -19.8732     0.0000    48.0000 </r>
       <r>   -19.6665     0.0000    48.0000 </r>
       <r>   -19.4597     0.0000    48.0000 </r>
       <r>   -19.2530     0.0000    48.0000 </r>
       <r>   -19.0463     0.0000    48.0000 </r>
       <r>   -18.8396     0.0000    48.0000 </r>
       <r>   -18.6328     0.0000    48.0000 </r>
       <r>   -18.4261     0.0000    48.0000 </r>
       <r>   -18.2194     0.0000    48.0000 </r>
       <r>   -18.0127     0.0000    48.0000 </r>
       <r>   -17.8059     0.0000    48.0000 </r>
       <r>   -17.5992     0.0000    48.0000 </r>
       <r>   -17.3925     0.0000    48.0000 </r>
       <r>   -17.1857     0.0000    48.0000 </r>
       <r>   -16.9790     0.0000    48.0000 </r>
       <r>   -16.7723     0.0000    48.0000 </r>
       <r>   -16.5656     0.0000    48.0000 </r>
       <r>   -16.3588     0.0000    48.0000 </r>
       <r>   -16.1521     0.0000    48.0000 </r>
       <r>   -15.9454     0.0000    48.0000 </r>
       <r>   -15.7387     0.0000    48.0000 </r>
       <r>   -15.5319     0.0000    48.0000 </r>
       <r>   -15.3252     0.0000    48.0000 </r>
       <r>   -15.1185     0.0000    48.0000 </r>
       <r>   -14.9118     0.0000    48.0000 </r>
       <r>   -14.7050     0.0000    48.0000 </r>
       <r>   -14.4983     0.0000    48.0000 </r>
       <r>   -14.2916     0.0000    48.0000 </r>
       <r>   -14.0849     0.0000    48.0000 </r>
       <r>   -13.8781     0.0000    48.0000 </r>
       <r>   -13.6714     0.0000    48.0000 </r>
       <r>   -13.4647     0.0000    48.0000 </r>
       <r>   -13.2580     0.0000    48.0000 </r>
       <r>   -13.0512     0.0000    48.0000 </r>
       <r>   -12.8445     0.0000    48.0000 </r>
       <r>   -12.6378     0.0000    48.0000 </r>
       <r>   -12.4310     0.0000    48.0000 </r>
       <r>   -12.2243     0.0000    48.0000 </r>
       <r>   -12.0176     0.0000    48.0000 </r>
       <r>   -11.8109     0.0000    48.0000 </r>
       <r>   -11.6041     0.0000    48.0000 </r>
       <r>   -11.3974     0.0000    48.0000 </r>
       <r>   -11.1907     0.0000    48.0000 </r>
       <r>   -10.9840     0.0000    48.0000 </r>
       <r>   -10.7772     0.0000    48.0000 </r>
       <r>   -10.5705     0.0000    48.0000 </r>
       <r>   -10.3638     0.0000    48.0000 </r>
       <r>   -10.1571     0.0000    48.0000 </r>
       <r>    -9.9503     0.0000    48.0000 </r>
       <r>    -9.7436     0.0000    48.0000 </r>
       <r>    -9.5369     0.0000    48.0000 </r>
       <r>    -9.3302     0.0000    48.0000 </r>
       <r>    -9.1234     0.0000    48.0000 </r>
       <r>    -8.9167     0.0000    48.0000 </r>
       <r>    -8.7100     0.0000    48.0000 </r>
       <r>    -8.5033     0.0000    48.0000 </r>
       <r>    -8.2965     0.0000    48.0000 </r>
       <r>    -8.0898     0.0000    48.0000 </r>
       <r>    -7.8831     0.0000    48.0000 </r>
       <r>    -7.6763     0.0000    48.0000 </r>
       <r>    -7.4696     0.0000    48.0000 </r>
       <r>    -7.2629     0.0000    48.0000 </r>
       <r>    -7.0562     0.0000    48.0000 </r>
       <r>    -6.8494     0.0000    48.0000 </r>
       <r>    -6.6427     0.0000    48.0000 </r>
       <r>    -6.4360     0.0000    48.0000 </r>
       <r>    -6.2293     0.0000    48.0000 </r>
       <r>    -6.0225     0.0000    48.0000 </r>
       <r>    -5.8158     0.0000    48.0000 </r>
       <r>    -5.6091     0.0000    48.0000 </r>
       <r>    -5.4024     0.0000    48.0000 </r>
       <r>    -5.1956     0.0000    48.0000 </r>
       <r>    -4.9889     0.0000    48.0000 </r>
       <r>    -4.7822     0.0000    48.0000 </r>
       <r>    -4.5755     0.0000    48.0000 </r>
       <r>    -4.3687     0.0000    48.0000 </r>
       <r>    -4.1620     0.0000    48.0000 </r>
       <r>    -3.9553     0.0000    48.0000 </r>
       <r>    -3.7486     0.0000    48.0000 </r>
       <r>    -3.5418     0.0000    48.0000 </r>
       <r>    -3.3351     0.0000    48.0000 </r>
       <r>    -3.1284     0.0000    48.0000 </r>
       <r>    -2.9216     0.0000    48.0000 </r>
       <r>    -2.7149     0.0000    48.0000 </r>
       <r>    -2.5082     0.0000    48.0000 </r>
       <r>    -2.3015     0.0000    48.0000 </r>
       <r>    -2.0947     0.0000    48.0000 </r>
       <r>    -1.8880     0.0000    48.0000 </r>
       <r>    -1.6813    -0.0000    48.0000 </r>
       <r>    -1.4746    -0.0000    48.0000 </r>
       <r>    -1.2678    -0.0000    48.0000 </r>
       <r>    -1.0611    -0.0000    48.0000 </r>
       <r>    -0.8544    -0.0000    48.0000 </r>
       <r>    -0.6477    -0.0000    48.0000 </r>
       <r>    -0.4409    -0.0015    47.9997 </r>
       <r>    -0.2342    -0.0168    47.9962 </r>
       <r>    -0.0275     0.1101    48.0190 </r>
       <r>     0.1792     0.7776    48.1797 </r>
       <r>     0.3860     1.2262    48.4332 </r>
       <r>     0.5927     1.6450    48.7733 </r>
       <r>     0.7994     2.1420    49.2161 </r>
       <r>     1.0061     1.8127    49.5908 </r>
       <r>     1.2129     2.7072    50.1505 </r>
       <r>     1.4196     3.1517    50.8020 </r>
       <r>     1.6263     3.2535    51.4746 </r>
       <r>     1.8331     3.6119    52.2213 </r>
       <r>     2.0398     4.4389    53.1389 </r>
       <r>     2.2465     5.2079    54.2155 </r>
       <r>     2.4532     6.0452    55.4652 </r>
       <r>     2.6600    10.0492    57.5427 </r>
       <r>     2.8667    15.9845    60.8471 </r>
       <r>     3.0734    21.2141    65.2326 </r>
       <r>     3.2801    25.9914    70.6057 </r>
       <r>     3.4869    29.3150    76.6658 </r>
       <r>     3.6936    31.3884    83.1546 </r>
       <r>     3.9003    30.3842    89.4358 </r>
       <r>     4.1070    29.4746    95.5290 </r>
       <r>     4.3138    29.1434   101.5537 </r>
       <r>     4.5205    29.0732   107.5639 </r>
       <r>     4.7272    29.5663   113.6760 </r>
       <r>     4.9339    32.9702   120.4918 </r>
       <r>     5.1407    38.3379   128.4173 </r>
       <r>     5.3474    39.0761   136.4953 </r>
       <r>     5.5541    37.7924   144.3080 </r>
       <r>     5.7608    39.1073   152.3925 </r>
       <r>     5.9676    40.0609   160.6741 </r>
       <r>     6.1743    42.0190   169.3605 </r>
       <r>     6.3810    42.9976   178.2493 </r>
       <r>     6.5878    41.9116   186.9135 </r>
       <r>     6.7945    37.1642   194.5963 </r>
       <r>     7.0012    32.4583   201.3063 </r>
       <r>     7.2079    29.1804   207.3386 </r>
       <r>     7.4147    24.6076   212.4257 </r>
       <r>     7.6214    20.5372   216.6712 </r>
       <r>     7.8281    19.4730   220.6968 </r>
       <r>     8.0348    18.8473   224.5930 </r>
       <r>     8.2416    22.6761   229.2808 </r>
       <r>     8.4483    24.8752   234.4231 </r>
       <r>     8.6550    18.4678   238.2409 </r>
       <r>     8.8617     7.9121   239.8766 </r>
       <r>     9.0685     0.7674   240.0352 </r>
       <r>     9.2752    -0.1570   240.0027 </r>
       <r>     9.4819    -0.0131   240.0000 </r>
       <r>     9.6886    -0.0001   240.0000 </r>
       <r>     9.8954    -0.0000   240.0000 </r>
       <r>    10.1021    -0.0000   240.0000 </r>
       <r>    10.3088    -0.0000   240.0000 </r>
       <r>    10.5155     0.0000   240.0000 </r>
       <r>    10.7223     0.0000   240.0000 </r>
       <r>    10.9290     0.0000   240.0000 </r>
       <r>    11.1357     0.0000   240.0000 </r>
       <r>    11.3425     0.0000   240.0000 </r>
       <r>    11.5492     0.0000   240.0000 </r>
       <r>    11.7559     0.0000   240.0000 </r>
      </set>
     </set>
    </array>
   </total>
  </dos>
 </calculation>
 <structure name="finalpos" >
  <crystal>
   <varray name="basis" >
    <v>      -3.15584724      -3.16986207      -3.18024185 </v>
    <v>       1.50572553       1.55100239      -7.84596777 </v>
    <v>       7.78716969      -7.87182848      -1.54058874 </v>
   </varray>
   <i name="volume">    464.87678716 </i>
   <varray name="rec_basis" >
    <v>      -0.13799693      -0.12643819      -0.05147758 </v>
    <v>       0.04334668       0.06373075      -0.10653692 </v>
    <v>       0.06410989      -0.06356361      -0.00026197 </v>
   </varray>
  </crystal>
  <varray name="positions" >
   <v>       0.94377837       0.91853895       0.42630460 </v>
   <v>       0.62594668       0.26786897       0.40658987 </v>
   <v>       0.50140645      -0.00210844      -0.00777905 </v>
   <v>      -0.00301052      -0.00538489      -0.00166949 </v>
   <v>       0.09498217       0.20781254       0.79374887 </v>
   <v>       0.04693951       0.07967942       0.59797611 </v>
   <v>       0.90535152       0.79365663       0.20205999 </v>
   <v>       0.80752241       0.59605046       0.39882972 </v>
   <v>       0.73284100       0.46285171       0.19865714 </v>
   <v>       0.66705646       0.33726587      -0.00284739 </v>
   <v>       0.42697862       0.72295682       0.60019828 </v>
   <v>       0.12419113       0.27920205       0.40228521 </v>
   <v>       0.84209509       0.66112626      -0.00483973 </v>
   <v>       0.92935794       0.84365172       0.76177015 </v>
   <v>       0.56529374       0.13358539       0.19699357 </v>
   <v>       0.40546724       0.79050187       0.19686992 </v>
   <v>       0.42898217       0.85639434       0.79742219 </v>
   <v>       0.30818816       0.60395240       0.40546890 </v>
   <v>       0.44597686       0.94232631       0.40316265 </v>
   <v>       0.17828116       0.33044666       0.00153896 </v>
   <v>       0.29605703       0.52567805       0.80120739 </v>
   <v>       0.14007119       0.45235342       0.60383515 </v>
   <v>       0.06035188       0.14246344       0.20961999 </v>
   <v>       0.77754773       0.52131509       0.80188038 </v>
   <v>       0.67645348       0.40505522       0.60841350 </v>
   <v>       0.59796418       0.19941551       0.79285629 </v>
   <v>       0.53911216       0.08175567       0.60977305 </v>
   <v>       0.34371560       0.64703359      -0.00027568 </v>
   <v>       0.22443391       0.47122161       0.19994948 </v>
  </varray>
 </structure>
</modeling>
