Nb - Mo - Ta - Ti - V SQS               
           1
    -3.160000   -3.160000   -3.160000
     1.580000    1.580000   -7.900000
     7.900000   -7.900000   -1.580000
   Nb   Mo   Ta   Ti   V 
   6   6   6   5   6
Direct configuration=     1
   0.96666667  0.93333333  0.40000000
   0.63333333  0.26666667  0.40000000
   0.50000000  0.00000000  0.00000000
   0.00000000  0.00000000  0.00000000
   0.10000000  0.20000000  0.80000000
   0.03333333  0.06666667  0.60000000
   0.90000000  0.80000000  0.20000000
   0.80000000  0.60000000  0.40000000
   0.73333333  0.46666667  0.20000000
   0.66666667  0.33333333  0.00000000
   0.36666667  0.73333333  0.60000000
   0.13333333  0.26666667  0.40000000
   0.83333333  0.66666667  0.00000000
   0.93333333  0.86666667  0.80000000
   0.56666667  0.13333333  0.20000000
   0.40000000  0.80000000  0.20000000
   0.43333333  0.86666667  0.80000000
   0.30000000  0.60000000  0.40000000
   0.46666667  0.93333333  0.40000000
   0.16666667  0.33333333  0.00000000
   0.26666667  0.53333333  0.80000000
   0.20000000  0.40000000  0.60000000
   0.06666667  0.13333333  0.20000000
   0.76666667  0.53333333  0.80000000
   0.70000000  0.40000000  0.60000000
   0.60000000  0.20000000  0.80000000
   0.53333333  0.06666667  0.60000000
   0.33333333  0.66666667  0.00000000
   0.23333333  0.46666667  0.20000000
Nb - Mo - Ta - Ti - V SQS               
           1
    -3.136001   -3.137947   -3.145767
     1.552781    1.551440   -7.831664
     7.831978   -7.840373   -1.569354
   Nb   Mo   Ta   Ti   V 
   6   6   6   5   6
Direct configuration=     2
   0.96389533  0.92935556  0.40278404
   0.63188288  0.26698155  0.40220368
   0.49945318  0.00213455 -0.00179817
  -0.00163438  0.00082636  0.00169320
   0.09670275  0.20566131  0.79688403
   0.03612449  0.06970761  0.59854758
   0.90345707  0.79709147  0.20197633
   0.80225515  0.59620604  0.40065051
   0.73308999  0.46655820  0.19822057
   0.66401569  0.33842439 -0.00106178
   0.37076892  0.73019694  0.60047233
   0.13260067  0.27023720  0.40030319
   0.83526151  0.66274908  0.00084029
   0.93168568  0.86673071  0.79627098
   0.56566288  0.13509086  0.19766560
   0.40284918  0.79385338  0.19905592
   0.43526632  0.86146711  0.79835936
   0.30251120  0.59979802  0.40132058
   0.46348008  0.93298610  0.40279434
   0.16886734  0.33494606  0.00037803
   0.27422527  0.53233178  0.80012283
   0.19889979  0.40179641  0.59952217
   0.06525991  0.13910699  0.20113162
   0.76470791  0.53004986  0.80072635
   0.69395272  0.40173201  0.60119798
   0.59898966  0.20200567  0.79848228
   0.53446111  0.06685540  0.60162140
   0.33466227  0.66262443 -0.00050537
   0.22997877  0.46916162  0.20014013
Nb - Mo - Ta - Ti - V SQS               
           1
    -3.128540   -3.131091   -3.141342
     1.544320    1.542561   -7.810421
     7.810832   -7.821837   -1.566044
   Nb   Mo   Ta   Ti   V 
   6   6   6   5   6
Direct configuration=     3
   0.96303150  0.92810728  0.40365678
   0.63142766  0.26708101  0.40289437
   0.49928018  0.00280497 -0.00236176
  -0.00214759  0.00108648  0.00222390
   0.09566517  0.20744006  0.79590745
   0.03699512  0.07066176  0.59809220
   0.90454186  0.79617715  0.20259567
   0.80296528  0.59501389  0.40085439
   0.73301464  0.46652408  0.19766291
   0.66318028  0.34002400 -0.00139458
   0.37205650  0.72921076  0.60062028
   0.13236699  0.27135880  0.40039815
   0.83586936  0.66151821  0.00110367
   0.93117131  0.86675104  0.79510235
   0.56534750  0.13564297  0.19693398
   0.40374864  0.79192206  0.19876009
   0.43587815  0.85983344  0.79784525
   0.30329696  0.59973396  0.40173436
   0.46248198  0.93287815  0.40367023
   0.16955412  0.33545196  0.00049638
   0.27659234  0.53201506  0.80016106
   0.19855347  0.40236088  0.59937241
   0.06481231  0.14092078  0.20148617
   0.76409840  0.52901925  0.80095415
   0.69205734  0.40227779  0.60157362
   0.59867162  0.20263576  0.79800660
   0.53481327  0.06691447  0.60212950
   0.33508323  0.66135449 -0.00066370
   0.22892574  0.46994617  0.20018411
Nb - Mo - Ta - Ti - V SQS               
           1
    -3.142541   -3.147186   -3.163899
     1.539477    1.535930   -7.840286
     7.836725   -7.855020   -1.575265
   Nb   Mo   Ta   Ti   V 
   6   6   6   5   6
Direct configuration=     4
   0.96068048  0.92548649  0.40599580
   0.63067047  0.26678656  0.40411205
   0.49901882  0.00363993 -0.00375402
  -0.00295950  0.00175393  0.00288837
   0.09366469  0.21091854  0.79400480
   0.03879694  0.07273438  0.59719474
   0.90635160  0.79432387  0.20370709
   0.80467235  0.59282872  0.40159091
   0.73310405  0.46592113  0.19686460
   0.66140059  0.34325975 -0.00242740
   0.37546160  0.72690408  0.60092920
   0.13153626  0.27341651  0.40059844
   0.83722461  0.66000243  0.00119085
   0.92995811  0.86655645  0.79228542
   0.56457887  0.13678395  0.19576861
   0.40544614  0.78887845  0.19819617
   0.43667568  0.85680852  0.79686236
   0.30493943  0.59930806  0.40293670
   0.46035862  0.93263550  0.40537897
   0.17142752  0.33652555  0.00063432
   0.28176328  0.53111857  0.80013883
   0.19700443  0.40434978  0.59910166
   0.06376069  0.14462036  0.20248884
   0.76312406  0.52654810  0.80139246
   0.68774408  0.40361997  0.60277562
   0.59786446  0.20418819  0.79665819
   0.53633367  0.06685682  0.60344663
   0.33607227  0.65829187 -0.00109840
   0.22665907  0.47160022  0.20013820
Nb - Mo - Ta - Ti - V SQS               
           1
    -3.156599   -3.163347   -3.186549
     1.534615    1.529271   -7.870274
     7.862723   -7.888339   -1.584523
   Nb   Mo   Ta   Ti   V 
   6   6   6   5   6
Direct configuration=     5
   0.95833742  0.92286358  0.40833617
   0.62991362  0.26649227  0.40533025
   0.49875675  0.00447632 -0.00514679
  -0.00377335  0.00242306  0.00355308
   0.09165780  0.21440386  0.79210141
   0.04059144  0.07480876  0.59629653
   0.90816384  0.79246638  0.20481883
   0.80638347  0.59063888  0.40232768
   0.73319613  0.46531716  0.19606610
   0.65961402  0.34650182 -0.00346067
   0.37886977  0.72459122  0.60123802
   0.13069985  0.27547803  0.40079868
   0.83858297  0.65848327  0.00127804
   0.92875002  0.86636239  0.78946778
   0.56380889  0.13792725  0.19460285
   0.40715182  0.78582883  0.19763219
   0.43748278  0.85377828  0.79587939
   0.30658006  0.59888029  0.40413925
   0.45823638  0.93239417  0.40708857
   0.17329543  0.33759936  0.00077193
   0.28693141  0.53021670  0.80011600
   0.19545125  0.40634293  0.59883080
   0.06269766  0.14832649  0.20349155
   0.76215790  0.52407390  0.80183132
   0.68343000  0.40496759  0.60397842
   0.59705491  0.20574358  0.79530927
   0.53785110  0.06679797  0.60476397
   0.33707017  0.65522377 -0.00153302
   0.22438981  0.47325855  0.20009239
Nb - Mo - Ta - Ti - V SQS               
           1
    -3.158171   -3.167343   -3.192990
     1.531285    1.523483   -7.874462
     7.856071   -7.886666   -1.588812
   Nb   Mo   Ta   Ti   V 
   6   6   6   5   6
Direct configuration=     6
   0.95725524  0.92257138  0.40935249
   0.63019043  0.26566948  0.40508061
   0.49906896  0.00355616 -0.00556115
  -0.00372218  0.00254433  0.00299337
   0.09190873  0.21404546  0.79216998
   0.04113165  0.07512768  0.59638863
   0.90749075  0.79252851  0.20467592
   0.80668789  0.59084591  0.40246838
   0.73331052  0.46486816  0.19672868
   0.65984943  0.34619489 -0.00390965
   0.38036656  0.72410332  0.60125742
   0.13005163  0.27528856  0.40086086
   0.83835738  0.66037521  0.00066237
   0.92840693  0.86624839  0.78850720
   0.56399099  0.13779663  0.19482729
   0.40722486  0.78677433  0.19763242
   0.43636579  0.85430083  0.79599611
   0.30713238  0.59865150  0.40445064
   0.45753735  0.93239726  0.40696864
   0.17418233  0.33759082  0.00067470
   0.28769000  0.52982172  0.79995174
   0.19375366  0.40773589  0.59875527
   0.06229553  0.14844635  0.20410105
   0.76260809  0.52340225  0.80203355
   0.68256910  0.40528222  0.60461746
   0.59695594  0.20586366  0.79454613
   0.53922996  0.06673975  0.60537713
   0.33734176  0.65446278 -0.00162952
   0.22410166  0.47343325  0.20002228
Nb - Mo - Ta - Ti - V SQS               
           1
    -3.162886   -3.179333   -3.212311
     1.521294    1.506119   -7.887024
     7.836116   -7.881648   -1.601680
   Nb   Mo   Ta   Ti   V 
   6   6   6   5   6
Direct configuration=     7
   0.95401055  0.92169507  0.41240369
   0.63102417  0.26320083  0.40433155
   0.50000963  0.00079551 -0.00680458
  -0.00356781  0.00290856  0.00131327
   0.09266204  0.21296984  0.79237582
   0.04274897  0.07608382  0.59666470
   0.90547372  0.79271576  0.20424725
   0.80759895  0.59146658  0.40289047
   0.73365338  0.46352039  0.19871760
   0.66055743  0.34527415 -0.00525726
   0.38485420  0.72263787  0.60131519
   0.12810963  0.27472078  0.40104788
   0.83767505  0.66605216 -0.00118640
   0.92738187  0.86590754  0.78562415
   0.56453667  0.13740436  0.19550093
   0.40743978  0.78961095  0.19763263
   0.43301583  0.85586968  0.79634670
   0.30878771  0.59796423  0.40538517
   0.45544278  0.93240736  0.40660898
   0.17684056  0.33756433  0.00038244
   0.28996550  0.52863600  0.79945854
   0.18866060  0.41191697  0.59852870
   0.06108823  0.14880589  0.20593063
   0.76395952  0.52138650  0.80264068
   0.67998601  0.40622656  0.60653585
   0.59666094  0.20622469  0.79225546
   0.54336070  0.06656309  0.60721697
   0.33815913  0.65217946 -0.00191894
   0.22323759  0.47395775  0.19981190
Nb - Mo - Ta - Ti - V SQS               
           1
    -3.164055   -3.182305   -3.217099
     1.518818    1.501816   -7.890137
     7.831171   -7.880405   -1.604869
   Nb   Mo   Ta   Ti   V 
   6   6   6   5   6
Direct configuration=     8
   0.95320785  0.92147810  0.41316147
   0.63123321  0.26258888  0.40414582
   0.50024572  0.00011127 -0.00711299
  -0.00352890  0.00299915  0.00089622
   0.09284911  0.21270299  0.79242695
   0.04314731  0.07632033  0.59673293
   0.90497556  0.79276280  0.20414106
   0.80782307  0.59162009  0.40299506
   0.73373811  0.46318583  0.19921136
   0.66073420  0.34504602 -0.00559171
   0.38596425  0.72227344  0.60132919
   0.12763037  0.27458052  0.40109459
   0.83750184  0.66745980 -0.00164584
   0.92713099  0.86582392  0.78490873
   0.56467142  0.13730685  0.19566811
   0.40748991  0.79031398  0.19763234
   0.43218643  0.85625936  0.79643391
   0.30919670  0.59779325  0.40561701
   0.45492560  0.93241050  0.40651995
   0.17749744  0.33755711  0.00030961
   0.29052918  0.52834160  0.79933601
   0.18739828  0.41295469  0.59847256
   0.06078836  0.14889495  0.20638483
   0.76429505  0.52088639  0.80279145
   0.67934562  0.40646091  0.60701217
   0.59658926  0.20631472  0.79168691
   0.54438003  0.06651782  0.60767317
   0.33836362  0.65161336 -0.00199060
   0.22302374  0.47408802  0.19975973
Nb - Mo - Ta - Ti - V SQS               
           1
    -3.158905   -3.178075   -3.209948
     1.513454    1.491648   -7.861669
     7.807322   -7.856260   -1.603905
   Nb   Mo   Ta   Ti   V 
   6   6   6   5   6
Direct configuration=     9
   0.95161046  0.92079928  0.41494657
   0.63077595  0.26203033  0.40450322
   0.49989621  0.00058122 -0.00719000
  -0.00356479  0.00271052  0.00020031
   0.09371057  0.21177099  0.79268448
   0.04438104  0.07646664  0.59712602
   0.90470447  0.79357708  0.20386222
   0.80770625  0.59203490  0.40300348
   0.73329181  0.46414538  0.19930003
   0.66244677  0.34429891 -0.00558409
   0.38872133  0.72202783  0.60158760
   0.12756441  0.27415453  0.40131221
   0.83769966  0.66749105 -0.00229482
   0.92630844  0.86559610  0.78270219
   0.56503440  0.13635790  0.19547038
   0.40673320  0.79092915  0.19817726
   0.43132654  0.85676009  0.79659815
   0.30957910  0.59802350  0.40507848
   0.45373870  0.93275846  0.40611594
   0.17768533  0.33761462  0.00021932
   0.29071599  0.52800219  0.79894884
   0.18312075  0.41551412  0.59876458
   0.06066467  0.14832921  0.20709690
   0.76546389  0.52054227  0.80319390
   0.67915859  0.40627633  0.60740014
   0.59665021  0.20576620  0.79065825
   0.54638626  0.06684249  0.60819706
   0.33894914  0.65128801 -0.00189157
   0.22287396  0.47397736  0.19981294
Nb - Mo - Ta - Ti - V SQS               
           1
    -3.156765   -3.176318   -3.206976
     1.511224    1.487422   -7.849838
     7.797411   -7.846226   -1.603505
   Nb   Mo   Ta   Ti   V 
   6   6   6   5   6
Direct configuration=    10
   0.95094556  0.92051556  0.41569086
   0.63058571  0.26179717  0.40465230
   0.49975060  0.00077727 -0.00722216
  -0.00357961  0.00259022 -0.00008975
   0.09406937  0.21138218  0.79279194
   0.04489453  0.07652775  0.59728984
   0.90459145  0.79391684  0.20374588
   0.80765752  0.59220796  0.40300693
   0.73310579  0.46454567  0.19933687
   0.66315983  0.34398738 -0.00558086
   0.38986904  0.72192561  0.60169528
   0.12753705  0.27397675  0.40140299
   0.83778205  0.66750422 -0.00256537
   0.92596627  0.86550135  0.78178241
   0.56518575  0.13596205  0.19538807
   0.40641802  0.79118564  0.19840436
   0.43096847  0.85696889  0.79666657
   0.30973827  0.59811971  0.40485395
   0.45324458  0.93290358  0.40594751
   0.17776354  0.33763865  0.00018167
   0.29079386  0.52786067  0.79878749
   0.18133952  0.41658147  0.59888608
   0.06061326  0.14809302  0.20739382
   0.76595049  0.52039874  0.80336168
   0.67908074  0.40619923  0.60756190
   0.59667580  0.20553754  0.79022950
   0.54722127  0.06697808  0.60841536
   0.33919294  0.65115232 -0.00185026
   0.22281164  0.47393117  0.19983514
Nb - Mo - Ta - Ti - V SQS               
           1
    -3.161327   -3.180675   -3.208188
     1.512448    1.486034   -7.848463
     7.802606   -7.849587   -1.605463
   Nb   Mo   Ta   Ti   V 
   6   6   6   5   6
Direct configuration=    11
   0.94994135  0.91993946  0.41695484
   0.63009794  0.26173809  0.40502156
   0.49938970  0.00146417 -0.00718729
  -0.00358573  0.00228274 -0.00043699
   0.09458585  0.21084280  0.79296195
   0.04583929  0.07657033  0.59751823
   0.90460139  0.79450330  0.20354875
   0.80746520  0.59250944  0.40297223
   0.73278625  0.46528546  0.19920695
   0.66436477  0.34351626 -0.00541578
   0.39192469  0.72186826  0.60187628
   0.12766881  0.27371931  0.40156546
   0.83803250  0.66687840 -0.00289941
   0.92547259  0.86497609  0.78016795
   0.56537377  0.13532459  0.19522952
   0.40579737  0.79145260  0.19871051
   0.43075622  0.85709920  0.79681158
   0.30971807  0.59829558  0.40445536
   0.45252140  0.93321544  0.40571341
   0.17758960  0.33766752  0.00015434
   0.29066371  0.52776167  0.79852595
   0.17812425  0.41855045  0.59916260
   0.06063727  0.14758954  0.20776471
   0.76688848  0.52038887  0.80357312
   0.67922281  0.40590005  0.60763316
   0.59676541  0.20507004  0.78968282
   0.54828985  0.06732602  0.60859260
   0.33957450  0.65113395 -0.00172269
   0.22282603  0.47379704  0.19985829
Nb - Mo - Ta - Ti - V SQS               
           1
    -3.168603   -3.187623   -3.210120
     1.514400    1.483821   -7.846271
     7.810890   -7.854945   -1.608587
   Nb   Mo   Ta   Ti   V 
   6   6   6   5   6
Direct configuration=    12
   0.94834241  0.91901968  0.41896935
   0.62932125  0.26164347  0.40561004
   0.49881501  0.00255944 -0.00713191
  -0.00359561  0.00179247 -0.00099030
   0.09540838  0.20998280  0.79323304
   0.04734395  0.07663869  0.59788222
   0.90461722  0.79543869  0.20323443
   0.80715895  0.59299017  0.40291685
   0.73227738  0.46646518  0.19899969
   0.66628372  0.34276552 -0.00515254
   0.39519849  0.72177788  0.60216479
   0.12787866  0.27330875  0.40182444
   0.83843119  0.66588056 -0.00343160
   0.92468582  0.86413867  0.77759517
   0.56567311  0.13430812  0.19497702
   0.40480907  0.79187791  0.19919833
   0.43041825  0.85730685  0.79704264
   0.30968579  0.59857621  0.40382009
   0.45136965  0.93371248  0.40534023
   0.17731258  0.33771347  0.00011078
   0.29045634  0.52760379  0.79810918
   0.17300401  0.42168878  0.59960268
   0.06067556  0.14678645  0.20835593
   0.76838234  0.52037358  0.80391012
   0.67944906  0.40542296  0.60774679
   0.59690791  0.20432470  0.78881172
   0.54999173  0.06788146  0.60887500
   0.34018218  0.65110483 -0.00151938
   0.22284894  0.47358313  0.19989522
Nb - Mo - Ta - Ti - V SQS               
           1
    -3.183153   -3.201520   -3.213984
     1.518303    1.479394   -7.841886
     7.827458   -7.865663   -1.614834
   Nb   Mo   Ta   Ti   V 
   6   6   6   5   6
Direct configuration=    13
   0.94515190  0.91717640  0.42299527
   0.62777125  0.26145291  0.40678599
   0.49766814  0.00474996 -0.00702186
  -0.00361576  0.00081201 -0.00209569
   0.09705018  0.20826302  0.79377525
   0.05034756  0.07677688  0.59860960
   0.90464882  0.79731025  0.20260584
   0.80654770  0.59395161  0.40280590
   0.73126177  0.46882489  0.19858488
   0.67011404  0.34126555 -0.00462604
   0.40173331  0.72160051  0.60274150
   0.12829763  0.27248745  0.40234219
   0.83922649  0.66388512 -0.00449449
   0.92311366  0.86246422  0.77245449
   0.56627023  0.13227508  0.19447301
   0.40283675  0.79272733  0.20017284
   0.42974383  0.85772174  0.79750424
   0.30962103  0.59913802  0.40255050
   0.44907056  0.93470584  0.40459420
   0.17675962  0.33780511  0.00002371
   0.29004213  0.52728799  0.79727644
   0.16278463  0.42796127  0.60048018
   0.06075219  0.14517943  0.20953777
   0.77136436  0.52034442  0.80458359
   0.67990064  0.40446867  0.60797413
   0.59719168  0.20283433  0.78707143
   0.55338905  0.06899437  0.60943908
   0.34139527  0.65104710 -0.00111307
   0.22289466  0.47315518  0.19996914
Nb - Mo - Ta - Ti - V SQS               
           1
    -3.173362   -3.192169   -3.211384
     1.515677    1.482373   -7.844836
     7.816309   -7.858451   -1.610630
   Nb   Mo   Ta   Ti   V 
   6   6   6   5   6
Direct configuration=    14
   0.94728898  0.91842173  0.42029034
   0.62880970  0.26158292  0.40599603
   0.49843650  0.00327599 -0.00709496
  -0.00360167  0.00147166 -0.00135351
   0.09594976  0.20941997  0.79341036
   0.04833404  0.07668193  0.59812095
   0.90462765  0.79604981  0.20302875
   0.80695731  0.59330468  0.40288079
   0.73194235  0.46723666  0.19886440
   0.66754671  0.34227286 -0.00498036
   0.39735307  0.72171531  0.60235385
   0.12801671  0.27304036  0.40199409
   0.83869413  0.66522757 -0.00378124
   0.92416973  0.86359043  0.77590712
   0.56587048  0.13364325  0.19481082
   0.40415821  0.79215733  0.19951859
   0.43019562  0.85744311  0.79719434
   0.30966488  0.59875921  0.40340353
   0.45061172  0.93403839  0.40509576
   0.17713027  0.33774378  0.00008225
   0.29032014  0.52750054  0.79783572
   0.16963308  0.42374603  0.59989328
   0.06070056  0.14626193  0.20874331
   0.76936536  0.52036214  0.80413109
   0.67959800  0.40511096  0.60782106
   0.59700239  0.20383678  0.78823990
   0.55111159  0.06824277  0.60906046
   0.34058203  0.65108525 -0.00138606
   0.22286405  0.47344332  0.19991933
Nb - Mo - Ta - Ti - V SQS               
           1
    -3.173259   -3.192568   -3.210086
     1.517568    1.485565   -7.846573
     7.815486   -7.858924   -1.609922
   Nb   Mo   Ta   Ti   V 
   6   6   6   5   6
Direct configuration=    15
   0.94699878  0.91789058  0.42103520
   0.62866403  0.26208069  0.40598653
   0.49866020  0.00325646 -0.00718801
  -0.00365214  0.00117312 -0.00130029
   0.09578235  0.20943127  0.79341042
   0.04905424  0.07673961  0.59794048
   0.90457425  0.79594171  0.20291317
   0.80693667  0.59329404  0.40257746
   0.73206719  0.46689413  0.19888619
   0.66741996  0.34227737 -0.00480051
   0.39888211  0.72163095  0.60228174
   0.12766743  0.27331324  0.40201481
   0.83869696  0.66508545 -0.00370763
   0.92433881  0.86229744  0.77517020
   0.56606172  0.13383493  0.19499902
   0.40422539  0.79219866  0.19914869
   0.43042939  0.85717329  0.79745364
   0.30921341  0.59887998  0.40370529
   0.45041386  0.93434167  0.40514794
   0.17700045  0.33759811  0.00020328
   0.29040271  0.52768891  0.79780158
   0.16782742  0.42528907  0.59994483
   0.06056530  0.14606981  0.20881605
   0.76986627  0.52050747  0.80412238
   0.67957014  0.40490530  0.60763326
   0.59725795  0.20363912  0.78829238
   0.55074973  0.06871985  0.60892597
   0.34073557  0.65106135 -0.00123514
   0.22292319  0.47345309  0.19982109
Nb - Mo - Ta - Ti - V SQS               
           1
    -3.172950   -3.193765   -3.206193
     1.523243    1.495141   -7.851783
     7.813015   -7.860345   -1.607799
   Nb   Mo   Ta   Ti   V 
   6   6   6   5   6
Direct configuration=    16
   0.94612696  0.91629806  0.42326972
   0.62822787  0.26357323  0.40595817
   0.49933132  0.00319798 -0.00746718
  -0.00380407  0.00027794 -0.00114072
   0.09528014  0.20946504  0.79341060
   0.05121507  0.07691284  0.59739901
   0.90441392  0.79561751  0.20256638
   0.80687484  0.59326199  0.40166744
   0.73244111  0.46586709  0.19895145
   0.66703961  0.34229091 -0.00426095
   0.40346923  0.72137868  0.60206523
   0.12662001  0.27413134  0.40207708
   0.83870516  0.66465934 -0.00348683
   0.92484412  0.85842009  0.77295907
   0.56663571  0.13440986  0.19556364
   0.40442716  0.79232244  0.19803898
   0.43113014  0.85636442  0.79823149
   0.30785905  0.59924204  0.40461065
   0.44982076  0.93525102  0.40530458
   0.17661067  0.33716129  0.00056635
   0.29065077  0.52825376  0.79769918
   0.16241291  0.42991515  0.60010006
   0.06015916  0.14549368  0.20903426
   0.77136931  0.52094350  0.80409624
   0.67948626  0.40428850  0.60706977
   0.59802431  0.20304658  0.78844974
   0.54966501  0.07015018  0.60852263
   0.34119612  0.65098981 -0.00078238
   0.22310068  0.47348240  0.19952634
Nb - Mo - Ta - Ti - V SQS               
           1
    -3.172331   -3.196160   -3.198406
     1.534594    1.514294   -7.862202
     7.808074   -7.863185   -1.603553
   Nb   Mo   Ta   Ti   V 
   6   6   6   5   6
Direct configuration=    17
   0.94437582  0.91311860  0.42773843
   0.62736064  0.26655364  0.40590226
   0.50067371  0.00308158 -0.00802572
  -0.00411116 -0.00150991 -0.00082195
   0.09427575  0.20953202  0.79341109
   0.05553816  0.07726043  0.59631566
   0.90409238  0.79496956  0.20187262
   0.80675181  0.59319716  0.39984728
   0.73318543  0.46381634  0.19908140
   0.66627844  0.34231805 -0.00318167
   0.41264360  0.72087908  0.60163118
   0.12452775  0.27576426  0.40220222
   0.83871992  0.66380850 -0.00304540
   0.92584332  0.85067499  0.76853448
   0.56778532  0.13555914  0.19669314
   0.40483209  0.79256891  0.19581943
   0.43252833  0.85475031  0.79978675
   0.30515060  0.59996461  0.40642194
   0.44863748  0.93706671  0.40561845
   0.17582925  0.33628881  0.00129241
   0.29114896  0.52938201  0.79749460
   0.15159875  0.43914914  0.60041389
   0.05934464  0.14434285  0.20947050
   0.77437717  0.52181574  0.80404388
   0.67931684  0.40305610  0.60594244
   0.59955498  0.20186403  0.78876402
   0.54750062  0.07300541  0.60771682
   0.34211669  0.65084776  0.00012307
   0.22345604  0.47354084  0.19893679
Nb - Mo - Ta - Ti - V SQS               
           1
    -3.156589   -3.180427   -3.184739
     1.526359    1.508134   -7.829285
     7.768902   -7.825543   -1.595218
   Nb   Mo   Ta   Ti   V 
   6   6   6   5   6
Direct configuration=    18
   0.94412944  0.91392800  0.42757229
   0.62717013  0.26574744  0.40603495
   0.50054370  0.00288992 -0.00798565
  -0.00368735 -0.00133327 -0.00097365
   0.09470242  0.20938143  0.79324663
   0.05330601  0.07666750  0.59726457
   0.90436475  0.79484188  0.20216975
   0.80618766  0.59355472  0.39967178
   0.73253093  0.46430333  0.19908885
   0.66620301  0.34195938 -0.00337091
   0.41333082  0.72101911  0.60172380
   0.12550026  0.27611749  0.40170985
   0.83927143  0.66411913 -0.00312823
   0.92676262  0.85079861  0.76809289
   0.56643763  0.13534357  0.19662637
   0.40480542  0.79191910  0.19689607
   0.43100102  0.85528656  0.79912428
   0.30644510  0.60099876  0.40526888
   0.44897456  0.93701403  0.40511608
   0.17613470  0.33591507  0.00112468
   0.29221334  0.52883481  0.79796474
   0.15096963  0.43944289  0.60093595
   0.06040492  0.14405361  0.20944034
   0.77437535  0.52162160  0.80402435
   0.67911535  0.40329712  0.60609890
   0.59925265  0.20169681  0.78908694
   0.54762807  0.07344331  0.60794762
   0.34186397  0.65038784  0.00005090
   0.22339576  0.47341693  0.19917698
Nb - Mo - Ta - Ti - V SQS               
           1
    -3.161738   -3.185574   -3.189210
     1.529053    1.510149   -7.840053
     7.781716   -7.837857   -1.597945
   Nb   Mo   Ta   Ti   V 
   6   6   6   5   6
Direct configuration=    19
   0.94421048  0.91366209  0.42762687
   0.62723270  0.26601227  0.40599137
   0.50058643  0.00295287 -0.00799881
  -0.00382666 -0.00139126 -0.00092379
   0.09456215  0.20943094  0.79330070
   0.05403977  0.07686208  0.59695265
   0.90427523  0.79488383  0.20207207
   0.80637312  0.59343722  0.39972946
   0.73274611  0.46414329  0.19908638
   0.66622777  0.34207721 -0.00330868
   0.41310494  0.72097315  0.60169335
   0.12518058  0.27600154  0.40187170
   0.83909016  0.66401713 -0.00310101
   0.92646041  0.85075808  0.76823806
   0.56688061  0.13541429  0.19664832
   0.40481421  0.79213252  0.19654217
   0.43150306  0.85511031  0.79934203
   0.30601957  0.60065917  0.40564789
   0.44886371  0.93703138  0.40528123
   0.17603426  0.33603788  0.00117984
   0.29186346  0.52901463  0.79781022
   0.15117649  0.43934632  0.60076432
   0.06005637  0.14414871  0.20945027
   0.77437593  0.52168538  0.80403078
   0.67918161  0.40321792  0.60604746
   0.59935205  0.20175171  0.78898079
   0.54758622  0.07329945  0.60787173
   0.34194700  0.65053892  0.00007464
   0.22341558  0.47345762  0.19909802
Nb - Mo - Ta - Ti - V SQS               
           1
    -3.162993   -3.186657   -3.192059
     1.528983    1.513667   -7.849386
     7.784989   -7.843392   -1.596688
   Nb   Mo   Ta   Ti   V 
   6   6   6   5   6
Direct configuration=    20
   0.94392325  0.91448323  0.42753497
   0.62707190  0.26530682  0.40614000
   0.50045190  0.00268238 -0.00797940
  -0.00339536 -0.00125529 -0.00110352
   0.09495160  0.20926253  0.79318794
   0.05181588  0.07650411  0.59773284
   0.90449577  0.79479429  0.20237541
   0.80594299  0.59390450  0.39964796
   0.73222294  0.46443886  0.19907050
   0.66616355  0.34163102 -0.00353315
   0.41408027  0.72117657  0.60168798
   0.12615083  0.27619267  0.40147564
   0.83978929  0.66423498 -0.00326268
   0.92731606  0.85067758  0.76779251
   0.56550801  0.13521394  0.19666099
   0.40468531  0.79174207  0.19746845
   0.43017443  0.85571124  0.79868365
   0.30709743  0.60145478  0.40471782
   0.44921277  0.93705610  0.40478468
   0.17630636  0.33559027  0.00100539
   0.29294422  0.52835364  0.79832436
   0.15050352  0.43992689  0.60127322
   0.06107943  0.14378754  0.20941696
   0.77441359  0.52153498  0.80388931
   0.67896855  0.40341202  0.60624814
   0.59903606  0.20161778  0.78934771
   0.54732123  0.07385552  0.60809821
   0.34163620  0.65012198  0.00000462
   0.22346532  0.47325365  0.19930947
Nb - Mo - Ta - Ti - V SQS               
           1
    -3.163435   -3.187039   -3.193062
     1.528958    1.514905   -7.852671
     7.786141   -7.845340   -1.596246
   Nb   Mo   Ta   Ti   V 
   6   6   6   5   6
Direct configuration=    21
   0.94382218  0.91477193  0.42750270
   0.62701532  0.26505882  0.40619223
   0.50040457  0.00258730 -0.00797259
  -0.00324360 -0.00120754 -0.00116674
   0.09508863  0.20920328  0.79314825
   0.05103336  0.07637850  0.59800728
   0.90457335  0.79476284  0.20248213
   0.80579165  0.59406880  0.39961933
   0.73203886  0.46454281  0.19906494
   0.66614097  0.34147412 -0.00361215
   0.41442343  0.72124802  0.60168612
   0.12649224  0.27625976  0.40133632
   0.84003528  0.66431151 -0.00331954
   0.92761715  0.85064917  0.76763576
   0.56502506  0.13514360  0.19666542
   0.40463991  0.79160492  0.19779430
   0.42970699  0.85592252  0.79845206
   0.30747672  0.60173432  0.40439068
   0.44933562  0.93706471  0.40460999
   0.17640212  0.33543286  0.00094398
   0.29332447  0.52812125  0.79850519
   0.15026669  0.44013111  0.60145231
   0.06143941  0.14366050  0.20940522
   0.77442686  0.52148209  0.80383953
   0.67889357  0.40348031  0.60631875
   0.59892486  0.20157076  0.78947679
   0.54722797  0.07405107  0.60817794
   0.34152686  0.64997540 -0.00002005
   0.22348281  0.47318196  0.19938385
Nb - Mo - Ta - Ti - V SQS               
           1
    -3.162409   -3.186558   -3.192408
     1.527744    1.517290   -7.852961
     7.786401   -7.849396   -1.593450
   Nb   Mo   Ta   Ti   V 
   6   6   6   5   6
Direct configuration=    22
   0.94388542  0.91518914  0.42742753
   0.62706604  0.26505410  0.40616539
   0.50045222  0.00211039 -0.00789941
  -0.00327318 -0.00123479 -0.00118346
   0.09514479  0.20912946  0.79316732
   0.05023212  0.07677232  0.59788410
   0.90442482  0.79475849  0.20254951
   0.80617626  0.59416382  0.39956629
   0.73206191  0.46439768  0.19899994
   0.66617401  0.34124633 -0.00365596
   0.41521377  0.72132290  0.60150723
   0.12636154  0.27632676  0.40145532
   0.84019904  0.66434852 -0.00347517
   0.92777266  0.85014297  0.76750298
   0.56509123  0.13498451  0.19663611
   0.40468232  0.79176173  0.19768140
   0.42969182  0.85615760  0.79827229
   0.30773819  0.60161810  0.40455487
   0.44922234  0.93733625  0.40450267
   0.17644670  0.33509062  0.00087559
   0.29402098  0.52772125  0.79881924
   0.14989770  0.44086847  0.60154504
   0.06138179  0.14358357  0.20942639
   0.77449859  0.52144424  0.80370374
   0.67854667  0.40359904  0.60648695
   0.59873889  0.20152309  0.78976971
   0.54638996  0.07452977  0.60832326
   0.34152914  0.64971889 -0.00003204
   0.22356559  0.47300146  0.19942317
Nb - Mo - Ta - Ti - V SQS               
           1
    -3.159330   -3.185117   -3.190447
     1.524103    1.524447   -7.853832
     7.787180   -7.861563   -1.585063
   Nb   Mo   Ta   Ti   V 
   6   6   6   5   6
Direct configuration=    23
   0.94407542  0.91644049  0.42720237
   0.62721825  0.26503991  0.40608488
   0.50059496  0.00067996 -0.00768025
  -0.00336196 -0.00131657 -0.00123360