  30  30   0   0
  0.1638400E+02  0.6400000E-09  0.8313844E-09  0.1011929E-08  0.5000000E-15
  1.000000000000000E-004
  CAR 
 Nb - Mo - Ta - Ti - W SQS               
     12.16672565    -50.03149230  301      6.80602653      1.00000000
    -50.031  0.0000E+00  0.0000E+00
    -49.824  0.0000E+00  0.0000E+00
    -49.617  0.0000E+00  0.0000E+00
    -49.410  0.0000E+00  0.0000E+00
    -49.202  0.0000E+00  0.0000E+00
    -48.995 -0.5080E-33 -0.1053E-33
    -48.788 -0.1869E-25 -0.3875E-26
    -48.580 -0.7831E-19 -0.1624E-19
    -48.373 -0.3661E-13 -0.7590E-14
    -48.166 -0.1985E-08 -0.4116E-09
    -47.958 -0.1205E-04 -0.2499E-05
    -47.751 -0.7898E-02 -0.1640E-02
    -47.544 -0.4858E+00 -0.1024E+00
    -47.336  0.4383E+00 -0.1149E-01
    -47.129  0.2758E+02  0.5708E+01
    -46.922  0.2909E+02  0.1174E+02
    -46.714  0.1889E+01  0.1213E+02
    -46.507 -0.6056E+00  0.1200E+02
    -46.300 -0.1809E-01  0.1200E+02
    -46.092 -0.5131E-04  0.1200E+02
    -45.885 -0.1596E-07  0.1200E+02
    -45.678 -0.5591E-12  0.1200E+02
    -45.470  0.0000E+00  0.1200E+02
    -45.263  0.0000E+00  0.1200E+02
    -45.056  0.0000E+00  0.1200E+02
    -44.848  0.0000E+00  0.1200E+02
    -44.641  0.0000E+00  0.1200E+02
    -44.434  0.0000E+00  0.1200E+02
    -44.226  0.0000E+00  0.1200E+02
    -44.019  0.0000E+00  0.1200E+02
    -43.812  0.0000E+00  0.1200E+02
    -43.604  0.0000E+00  0.1200E+02
    -43.397  0.0000E+00  0.1200E+02
    -43.190  0.0000E+00  0.1200E+02
    -42.982  0.0000E+00  0.1200E+02
    -42.775  0.0000E+00  0.1200E+02
    -42.568  0.0000E+00  0.1200E+02
    -42.360  0.0000E+00  0.1200E+02
    -42.153  0.0000E+00  0.1200E+02
    -41.946  0.0000E+00  0.1200E+02
    -41.738  0.0000E+00  0.1200E+02
    -41.531  0.0000E+00  0.1200E+02
    -41.324  0.0000E+00  0.1200E+02
    -41.116  0.0000E+00  0.1200E+02
    -40.909  0.0000E+00  0.1200E+02
    -40.702  0.0000E+00  0.1200E+02
    -40.494  0.0000E+00  0.1200E+02
    -40.287  0.0000E+00  0.1200E+02
    -40.080  0.0000E+00  0.1200E+02
    -39.872  0.0000E+00  0.1200E+02
    -39.665  0.0000E+00  0.1200E+02
    -39.458  0.0000E+00  0.1200E+02
    -39.250  0.0000E+00  0.1200E+02
    -39.043  0.0000E+00  0.1200E+02
    -38.836  0.0000E+00  0.1200E+02
    -38.628  0.0000E+00  0.1200E+02
    -38.421  0.0000E+00  0.1200E+02
    -38.214  0.0000E+00  0.1200E+02
    -38.007  0.0000E+00  0.1200E+02
    -37.799  0.0000E+00  0.1200E+02
    -37.592  0.0000E+00  0.1200E+02
    -37.385  0.0000E+00  0.1200E+02
    -37.177  0.0000E+00  0.1200E+02
    -36.970  0.0000E+00  0.1200E+02
    -36.763  0.0000E+00  0.1200E+02
    -36.555  0.0000E+00  0.1200E+02
    -36.348  0.0000E+00  0.1200E+02
    -36.141  0.0000E+00  0.1200E+02
    -35.933  0.0000E+00  0.1200E+02
    -35.726  0.0000E+00  0.1200E+02
    -35.519  0.0000E+00  0.1200E+02
    -35.311  0.0000E+00  0.1200E+02
    -35.104  0.0000E+00  0.1200E+02
    -34.897  0.0000E+00  0.1200E+02
    -34.689  0.0000E+00  0.1200E+02
    -34.482  0.0000E+00  0.1200E+02
    -34.275  0.0000E+00  0.1200E+02
    -34.067  0.0000E+00  0.1200E+02
    -33.860  0.0000E+00  0.1200E+02
    -33.653  0.0000E+00  0.1200E+02
    -33.445  0.0000E+00  0.1200E+02
    -33.238  0.0000E+00  0.1200E+02
    -33.031  0.0000E+00  0.1200E+02
    -32.823  0.0000E+00  0.1200E+02
    -32.616  0.0000E+00  0.1200E+02
    -32.409  0.0000E+00  0.1200E+02
    -32.201  0.0000E+00  0.1200E+02
    -31.994  0.0000E+00  0.1200E+02
    -31.787  0.0000E+00  0.1200E+02
    -31.579  0.0000E+00  0.1200E+02
    -31.372  0.0000E+00  0.1200E+02
    -31.165  0.0000E+00  0.1200E+02
    -30.957  0.0000E+00  0.1200E+02
    -30.750  0.0000E+00  0.1200E+02
    -30.543  0.0000E+00  0.1200E+02
    -30.335  0.0000E+00  0.1200E+02
    -30.128  0.0000E+00  0.1200E+02
    -29.921  0.0000E+00  0.1200E+02
    -29.713  0.0000E+00  0.1200E+02
    -29.506  0.0000E+00  0.1200E+02
    -29.299  0.0000E+00  0.1200E+02
    -29.091  0.0000E+00  0.1200E+02
    -28.884  0.0000E+00  0.1200E+02
    -28.677  0.0000E+00  0.1200E+02
    -28.469  0.0000E+00  0.1200E+02
    -28.262  0.0000E+00  0.1200E+02
    -28.055  0.0000E+00  0.1200E+02
    -27.847  0.0000E+00  0.1200E+02
    -27.640  0.0000E+00  0.1200E+02
    -27.433  0.0000E+00  0.1200E+02
    -27.225  0.0000E+00  0.1200E+02
    -27.018  0.0000E+00  0.1200E+02
    -26.811  0.0000E+00  0.1200E+02
    -26.603  0.0000E+00  0.1200E+02
    -26.396  0.0000E+00  0.1200E+02
    -26.189  0.0000E+00  0.1200E+02
    -25.982  0.0000E+00  0.1200E+02
    -25.774  0.0000E+00  0.1200E+02
    -25.567  0.0000E+00  0.1200E+02
    -25.360 -0.2233E-26  0.1200E+02
    -25.152 -0.1128E-19  0.1200E+02
    -24.945 -0.6523E-14  0.1200E+02
    -24.738 -0.4126E-09  0.1200E+02
    -24.530 -0.3012E-05  0.1200E+02
    -24.323 -0.2406E-02  0.1200E+02
    -24.116 -0.1910E+00  0.1196E+02
    -23.908 -0.3618E+00  0.1188E+02
    -23.701  0.1208E+02  0.1439E+02
    -23.494  0.2472E+02  0.1951E+02
    -23.286  0.5558E+02  0.3104E+02
    -23.079  0.4999E+02  0.4140E+02
    -22.872  0.2421E+02  0.4642E+02
    -22.664  0.7966E+01  0.4807E+02
    -22.457 -0.2029E+00  0.4803E+02
    -22.250 -0.1461E+00  0.4800E+02
    -22.042 -0.2082E-02  0.4800E+02
    -21.835 -0.2768E-05  0.4800E+02
    -21.628 -0.3892E-09  0.4800E+02
    -21.420 -0.6426E-14  0.4800E+02
    -21.213  0.0000E+00  0.4800E+02
    -21.006  0.0000E+00  0.4800E+02
    -20.798  0.0000E+00  0.4800E+02
    -20.591  0.0000E+00  0.4800E+02
    -20.384  0.0000E+00  0.4800E+02
    -20.176  0.0000E+00  0.4800E+02
    -19.969  0.0000E+00  0.4800E+02
    -19.762  0.0000E+00  0.4800E+02
    -19.554  0.0000E+00  0.4800E+02
    -19.347  0.0000E+00  0.4800E+02
    -19.140  0.0000E+00  0.4800E+02
    -18.932  0.0000E+00  0.4800E+02
    -18.725  0.0000E+00  0.4800E+02
    -18.518  0.0000E+00  0.4800E+02
    -18.310  0.0000E+00  0.4800E+02
    -18.103  0.0000E+00  0.4800E+02
    -17.896  0.0000E+00  0.4800E+02
    -17.688  0.0000E+00  0.4800E+02
    -17.481  0.0000E+00  0.4800E+02
    -17.274  0.0000E+00  0.4800E+02
    -17.066  0.0000E+00  0.4800E+02
    -16.859  0.0000E+00  0.4800E+02
    -16.652  0.0000E+00  0.4800E+02
    -16.444  0.0000E+00  0.4800E+02
    -16.237  0.0000E+00  0.4800E+02
    -16.030  0.0000E+00  0.4800E+02
    -15.822  0.0000E+00  0.4800E+02
    -15.615  0.0000E+00  0.4800E+02
    -15.408  0.0000E+00  0.4800E+02
    -15.200  0.0000E+00  0.4800E+02
    -14.993  0.0000E+00  0.4800E+02
    -14.786  0.0000E+00  0.4800E+02
    -14.579  0.0000E+00  0.4800E+02
    -14.371  0.0000E+00  0.4800E+02
    -14.164  0.0000E+00  0.4800E+02
    -13.957  0.0000E+00  0.4800E+02
    -13.749  0.0000E+00  0.4800E+02
    -13.542  0.0000E+00  0.4800E+02
    -13.335  0.0000E+00  0.4800E+02
    -13.127  0.0000E+00  0.4800E+02
    -12.920  0.0000E+00  0.4800E+02
    -12.713  0.0000E+00  0.4800E+02
    -12.505  0.0000E+00  0.4800E+02
    -12.298  0.0000E+00  0.4800E+02
    -12.091  0.0000E+00  0.4800E+02
    -11.883  0.0000E+00  0.4800E+02
    -11.676  0.0000E+00  0.4800E+02
    -11.469  0.0000E+00  0.4800E+02
    -11.261  0.0000E+00  0.4800E+02
    -11.054  0.0000E+00  0.4800E+02
    -10.847  0.0000E+00  0.4800E+02
    -10.639  0.0000E+00  0.4800E+02
    -10.432  0.0000E+00  0.4800E+02
    -10.225  0.0000E+00  0.4800E+02
    -10.017  0.0000E+00  0.4800E+02
     -9.810  0.0000E+00  0.4800E+02
     -9.603  0.0000E+00  0.4800E+02
     -9.395  0.0000E+00  0.4800E+02
     -9.188  0.0000E+00  0.4800E+02
     -8.981  0.0000E+00  0.4800E+02
     -8.773  0.0000E+00  0.4800E+02
     -8.566  0.0000E+00  0.4800E+02
     -8.359  0.0000E+00  0.4800E+02
     -8.151  0.0000E+00  0.4800E+02
     -7.944  0.0000E+00  0.4800E+02
     -7.737  0.0000E+00  0.4800E+02
     -7.529  0.0000E+00  0.4800E+02
     -7.322  0.0000E+00  0.4800E+02
     -7.115  0.0000E+00  0.4800E+02
     -6.907  0.0000E+00  0.4800E+02
     -6.700  0.0000E+00  0.4800E+02
     -6.493  0.0000E+00  0.4800E+02
     -6.285  0.0000E+00  0.4800E+02
     -6.078  0.0000E+00  0.4800E+02
     -5.871  0.0000E+00  0.4800E+02
     -5.663  0.0000E+00  0.4800E+02
     -5.456  0.0000E+00  0.4800E+02
     -5.249  0.0000E+00  0.4800E+02
     -5.041  0.0000E+00  0.4800E+02
     -4.834  0.0000E+00  0.4800E+02
     -4.627  0.0000E+00  0.4800E+02
     -4.419  0.0000E+00  0.4800E+02
     -4.212  0.0000E+00  0.4800E+02
     -4.005  0.0000E+00  0.4800E+02
     -3.797  0.0000E+00  0.4800E+02
     -3.590  0.0000E+00  0.4800E+02
     -3.383  0.0000E+00  0.4800E+02
     -3.176  0.0000E+00  0.4800E+02
     -2.968  0.0000E+00  0.4800E+02
     -2.761  0.0000E+00  0.4800E+02
     -2.554  0.0000E+00  0.4800E+02
     -2.346  0.0000E+00  0.4800E+02
     -2.139 -0.3502E-29  0.4800E+02
     -1.932 -0.2184E-22  0.4800E+02
     -1.724 -0.1559E-16  0.4800E+02
     -1.517 -0.1219E-11  0.4800E+02
     -1.310 -0.1107E-07  0.4800E+02
     -1.102 -0.1133E-04  0.4800E+02
     -0.895 -0.1310E-02  0.4800E+02
     -0.688 -0.1422E-01  0.4800E+02
     -0.480  0.8885E-01  0.4802E+02
     -0.273  0.6848E+00  0.4816E+02
     -0.066  0.1445E+01  0.4846E+02
      0.142  0.1660E+01  0.4880E+02
      0.349  0.1687E+01  0.4915E+02
      0.556  0.2227E+01  0.4961E+02
      0.764  0.2602E+01  0.5015E+02
      0.971  0.2945E+01  0.5076E+02
      1.178  0.2970E+01  0.5138E+02
      1.386  0.4151E+01  0.5224E+02
      1.593  0.4864E+01  0.5325E+02
      1.800  0.3673E+01  0.5401E+02
      2.008  0.4915E+01  0.5503E+02
      2.215  0.6948E+01  0.5647E+02
      2.422  0.1171E+02  0.5890E+02
      2.630  0.1556E+02  0.6212E+02
      2.837  0.1997E+02  0.6626E+02
      3.044  0.2285E+02  0.7100E+02
      3.252  0.2604E+02  0.7640E+02
      3.459  0.3050E+02  0.8272E+02
      3.666  0.3326E+02  0.8962E+02
      3.874  0.3221E+02  0.9629E+02
      4.081  0.3270E+02  0.1031E+03
      4.288  0.2737E+02  0.1087E+03
      4.496  0.1896E+02  0.1127E+03
      4.703  0.2521E+02  0.1179E+03
      4.910  0.3951E+02  0.1261E+03
      5.118  0.4630E+02  0.1357E+03
      5.325  0.4443E+02  0.1449E+03
      5.532  0.3814E+02  0.1528E+03
      5.740  0.3599E+02  0.1603E+03
      5.947  0.3874E+02  0.1683E+03
      6.154  0.4330E+02  0.1773E+03
      6.362  0.4524E+02  0.1867E+03
      6.569  0.4157E+02  0.1953E+03
      6.776  0.3704E+02  0.2030E+03
      6.984  0.3250E+02  0.2097E+03
      7.191  0.2445E+02  0.2148E+03
      7.398  0.1641E+02  0.2182E+03
      7.606  0.1447E+02  0.2212E+03
      7.813  0.1320E+02  0.2239E+03
      8.020  0.1403E+02  0.2268E+03
      8.228  0.1644E+02  0.2302E+03
      8.435  0.2062E+02  0.2345E+03
      8.642  0.2533E+02  0.2398E+03
      8.849  0.2874E+02  0.2457E+03
      9.057  0.2853E+02  0.2516E+03
      9.264  0.1820E+02  0.2554E+03
      9.471  0.3323E+01  0.2561E+03
      9.679 -0.4054E+00  0.2560E+03
      9.886 -0.4288E-01  0.2560E+03
     10.093 -0.3829E-03  0.2560E+03
     10.301 -0.4029E-06  0.2560E+03
     10.508 -0.5130E-10  0.2560E+03
     10.715 -0.6854E-15  0.2560E+03
     10.923  0.0000E+00  0.2560E+03
     11.130  0.0000E+00  0.2560E+03
     11.337  0.0000E+00  0.2560E+03
     11.545  0.0000E+00  0.2560E+03
     11.752  0.0000E+00  0.2560E+03
     11.959  0.0000E+00  0.2560E+03
     12.167  0.0000E+00  0.2560E+03
