   30   30    1    1
  0.1638400E+02  0.6400000E-09  0.8313844E-09  0.1011929E-08  0.5000000E-15
  1.000000000000000E-004
  CAR 
 Nb - Mo - Ta - Ti - W SQS               
    204     63    128
 
  0.0000000E+00  0.0000000E+00  0.0000000E+00  0.8000000E-02
    1      -47.204301   1.000000
    2      -47.193718   1.000000
    3      -47.158569   1.000000
    4      -47.101067   1.000000
    5      -47.062984   1.000000
    6      -46.997152   1.000000
    7      -23.752364   1.000000
    8      -23.683713   1.000000
    9      -23.618926   1.000000
   10      -23.511041   1.000000
   11      -23.400657   1.000000
   12      -23.382005   1.000000
   13      -23.368211   1.000000
   14      -23.336712   1.000000
   15      -23.320704   1.000000
   16      -23.289685   1.000000
   17      -23.280290   1.000000
   18      -23.264391   1.000000
   19      -23.189875   1.000000
   20      -23.162420   1.000000
   21      -23.061736   1.000000
   22      -23.026471   1.000000
   23      -22.960674   1.000000
   24      -22.818948   1.000000
   25       -0.512907   1.000000
   26        1.389416   1.000000
   27        1.891509   1.000000
   28        2.040962   1.000000
   29        2.246276   1.000000
   30        2.350750   1.000000
   31        2.430951   1.000000
   32        2.531891   1.000000
   33        2.627567   1.000000
   34        2.810591   1.000000
   35        2.860653   1.000000
   36        2.977272   1.000000
   37        3.006874   1.000000
   38        3.035035   1.000000
   39        3.128739   1.000000
   40        3.231089   1.000000
   41        3.272656   1.000000
   42        3.315491   1.000000
   43        3.354756   1.000000
   44        3.389517   1.000000
   45        3.420951   1.000000
   46        3.453410   1.000000
   47        3.545139   1.000000
   48        3.624803   1.000000
   49        3.657026   1.000000
   50        3.752061   1.000000
   51        3.770186   1.000000
   52        3.838331   1.000000
   53        3.914071   1.000000
   54        4.114710   1.000000
   55        4.299083   1.000000
   56        4.394165   1.000000
   57        4.544385   1.000000
   58        4.564866   1.000000
   59        4.706113   1.000000
   60        4.764996   1.000000
   61        4.796850   1.000000
   62        4.833508   1.000000
   63        4.880220   1.000000
   64        4.933488   1.000000
   65        4.982559   1.000000
   66        5.000565   1.000000
   67        5.042845   1.000000
   68        5.072139   1.000000
   69        5.127344   1.000000
   70        5.163154   1.000000
   71        5.217411   1.000000
   72        5.236476   1.000000
   73        5.323158   1.000000
   74        5.394197   1.000000
   75        5.491056   1.000000
   76        5.519845   1.000000
   77        5.638009   1.000000
   78        5.722698   1.000000
   79        5.818282   1.000000
   80        5.849994   1.000000
   81        5.883534   1.000000
   82        6.112924   1.000005
   83        6.245493   1.000270
   84        6.279927   1.000634
   85        6.379859   1.005121
   86        6.436109   1.012599
   87        6.467783   1.018932
   88        6.531216   1.032678
   89        6.550574   1.035062
   90        6.585257   1.032819
   91        6.663287   0.964565
   92        6.689532   0.911995
   93        6.727559   0.805388
   94        6.742356   0.754872
   95        6.772846   0.638277
   96        6.810585   0.480718
   97        6.828310   0.406358
   98        6.858486   0.286265
   99        6.920809   0.092037
  100        7.057718  -0.035291
  101        7.105414  -0.027788
  102        7.143289  -0.019148
  103        7.160174  -0.015581
  104        7.173554  -0.013027
  105        7.237246  -0.004675
  106        7.299518  -0.001338
  107        7.312011  -0.001012
  108        7.388030  -0.000153
  109        7.487542  -0.000008
  110        7.568285  -0.000000
  111        7.677631  -0.000000
  112        7.731177  -0.000000
  113        7.780184  -0.000000
  114        7.818555  -0.000000
  115        7.864600  -0.000000
  116        7.990593  -0.000000
  117        8.150693  -0.000000
  118        8.272525  -0.000000
  119        8.323252  -0.000000
  120        8.455531  -0.000000
  121        8.466211  -0.000000
  122        8.472654  -0.000000
  123        8.492350  -0.000000
  124        8.545385  -0.000000
  125        8.577564  -0.000000
  126        8.666520  -0.000000
  127        8.687367  -0.000000
  128        8.711620  -0.000000
 
  0.2000000E+00 -0.1387779E-16  0.0000000E+00  0.1600000E-01
    1      -47.204018   1.000000
    2      -47.193878   1.000000
    3      -47.158555   1.000000
    4      -47.101066   1.000000
    5      -47.063030   1.000000
    6      -46.997153   1.000000
    7      -23.753505   1.000000
    8      -23.683753   1.000000
    9      -23.620142   1.000000
   10      -23.511095   1.000000
   11      -23.400950   1.000000
   12      -23.382747   1.000000
   13      -23.369021   1.000000
   14      -23.337472   1.000000
   15      -23.320677   1.000000
   16      -23.289493   1.000000
   17      -23.280141   1.000000
   18      -23.264200   1.000000
   19      -23.190083   1.000000
   20      -23.162252   1.000000
   21      -23.060636   1.000000
   22      -23.027100   1.000000
   23      -22.960614   1.000000
   24      -22.818886   1.000000
   25       -0.275270   1.000000
   26        1.375264   1.000000
   27        1.992991   1.000000
   28        2.123318   1.000000
   29        2.280411   1.000000
   30        2.392590   1.000000
   31        2.510735   1.000000
   32        2.675103   1.000000
   33        2.713920   1.000000
   34        2.801352   1.000000
   35        2.937740   1.000000
   36        2.972686   1.000000
   37        3.047324   1.000000
   38        3.128923   1.000000
   39        3.171732   1.000000
   40        3.260208   1.000000
   41        3.301431   1.000000
   42        3.353729   1.000000
   43        3.422404   1.000000
   44        3.461179   1.000000
   45        3.532297   1.000000
   46        3.559756   1.000000
   47        3.601565   1.000000
   48        3.740624   1.000000
   49        3.839048   1.000000
   50        3.888821   1.000000
   51        3.964045   1.000000
   52        4.055788   1.000000
   53        4.086620   1.000000
   54        4.127702   1.000000
   55        4.335498   1.000000
   56        4.526573   1.000000
   57        4.568309   1.000000
   58        4.621189   1.000000
   59        4.664113   1.000000
   60        4.702007   1.000000
   61        4.760106   1.000000
   62        4.799046   1.000000
   63        4.860909   1.000000
   64        4.932296   1.000000
   65        4.964218   1.000000
   66        5.014903   1.000000
   67        5.051581   1.000000
   68        5.088874   1.000000
   69        5.143366   1.000000
   70        5.179332   1.000000
   71        5.201801   1.000000
   72        5.263605   1.000000
   73        5.294895   1.000000
   74        5.349685   1.000000
   75        5.434795   1.000000
   76        5.509128   1.000000
   77        5.562220   1.000000
   78        5.652978   1.000000
   79        5.705164   1.000000
   80        5.775770   1.000000
   81        5.892378   1.000000
   82        5.943297   1.000000
   83        6.025102   1.000000
   84        6.084509   1.000002
   85        6.123461   1.000008
   86        6.162433   1.000026
   87        6.192822   1.000064
   88        6.243862   1.000259
   89        6.270994   1.000511
   90        6.324128   1.001718
   91        6.360834   1.003604
   92        6.419128   1.009822
   93        6.469719   1.019359
   94        6.504820   1.027382
   95        6.530173   1.032503
   96        6.602507   1.026858
   97        6.636372   1.001388
   98        6.661050   0.968261
   99        6.747682   0.735614
  100        6.775271   0.628448
  101        6.813395   0.468843
  102        6.933581   0.063756
  103        6.995147  -0.018522
  104        7.029151  -0.033339
  105        7.088252  -0.031358
  106        7.113221  -0.026023
  107        7.205087  -0.008117
  108        7.257961  -0.003165
  109        7.299482  -0.001339
  110        7.365101  -0.000280
  111        7.517967  -0.000003
  112        7.533315  -0.000002
  113        7.844708  -0.000000
  114        7.905064  -0.000000
  115        7.960292  -0.000000
  116        8.008489  -0.000000
  117        8.161260  -0.000000
  118        8.393489  -0.000000
  119        8.606653  -0.000000
  120        8.673805  -0.000000
  121        8.695117  -0.000000
  122        8.725157  -0.000000
  123        8.810924  -0.000000
  124        8.879684  -0.000000
  125        8.913512  -0.000000
  126        9.001302  -0.000000
  127        9.032244  -0.000000
  128        9.133681  -0.000000
 
  0.4000000E+00 -0.2775558E-16  0.0000000E+00  0.1600000E-01
    1      -47.203552   1.000000
    2      -47.194138   1.000000
    3      -47.158538   1.000000
    4      -47.101064   1.000000
    5      -47.063105   1.000000
    6      -46.997153   1.000000
    7      -23.755357   1.000000
    8      -23.683905   1.000000
    9      -23.621896   1.000000
   10      -23.511129   1.000000
   11      -23.401376   1.000000
   12      -23.383963   1.000000
   13      -23.370392   1.000000
   14      -23.338381   1.000000
   15      -23.320601   1.000000
   16      -23.289141   1.000000
   17      -23.279873   1.000000
   18      -23.264090   1.000000
   19      -23.190334   1.000000
   20      -23.161962   1.000000
   21      -23.058926   1.000000
   22      -23.027995   1.000000
   23      -22.960430   1.000000
   24      -22.818751   1.000000
   25        0.378162   1.000000
   26        1.364211   1.000000
   27        1.487942   1.000000
   28        2.022394   1.000000
   29        2.296822   1.000000
   30        2.580923   1.000000
   31        2.644403   1.000000
   32        2.812048   1.000000
   33        2.833540   1.000000
   34        2.941184   1.000000
   35        3.054708   1.000000
   36        3.241061   1.000000
   37        3.361361   1.000000
   38        3.406711   1.000000
   39        3.439310   1.000000
   40        3.509161   1.000000
   41        3.587373   1.000000
   42        3.614355   1.000000
   43        3.684828   1.000000
   44        3.737221   1.000000
   45        3.776845   1.000000
   46        3.851418   1.000000
   47        3.905534   1.000000
   48        3.929414   1.000000
   49        3.968439   1.000000
   50        4.004685   1.000000
   51        4.111817   1.000000
   52        4.135587   1.000000
   53        4.237715   1.000000
   54        4.284100   1.000000
   55        4.328055   1.000000
   56        4.412670   1.000000
   57        4.551933   1.000000
   58        4.567383   1.000000
   59        4.641271   1.000000
   60        4.701067   1.000000
   61        4.793489   1.000000
   62        4.803159   1.000000
   63        4.827699   1.000000
   64        4.887108   1.000000
   65        4.920718   1.000000
   66        4.971924   1.000000
   67        5.019782   1.000000
   68        5.040381   1.000000
   69        5.070961   1.000000
   70        5.104403   1.000000
   71        5.127594   1.000000
   72        5.177779   1.000000
   73        5.249203   1.000000
   74        5.267317   1.000000
   75        5.317140   1.000000
   76        5.395976   1.000000
   77        5.427163   1.000000
   78        5.454794   1.000000
   79        5.479127   1.000000
   80        5.540620   1.000000
   81        5.571836   1.000000
   82        5.660105   1.000000
   83        5.762780   1.000000
   84        5.812748   1.000000
   85        5.867827   1.000000
   86        5.948219   1.000000
   87        5.977646   1.000000
   88        6.027509   1.000000
   89        6.060467   1.000001
   90        6.091740   1.000003
   91        6.135584   1.000011
   92        6.156614   1.000022
   93        6.186564   1.000054
   94        6.242388   1.000249
   95        6.258863   1.000379
   96        6.296355   1.000930
   97        6.360042   1.003550
   98        6.399604   1.007197
   99        6.426208   1.010924
  100        6.470032   1.019428
  101        6.589950   1.031584
  102        6.622754   1.014130
  103        6.656331   0.975667
  104        6.717293   0.837609
  105        6.773431   0.635913
  106        6.786493   0.582219
  107        6.826500   0.413872
  108        6.852629   0.308619
  109        6.937628   0.055650
  110        7.075654  -0.033485
  111        7.130179  -0.022108
  112        7.242383  -0.004255
  113        7.607471  -0.000000
  114        7.781480  -0.000000
  115        8.121547  -0.000000
  116        8.306868  -0.000000
  117        8.537465  -0.000000
  118        8.633475  -0.000000
  119        8.650119  -0.000000
  120        8.724474  -0.000000
  121        8.844216  -0.000000
  122        8.904607  -0.000000
  123        8.971392  -0.000000
  124        9.010640  -0.000000
  125        9.099438  -0.000000
  126        9.170782  -0.000000
  127        9.235673  -0.000000
  128        9.304739  -0.000000
 
  0.0000000E+00  0.2000000E+00  0.0000000E+00  0.1600000E-01
    1      -47.204032   1.000000
    2      -47.193989   1.000000
    3      -47.158584   1.000000
    4      -47.101088   1.000000
    5      -47.062934   1.000000
    6      -46.997165   1.000000
    7      -23.752472   1.000000
    8      -23.683167   1.000000
    9      -23.618322   1.000000
   10      -23.512553   1.000000
   11      -23.400576   1.000000
   12      -23.381919   1.000000
   13      -23.368374   1.000000
   14      -23.336866   1.000000
   15      -23.320620   1.000000
   16      -23.289645   1.000000
   17      -23.280375   1.000000
   18      -23.264104   1.000000
   19      -23.190022   1.000000
   20      -23.162280   1.000000
   21      -23.060862   1.000000
   22      -23.026901   1.000000
   23      -22.960680   1.000000
   24      -22.819336   1.000000
   25       -0.380061   1.000000
   26        1.312253   1.000000
   27        1.599824   1.000000
   28        1.942013   1.000000
   29        2.145197   1.000000
   30        2.383670   1.000000
   31        2.456379   1.000000
   32        2.584872   1.000000
   33        2.717629   1.000000
   34        2.762264   1.000000
   35        2.816377   1.000000
   36        2.861824   1.000000
   37        2.950704   1.000000
   38        3.058417   1.000000
   39        3.139106   1.000000
   40        3.236875   1.000000
   41        3.255926   1.000000
   42        3.339662   1.000000
   43        3.368064   1.000000
   44        3.456130   1.000000
   45        3.553232   1.000000
   46        3.587430   1.000000
   47        3.667340   1.000000
   48        3.712783   1.000000
   49        3.733084   1.000000
   50        3.767102   1.000000
   51        3.865493   1.000000
   52        3.895419   1.000000
   53        3.987953   1.000000
   54        4.019785   1.000000
   55        4.197654   1.000000
   56        4.354508   1.000000
   57        4.555409   1.000000
   58        4.597454   1.000000
   59        4.691582   1.000000
   60        4.718399   1.000000
   61        4.747759   1.000000
   62        4.792975   1.000000
   63        4.856796   1.000000
   64        4.925651   1.000000
   65        4.950066   1.000000
   66        5.040135   1.000000
   67        5.067521   1.000000
   68        5.095999   1.000000
   69        5.139633   1.000000
   70        5.164112   1.000000
   71        5.235840   1.000000
   72        5.282330   1.000000
   73        5.345107   1.000000
   74        5.385602   1.000000
   75        5.421882   1.000000
   76        5.545423   1.000000
   77        5.623300   1.000000
   78        5.698676   1.000000
   79        5.777969   1.000000
   80        5.806635   1.000000
   81        5.969958   1.000000
   82        6.105803   1.000004
   83        6.185582   1.000052
   84        6.224514   1.000155
   85        6.234682   1.000203
   86        6.272378   1.000529
   87        6.336493   1.002226
   88        6.369666   1.004255
   89        6.433574   1.012155
   90        6.508668   1.028236
   91        6.548466   1.034896
   92        6.608568   1.023758
   93        6.785550   0.586142
   94        6.833450   0.385164
   95        6.844348   0.341101
   96        6.870434   0.242505
   97        6.939126   0.052755
   98        6.975761  -0.001473
   99        7.003672  -0.023862
  100        7.077032  -0.033281
  101        7.118727  -0.024755
  102        7.160269  -0.015562
  103        7.186389  -0.010836
  104        7.219750  -0.006365
  105        7.277333  -0.002146
  106        7.304521  -0.001197
  107        7.394200  -0.000129
  108        7.416693  -0.000069
  109        7.448538  -0.000027
  110        7.548077  -0.000001
  111        7.576525  -0.000000
  112        7.661408  -0.000000
  113        7.695518  -0.000000
  114        8.015642  -0.000000
  115        8.130005  -0.000000
  116        8.200595  -0.000000
  117        8.243522  -0.000000
  118        8.309552  -0.000000
  119        8.375325  -0.000000
  120        8.413830  -0.000000
  121        8.457408  -0.000000
  122        8.505217  -0.000000
  123        8.589683  -0.000000
  124        8.605543  -0.000000
  125        8.667894  -0.000000
  126        8.793527  -0.000000
  127        8.858348  -0.000000
  128        9.004186  -0.000000
 
  0.2000000E+00  0.2000000E+00  0.0000000E+00  0.1600000E-01
    1      -47.203938   1.000000
    2      -47.193963   1.000000
    3      -47.158546   1.000000
    4      -47.101068   1.000000
    5      -47.063034   1.000000
    6      -46.997153   1.000000
    7      -23.752820   1.000000
    8      -23.683636   1.000000
    9      -23.620074   1.000000
   10      -23.512534   1.000000
   11      -23.400933   1.000000
   12      -23.382550   1.000000
   13      -23.369179   1.000000
   14      -23.337252   1.000000
   15      -23.320775   1.000000
   16      -23.289509   1.000000
   17      -23.280149   1.000000
   18      -23.263986   1.000000
   19      -23.190123   1.000000
   20      -23.162346   1.000000
   21      -23.060096   1.000000
   22      -23.026947   1.000000
   23      -22.960665   1.000000
   24      -22.819124   1.000000
   25       -0.196712   1.000000
   26        1.306368   1.000000
   27        1.742552   1.000000
   28        2.193441   1.000000
   29        2.409807   1.000000
   30        2.480669   1.000000
   31        2.547610   1.000000
   32        2.642224   1.000000
   33        2.757571   1.000000
   34        2.813227   1.000000
   35        2.908231   1.000000
   36        2.980155   1.000000
   37        3.027075   1.000000
   38        3.079676   1.000000
   39        3.164091   1.000000
   40        3.187030   1.000000
   41        3.280749   1.000000
   42        3.335325   1.000000
   43        3.405924   1.000000
   44        3.486149   1.000000
   45        3.552499   1.000000
   46        3.619163   1.000000
   47        3.678373   1.000000
   48        3.701150   1.000000
   49        3.801936   1.000000
   50        3.856650   1.000000
   51        3.956529   1.000000
   52        4.025394   1.000000
   53        4.081681   1.000000
   54        4.161534   1.000000
   55        4.378842   1.000000
   56        4.407149   1.000000
   57        4.532831   1.000000
   58        4.617024   1.000000
   59        4.663589   1.000000
   60        4.751836   1.000000
   61        4.785729   1.000000
   62        4.823502   1.000000
   63        4.845663   1.000000
   64        4.898484   1.000000
   65        4.933001   1.000000
   66        5.001705   1.000000
   67        5.050918   1.000000
   68        5.068220   1.000000
   69        5.094621   1.000000
   70        5.175937   1.000000
   71        5.260363   1.000000
   72        5.278943   1.000000
   73        5.301773   1.000000
   74        5.408460   1.000000
   75        5.447593   1.000000
   76        5.524640   1.000000
   77        5.586013   1.000000
   78        5.694367   1.000000
   79        5.734250   1.000000
   80        5.759140   1.000000
   81        5.815904   1.000000
   82        5.867784   1.000000
   83        5.939071   1.000000
   84        6.023950   1.000000
   85        6.089659   1.000003
   86        6.133783   1.000011
   87        6.173786   1.000037
   88        6.232256   1.000191
   89        6.318461   1.001522
   90        6.347421   1.002776
   91        6.413609   1.009019
   92        6.444176   1.014078
   93        6.461550   1.017583
   94        6.522890   1.031185
   95        6.571323   1.035025
   96        6.630166   1.007647
   97        6.664476   0.962552
   98        6.702924   0.878500
   99        6.730090   0.797078
  100        6.771251   0.644708
  101        6.818932   0.445517
  102        6.875720   0.224016
  103        6.964513   0.011914
  104        6.991834  -0.016110
  105        7.068026  -0.034463
  106        7.119868  -0.024491
  107        7.213724  -0.007046
  108        7.309327  -0.001075
  109        7.394819  -0.000127
  110        7.483740  -0.000009
  111        7.521982  -0.000003
  112        7.680876  -0.000000
  113        7.844315  -0.000000
  114        7.865980  -0.000000
  115        8.086095  -0.000000
  116        8.210627  -0.000000
  117        8.272566  -0.000000
  118        8.387712  -0.000000
  119        8.449489  -0.000000
  120        8.499188  -0.000000
  121        8.517941  -0.000000
  122        8.557896  -0.000000
  123        8.707464  -0.000000
  124        8.764083  -0.000000
  125        8.908000  -0.000000
  126        8.986189  -0.000000
  127        9.149052  -0.000000
  128        9.183061  -0.000000
 
  0.4000000E+00  0.2000000E+00  0.0000000E+00  0.1600000E-01
    1      -47.203534   1.000000
    2      -47.194163   1.000000
    3      -47.158517   1.000000
    4      -47.101061   1.000000
    5      -47.063123   1.000000
    6      -46.997151   1.000000
    7      -23.754410   1.000000
    8      -23.683889   1.000000
    9      -23.622032   1.000000
   10      -23.512636   1.000000
   11      -23.401435   1.000000
   12      -23.383673   1.000000
   13      -23.370471   1.000000
   14      -23.338271   1.000000
   15      -23.320762   1.000000
   16      -23.289191   1.000000
   17      -23.279897   1.000000
   18      -23.263740   1.000000
   19      -23.190322   1.000000
   20      -23.162148   1.000000
   21      -23.058534   1.000000
   22      -23.027746   1.000000
   23      -22.960504   1.000000
   24      -22.818922   1.000000
   25        0.402781   1.000000
   26        1.360536   1.000000
   27        1.558352   1.000000
   28        2.150062   1.000000
   29        2.298708   1.000000
   30        2.430831   1.000000
   31        2.701224   1.000000
   32        2.805432   1.000000
   33        2.903674   1.000000
   34        2.970270   1.000000
   35        3.077981   1.000000
   36        3.277175   1.000000
   37        3.319954   1.000000
   38        3.370516   1.000000
   39        3.429272   1.000000
   40        3.477114   1.000000
   41        3.512261   1.000000
   42        3.562408   1.000000
   43        3.586104   1.000000
   44        3.637698   1.000000
   45        3.735177   1.000000
   46        3.764549   1.000000
   47        3.820998   1.000000
   48        3.878377   1.000000
   49        3.973795   1.000000
   50        4.004156   1.000000
   51        4.084672   1.000000
   52        4.118424   1.000000
   53        4.144937   1.000000
   54        4.216323   1.000000
   55        4.287495   1.000000
   56        4.377034   1.000000
   57        4.502719   1.000000
   58        4.612939   1.000000
   59        4.676505   1.000000
   60        4.743860   1.000000
   61        4.783431   1.000000
   62        4.835788   1.000000
   63        4.886962   1.000000
   64        4.929521   1.000000
   65        4.977537   1.000000
   66        5.013796   1.000000
   67        5.071411   1.000000
   68        5.090063   1.000000
   69        5.147968   1.000000
   70        5.157767   1.000000
   71        5.216021   1.000000
   72        5.268893   1.000000
   73        5.289569   1.000000
   74        5.375895   1.000000
   75        5.399137   1.000000
   76        5.451313   1.000000
   77        5.470044   1.000000
   78        5.503793   1.000000
   79        5.565750   1.000000
   80        5.634521   1.000000
   81        5.650944   1.000000
   82        5.686337   1.000000
   83        5.750465   1.000000
   84        5.777246   1.000000
   85        5.796934   1.000000
   86        5.844162   1.000000
   87        5.882512   1.000000
   88        5.958238   1.000000
   89        6.000016   1.000000
   90        6.030018   1.000000
   91        6.076008   1.000002
   92        6.109671   1.000005
   93        6.150945   1.000018
   94        6.187929   1.000056
   95        6.212122   1.000111
   96        6.253815   1.000334
   97        6.327104   1.001830
   98        6.347776   1.002795
   99        6.387712   1.005881
  100        6.416158   1.009384
  101        6.477251   1.021051
  102        6.526595   1.031875
  103        6.571142   1.035040
  104        6.630353   1.007470
  105        6.712193   0.852697
  106        6.772746   0.638681
  107        6.860519   0.278639
  108        6.886848   0.187010
  109        6.966113   0.009841
  110        7.165689  -0.014496
  111        7.281377  -0.001973
  112        7.453616  -0.000023
  113        7.752593  -0.000000
  114        8.020868  -0.000000
  115        8.258880  -0.000000
  116        8.385093  -0.000000
  117        8.509503  -0.000000
  118        8.574593  -0.000000
  119        8.609127  -0.000000
  120        8.766380  -0.000000
  121        8.828934  -0.000000
  122        8.849372  -0.000000
  123        8.928256  -0.000000
  124        8.980445  -0.000000
  125        9.044458  -0.000000
  126        9.090107  -0.000000
  127        9.146613  -0.000000
  128        9.276315  -0.000000
 
 -0.4000000E+00  0.2000000E+00  0.0000000E+00  0.1600000E-01
    1      -47.203375   1.000000
    2      -47.194317   1.000000
    3      -47.158541   1.000000
    4      -47.101075   1.000000
    5      -47.063080   1.000000
    6      -46.997162   1.000000
    7      -23.755031   1.000000
    8      -23.683596   1.000000
    9      -23.621470   1.000000
   10      -23.512697   1.000000
   11      -23.401386   1.000000
   12      -23.383790   1.000000
   13      -23.370479   1.000000
   14      -23.338291   1.000000
   15      -23.320588   1.000000
   16      -23.289128   1.000000
   17      -23.279959   1.000000
   18      -23.263866   1.000000
   19      -23.190349   1.000000
   20      -23.161952   1.000000
   21      -23.058301   1.000000
   22      -23.028096   1.000000
   23      -22.960469   1.000000
   24      -22.819023   1.000000
   25        0.567513   1.000000
   26        1.316527   1.000000
   27        1.470818   1.000000
   28        1.940922   1.000000
   29        2.102588   1.000000
   30        2.523438   1.000000
   31        2.601295   1.000000
   32        2.753103   1.000000
   33        2.922265   1.000000
   34        2.983366   1.000000
   35        3.127033   1.000000
   36        3.191434   1.000000
   37        3.272562   1.000000
   38        3.317728   1.000000
   39        3.417403   1.000000
   40        3.450390   1.000000
   41        3.537003   1.000000
   42        3.582149   1.000000
   43        3.702824   1.000000
   44        3.763381   1.000000
   45        3.855361   1.000000
   46        3.862121   1.000000
   47        3.930239   1.000000
   48        3.941845   1.000000
   49        4.022261   1.000000
   50        4.065818   1.000000
   51        4.126479   1.000000
   52        4.193632   1.000000
   53        4.255080   1.000000
   54        4.332986   1.000000
   55        4.382964   1.000000
   56        4.438060   1.000000
   57        4.544757   1.000000
   58        4.613377   1.000000
   59        4.694412   1.000000
   60        4.730283   1.000000
   61        4.781055   1.000000
   62        4.815863   1.000000
   63        4.860864   1.000000
   64        4.909936   1.000000
   65        4.924884   1.000000
   66        4.956817   1.000000
   67        4.976389   1.000000
   68        5.029736   1.000000
   69        5.068462   1.000000
   70        5.101373   1.000000
   71        5.130528   1.000000
   72        5.174811   1.000000
   73        5.218056   1.000000
   74        5.294177   1.000000
   75        5.331152   1.000000
   76        5.375129   1.000000
   77        5.435946   1.000000
   78        5.520356   1.000000
   79        5.553093   1.000000
   80        5.604556   1.000000
   81        5.616853   1.000000
   82        5.673346   1.000000
   83        5.730390   1.000000
   84        5.781092   1.000000
   85        5.830031   1.000000
   86        5.862176   1.000000
   87        5.901310   1.000000
   88        5.965292   1.000000
   89        6.022307   1.000000
   90        6.060934   1.000001
   91        6.099689   1.000004
   92        6.135539   1.000011
   93        6.194553   1.000068
   94        6.218834   1.000133
   95        6.245643   1.000271
   96        6.312445   1.001335
   97        6.363068   1.003760
   98        6.408065   1.008261
   99        6.463180   1.017931
  100        6.503194   1.027016
  101        6.521761   1.030967
  102        6.571714   1.034990
  103        6.614482   1.020165
  104        6.665910   0.960077
  105        6.726822   0.807780
  106        6.771236   0.644769
  107        6.825063   0.419851
  108        6.851904   0.311423
  109        6.892410   0.169552
  110        6.966428   0.009440
  111        7.115345  -0.025535
  112        7.189721  -0.010311
  113        7.721206  -0.000000
  114        8.134036  -0.000000
  115        8.275004  -0.000000
  116        8.497747  -0.000000
  117        8.520403  -0.000000
  118        8.656547  -0.000000
  119        8.706800  -0.000000
  120        8.755274  -0.000000
  121        8.866902  -0.000000