 vasp.5.4.4.18Apr17-6-g9f103f2a35 (build Aug 09 2018 16:20:53) complex          
  
 executed on             LinuxIFC date 2020.04.12  14:10:30
 running on   32 total cores
 distrk:  each k-point on   32 cores,    1 groups
 distr:  one band on NCORES_PER_BAND=   4 cores,    8 groups


--------------------------------------------------------------------------------------------------------


 INCAR:
 POTCAR:    PAW_PBE Nb_sv 25May2007               
 POTCAR:    PAW_PBE Mo 08Apr2002                  
 POTCAR:    PAW_PBE Ta 17Jan2003                  
 POTCAR:    PAW_PBE Ti 08Apr2002                  
 POTCAR:    PAW_PBE W 08Apr2002                   
 POTCAR:    PAW_PBE Nb_sv 25May2007               
   VRHFIN =Nb: 4p5s4d                                                           
   LEXCH  = PE                                                                  
   EATOM  =  1555.1913 eV,  114.3033 Ry                                         
                                                                                
   TITEL  = PAW_PBE Nb_sv 25May2007                                             
   LULTRA =        F    use ultrasoft PP ?                                      
   IUNSCR =        1    unscreen: 0-lin 1-nonlin 2-no                           
   RPACOR =    1.800    partial core radius                                     
   POMASS =   92.910; ZVAL   =   13.000    mass and valenz                      
   RCORE  =    2.400    outmost cutoff radius                                   
   RWIGS  =    2.400; RWIGS  =    1.270    wigner-seitz radius (au A)           
   ENMAX  =  293.235; ENMIN  =  219.927 eV                                      
   ICORE  =        3    local potential                                         
   LCOR   =        T    correct aug charges                                     
   LPAW   =        T    paw PP                                                  
   EAUG   =  455.659                                                            
   DEXC   =    0.000                                                            
   RMAX   =    2.456    core radius for proj-oper                               
   RAUG   =    1.300    factor for augmentation sphere                          
   RDEP   =    2.451    radius for radial grids                                 
   RDEPT  =    1.956    core radius for aug-charge                              
                                                                                
   Atomic configuration                                                         
   11 entries                                                                   
     n  l   j            E        occ.                                          
     1  0  0.50    -18805.2457   2.0000                                         
     2  0  0.50     -2630.2869   2.0000                                         
     2  1  1.50     -2348.4046   6.0000                                         
     3  0  0.50      -438.8757   2.0000                                         
     3  1  1.50      -346.7588   6.0000                                         
     3  2  2.50      -196.2560  10.0000                                         
     4  0  0.50       -58.3859   2.0000                                         
     5  0  0.50        -3.9816   1.0000                                         
     4  1  1.50       -34.5141   6.0000                                         
     4  2  2.50        -3.0408   4.0000                                         
     4  3  2.50        -1.3606   0.0000                                         
   Description                                                                  
     l       E           TYP  RCUT    TYP  RCUT                                 
     0    -58.3859094     23  2.200                                             
     0     -3.9816262     23  2.200                                             
     1    -34.5140738     23  2.200                                             
     1     13.6058260     23  2.200                                             
     2     -3.0408010     23  2.200                                             
     2     -0.1283038     23  2.200                                             
     3     -1.3605826     23  2.400                                             
  local pseudopotential read in
  partial core-charges read in
  partial kinetic energy density read in
  atomic valenz-charges read in
  non local Contribution for L=           0  read in
    real space projection operators read in
  non local Contribution for L=           0  read in
    real space projection operators read in
  non local Contribution for L=           1  read in
    real space projection operators read in
  non local Contribution for L=           1  read in
    real space projection operators read in
  non local Contribution for L=           2  read in
    real space projection operators read in
  non local Contribution for L=           2  read in
    real space projection operators read in
    PAW grid and wavefunctions read in
 
   number of l-projection  operators is LMAX  =           6
   number of lm-projection operators is LMMAX =          18
 
 POTCAR:    PAW_PBE Mo 08Apr2002                  
   VRHFIN =Mo: 4p5s4d                                                           
   LEXCH  = PE                                                                  
   EATOM  =   217.5176 eV,   15.9871 Ry                                         
                                                                                
   TITEL  = PAW_PBE Mo 08Apr2002                                                
   LULTRA =        F    use ultrasoft PP ?                                      
   IUNSCR =        1    unscreen: 0-lin 1-nonlin 2-no                           
   RPACOR =    2.200    partial core radius                                     
   POMASS =   95.940; ZVAL   =    6.000    mass and valenz                      
   RCORE  =    2.750    outmost cutoff radius                                   
   RWIGS  =    2.750; RWIGS  =    1.455    wigner-seitz radius (au A)           
   ENMAX  =  224.584; ENMIN  =  168.438 eV                                      
   RCLOC  =    2.111    cutoff for local pot                                    
   LCOR   =        T    correct aug charges                                     
   LPAW   =        T    paw PP                                                  
   EAUG   =  345.278                                                            
   DEXC   =    0.000                                                            
   RMAX   =    2.821    core radius for proj-oper                               
   RAUG   =    1.300    factor for augmentation sphere                          
   RDEP   =    2.815    radius for radial grids                                 
   RDEPT  =    2.211    core radius for aug-charge                              
                                                                                
   Atomic configuration                                                         
   12 entries                                                                   
     n  l   j            E        occ.                                          
     1  0  0.50    -19819.0341   2.0000                                         
     2  0  0.50     -2799.0127   2.0000                                         
     2  1  1.50     -2502.0276   6.0000                                         
     3  0  0.50      -476.4448   2.0000                                         
     3  1  1.50      -379.1496   6.0000                                         
     3  2  2.50      -220.9367  10.0000                                         
     4  0  0.50       -64.3378   2.0000                                         
     4  1  1.50       -38.4773   6.0000                                         
     4  2  2.50        -3.7535   5.0000                                         
     5  0  0.50        -4.0862   1.0000                                         
     5  1  0.50        -2.7701   0.0000                                         
     4  3  2.50        -1.3606   0.0000                                         
   Description                                                                  
     l       E           TYP  RCUT    TYP  RCUT                                 
     2     -3.7534765     23  2.500                                             
     2     -5.1140591     23  2.500                                             
     0     -4.0861560     23  2.600                                             
     0     13.6058260     23  2.600                                             
     1      5.4423304     23  2.750                                             
     1     27.2116520     23  2.750                                             
  local pseudopotential read in
  partial core-charges read in
  partial kinetic energy density read in
  atomic valenz-charges read in
  non local Contribution for L=           2  read in
    real space projection operators read in
  non local Contribution for L=           2  read in
    real space projection operators read in
  non local Contribution for L=           0  read in
    real space projection operators read in
  non local Contribution for L=           0  read in
    real space projection operators read in
  non local Contribution for L=           1  read in
    real space projection operators read in
  non local Contribution for L=           1  read in
    real space projection operators read in
    PAW grid and wavefunctions read in
 
   number of l-projection  operators is LMAX  =           6
   number of lm-projection operators is LMMAX =          18
 
 POTCAR:    PAW_PBE Ta 17Jan2003                  
   VRHFIN =Ta:  6s5d                                                            
   LEXCH  = PE                                                                  
   EATOM  =   130.6506 eV,    9.6025 Ry                                         
                                                                                
   TITEL  = PAW_PBE Ta 17Jan2003                                                
   LULTRA =        F    use ultrasoft PP ?                                      
   IUNSCR =        1    unscreen: 0-lin 1-nonlin 2-no                           
   RPACOR =    2.330    partial core radius                                     
   POMASS =  180.948; ZVAL   =    5.000    mass and valenz                      
   RCORE  =    2.900    outmost cutoff radius                                   
   RWIGS  =    2.840; RWIGS  =    1.503    wigner-seitz radius (au A)           
   ENMAX  =  223.667; ENMIN  =  167.750 eV                                      
   RCLOC  =    2.205    cutoff for local pot                                    
   LCOR   =        T    correct aug charges                                     
   LPAW   =        T    paw PP                                                  
   EAUG   =  332.075                                                            
   DEXC   =    0.000                                                            
   RMAX   =    2.970    core radius for proj-oper                               
   RAUG   =    1.300    factor for augmentation sphere                          
   RDEP   =    3.060    radius for radial grids                                 
   RDEPT  =    2.354    core radius for aug-charge                              
                                                                                
   Atomic configuration                                                         
   16 entries                                                                   
     n  l   j            E        occ.                                          
     1  0  0.50    -67341.2807   2.0000                                         
     2  0  0.50    -11566.9376   2.0000                                         
     2  1  1.50    -10134.1182   6.0000                                         
     3  0  0.50     -2648.5620   2.0000                                         
     3  1  1.50     -2222.6012   6.0000                                         
     3  2  2.50     -1726.3120  10.0000                                         
     4  0  0.50      -538.6961   2.0000                                         
     4  1  1.50      -399.0129   6.0000                                         
     4  2  2.50      -220.3959  10.0000                                         
     4  3  3.50       -23.0374  14.0000                                         
     5  0  0.50       -71.2901   2.0000                                         
     5  1  1.50       -37.8225   6.0000                                         
     5  2  2.50        -2.6455   4.0000                                         
     6  0  0.50        -4.9623   1.0000                                         
     6  1  1.50        -1.3606   0.0000                                         
     5  3  2.50        -1.3606   0.0000                                         
   Description                                                                  
     l       E           TYP  RCUT    TYP  RCUT                                 
     2     -2.6455043     23  2.500                                             
     2     -0.6258895     23  2.500                                             
     0     -4.9622780     23  2.500                                             
     0      4.7531321     23  2.500                                             
     1     -1.3605826     23  2.900                                             
     1     27.2116520     23  2.900                                             
  local pseudopotential read in
  partial core-charges read in
  partial kinetic energy density read in
  atomic valenz-charges read in
  non local Contribution for L=           2  read in
    real space projection operators read in
  non local Contribution for L=           2  read in
    real space projection operators read in
  non local Contribution for L=           0  read in
    real space projection operators read in
  non local Contribution for L=           0  read in
    real space projection operators read in
  non local Contribution for L=           1  read in
    real space projection operators read in
  non local Contribution for L=           1  read in
    real space projection operators read in
    PAW grid and wavefunctions read in
 
   number of l-projection  operators is LMAX  =           6
   number of lm-projection operators is LMMAX =          18
 
 POTCAR:    PAW_PBE Ti 08Apr2002                  
   VRHFIN =Ti: d3 s1                                                            
   LEXCH  = PE                                                                  
   EATOM  =    94.7928 eV,    6.9671 Ry                                         
                                                                                
   TITEL  = PAW_PBE Ti 08Apr2002                                                
   LULTRA =        F    use ultrasoft PP ?                                      
   IUNSCR =        1    unscreen: 0-lin 1-nonlin 2-no                           
   RPACOR =    2.200    partial core radius                                     
   POMASS =   47.880; ZVAL   =    4.000    mass and valenz                      
   RCORE  =    2.800    outmost cutoff radius                                   
   RWIGS  =    2.500; RWIGS  =    1.323    wigner-seitz radius (au A)           
   ENMAX  =  178.330; ENMIN  =  133.747 eV                                      
   RCLOC  =    2.215    cutoff for local pot                                    
   LCOR   =        T    correct aug charges                                     
   LPAW   =        T    paw PP                                                  
   EAUG   =  328.883                                                            
   DEXC   =    0.000                                                            
   RMAX   =    2.868    core radius for proj-oper                               
   RAUG   =    1.300    factor for augmentation sphere                          
   RDEP   =    2.885    radius for radial grids                                 
   RDEPT  =    2.320    core radius for aug-charge                              
                                                                                
   Atomic configuration                                                         
    9 entries                                                                   
     n  l   j            E        occ.                                          
     1  0  0.50     -4865.3608   2.0000                                         
     2  0  0.50      -533.1367   2.0000                                         
     2  1  1.50      -440.5031   6.0000                                         
     3  0  0.50       -59.3186   2.0000                                         
     3  1  1.50       -35.7012   6.0000                                         
     3  2  2.50        -1.9157   3.0000                                         
     4  0  0.50        -3.7291   1.0000                                         
     4  1  1.50        -4.0817   0.0000                                         
     4  3  2.50        -1.3606   0.0000                                         
   Description                                                                  
     l       E           TYP  RCUT    TYP  RCUT                                 
     2     -1.9156924     23  2.800                                             
     2     -0.4062961     23  2.800                                             
     0     -3.7290832     23  2.800                                             
     0     20.4087390     23  2.800                                             
     1     -5.4423304     23  2.800                                             
  local pseudopotential read in
  partial core-charges read in
  partial kinetic energy density read in
  atomic valenz-charges read in
  non local Contribution for L=           2  read in
    real space projection operators read in
  non local Contribution for L=           2  read in
    real space projection operators read in
  non local Contribution for L=           0  read in
    real space projection operators read in
  non local Contribution for L=           0  read in
    real space projection operators read in
  non local Contribution for L=           1  read in
    real space projection operators read in
    PAW grid and wavefunctions read in
 
   number of l-projection  operators is LMAX  =           5
   number of lm-projection operators is LMMAX =          15
 
 POTCAR:    PAW_PBE W 08Apr2002                   
   VRHFIN =W : 6s5d                                                             
   LEXCH  = PE                                                                  
   EATOM  =   204.6103 eV,   15.0384 Ry                                         
                                                                                
   TITEL  = PAW_PBE W 08Apr2002                                                 
   LULTRA =        F    use ultrasoft PP ?                                      
   IUNSCR =        1    unscreen: 0-lin 1-nonlin 2-no                           
   RPACOR =    2.330    partial core radius                                     
   POMASS =  183.850; ZVAL   =    6.000    mass and valenz                      
   RCORE  =    2.750    outmost cutoff radius                                   
   RWIGS  =    2.750; RWIGS  =    1.455    wigner-seitz radius (au A)           
   ENMAX  =  223.057; ENMIN  =  167.293 eV                                      
   RCLOC  =    2.147    cutoff for local pot                                    
   LCOR   =        T    correct aug charges                                     
   LPAW   =        T    paw PP                                                  
   EAUG   =  373.438                                                            
   DEXC   =    0.000                                                            
   RMAX   =    2.801    core radius for proj-oper                               
   RAUG   =    1.300    factor for augmentation sphere                          
   RDEP   =    2.886    radius for radial grids                                 
   RDEPT  =    2.230    core radius for aug-charge                              
                                                                                
   Atomic configuration                                                         
   16 entries                                                                   
     n  l   j            E        occ.                                          
     1  0  0.50    -69465.5836   2.0000                                         
     2  0  0.50    -11986.2642   2.0000                                         
     2  1  1.50    -10479.8616   6.0000                                         
     3  0  0.50     -2759.0758   2.0000                                         
     3  1  1.50     -2313.1857   6.0000                                         
     3  2  2.50     -1801.1185  10.0000                                         
     4  0  0.50      -567.6791   2.0000                                         
     4  1  1.50      -421.4694   6.0000                                         
     4  2  2.50      -236.3473  10.0000                                         
     4  3  3.50       -31.2666  14.0000                                         
     5  0  0.50       -77.1085   2.0000                                         
     5  1  1.50       -41.3856   6.0000                                         
     5  2  2.50        -3.3185   5.0000                                         
     6  0  0.50        -5.1438   1.0000                                         
     6  1  0.50        -3.8096   0.0000                                         
     5  3  2.50        -1.3606   0.0000                                         
   Description                                                                  
     l       E           TYP  RCUT    TYP  RCUT                                 
     2     -3.3185288     23  2.500                                             
     2     -1.5965414     23  2.500                                             
     0     -5.1438054     23  2.500                                             
     0      4.9117504     23  2.500                                             
     1      2.7211652     23  2.750                                             
     1     27.2116520     23  2.750                                             
  local pseudopotential read in
  partial core-charges read in
  partial kinetic energy density read in
  atomic valenz-charges read in
  non local Contribution for L=           2  read in
    real space projection operators read in
  non local Contribution for L=           2  read in
    real space projection operators read in
  non local Contribution for L=           0  read in
    real space projection operators read in
  non local Contribution for L=           0  read in
    real space projection operators read in
  non local Contribution for L=           1  read in
    real space projection operators read in
  non local Contribution for L=           1  read in
    real space projection operators read in
    PAW grid and wavefunctions read in
 
   number of l-projection  operators is LMAX  =           6
   number of lm-projection operators is LMMAX =          18
 
 Optimization of the real space projectors (new method)

 maximal supplied QI-value         = 15.68
 optimisation between [QCUT,QGAM] = [ 10.20, 20.39] = [ 29.11,116.42] Ry 
 Optimized for a Real-space Cutoff    1.60 Angstroem

   l    n(q)    QCUT    max X(q) W(low)/X(q) W(high)/X(q)  e(spline) 
   0     10    10.195    10.201    0.19E-04    0.50E-05    0.39E-07
   0     10    10.195     8.174    0.27E-04    0.89E-05    0.77E-07
   1      9    10.195     3.488    0.83E-04    0.69E-04    0.10E-06
   1      9    10.195     4.917    0.46E-03    0.32E-03    0.50E-06
   2      9    10.195   153.744    0.18E-03    0.91E-03    0.79E-06
   2      9    10.195   126.342    0.18E-03    0.90E-03    0.79E-06
 Optimization of the real space projectors (new method)

 maximal supplied QI-value         = 13.61
 optimisation between [QCUT,QGAM] = [ 10.20, 20.41] = [ 29.16,116.64] Ry 
 Optimized for a Real-space Cutoff    1.55 Angstroem

   l    n(q)    QCUT    max X(q) W(low)/X(q) W(high)/X(q)  e(spline) 
   2      9    10.205    80.908    0.50E-03    0.10E-02    0.77E-06
   2      9    10.205    79.000    0.50E-03    0.10E-02    0.77E-06
   0      9    10.205    52.066    0.67E-04    0.52E-04    0.18E-06
   0      9    10.205    24.514    0.55E-04    0.43E-04    0.15E-06
   1      9    10.205    16.033    0.32E-03    0.32E-03    0.31E-06
   1      9    10.205    11.179    0.26E-03    0.25E-03    0.25E-06
 Optimization of the real space projectors (new method)

 maximal supplied QI-value         = 12.85
 optimisation between [QCUT,QGAM] = [ 10.15, 20.43] = [ 28.86,116.90] Ry 
 Optimized for a Real-space Cutoff    1.65 Angstroem

   l    n(q)    QCUT    max X(q) W(low)/X(q) W(high)/X(q)  e(spline) 
   2      9    10.152    62.315    0.60E-04    0.31E-03    0.56E-06
   2      9    10.152    52.185    0.60E-04    0.31E-03    0.56E-06
   0     10    10.152   103.837    0.42E-04    0.36E-04    0.14E-06
   0     10    10.152    59.728    0.37E-04    0.32E-04    0.13E-06
   1     10    10.152    13.958    0.22E-03    0.17E-03    0.20E-06
   1     10    10.152     8.441    0.16E-03    0.13E-03    0.14E-06
 Optimization of the real space projectors (new method)

 maximal supplied QI-value         = 13.42
 optimisation between [QCUT,QGAM] = [ 10.20, 20.39] = [ 29.12,116.47] Ry 
 Optimized for a Real-space Cutoff    1.60 Angstroem

   l    n(q)    QCUT    max X(q) W(low)/X(q) W(high)/X(q)  e(spline) 
   2      9    10.197    49.363    0.30E-03    0.51E-03    0.44E-06
   2      9    10.197    47.669    0.29E-03    0.50E-03    0.43E-06
   0     10    10.197    26.374    0.13E-03    0.16E-03    0.99E-07
   0     10    10.197    11.549    0.10E-03    0.13E-03    0.84E-07
   1      9    10.197     9.492    0.22E-04    0.44E-04    0.50E-07
 Optimization of the real space projectors (new method)

 maximal supplied QI-value         = 13.61
 optimisation between [QCUT,QGAM] = [ 10.20, 20.41] = [ 29.16,116.64] Ry 
 Optimized for a Real-space Cutoff    1.55 Angstroem

   l    n(q)    QCUT    max X(q) W(low)/X(q) W(high)/X(q)  e(spline) 
   2      9    10.205   130.855    0.41E-03    0.84E-03    0.64E-06
   2      9    10.205   114.007    0.41E-03    0.84E-03    0.64E-06
   0      9    10.205    84.709    0.58E-04    0.61E-04    0.12E-06
   0      9    10.205    49.163    0.53E-04    0.55E-04    0.11E-06
   1      9    10.205    15.765    0.16E-03    0.32E-03    0.27E-06
   1      9    10.205    10.638    0.14E-03    0.24E-03    0.21E-06

 ----------------------------------------------------------------------------- 
|                                                                             |
|  ADVICE TO THIS USER RUNNING 'VASP/VAMP'   (HEAR YOUR MASTER'S VOICE ...):  |
|                                                                             |
|      You enforced a specific xc-type in the INCAR file,                     |
|      a different type was found on the POTCAR file                          |
|          I HOPE YOU KNOW, WHAT YOU ARE  DOING                               |
|                                                                             |
 ----------------------------------------------------------------------------- 

  PAW_PBE Nb_sv 25May2007               :
 energy of atom  1       EATOM=-1555.1913
 kinetic energy error for atom=    0.0212 (will be added to EATOM!!)
  PAW_PBE Mo 08Apr2002                  :
 energy of atom  2       EATOM= -217.5176
 kinetic energy error for atom=    0.0025 (will be added to EATOM!!)
  PAW_PBE Ta 17Jan2003                  :
 energy of atom  3       EATOM= -130.6506
 kinetic energy error for atom=    0.0018 (will be added to EATOM!!)
  PAW_PBE Ti 08Apr2002                  :
 energy of atom  4       EATOM=  -94.7928
 kinetic energy error for atom=    0.0005 (will be added to EATOM!!)
  PAW_PBE W 08Apr2002                   :
 energy of atom  5       EATOM= -204.6103
 kinetic energy error for atom=    0.0024 (will be added to EATOM!!)
 
 
 POSCAR: Nb - Mo - Ta - Ti - W SQS-30 BCC        
  positions in direct lattice
  No initial velocities read in
 exchange correlation table for  LEXCH =       14
   RHO(1)=    0.500       N(1)  =     2000
   RHO(2)=  100.500       N(2)  =     4000

 VTST: version 3.2, (02/03/18)

 CHAIN: initializing optimizer
 
 OPT: Using VASP QUASI-newton optimizer
 CHAIN: Read ICHAIN            0
 
 POSCAR: Nb - Mo - Ta - Ti - W SQS-30 BCC        
  positions in direct lattice
  No initial velocities read in
 


--------------------------------------------------------------------------------------------------------


 ion  position               nearest neighbor table
   1  0.000  0.000  0.000-  12 2.77  13 2.77  14 2.77  21 2.77  24 2.77  28 2.77   4 2.77   5 2.77
                            25 3.20   7 3.20   7 3.20
   2  0.833  0.000  0.333-  28 2.77  29 2.77  23 2.77   4 2.77  13 2.77   9 2.77  14 2.77  27 2.77
                            16 3.20   8 3.20   8 3.20  15 3.20
   3  0.100  0.400  0.600-  27 2.77  10 2.77  21 2.77   5 2.77   9 2.77  11 2.77  17 2.77  22 2.77
                            29 3.20  18 3.20  18 3.20
   4  0.200  0.800  0.200-   8 2.77  25 2.77  17 2.77  22 2.77  26 2.77   7 2.77   2 2.77   1 2.77
                            29 3.20  28 3.20  28 3.20  13 3.20
   5  0.800  0.200  0.800-   6 2.77  15 2.77  18 2.77  30 2.77   3 2.77  19 2.77   7 2.77   1 2.77
                            27 3.20  14 3.20  11 3.20  12 3.20
   6  0.933  0.400  0.933-   5 2.77  11 2.77  14 2.77  21 2.77  26 2.77  10 2.77  13 2.77  25 2.77
                            30 3.20  12 3.20  30 3.20  16 3.20
   7  0.500  0.000  0.000-  14 2.77  24 2.77  12 2.77  13 2.77   4 2.77   5 2.77  21 2.77  28 2.77
                            15 3.20   8 3.20  26 3.20  30 3.20   1 3.20   1 3.20
   8  0.333  0.000  0.333-   4 2.77  23 2.77  14 2.77  28 2.77  29 2.77  27 2.77  13 2.77   9 2.77
                             7 3.20  17 3.20  20 3.20   2 3.20   2 3.20  19 3.20
   9  0.467  0.200  0.467-  18 2.77  15 2.77  16 2.77   3 2.77  19 2.77   2 2.77  20 2.77   8 2.77
                            21 3.20  17 3.20  27 3.20  27 3.20  23 3.20  14 3.20
  10  0.233  0.600  0.733-   3 2.77  23 2.77  12 2.77  30 2.77   6 2.77  18 2.77  29 2.77  24 2.77
                            17 3.20  21 3.20  19 3.20  11 3.20  11 3.20  25 3.20
  11  0.733  0.600  0.733-  18 2.77   6 2.77  29 2.77  24 2.77  30 2.77   3 2.77  23 2.77  12 2.77
                            22 3.20   5 3.20  15 3.20  10 3.20  10 3.20  26 3.20
  12  0.867  0.800  0.867-   1 2.77  25 2.77  26 2.77  10 2.77   7 2.77  19 2.77  15 2.77  11 2.77
                            28 3.20   6 3.20  24 3.20  24 3.20   5 3.20  29 3.20
  13  0.133  0.200  0.133-   1 2.77  16 2.77  30 2.77   2 2.77   7 2.77   6 2.77   8 2.77  20 2.77
                            21 3.20  25 3.20  14 3.20  14 3.20   4 3.20  27 3.20
  14  0.633  0.200  0.133-   7 2.77   6 2.77  20 2.77  30 2.77   1 2.77   8 2.77   2 2.77  16 2.77
                             5 3.20  26 3.20  13 3.20  13 3.20  28 3.20   9 3.20
  15  0.667  0.000  0.667-   5 2.77   9 2.77  21 2.77  24 2.77  27 2.77  29 2.77  12 2.77  23 2.77
                             7 3.20  18 3.20  11 3.20  19 3.20  19 3.20   2 3.20
  16  0.767  0.400  0.267-  22 2.77   9 2.77  13 2.77  17 2.77  25 2.77  26 2.77  27 2.77  14 2.77
                            18 3.20  28 3.20   2 3.20  20 3.20  20 3.20   6 3.20
  17  0.400  0.600  0.400-  23 2.77  20 2.77   4 2.77  28 2.77  29 2.77   3 2.77  16 2.77  18 2.77
                            10 3.20  26 3.20   8 3.20   9 3.20  22 3.20  22 3.20
  18  0.600  0.400  0.600-   9 2.77  11 2.77   5 2.77  21 2.77  27 2.77  22 2.77  10 2.77  17 2.77
                            30 3.20  16 3.20  15 3.20  23 3.20   3 3.20   3 3.20
  19  0.167  0.000  0.667-  21 2.77  27 2.77  12 2.77   5 2.77   9 2.77  23 2.77  24 2.77  29 2.77
                            10 3.20  15 3.20  15 3.20   8 3.20
  20  0.267  0.400  0.267-  17 2.77  27 2.77  14 2.77  22 2.77   9 2.77  25 2.77  26 2.77  13 2.77
                             8 3.20  16 3.20  16 3.20  30 3.20
  21  0.300  0.200  0.800-  30 2.77  19 2.77   3 2.77  18 2.77   6 2.77  15 2.77   1 2.77   7 2.77
                             9 3.20  13 3.20  10 3.20
  22  0.900  0.600  0.400-  29 2.77  16 2.77  28 2.77   4 2.77  23 2.77  20 2.77  18 2.77   3 2.77
                            11 3.20  25 3.20  27 3.20  17 3.20  17 3.20
  23  0.533  0.800  0.533-  17 2.77   8 2.77  10 2.77  22 2.77   2 2.77  19 2.77  11 2.77  15 2.77
                            28 3.20  18 3.20  29 3.20  29 3.20   9 3.20
  24  0.367  0.800  0.867-   7 2.77  26 2.77  25 2.77  11 2.77   1 2.77  15 2.77  19 2.77  10 2.77
                            30 3.20  12 3.20  12 3.20
  25  0.067  0.600  0.067-   4 2.77  12 2.77  24 2.77  28 2.77  16 2.77  20 2.77  30 2.77   6 2.77
                            22 3.20  26 3.20   1 3.20  13 3.20  26 3.20  10 3.20
  26  0.567  0.600  0.067-  28 2.77  12 2.77  24 2.77   6 2.77   4 2.77  16 2.77  20 2.77  30 2.77
                            17 3.20  25 3.20   7 3.20  14 3.20  25 3.20  11 3.20
  27  0.967  0.200  0.467-   3 2.77  19 2.77  18 2.77  20 2.77  15 2.77   8 2.77  16 2.77   2 2.77
                             5 3.20  22 3.20   9 3.20   9 3.20  29 3.20  13 3.20
  28  0.700  0.800  0.200-   2 2.77  26 2.77  22 2.77  17 2.77  25 2.77   1 2.77   8 2.77   7 2.77
                            23 3.20  12 3.20  16 3.20   4 3.20   4 3.20  14 3.20
  29  0.033  0.800  0.533-  22 2.77   2 2.77  17 2.77  11 2.77   8 2.77  15 2.77  10 2.77  19 2.77
                             4 3.20   3 3.20  23 3.20  23 3.20  27 3.20  12 3.20
  30  0.433  0.400  0.933-  21 2.77   5 2.77  11 2.77  10 2.77  14 2.77  13 2.77  25 2.77  26 2.77
                            18 3.20   6 3.20   7 3.20  24 3.20   6 3.20  20 3.20
 

IMPORTANT INFORMATION: All symmetrisations will be switched off!
NOSYMM: (Re-)initialisation of all symmetry stuff for point group C_1.

 
 
 KPOINTS: k-points                                

Automatic generation of k-mesh.
Space group operators:
 irot       det(A)        alpha          n_x          n_y          n_z        tau_x        tau_y        tau_z
    1     1.000000     0.000000     1.000000     0.000000     0.000000     0.000000     0.000000     0.000000
 
 Subroutine IBZKPT returns following result:
 ===========================================
 
 Found     63 irreducible k-points:
 
 Following reciprocal coordinates:
            Coordinates               Weight
  0.000000  0.000000  0.000000      1.000000
  0.200000 -0.000000  0.000000      2.000000
  0.400000 -0.000000  0.000000      2.000000
  0.000000  0.200000  0.000000      2.000000
  0.200000  0.200000  0.000000      2.000000
  0.400000  0.200000  0.000000      2.000000
 -0.400000  0.200000  0.000000      2.000000
 -0.200000  0.200000  0.000000      2.000000
  0.000000  0.400000  0.000000      2.000000
  0.200000  0.400000  0.000000      2.000000
  0.400000  0.400000  0.000000      2.000000
 -0.400000  0.400000  0.000000      2.000000
 -0.200000  0.400000  0.000000      2.000000
  0.000000  0.000000  0.200000      2.000000
  0.200000 -0.000000  0.200000      2.000000
  0.400000 -0.000000  0.200000      2.000000
 -0.400000  0.000000  0.200000      2.000000
 -0.200000  0.000000  0.200000      2.000000
  0.000000  0.200000  0.200000      2.000000
  0.200000  0.200000  0.200000      2.000000
  0.400000  0.200000  0.200000      2.000000
 -0.400000  0.200000  0.200000      2.000000
 -0.200000  0.200000  0.200000      2.000000
  0.000000  0.400000  0.200000      2.000000
  0.200000  0.400000  0.200000      2.000000
  0.400000  0.400000  0.200000      2.000000
 -0.400000  0.400000  0.200000      2.000000
 -0.200000  0.400000  0.200000      2.000000
  0.000000 -0.400000  0.200000      2.000000
  0.200000 -0.400000  0.200000      2.000000
  0.400000 -0.400000  0.200000      2.000000
 -0.400000 -0.400000  0.200000      2.000000
 -0.200000 -0.400000  0.200000      2.000000
  0.000000 -0.200000  0.200000      2.000000
  0.200000 -0.200000  0.200000      2.000000
  0.400000 -0.200000  0.200000      2.000000
 -0.400000 -0.200000  0.200000      2.000000
 -0.200000 -0.200000  0.200000      2.000000
  0.000000  0.000000  0.400000      2.000000
  0.200000  0.000000  0.400000      2.000000
  0.400000 -0.000000  0.400000      2.000000
 -0.400000  0.000000  0.400000      2.000000
 -0.200000  0.000000  0.400000      2.000000
  0.000000  0.200000  0.400000      2.000000
  0.200000  0.200000  0.400000      2.000000
  0.400000  0.200000  0.400000      2.000000
 -0.400000  0.200000  0.400000      2.000000
 -0.200000  0.200000  0.400000      2.000000
  0.000000  0.400000  0.400000      2.000000
  0.200000  0.400000  0.400000      2.000000
  0.400000  0.400000  0.400000      2.000000
 -0.400000  0.400000  0.400000      2.000000
 -0.200000  0.400000  0.400000      2.000000
  0.000000 -0.400000  0.400000      2.000000
  0.200000 -0.400000  0.400000      2.000000
  0.400000 -0.400000  0.400000      2.000000
 -0.400000 -0.400000  0.400000      2.000000
 -0.200000 -0.400000  0.400000      2.000000
  0.000000 -0.200000  0.400000      2.000000
  0.200000 -0.200000  0.400000      2.000000
  0.400000 -0.200000  0.400000      2.000000
 -0.400000 -0.200000  0.400000      2.000000
 -0.200000 -0.200000  0.400000      2.000000
 
 Following cartesian coordinates:
            Coordinates               Weight
  0.000000  0.000000  0.000000      1.000000
 -0.013333 -0.033333  0.100000      2.000000
 -0.026667 -0.066667  0.200000      2.000000
  0.080000  0.000000  0.000000      2.000000
  0.066667 -0.033333  0.100000      2.000000
  0.053333 -0.066667  0.200000      2.000000
  0.106667  0.066667 -0.200000      2.000000
  0.093333  0.033333 -0.100000      2.000000
  0.160000  0.000000  0.000000      2.000000
  0.146667 -0.033333  0.100000      2.000000
  0.133333 -0.066667  0.200000      2.000000
  0.186667  0.066667 -0.200000      2.000000
  0.173333  0.033333 -0.100000      2.000000
 -0.013333  0.066667  0.000000      2.000000
 -0.026667  0.033333  0.100000      2.000000
 -0.040000  0.000000  0.200000      2.000000
  0.013333  0.133333 -0.200000      2.000000
  0.000000  0.100000 -0.100000      2.000000
  0.066667  0.066667  0.000000      2.000000
  0.053333  0.033333  0.100000      2.000000
  0.040000  0.000000  0.200000      2.000000
  0.093333  0.133333 -0.200000      2.000000
  0.080000  0.100000 -0.100000      2.000000
  0.146667  0.066667  0.000000      2.000000
  0.133333  0.033333  0.100000      2.000000
  0.120000  0.000000  0.200000      2.000000
  0.173333  0.133333 -0.200000      2.000000
  0.160000  0.100000 -0.100000      2.000000
 -0.173333  0.066667  0.000000      2.000000
 -0.186667  0.033333  0.100000      2.000000
 -0.200000  0.000000  0.200000      2.000000
 -0.146667  0.133333 -0.200000      2.000000
 -0.160000  0.100000 -0.100000      2.000000
 -0.093333  0.066667  0.000000      2.000000
 -0.106667  0.033333  0.100000      2.000000
 -0.120000  0.000000  0.200000      2.000000
 -0.066667  0.133333 -0.200000      2.000000
 -0.080000  0.100000 -0.100000      2.000000
 -0.026667  0.133333  0.000000      2.000000
 -0.040000  0.100000  0.100000      2.000000
 -0.053333  0.066667  0.200000      2.000000
  0.000000  0.200000 -0.200000      2.000000
 -0.013333  0.166667 -0.100000      2.000000
  0.053333  0.133333  0.000000      2.000000
  0.040000  0.100000  0.100000      2.000000
  0.026667  0.066667  0.200000      2.000000
  0.080000  0.200000 -0.200000      2.000000
  0.066667  0.166667 -0.100000      2.000000
  0.133333  0.133333  0.000000      2.000000
  0.120000  0.100000  0.100000      2.000000
  0.106667  0.066667  0.200000      2.000000
  0.160000  0.200000 -0.200000      2.000000
  0.146667  0.166667 -0.100000      2.000000
 -0.186667  0.133333  0.000000      2.000000
 -0.200000  0.100000  0.100000      2.000000
 -0.213333  0.066667  0.200000      2.000000
 -0.160000  0.200000 -0.200000      2.000000
 -0.173333  0.166667 -0.100000      2.000000
 -0.106667  0.133333  0.000000      2.000000
 -0.120000  0.100000  0.100000      2.000000
 -0.133333  0.066667  0.200000      2.000000
 -0.080000  0.200000 -0.200000      2.000000
 -0.093333  0.166667 -0.100000      2.000000
 


--------------------------------------------------------------------------------------------------------




 Dimension of arrays:
   k-points           NKPTS =     63   k-points in BZ     NKDIM =     63   number of bands    NBANDS=    128
   number of dos      NEDOS =    301   number of ions     NIONS =     30
   non local maximal  LDIM  =      6   non local SUM 2l+1 LMDIM =     18
   total plane-waves  NPLWV =  67200
   max r-space proj   IRMAX =   2615   max aug-charges    IRDMAX=   9641
   dimension x,y,z NGX =    32 NGY =   42 NGZ =   50
   dimension x,y,z NGXF=    64 NGYF=   84 NGZF=  100
   support grid    NGXF=    64 NGYF=   84 NGZF=  100
   ions per type =               6   6   6   6   6
   NGX,Y,Z   is equivalent  to a cutoff of   8.31,  8.40,  8.21 a.u.
   NGXF,Y,Z  is equivalent  to a cutoff of  16.62, 16.80, 16.43 a.u.

 SYSTEM =  Nb - Mo - Ta - Ti - W SQS               
 POSCAR =  Nb - Mo - Ta - Ti - W SQS-30 BCC        

 Startparameter for this run:
   NWRITE =      2    write-flag & timer
   PREC   = normal    normal or accurate (medium, high low for compatibility)
   ISTART =      0    job   : 0-new  1-cont  2-samecut
   ICHARG =      2    charge: 1-file 2-atom 10-const
   ISPIN  =      1    spin polarized calculation?
   LNONCOLLINEAR =      F non collinear calculations
   LSORBIT =      F    spin-orbit coupling
   INIWAV =      1    electr: 0-lowe 1-rand  2-diag
   LASPH  =      F    aspherical Exc in radial PAW
   METAGGA=      F    non-selfconsistent MetaGGA calc.

 Electronic Relaxation 1
   ENCUT  =  400.0 eV  29.40 Ry    5.42 a.u.  10.44 13.56 16.50*2*pi/ulx,y,z
   ENINI  =  400.0     initial cutoff
   ENAUG  =  455.7 eV  augmentation charge cutoff
   NELM   =     60;   NELMIN=  2; NELMDL= -5     # of ELM steps 
   EDIFF  = 0.1E-03   stopping-criterion for ELM
   LREAL  =      T    real-space projection
   NLSPLINE    = F    spline interpolate recip. space projectors
   LCOMPAT=      F    compatible to vasp.4.4
   GGA_COMPAT  = T    GGA compatible to vasp.4.4-vasp.4.6
   LMAXPAW     = -100 max onsite density
   LMAXMIX     =    2 max onsite mixed and CHGCAR
   VOSKOWN=      0    Vosko Wilk Nusair interpolation
   ROPT   =   -0.00050  -0.00050  -0.00050  -0.00050
   ROPT   =   -0.00050
 Ionic relaxation
   EDIFFG = 0.1E-02   stopping-criterion for IOM
   NSW    =      0    number of steps for IOM
   NBLOCK =      1;   KBLOCK =      1    inner block; outer block 
   IBRION =     -1    ionic relax: 0-MD 1-quasi-New 2-CG
   NFREE  =      0    steps in history (QN), initial steepest desc. (CG)
   ISIF   =      2    stress and relaxation
   IWAVPR =     10    prediction:  0-non 1-charg 2-wave 3-comb
   ISYM   =      0    0-nonsym 1-usesym 2-fastsym
   LCORR  =      T    Harris-Foulkes like correction to forces

   POTIM  = 0.5000    time-step for ionic-motion
   TEIN   =    0.0    initial temperature
   TEBEG  =    0.0;   TEEND  =   0.0 temperature during run
   SMASS  =  -3.00    Nose mass-parameter (am)
   estimated Nose-frequenzy (Omega)   =  0.10E-29 period in steps =****** mass=  -0.936E-27a.u.
   SCALEE = 1.0000    scale energy and forces
   NPACO  =    256;   APACO  = 16.0  distance and # of slots for P.C.
   PSTRESS=    0.0 pullay stress

  Mass of Ions in am
   POMASS =  92.91 95.94180.95 47.88183.85
  Ionic Valenz
   ZVAL   =  13.00  6.00  5.00  4.00  6.00
  Atomic Wigner-Seitz radii
   RWIGS  =  -1.00 -1.00 -1.00 -1.00 -1.00
  virtual crystal weights 
   VCA    =   1.00  1.00  1.00  1.00  1.00
   NELECT =     204.0000    total number of electrons
   NUPDOWN=      -1.0000    fix difference up-down

 DOS related values:
   EMIN   =  10.00;   EMAX   =-10.00  energy-range for DOS
   EFERMI =   0.00
   ISMEAR =     1;   SIGMA  =   0.20  broadening in eV -4-tet -1-fermi 0-gaus

 Electronic relaxation 2 (details)
   IALGO  =     38    algorithm
   LDIAG  =      T    sub-space diagonalisation (order eigenvalues)
   LSUBROT=      F    optimize rotation matrix (better conditioning)
   TURBO    =      0    0=normal 1=particle mesh
   IRESTART =      0    0=no restart 2=restart with 2 vectors
   NREBOOT  =      0    no. of reboots
   NMIN     =      0    reboot dimension
   EREF     =   0.00    reference energy to select bands
   IMIX   =      4    mixing-type and parameters
     AMIX     =   0.40;   BMIX     =  1.00
     AMIX_MAG =   1.60;   BMIX_MAG =  1.00
     AMIN     =   0.10
     WC   =   100.;   INIMIX=   1;  MIXPRE=   1;  MAXMIX= -45

 Intra band minimization:
   WEIMIN = 0.0000     energy-eigenvalue tresh-hold
   EBREAK =  0.20E-06  absolut break condition
   DEPER  =   0.30     relativ break condition  

   TIME   =   0.40     timestep for ELM

  volume/ion in A,a.u.               =      16.38       110.56
  Fermi-wavevector in a.u.,A,eV,Ry     =   1.221156  2.307650 20.289307  1.491222
  Thomas-Fermi vector in A             =   2.356348
 
 Write flags
   LWAVE        =      T    write WAVECAR
   LDOWNSAMPLE  =      F    k-point downsampling of WAVECAR
   LCHARG       =      T    write CHGCAR
   LVTOT        =      F    write LOCPOT, total local potential
   LVHAR        =      F    write LOCPOT, Hartree potential only
   LELF         =      F    write electronic localiz. function (ELF)
   LORBIT       =      0    0 simple, 1 ext, 2 COOP (PROOUT), +10 PAW based schemes


 Dipole corrections
   LMONO  =      F    monopole corrections only (constant potential shift)
   LDIPOL =      F    correct potential (dipole corrections)
   IDIPOL =      0    1-x, 2-y, 3-z, 4-all directions 
   EPSILON=  1.0000000 bulk dielectric constant

 Exchange correlation treatment:
   GGA     =    PS    GGA type
   LEXCH   =    14    internal setting for exchange type
   VOSKOWN=      0    Vosko Wilk Nusair interpolation
   LHFCALC =     F    Hartree Fock is set to
   LHFONE  =     F    Hartree Fock one center treatment
   AEXX    =    0.0000 exact exchange contribution

 Linear response parameters
   LEPSILON=     F    determine dielectric tensor
   LRPA    =     F    only Hartree local field effects (RPA)
   LNABLA  =     F    use nabla operator in PAW spheres
   LVEL    =     F    velocity operator in full k-point grid
   LINTERFAST=   F  fast interpolation
   KINTER  =     0    interpolate to denser k-point grid
   CSHIFT  =0.1000    complex shift for real part using Kramers Kronig
   OMEGAMAX=  -1.0    maximum frequency
   DEG_THRESHOLD= 0.2000000E-02 threshold for treating states as degnerate
   RTIME   =   -0.100 relaxation time in fs
  (WPLASMAI=    0.000 imaginary part of plasma frequency in eV, 0.658/RTIME)
   DFIELD  = 0.0000000 0.0000000 0.0000000 field for delta impulse in time
 
 Orbital magnetization related:
   ORBITALMAG=     F  switch on orbital magnetization
   LCHIMAG   =     F  perturbation theory with respect to B field
   DQ        =  0.001000  dq finite difference perturbation B field
   LLRAUG    =     F  two centre corrections for induced B field



--------------------------------------------------------------------------------------------------------


 Static calculation
 charge density and potential will be updated during run
 non-spin polarized calculation
 Variant of blocked Davidson
 Davidson routine will perform the subspace rotation
 perform sub-space diagonalisation
    after iterative eigenvector-optimisation
 modified Broyden-mixing scheme, WC =      100.0
 initial mixing is a Kerker type mixing with AMIX =  0.4000 and BMIX =      1.0000
 Hartree-type preconditioning will be used
 using additional bands           26
 real space projection scheme for non local part
 use partial core corrections
 calculate Harris-corrections to forces 
   (improved forces if not selfconsistent)
 use gradient corrections 
 use of overlap-Matrix (Vanderbilt PP)
 Methfessel and Paxton  Order N= 1 SIGMA  =   0.20


--------------------------------------------------------------------------------------------------------


  energy-cutoff  :      400.00
  volume of cell :      491.52
      direct lattice vectors                 reciprocal lattice vectors
     0.000000000  0.000000000  6.400000000    -0.020833333 -0.052083333  0.156250000
     8.000000000  1.600000000  1.600000000     0.125000000  0.000000000  0.000000000
     0.000000000  9.600000000  3.200000000    -0.020833333  0.104166667  0.000000000

  length of vectors
     6.400000000  8.313843876 10.119288513     0.166014348  0.125000000  0.106229573


 
 k-points in units of 2pi/SCALE and weight: k-points                                
   0.00000000  0.00000000  0.00000000       0.008
  -0.01333333 -0.03333333  0.10000000       0.016
  -0.02666667 -0.06666667  0.20000000       0.016
   0.08000000  0.00000000  0.00000000       0.016
   0.06666667 -0.03333333  0.10000000       0.016
   0.05333333 -0.06666667  0.20000000       0.016
   0.10666667  0.06666667 -0.20000000       0.016
   0.09333333  0.03333333 -0.10000000       0.016
   0.16000000  0.00000000  0.00000000       0.016
   0.14666667 -0.03333333  0.10000000       0.016
   0.13333333 -0.06666667  0.20000000       0.016
   0.18666667  0.06666667 -0.20000000       0.016
   0.17333333  0.03333333 -0.10000000       0.016
  -0.01333333  0.06666667  0.00000000       0.016
  -0.02666667  0.03333333  0.10000000       0.016
  -0.04000000  0.00000000  0.20000000       0.016
   0.01333333  0.13333333 -0.20000000       0.016
   0.00000000  0.10000000 -0.10000000       0.016
   0.06666667  0.06666667  0.00000000       0.016
   0.05333333  0.03333333  0.10000000       0.016
   0.04000000  0.00000000  0.20000000       0.016
   0.09333333  0.13333333 -0.20000000       0.016
   0.08000000  0.10000000 -0.10000000       0.016
   0.14666667  0.06666667  0.00000000       0.016
   0.13333333  0.03333333  0.10000000       0.016
   0.12000000  0.00000000  0.20000000       0.016
   0.17333333  0.13333333 -0.20000000       0.016
   0.16000000  0.10000000 -0.10000000       0.016
  -0.17333333  0.06666667  0.00000000       0.016
  -0.18666667  0.03333333  0.10000000       0.016
  -0.20000000  0.00000000  0.20000000       0.016
  -0.14666667  0.13333333 -0.20000000       0.016
  -0.16000000  0.10000000 -0.10000000       0.016
  -0.09333333  0.06666667  0.00000000       0.016
  -0.10666667  0.03333333  0.10000000       0.016
  -0.12000000  0.00000000  0.20000000       0.016
  -0.06666667  0.13333333 -0.20000000       0.016
  -0.08000000  0.10000000 -0.10000000       0.016
  -0.02666667  0.13333333  0.00000000       0.016
  -0.04000000  0.10000000  0.10000000       0.016
  -0.05333333  0.06666667  0.20000000       0.016
   0.00000000  0.20000000 -0.20000000       0.016
  -0.01333333  0.16666667 -0.10000000       0.016
   0.05333333  0.13333333  0.00000000       0.016
   0.04000000  0.10000000  0.10000000       0.016
   0.02666667  0.06666667  0.20000000       0.016
   0.08000000  0.20000000 -0.20000000       0.016
   0.06666667  0.16666667 -0.10000000       0.016
   0.13333333  0.13333333  0.00000000       0.016
   0.12000000  0.10000000  0.10000000       0.016
   0.10666667  0.06666667  0.20000000       0.016
   0.16000000  0.20000000 -0.20000000       0.016
   0.14666667  0.16666667 -0.10000000       0.016
  -0.18666667  0.13333333  0.00000000       0.016
  -0.20000000  0.10000000  0.10000000       0.016
  -0.21333333  0.06666667  0.20000000       0.016
  -0.16000000  0.20000000 -0.20000000       0.016
  -0.17333333  0.16666667 -0.10000000       0.016
  -0.10666667  0.13333333  0.00000000       0.016
  -0.12000000  0.10000000  0.10000000       0.016
  -0.13333333  0.06666667  0.20000000       0.016
  -0.08000000  0.20000000 -0.20000000       0.016
  -0.09333333  0.16666667 -0.10000000       0.016
 
 k-points in reciprocal lattice and weights: k-points                                
   0.00000000  0.00000000  0.00000000       0.008
   0.20000000 -0.00000000  0.00000000       0.016
   0.40000000 -0.00000000  0.00000000       0.016
   0.00000000  0.20000000  0.00000000       0.016
   0.20000000  0.20000000  0.00000000       0.016
   0.40000000  0.20000000  0.00000000       0.016
  -0.40000000  0.20000000  0.00000000       0.016
  -0.20000000  0.20000000  0.00000000       0.016
   0.00000000  0.40000000  0.00000000       0.016
   0.20000000  0.40000000  0.00000000       0.016
   0.40000000  0.40000000  0.00000000       0.016
  -0.40000000  0.40000000  0.00000000       0.016
  -0.20000000  0.40000000  0.00000000       0.016
   0.00000000  0.00000000  0.20000000       0.016
   0.20000000 -0.00000000  0.20000000       0.016
   0.40000000 -0.00000000  0.20000000       0.016
  -0.40000000  0.00000000  0.20000000       0.016
  -0.20000000  0.00000000  0.20000000       0.016
   0.00000000  0.20000000  0.20000000       0.016
   0.20000000  0.20000000  0.20000000       0.016
   0.40000000  0.20000000  0.20000000       0.016
  -0.40000000  0.20000000  0.20000000       0.016
  -0.20000000  0.20000000  0.20000000       0.016
   0.00000000  0.40000000  0.20000000       0.016
   0.20000000  0.40000000  0.20000000       0.016
   0.40000000  0.40000000  0.20000000       0.016
  -0.40000000  0.40000000  0.20000000       0.016
  -0.20000000  0.40000000  0.20000000       0.016
   0.00000000 -0.40000000  0.20000000       0.016
   0.20000000 -0.40000000  0.20000000       0.016
   0.40000000 -0.40000000  0.20000000       0.016
  -0.40000000 -0.40000000  0.20000000       0.016
  -0.20000000 -0.40000000  0.20000000       0.016
   0.00000000 -0.20000000  0.20000000       0.016
   0.20000000 -0.20000000  0.20000000       0.016
   0.40000000 -0.20000000  0.20000000       0.016
  -0.40000000 -0.20000000  0.20000000       0.016
  -0.20000000 -0.20000000  0.20000000       0.016
   0.00000000  0.00000000  0.40000000       0.016
   0.20000000  0.00000000  0.40000000       0.016
   0.40000000 -0.00000000  0.40000000       0.016
  -0.40000000  0.00000000  0.40000000       0.016
  -0.20000000  0.00000000  0.40000000       0.016
   0.00000000  0.20000000  0.40000000       0.016
   0.20000000  0.20000000  0.40000000       0.016
   0.40000000  0.20000000  0.40000000       0.016
  -0.40000000  0.20000000  0.40000000       0.016
  -0.20000000  0.20000000  0.40000000       0.016
   0.00000000  0.40000000  0.40000000       0.016
   0.20000000  0.40000000  0.40000000       0.016
   0.40000000  0.40000000  0.40000000       0.016
  -0.40000000  0.40000000  0.40000000       0.016
  -0.20000000  0.40000000  0.40000000       0.016
   0.00000000 -0.40000000  0.40000000       0.016
   0.20000000 -0.40000000  0.40000000       0.016
   0.40000000 -0.40000000  0.40000000       0.016
  -0.40000000 -0.40000000  0.40000000       0.016
  -0.20000000 -0.40000000  0.40000000       0.016
   0.00000000 -0.20000000  0.40000000       0.016
   0.20000000 -0.20000000  0.40000000       0.016
   0.40000000 -0.20000000  0.40000000       0.016
  -0.40000000 -0.20000000  0.40000000       0.016
  -0.20000000 -0.20000000  0.40000000       0.016
 
 position of ions in fractional coordinates (direct lattice) 
   0.00000000  0.00000000  0.00000000
   0.83333333  0.00000000  0.33333333
   0.10000000  0.40000000  0.60000000
   0.20000000  0.80000000  0.20000000
   0.80000000  0.20000000  0.80000000
   0.93333333  0.40000000  0.93333333
   0.50000000  0.00000000  0.00000000
   0.33333333  0.00000000  0.33333333
   0.46666667  0.20000000  0.46666667
   0.23333333  0.60000000  0.73333333
   0.73333333  0.60000000  0.73333333
   0.86666667  0.80000000  0.86666667
   0.13333333  0.20000000  0.13333333
   0.63333333  0.20000000  0.13333333
   0.66666667  0.00000000  0.66666667
   0.76666667  0.40000000  0.26666667
   0.40000000  0.60000000  0.40000000
   0.60000000  0.40000000  0.60000000
   0.16666667  0.00000000  0.66666667
   0.26666667  0.40000000  0.26666667
   0.30000000  0.20000000  0.80000000
   0.90000000  0.60000000  0.40000000
   0.53333333  0.80000000  0.53333333
   0.36666667  0.80000000  0.86666667
   0.06666667  0.60000000  0.06666667
   0.56666667  0.60000000  0.06666667
   0.96666667  0.20000000  0.46666667
   0.70000000  0.80000000  0.20000000
   0.03333333  0.80000000  0.53333333
   0.43333333  0.40000000  0.93333333
 
 position of ions in cartesian coordinates  (Angst):
   0.00000000  0.00000000  0.00000000
   0.00000000  3.19999997  6.39999997
   3.20000000  6.40000000  3.20000000
   6.40000000  3.20000000  3.20000000
   1.60000000  8.00000000  8.00000000
   3.20000000  9.59999997  9.59999997
   0.00000000  0.00000000  3.20000000
   0.00000000  3.19999997  3.19999997
   1.60000000  4.80000003  4.80000003
   4.80000000  7.99999997  4.79999997
   4.80000000  7.99999997  7.99999997
   6.40000000  9.60000003  9.60000003
   1.60000000  1.59999997  1.59999997
   1.60000000  1.59999997  4.79999997
   0.00000000  6.40000003  6.40000003
   3.20000000  3.20000003  6.40000003
   4.80000000  4.80000000  4.80000000
   3.20000000  6.40000000  6.40000000
   0.00000000  6.40000003  3.20000003
   3.20000000  3.20000003  3.20000003
   1.60000000  8.00000000  4.80000000
   4.80000000  4.80000000  8.00000000
   6.40000000  6.39999997  6.39999997
   6.40000000  9.60000003  6.40000003
   4.80000000  1.60000003  1.60000003
   4.80000000  1.60000003  4.80000003
   1.60000000  4.80000003  8.00000003
   6.40000000  3.20000000  6.40000000
   6.40000000  6.39999997  3.19999997
   3.20000000  9.59999997  6.39999997
 


--------------------------------------------------------------------------------------------------------


 k-point  1 :   0.0000 0.0000 0.0000  plane waves:    8945
 k-point  2 :   0.2000-0.0000 0.0000  plane waves:    8954
 k-point  3 :   0.4000-0.0000 0.0000  plane waves:    8922
 k-point  4 :   0.0000 0.2000 0.0000  plane waves:    8960
 k-point  5 :   0.2000 0.2000 0.0000  plane waves:    8949
 k-point  6 :   0.4000 0.2000 0.0000  plane waves:    8927
 k-point  7 :  -0.4000 0.2000 0.0000  plane waves:    8916
 k-point  8 :  -0.2000 0.2000 0.0000  plane waves:    8938
 k-point  9 :   0.0000 0.4000 0.0000  plane waves:    8934
 k-point 10 :   0.2000 0.4000 0.0000  plane waves:    8934
 k-point 11 :   0.4000 0.4000 0.0000  plane waves:    8917
 k-point 12 :  -0.4000 0.4000 0.0000  plane waves:    8920
 k-point 13 :  -0.2000 0.4000 0.0000  plane waves:    8912
 k-point 14 :   0.0000 0.0000 0.2000  plane waves:    8951
 k-point 15 :   0.2000-0.0000 0.2000  plane waves:    8937
 k-point 16 :   0.4000-0.0000 0.2000  plane waves:    8936
 k-point 17 :  -0.4000 0.0000 0.2000  plane waves:    8910
 k-point 18 :  -0.2000 0.0000 0.2000  plane waves:    8934
 k-point 19 :   0.0000 0.2000 0.2000  plane waves:    8967
 k-point 20 :   0.2000 0.2000 0.2000  plane waves:    8953
 k-point 21 :   0.4000 0.2000 0.2000  plane waves:    8942
 k-point 22 :  -0.4000 0.2000 0.2000  plane waves:    8915
 k-point 23 :  -0.2000 0.2000 0.2000  plane waves:    8939
 k-point 24 :   0.0000 0.4000 0.2000  plane waves:    8934
 k-point 25 :   0.2000 0.4000 0.2000  plane waves:    8945
 k-point 26 :   0.4000 0.4000 0.2000  plane waves:    8924
 k-point 27 :  -0.4000 0.4000 0.2000  plane waves:    8908
 k-point 28 :  -0.2000 0.4000 0.2000  plane waves:    8915
 k-point 29 :   0.0000-0.4000 0.2000  plane waves:    8928
 k-point 30 :   0.2000-0.4000 0.2000  plane waves:    8924
 k-point 31 :   0.4000-0.4000 0.2000  plane waves:    8923
 k-point 32 :  -0.4000-0.4000 0.2000  plane waves:    8912
 k-point 33 :  -0.2000-0.4000 0.2000  plane waves:    8928
 k-point 34 :   0.0000-0.2000 0.2000  plane waves:    8957
 k-point 35 :   0.2000-0.2000 0.2000  plane waves:    8934
 k-point 36 :   0.4000-0.2000 0.2000  plane waves:    8921
 k-point 37 :  -0.4000-0.2000 0.2000  plane waves:    8919
 k-point 38 :  -0.2000-0.2000 0.2000  plane waves:    8940
 k-point 39 :   0.0000 0.0000 0.4000  plane waves:    8938
 k-point 40 :   0.2000 0.0000 0.4000  plane waves:    8927
 k-point 41 :   0.4000-0.0000 0.4000  plane waves:    8918
 k-point 42 :  -0.4000 0.0000 0.4000  plane waves:    8929
 k-point 43 :  -0.2000 0.0000 0.4000  plane waves:    8932
 k-point 44 :   0.0000 0.2000 0.4000  plane waves:    8938
 k-point 45 :   0.2000 0.2000 0.4000  plane waves:    8932
 k-point 46 :   0.4000 0.2000 0.4000  plane waves:    8908
 k-point 47 :  -0.4000 0.2000 0.4000  plane waves:    8921
 k-point 48 :  -0.2000 0.2000 0.4000  plane waves:    8943
 k-point 49 :   0.0000 0.4000 0.4000  plane waves:    8911
 k-point 50 :   0.2000 0.4000 0.4000  plane waves:    8926
 k-point 51 :   0.4000 0.4000 0.4000  plane waves:    8915
 k-point 52 :  -0.4000 0.4000 0.4000  plane waves:    8912
 k-point 53 :  -0.2000 0.4000 0.4000  plane waves:    8923
 k-point 54 :   0.0000-0.4000 0.4000  plane waves:    8917
 k-point 55 :   0.2000-0.4000 0.4000  plane waves:    8929
 k-point 56 :   0.4000-0.4000 0.4000  plane waves:    8932
 k-point 57 :  -0.4000-0.4000 0.4000  plane waves:    8900
 k-point 58 :  -0.2000-0.4000 0.4000  plane waves:    8920
 k-point 59 :   0.0000-0.2000 0.4000  plane waves:    8944
 k-point 60 :   0.2000-0.2000 0.4000  plane waves:    8929
 k-point 61 :   0.4000-0.2000 0.4000  plane waves:    8920
 k-point 62 :  -0.4000-0.2000 0.4000  plane waves:    8888
 k-point 63 :  -0.2000-0.2000 0.4000  plane waves:    8929

 maximum and minimum number of plane-waves per node :      2261     2177

 maximum number of plane-waves:      8967
 maximum index in each direction: 
   IXMAX=   10   IYMAX=   13   IZMAX=   16
   IXMIN=  -10   IYMIN=  -13   IZMIN=  -16


 real space projection operators:
  total allocation   :       9141.66 KBytes
  max/ min on nodes  :       2290.36       2280.28


 parallel 3D FFT for wavefunctions:
    minimum data exchange during FFTs selected (reduces bandwidth)
 parallel 3D FFT for charge:
    minimum data exchange during FFTs selected (reduces bandwidth)


 total amount of memory used by VASP MPI-rank0    76234. kBytes
=======================================================================

   base      :      30000. kBytes
   nonlr-proj:       4134. kBytes
   fftplans  :       1097. kBytes
   grid      :       2043. kBytes
   one-center:        124. kBytes
   wavefun   :      38836. kBytes
 
     INWAV:  cpu time    0.0000: real time    0.0002
 Broyden mixing: mesh for mixing (old mesh)
   NGX = 21   NGY = 27   NGZ = 33
  (NGX  = 64   NGY  = 84   NGZ  =100)
  gives a total of  18711 points

 initial charge density was supplied:
 charge density of overlapping atoms calculated
 number of electron     204.0000000 magnetization 
 keeping initial charge density in first step


--------------------------------------------------------------------------------------------------------


 Maximum index for non-local projection operator          631
 Maximum index for augmentation-charges          502 (set IRDMAX)


--------------------------------------------------------------------------------------------------------


 First call to EWALD:  gamma=   0.225
 Maximum number of real-space cells 3x 3x 2
 Maximum number of reciprocal cells 2x 3x 3

    FEWALD:  cpu time    0.0022: real time    0.0023


--------------------------------------- Iteration      1(   1)  ---------------------------------------


    POTLOK:  cpu time    0.0136: real time    0.0181
    SETDIJ:  cpu time    0.0039: real time    0.0039
     EDDAV:  cpu time   11.0921: real time   11.1333
       DOS:  cpu time    0.0041: real time    0.0042
    --------------------------------------------
      LOOP:  cpu time   11.1138: real time   11.1595

 eigenvalue-minimisations  : 16240
 total energy-change (2. order) : 0.1613100E+04  (-0.7533220E+04)
 number of electron     204.0000000 magnetization 
 augmentation part      204.0000000 magnetization 

 Free energy of the ion-electron system (eV)
  ---------------------------------------------------
  alpha Z        PSCENC =      1368.51138618
  Ewald energy   TEWEN  =    -12054.59604297
  -Hartree energ DENC   =     -3014.57032848
  -exchange      EXHF   =         0.00000000
  -V(xc)+E(xc)   XCENC  =      -903.23493818
  PAW double counting   =     12303.85264859   -10739.97191893
  entropy T*S    EENTRO =        -0.00220503
  eigenvalues    EBANDS =      1442.25917732
  atomic energy  EATOM  =     13210.85262565
  Solvation  Ediel_sol  =         0.00000000
  ---------------------------------------------------
  free energy    TOTEN  =      1613.10040413 eV

  energy without entropy =     1613.10260917  energy(sigma->0) =     1613.10113914


--------------------------------------------------------------------------------------------------------




--------------------------------------- Iteration      1(   2)  ---------------------------------------


     EDDAV:  cpu time   10.8876: real time   10.9039
       DOS:  cpu time    0.0038: real time    0.0038
    --------------------------------------------
      LOOP:  cpu time   10.8913: real time   10.9077

 eigenvalue-minimisations  : 16128
 total energy-change (2. order) :-0.1664727E+04  (-0.1600659E+04)
 number of electron     204.0000000 magnetization 
 augmentation part      204.0000000 magnetization 

 Free energy of the ion-electron system (eV)
  ---------------------------------------------------
  alpha Z        PSCENC =      1368.51138618
  Ewald energy   TEWEN  =    -12054.59604297
  -Hartree energ DENC   =     -3014.57032848
  -exchange      EXHF   =         0.00000000
  -V(xc)+E(xc)   XCENC  =      -903.23493818
  PAW double counting   =     12303.85264859   -10739.97191893
  entropy T*S    EENTRO =        -0.00732671
  eigenvalues    EBANDS =      -222.46288772
  atomic energy  EATOM  =     13210.85262565
  Solvation  Ediel_sol  =         0.00000000
  ---------------------------------------------------
  free energy    TOTEN  =       -51.62678258 eV

  energy without entropy =      -51.61945587  energy(sigma->0) =      -51.62434034


--------------------------------------------------------------------------------------------------------




--------------------------------------- Iteration      1(   3)  ---------------------------------------


     EDDAV:  cpu time   17.3006: real time   17.3344
       DOS:  cpu time    0.0040: real time    0.0040
    --------------------------------------------
      LOOP:  cpu time   17.3046: real time   17.3384

 eigenvalue-minimisations  : 28320
 total energy-change (2. order) :-0.2832990E+03  (-0.2659317E+03)
 number of electron     204.0000000 magnetization 
 augmentation part      204.0000000 magnetization 

 Free energy of the ion-electron system (eV)
  ---------------------------------------------------
  alpha Z        PSCENC =      1368.51138618
  Ewald energy   TEWEN  =    -12054.59604297
  -Hartree energ DENC   =     -3014.57032848
  -exchange      EXHF   =         0.00000000
  -V(xc)+E(xc)   XCENC  =      -903.23493818
  PAW double counting   =     12303.85264859   -10739.97191893
  entropy T*S    EENTRO =         0.00632900
  eigenvalues    EBANDS =      -505.77558588
  atomic energy  EATOM  =     13210.85262565
  Solvation  Ediel_sol  =         0.00000000
  ---------------------------------------------------
  free energy    TOTEN  =      -334.92582503 eV

  energy without entropy =     -334.93215403  energy(sigma->0) =     -334.92793470


--------------------------------------------------------------------------------------------------------




--------------------------------------- Iteration      1(   4)  ---------------------------------------


     EDDAV:  cpu time   16.0114: real time   16.0360
       DOS:  cpu time    0.0039: real time    0.0039
    --------------------------------------------
      LOOP:  cpu time   16.0153: real time   16.0399

 eigenvalue-minimisations  : 25776
 total energy-change (2. order) :-0.3169349E+02  (-0.2980215E+02)
 number of electron     204.0000000 magnetization 
 augmentation part      204.0000000 magnetization 

 Free energy of the ion-electron system (eV)
  ---------------------------------------------------
  alpha Z        PSCENC =      1368.51138618
  Ewald energy   TEWEN  =    -12054.59604297
  -Hartree energ DENC   =     -3014.57032848
  -exchange      EXHF   =         0.00000000
  -V(xc)+E(xc)   XCENC  =      -903.23493818
  PAW double counting   =     12303.85264859   -10739.97191893
  entropy T*S    EENTRO =         0.00800782
  eigenvalues    EBANDS =      -537.47075067
  atomic energy  EATOM  =     13210.85262565
  Solvation  Ediel_sol  =         0.00000000
  ---------------------------------------------------
  free energy    TOTEN  =      -366.61931100 eV

  energy without entropy =     -366.62731882  energy(sigma->0) =     -366.62198028


--------------------------------------------------------------------------------------------------------




--------------------------------------- Iteration      1(   5)  ---------------------------------------


     EDDAV:  cpu time   17.3947: real time   17.4238
       DOS:  cpu time    0.0040: real time    0.0040
    CHARGE:  cpu time    0.3143: real time    0.3146
    MIXING:  cpu time    0.0013: real time    0.0013
    --------------------------------------------
      LOOP:  cpu time   17.7142: real time   17.7438

 eigenvalue-minimisations  : 28312
 total energy-change (2. order) :-0.2642023E+01  (-0.2604875E+01)
 number of electron     204.0000016 magnetization 
 augmentation part       23.0711220 magnetization 

 Broyden mixing:
  rms(total) = 0.78566E+01    rms(broyden)= 0.78566E+01
  rms(prec ) = 0.83126E+01
  weight for this iteration     100.00

 Free energy of the ion-electron system (eV)
  ---------------------------------------------------
  alpha Z        PSCENC =      1368.51138618
  Ewald energy   TEWEN  =    -12054.59604297
  -Hartree energ DENC   =     -3014.57032848
  -exchange      EXHF   =         0.00000000
  -V(xc)+E(xc)   XCENC  =      -903.23493818
  PAW double counting   =     12303.85264859   -10739.97191893
  entropy T*S    EENTRO =         0.00982307
  eigenvalues    EBANDS =      -540.11458902
  atomic energy  EATOM  =     13210.85262565
  Solvation  Ediel_sol  =         0.00000000
  ---------------------------------------------------
  free energy    TOTEN  =      -369.26133410 eV

  energy without entropy =     -369.27115717  energy(sigma->0) =     -369.26460846


--------------------------------------------------------------------------------------------------------




--------------------------------------- Iteration      1(   6)  ---------------------------------------


    POTLOK:  cpu time    0.0190: real time    0.0193
    SETDIJ:  cpu time    0.0067: real time    0.0067
     EDDAV:  cpu time   14.9032: real time   14.9253
       DOS:  cpu time    0.0040: real time    0.0040
    CHARGE:  cpu time    0.3157: real time    0.3161
    MIXING:  cpu time    0.0008: real time    0.0009
    --------------------------------------------
      LOOP:  cpu time   15.2494: real time   15.2724

 eigenvalue-minimisations  : 23544
 total energy-change (2. order) : 0.1131160E+02  (-0.1059345E+02)
 number of electron     204.0000016 magnetization 
 augmentation part       30.3561415 magnetization 

 Broyden mixing:
  rms(total) = 0.37360E+01    rms(broyden)= 0.37360E+01
  rms(prec ) = 0.52847E+01
  weight for this iteration     100.00

 eigenvalues of (default mixing * dielectric matrix)
  average eigenvalue GAMMA=   1.3253
  1.3253

 Free energy of the ion-electron system (eV)
  ---------------------------------------------------
  alpha Z        PSCENC =      1368.51138618
  Ewald energy   TEWEN  =    -12054.59604297
  -Hartree energ DENC   =     -2933.46314239
  -exchange      EXHF   =         0.00000000
  -V(xc)+E(xc)   XCENC  =      -900.78840182
  PAW double counting   =     16334.90539400   -14778.23808364
  entropy T*S    EENTRO =        -0.00665950
  eigenvalues    EBANDS =      -605.12680753
  atomic energy  EATOM  =     13210.85262565
  Solvation  Ediel_sol  =         0.00000000
  ---------------------------------------------------
  free energy    TOTEN  =      -357.94973201 eV

  energy without entropy =     -357.94307251  energy(sigma->0) =     -357.94751218


--------------------------------------------------------------------------------------------------------




--------------------------------------- Iteration      1(   7)  ---------------------------------------


    POTLOK:  cpu time    0.0184: real time    0.0255
    SETDIJ:  cpu time    0.0065: real time    0.0065
     EDDAV:  cpu time   14.8440: real time   14.8659
       DOS:  cpu time    0.0039: real time    0.0039
    CHARGE:  cpu time    0.3165: real time    0.3168
    MIXING:  cpu time    0.0007: real time    0.0006
    --------------------------------------------
      LOOP:  cpu time   15.1899: real time   15.2192

 eigenvalue-minimisations  : 23472
 total energy-change (2. order) :-0.1405422E+02  (-0.3563180E+02)
 number of electron     204.0000016 magnetization 
 augmentation part       24.5848641 magnetization 

 Broyden mixing:
  rms(total) = 0.27406E+01    rms(broyden)= 0.27406E+01
  rms(prec ) = 0.49598E+01
  weight for this iteration     100.00

 eigenvalues of (default mixing * dielectric matrix)
  average eigenvalue GAMMA=   1.0417
  1.6711  0.4124

 Free energy of the ion-electron system (eV)
  ---------------------------------------------------
  alpha Z        PSCENC =      1368.51138618
  Ewald energy   TEWEN  =    -12054.59604297
  -Hartree energ DENC   =     -2832.85702498
  -exchange      EXHF   =         0.00000000
  -V(xc)+E(xc)   XCENC  =      -901.91551555
  PAW double counting   =     17982.06987497   -16434.61271719
  entropy T*S    EENTRO =         0.00973927
  eigenvalues    EBANDS =      -709.46628104
  atomic energy  EATOM  =     13210.85262565
  Solvation  Ediel_sol  =         0.00000000
  ---------------------------------------------------
  free energy    TOTEN  =      -372.00395567 eV

  energy without entropy =     -372.01369494  energy(sigma->0) =     -372.00720209


--------------------------------------------------------------------------------------------------------




--------------------------------------- Iteration      1(   8)  ---------------------------------------


    POTLOK:  cpu time    0.0095: real time    0.0107
    SETDIJ:  cpu time    0.0033: real time    0.0034
     EDDAV:  cpu time   14.2024: real time   14.2231
       DOS:  cpu time    0.0040: real time    0.0040
    CHARGE:  cpu time    0.3156: real time    0.3160
    MIXING:  cpu time    0.0006: real time    0.0006
    --------------------------------------------
      LOOP:  cpu time   14.5354: real time   14.5577

 eigenvalue-minimisations  : 22240
 total energy-change (2. order) : 0.1937928E+02  (-0.3869202E+01)
 number of electron     204.0000016 magnetization 
 augmentation part       25.4590659 magnetization 

 Broyden mixing:
  rms(total) = 0.15050E+01    rms(broyden)= 0.15050E+01
  rms(prec ) = 0.26170E+01
  weight for this iteration     100.00

 eigenvalues of (default mixing * dielectric matrix)
  average eigenvalue GAMMA=   0.9417
  1.8026  0.5112  0.5112

 Free energy of the ion-electron system (eV)
  ---------------------------------------------------
  alpha Z        PSCENC =      1368.51138618
  Ewald energy   TEWEN  =    -12054.59604297
  -Hartree energ DENC   =     -2830.43651023
  -exchange      EXHF   =         0.00000000
  -V(xc)+E(xc)   XCENC  =      -899.89478028
  PAW double counting   =     20006.67546610   -18459.58617260
  entropy T*S    EENTRO =         0.00647302
  eigenvalues    EBANDS =      -694.15711783
  atomic energy  EATOM  =     13210.85262565
  Solvation  Ediel_sol  =         0.00000000
  ---------------------------------------------------
  free energy    TOTEN  =      -352.62467297 eV

  energy without entropy =     -352.63114598  energy(sigma->0) =     -352.62683064


--------------------------------------------------------------------------------------------------------




--------------------------------------- Iteration      1(   9)  ---------------------------------------


    POTLOK:  cpu time    0.0183: real time    0.0217
    SETDIJ:  cpu time    0.0067: real time    0.0067
     EDDAV:  cpu time   14.7683: real time   14.7907
       DOS:  cpu time    0.0040: real time    0.0040
    CHARGE:  cpu time    0.3142: real time    0.3145
    MIXING:  cpu time    0.0007: real time    0.0007
    --------------------------------------------
      LOOP:  cpu time   15.1121: real time   15.1382

 eigenvalue-minimisations  : 23208
 total energy-change (2. order) : 0.5129250E+01  (-0.1066810E+01)
 number of electron     204.0000016 magnetization 
 augmentation part       26.1237957 magnetization 

 Broyden mixing:
  rms(total) = 0.86315E+00    rms(broyden)= 0.86314E+00
  rms(prec ) = 0.15299E+01
  weight for this iteration     100.00

 eigenvalues of (default mixing * dielectric matrix)
  average eigenvalue GAMMA=   0.8699
  1.8590  0.6180  0.6180  0.3848

 Free energy of the ion-electron system (eV)
  ---------------------------------------------------
  alpha Z        PSCENC =      1368.51138618
  Ewald energy   TEWEN  =    -12054.59604297
  -Hartree energ DENC   =     -2839.68101598
  -exchange      EXHF   =         0.00000000
  -V(xc)+E(xc)   XCENC  =      -898.84216137
  PAW double counting   =     20601.45032691   -19052.23873346
  entropy T*S    EENTRO =         0.00181449
  eigenvalues    EBANDS =      -682.95362219
  atomic energy  EATOM  =     13210.85262565
  Solvation  Ediel_sol  =         0.00000000
  ---------------------------------------------------
  free energy    TOTEN  =      -347.49542275 eV

  energy without entropy =     -347.49723724  energy(sigma->0) =     -347.49602758


--------------------------------------------------------------------------------------------------------




--------------------------------------- Iteration      1(  10)  ---------------------------------------


    POTLOK:  cpu time    0.0096: real time    0.0108
    SETDIJ:  cpu time    0.0034: real time    0.0034
     EDDAV:  cpu time   15.4455: real time   15.4681
       DOS:  cpu time    0.0041: real time    0.0041
    CHARGE:  cpu time    0.3148: real time    0.3151
    MIXING:  cpu time    0.0007: real time    0.0007
    --------------------------------------------
      LOOP:  cpu time   15.7780: real time   15.8021

 eigenvalue-minimisations  : 24624
 total energy-change (2. order) : 0.9776356E+00  (-0.5378801E+00)
 number of electron     204.0000015 magnetization 
 augmentation part       26.7865551 magnetization 

 Broyden mixing:
  rms(total) = 0.49375E+00    rms(broyden)= 0.49374E+00
  rms(prec ) = 0.79587E+00
  weight for this iteration     100.00

 eigenvalues of (default mixing * dielectric matrix)
  average eigenvalue GAMMA=   0.8236
  1.9194  0.7071  0.7071  0.4477  0.3367

 Free energy of the ion-electron system (eV)
  ---------------------------------------------------
  alpha Z        PSCENC =      1368.51138618
  Ewald energy   TEWEN  =    -12054.59604297
  -Hartree energ DENC   =     -2844.43502769
  -exchange      EXHF   =         0.00000000
  -V(xc)+E(xc)   XCENC  =      -898.29976480
  PAW double counting   =     20907.25508693   -19356.00996308
  entropy T*S    EENTRO =        -0.00436872
[...]
  band No.  band energies     occupation 
      1     -47.2036      2.00000
      2     -47.1944      2.00000
      3     -47.1585      2.00000
      4     -47.1010      2.00000
      5     -47.0630      2.00000
      6     -46.9972      2.00000
      7     -23.7531      2.00000
      8     -23.6830      2.00000
      9     -23.6201      2.00000
     10     -23.5132      2.00000
     11     -23.4004      2.00000
     12     -23.3829      2.00000
     13     -23.3699      2.00000
     14     -23.3372      2.00000
     15     -23.3206      2.00000
     16     -23.2871      2.00000
     17     -23.2824      2.00000
     18     -23.2635      2.00000
     19     -23.1901      2.00000
     20     -23.1621      2.00000
     21     -23.0596      2.00000
     22     -23.0271      2.00000
     23     -22.9605      2.00000
     24     -22.8197      2.00000
     25       0.1397      2.00000
     26       0.5749      2.00000
     27       1.8093      2.00000
     28       2.2175      2.00000
     29       2.3305      2.00000
     30       2.4857      2.00000
     31       2.5846      2.00000
     32       2.6801      2.00000
     33       2.6989      2.00000
     34       2.7960      2.00000
     35       2.9889      2.00000
     36       3.0459      2.00000
     37       3.1050      2.00000
     38       3.1258      2.00000
     39       3.2486      2.00000
     40       3.2635      2.00000
     41       3.3374      2.00000
     42       3.3796      2.00000
     43       3.4675      2.00000
     44       3.4983      2.00000
     45       3.5399      2.00000
     46       3.5771      2.00000
     47       3.6705      2.00000
     48       3.7441      2.00000
     49       3.8511      2.00000
     50       3.9092      2.00000
     51       3.9613      2.00000
     52       4.0676      2.00000
     53       4.0939      2.00000
     54       4.2074      2.00000
     55       4.2381      2.00000
     56       4.2973      2.00000
     57       4.3590      2.00000
     58       4.3849      2.00000
     59       4.6774      2.00000
     60       4.7228      2.00000
     61       4.7993      2.00000
     62       4.8883      2.00000
     63       4.9205      2.00000
     64       4.9762      2.00000
     65       5.0446      2.00000
     66       5.1198      2.00000
     67       5.1807      2.00000
     68       5.2040      2.00000
     69       5.2343      2.00000
     70       5.2890      2.00000
     71       5.3176      2.00000
     72       5.3371      2.00000
     73       5.3731      2.00000
     74       5.4014      2.00000
     75       5.4854      2.00000
     76       5.5244      2.00000
     77       5.5852      2.00000
     78       5.6526      2.00000
     79       5.7161      2.00000
     80       5.8085      2.00000
     81       5.8472      2.00000
     82       5.8821      2.00000
     83       5.9429      2.00000
     84       5.9668      2.00000
     85       6.0218      2.00000
     86       6.0413      2.00000
     87       6.1073      2.00001
     88       6.1487      2.00003
     89       6.1860      2.00011
     90       6.2423      2.00050
     91       6.2714      2.00103
     92       6.3270      2.00366
     93       6.3617      2.00732
     94       6.3928      2.01284
     95       6.4433      2.02782
     96       6.4952      2.05037
     97       6.5720      2.06992
     98       6.6278      2.01968
     99       6.6564      1.95122
    100       6.7067      1.73631
    101       6.7668      1.32511
    102       6.8708      0.48216
    103       6.8958      0.31877
    104       6.9260      0.16022
    105       6.9947     -0.03646
    106       7.1615     -0.03063
    107       7.2187     -0.01297
    108       7.3137     -0.00195
    109       7.5550     -0.00000
    110       7.6219     -0.00000
    111       7.7392     -0.00000
    112       7.9147     -0.00000
    113       7.9810     -0.00000
    114       8.0643     -0.00000
    115       8.1478     -0.00000
    116       8.2048     -0.00000
    117       8.3035     -0.00000
    118       8.3159     -0.00000
    119       8.4086     -0.00000
    120       8.4699     -0.00000
    121       8.5571     -0.00000
    122       8.6362     -0.00000
    123       8.7743     -0.00000
    124       8.8306     -0.00000
    125       8.8641     -0.00000
    126       8.9127     -0.00000
    127       8.9902     -0.00000
    128       9.0416     -0.00000


--------------------------------------------------------------------------------------------------------


 soft charge-density along one line, spin component           1
         0         1         2         3         4         5         6         7         8         9
 total charge-density along one line
 
 pseudopotential strength for first ion, spin component:           1
  5.536 -20.877  -0.003  -0.001  -0.003   0.006   0.003   0.006
-20.877   9.763  -0.005  -0.002  -0.004   0.000   0.000   0.000
 -0.003  -0.005 -10.460   0.000   0.001   6.708  -0.000  -0.001
 -0.001  -0.002   0.000 -10.459  -0.001  -0.000   6.706   0.001
 -0.003  -0.004   0.001  -0.001 -10.460  -0.001   0.001   6.708
  0.006   0.000   6.708  -0.000  -0.001   7.493   0.000   0.001
  0.003   0.000  -0.000   6.706   0.001   0.000   7.495  -0.001
  0.006   0.000  -0.001   0.001   6.708   0.001  -0.001   7.494
  0.001   0.000  -0.002  -0.000  -0.003   0.003   0.000   0.003
  0.000  -0.000  -0.001  -0.003  -0.000   0.002   0.003   0.000
  0.000   0.000   0.001  -0.002   0.001  -0.002   0.002  -0.002
 -0.000  -0.000  -0.000  -0.003  -0.001   0.000   0.003   0.002
 -0.000   0.000   0.002  -0.000  -0.003  -0.002   0.000   0.003
  0.001   0.000  -0.003  -0.000  -0.004   0.004   0.000   0.004
  0.000  -0.000  -0.001  -0.004  -0.000   0.002   0.004   0.000
  0.001   0.001   0.002  -0.003   0.002  -0.002   0.003  -0.002
 -0.001  -0.000  -0.000  -0.003  -0.001   0.000   0.004   0.002
 -0.000   0.000   0.002  -0.000  -0.004  -0.003   0.000   0.004
 total augmentation occupancy for first ion, spin component:           1
  1.996  -0.035  -0.000   0.000  -0.000  -0.000   0.000   0.000   0.001   0.002   0.001  -0.006   0.000  -0.001  -0.002  -0.001
 -0.035   1.505  -0.002   0.003   0.000   0.006  -0.005   0.006   0.018   0.021  -0.025  -0.002  -0.012  -0.008  -0.013   0.010
 -0.000  -0.002   1.999  -0.000   0.000  -0.024   0.000  -0.000   0.004   0.008   0.004  -0.002   0.006  -0.002  -0.004  -0.003
  0.000   0.003  -0.000   1.998   0.000   0.000  -0.023  -0.001  -0.000  -0.008  -0.003   0.001  -0.001  -0.000   0.004   0.002
 -0.000   0.000   0.000   0.000   1.999  -0.000  -0.001  -0.024  -0.011   0.001   0.002   0.007  -0.006   0.006  -0.000  -0.001
 -0.000   0.006  -0.024   0.000  -0.000   0.070   0.001   0.000  -0.001  -0.020  -0.007   0.007  -0.010   0.001   0.011   0.004
  0.000  -0.005   0.000  -0.023  -0.001   0.001   0.068   0.002   0.002   0.027   0.006   0.005   0.002  -0.001  -0.014   0.000
  0.000   0.006  -0.000  -0.001  -0.024   0.000   0.002   0.071   0.033  -0.000  -0.006  -0.019   0.014  -0.016  -0.001   0.001
  0.001   0.018   0.004  -0.000  -0.011  -0.001   0.002   0.033   3.003   0.019   0.010   0.075   0.002  -1.211  -0.018  -0.001
  0.002   0.021   0.008  -0.008   0.001  -0.020   0.027  -0.000   0.019   3.029   0.009   0.035  -0.001  -0.018  -1.212  -0.008
  0.001  -0.025   0.004  -0.003   0.002  -0.007   0.006  -0.006   0.010   0.009   2.590  -0.016  -0.002  -0.001  -0.008  -1.124
 -0.006  -0.002  -0.002   0.001   0.007   0.007   0.005  -0.019   0.075   0.035  -0.016   3.065  -0.039  -0.032  -0.011   0.006
  0.000  -0.012   0.006  -0.001  -0.006  -0.010   0.002   0.014   0.002  -0.001  -0.002  -0.039   2.622  -0.001   0.010   0.006
 -0.001  -0.008  -0.002  -0.000   0.006   0.001  -0.001  -0.016  -1.211  -0.018  -0.001  -0.032  -0.001   0.503   0.011  -0.001
 -0.002  -0.013  -0.004   0.004  -0.000   0.011  -0.014  -0.001  -0.018  -1.212  -0.008  -0.011   0.010   0.011   0.500   0.005
 -0.001   0.010  -0.003   0.002  -0.001   0.004   0.000   0.001  -0.001  -0.008  -1.124   0.006   0.006  -0.001   0.005   0.497
  0.004  -0.006   0.000  -0.000  -0.003  -0.003  -0.001   0.011  -0.033  -0.011   0.006  -1.225   0.015   0.014   0.003  -0.002
 -0.000  -0.000  -0.004   0.000   0.003   0.007  -0.000  -0.003  -0.001   0.010   0.006   0.016  -1.135   0.000  -0.008  -0.005


------------------------ aborting loop because EDIFF is reached ----------------------------------------


    CHARGE:  cpu time    0.3252: real time    0.3255
    FORLOC:  cpu time    0.0035: real time    0.0035
    FORNL :  cpu time    1.9080: real time    1.9104
    STRESS:  cpu time    5.7315: real time    5.7384
    FORCOR:  cpu time    0.0149: real time    0.0164
    FORHAR:  cpu time    0.0055: real time    0.0055
    MIXING:  cpu time    0.0010: real time    0.0010
    OFIELD:  cpu time    0.0001: real time    0.0001

  FORCE on cell =-STRESS in cart. coord.  units (eV):
  Direction    XX          YY          ZZ          XY          YZ          ZX
  --------------------------------------------------------------------------------------
  Alpha Z  1368.51139  1368.51139  1368.51139
  Ewald   -4004.18950 -3981.11532 -4069.32226   -72.69240   147.81548   -21.75561
  Hartree   966.49670   975.26384   912.20077   -81.14146   115.60592   -20.32628
  E(xc)    -919.59268  -919.52182  -919.58337     0.40225     0.07120     0.00004
  Local    -294.99498  -327.54809  -175.60969   155.91627  -264.88641    41.70089
  n-local  -345.26085  -346.32973  -343.05882     3.09107    -1.41806    -0.63615
  augment   245.88173   246.01629   245.50915    -0.64390     0.30658     0.18250
  Kinetic  2974.82928  2976.23992  2973.04702    -3.86750     2.20237     0.45340
  Fock        0.00000     0.00000     0.00000     0.00000     0.00000     0.00000
  -------------------------------------------------------------------------------------
  Total      -8.31891    -8.48352    -8.30582     1.06434    -0.30291    -0.38121
  in kB     -27.11665   -27.65322   -27.07397     3.46937    -0.98737    -1.24261
  external pressure =      -27.28 kB  Pullay stress =        0.00 kB


 VOLUME and BASIS-vectors are now :
 -----------------------------------------------------------------------------
  energy-cutoff  :      400.00
  volume of cell :      491.52
      direct lattice vectors                 reciprocal lattice vectors
     0.000000000  0.000000000  6.400000000    -0.020833333 -0.052083333  0.156250000
     8.000000000  1.600000000  1.600000000     0.125000000  0.000000000  0.000000000
     0.000000000  9.600000000  3.200000000    -0.020833333  0.104166667  0.000000000

  length of vectors
     6.400000000  8.313843876 10.119288513     0.166014348  0.125000000  0.106229573


 FORCES acting on ions
    electron-ion (+dipol)            ewald-force                    non-local-force                 convergence-correction
 -----------------------------------------------------------------------------------------------
   0.923E+02 0.113E+03 -.434E+02   -.928E+02 -.113E+03 0.427E+02   -.142E+00 -.317E+00 0.384E+00   -.120E-01 -.262E-01 -.368E-02
   -.416E+02 -.237E+03 0.907E+02   0.414E+02 0.238E+03 -.906E+02   -.579E-01 -.105E+00 -.154E+00   -.198E-01 0.563E-01 -.439E-01
   -.837E+02 0.221E+03 -.835E+02   0.833E+02 -.221E+03 0.835E+02   0.264E+00 0.262E+00 0.180E-01   -.272E-01 -.814E-01 -.225E-01
   0.214E+03 -.502E+02 -.130E+03   -.215E+03 0.489E+02 0.131E+03   0.115E+00 0.536E+00 -.297E+00   -.804E-01 0.548E-01 -.107E-01
   0.749E+02 0.165E+03 0.206E+03   -.749E+02 -.164E+03 -.207E+03   -.104E+00 -.328E+00 0.434E+00   0.103E-01 -.532E-01 0.390E-01
   -.161E+03 -.135E+03 -.831E+02   0.162E+03 0.135E+03 0.830E+02   -.130E+00 -.439E+00 0.579E-01   0.278E-01 -.674E-03 -.304E-02
   0.115E+02 0.271E+02 0.199E+02   -.118E+02 -.273E+02 -.197E+02   -.175E-01 0.159E+00 0.189E+00   -.140E-02 0.831E-02 -.624E-03
   -.246E+02 -.778E+02 -.419E+02   0.247E+02 0.784E+02 0.418E+02   0.326E-01 0.575E-01 0.384E-01   0.106E-01 0.432E-01 0.203E-01
   -.168E+01 -.366E+01 0.251E+01   0.155E+01 0.371E+01 -.257E+01   -.162E+00 -.109E-01 -.710E-01   -.131E-01 0.143E-02 -.406E-01
   -.959E+02 0.355E+02 -.887E+02   0.961E+02 -.356E+02 0.887E+02   0.163E-01 0.243E+00 -.860E-01   0.231E-01 -.885E-02 0.157E-01
   -.126E+03 0.302E+02 0.887E+02   0.126E+03 -.304E+02 -.887E+02   0.201E+00 0.212E+00 0.102E+00   0.318E-02 -.213E-01 -.152E-01
   0.229E+02 0.735E+02 0.282E+02   -.232E+02 -.733E+02 -.283E+02   -.222E+00 0.479E-01 -.467E-01   -.250E-02 -.189E-01 0.200E-01
   -.722E+02 -.604E+02 -.812E+02   0.719E+02 0.599E+02 0.817E+02   0.359E-01 0.344E-01 0.395E+00   0.160E-01 0.212E-01 0.169E-01
   -.515E+02 -.902E+02 0.812E+02   0.513E+02 0.897E+02 -.817E+02   -.251E+00 0.176E+00 -.393E+00   0.129E-01 0.258E-01 -.169E-01
   0.418E+02 0.214E+02 0.518E+02   -.416E+02 -.219E+02 -.513E+02   -.857E-01 0.560E-02 -.692E-01   0.169E-02 -.215E-01 -.160E-01
   -.312E+02 -.555E+02 0.165E+00   0.311E+02 0.554E+02 -.173E+00   0.238E+00 0.233E+00 -.180E-02   0.869E-02 0.229E-01 0.771E-02
   0.193E+02 -.110E+02 -.587E+02   -.189E+02 0.109E+02 0.588E+02   0.339E+00 0.211E-01 -.115E+00   -.256E-02 0.884E-03 0.267E-02
   -.454E+02 0.556E+02 0.321E+02   0.454E+02 -.556E+02 -.321E+02   0.341E-01 0.285E+00 0.873E-03   0.148E-01 -.230E-01 0.849E-02
   0.553E+02 0.547E+02 -.413E+02   -.553E+02 -.549E+02 0.410E+02   -.846E-01 -.593E-01 -.167E+00   0.309E-02 -.222E-01 0.141E-01
   0.116E+02 -.300E+01 -.126E+00   -.114E+02 0.303E+01 0.139E+00   -.352E+00 -.126E+00 0.368E-01   0.733E-03 0.184E-01 -.655E-02
   0.268E+02 0.546E+02 -.632E+02   -.271E+02 -.540E+02 0.636E+02   0.145E+00 0.835E-01 -.501E-01   -.169E-02 -.229E-01 -.124E-01
   0.317E+02 -.792E+01 0.470E+02   -.312E+02 0.788E+01 -.470E+02   -.822E-01 0.540E-01 0.150E+00   -.400E-02 0.327E-03 -.274E-02
   0.190E+02 -.334E+02 0.211E+02   -.195E+02 0.338E+02 -.213E+02   -.494E-01 0.405E-01 0.368E-01   0.514E-02 -.450E-02 -.944E-02
   0.142E+02 0.740E+02 -.187E+02   -.146E+02 -.738E+02 0.189E+02   -.149E+00 -.868E-01 0.174E-01   -.240E-02 -.187E-01 -.136E-01
   0.493E+02 -.170E+02 -.182E+02   -.492E+02 0.173E+02 0.181E+02   0.477E-01 -.312E+00 -.758E-01   -.123E-01 0.210E-01 0.128E-01
   0.153E+02 -.237E+02 0.182E+02   -.155E+02 0.238E+02 -.181E+02   0.356E+00 -.388E+00 0.926E-01   -.121E-01 0.994E-02 -.126E-01
   -.170E+02 0.266E+02 -.261E+01   0.173E+02 -.267E+02 0.257E+01   -.342E+00 -.135E+00 0.179E+00   0.102E-01 0.374E-02 0.412E-01
   0.998E+02 -.522E+02 0.600E+02   -.999E+02 0.521E+02 -.602E+02   0.134E+00 -.270E+00 -.205E+00   -.272E-01 0.369E-01 0.689E-02
   0.173E+01 -.586E+02 -.319E+02   -.201E+01 0.586E+02 0.319E+02   0.209E+00 0.280E+00 0.205E+00   0.231E-02 -.776E-02 0.145E-01
   -.508E+02 -.354E+02 0.383E+02   0.516E+02 0.356E+02 -.383E+02   0.369E+00 -.928E-01 0.158E-01   0.109E-01 0.103E-01 0.378E-03
 -----------------------------------------------------------------------------------------------
   -.215E+00 -.483E-01 -.608E+00   -.711E-13 0.178E-12 -.355E-13   0.303E+00 0.601E-01 0.622E+00   -.573E-01 0.411E-02 -.993E-02
 
 
 POSITION                                       TOTAL-FORCE (eV/Angst)
 -----------------------------------------------------------------------------------
      0.00000      0.00000      0.00000        -0.682950     -0.428555     -0.310201
      0.00000      3.20000      6.40000        -0.350088      0.660277     -0.133654
      3.20000      6.40000      3.20000        -0.142282     -0.198077     -0.073457
      6.40000      3.20000      3.20000        -0.195971     -0.731129      0.292572
      1.60000      8.00000      8.00000        -0.113154      0.408421     -0.432742
      3.20000      9.60000      9.60000         1.050253     -0.175286     -0.023971
      0.00000      0.00000      3.20000        -0.300923     -0.032784      0.379137
      0.00000      3.20000      3.20000         0.165688      0.631496     -0.017314
      1.60000      4.80000      4.80000        -0.314815      0.045145     -0.175643
      4.80000      8.00000      4.80000         0.160596      0.126032     -0.090758
      4.80000      8.00000      8.00000         0.423232      0.017820      0.101049
      6.40000      9.60000      9.60000        -0.595342      0.256677     -0.176916
      1.60000      1.60000      1.60000        -0.221439     -0.432125      0.873263
      1.60000      1.60000      4.80000        -0.425702     -0.270770     -0.875960
      0.00000      6.40000      6.40000         0.193527     -0.544347      0.471781
      3.20000      3.20000      6.40000         0.141091      0.201887     -0.002254
      4.80000      4.80000      4.80000         0.755396      0.007906     -0.056059
      3.20000      6.40000      6.40000         0.103981      0.181195     -0.009799
      0.00000      6.40000      3.20000        -0.049398     -0.328418     -0.439950
      3.20000      3.20000      3.20000        -0.156967     -0.074328      0.042754
      1.60000      8.00000      4.80000        -0.166684      0.628207      0.398641
      4.80000      4.80000      8.00000         0.403075      0.004140      0.157052
      6.40000      6.40000      6.40000        -0.487763      0.438841     -0.184277
      6.40000      9.60000      6.40000        -0.554490      0.036080      0.187849
      4.80000      1.60000      1.60000         0.110043     -0.059340     -0.092004
      4.80000      1.60000      4.80000         0.176466     -0.222012      0.129447
      1.60000      4.80000      8.00000        -0.060453     -0.227416      0.186354
      6.40000      3.20000      6.40000         0.025491     -0.325647     -0.437957
      6.40000      6.40000      3.20000        -0.064575      0.229599      0.277733
      3.20000      9.60000      6.40000         1.174157      0.176511      0.035283
 -----------------------------------------------------------------------------------
    total drift:                                0.030661      0.015904      0.004084


--------------------------------------------------------------------------------------------------------



  FREE ENERGIE OF THE ION-ELECTRON SYSTEM (eV)
  ---------------------------------------------------
  free  energy   TOTEN  =      -346.21080184 eV

  energy  without entropy=     -346.20105633  energy(sigma->0) =     -346.20755334
 


--------------------------------------------------------------------------------------------------------


    POTLOK:  cpu time    0.0132: real time    0.0132


--------------------------------------------------------------------------------------------------------


 stress matrix after NEB project (eV)
     -8.31891      1.06434     -0.38121
      1.06434     -8.48352     -0.30291
     -0.38121     -0.30291     -8.30582
  FORCES: max atom, RMS     1.187874    0.639140
  FORCE total and by dimension    3.500714    1.174157
  Stress total and by dimension   14.591126    8.483524
 writing wavefunctions
     LOOP+:  cpu time  308.7111: real time  313.6071
    4ORBIT:  cpu time    0.0000: real time    0.0000

 total amount of memory used by VASP MPI-rank0    76234. kBytes
=======================================================================

   base      :      30000. kBytes
   nonlr-proj:       4134. kBytes
   fftplans  :       1097. kBytes
   grid      :       2043. kBytes
   one-center:        124. kBytes
   wavefun   :      38836. kBytes
 
  
  
 General timing and accounting informations for this job:
 ========================================================
  
                  Total CPU time used (sec):      315.730
                            User time (sec):      310.585
                          System time (sec):        5.145
                         Elapsed time (sec):      320.858
  
                   Maximum memory used (kb):      120044.
                   Average memory used (kb):           0.
  
                          Minor page faults:        37864
                          Major page faults:           14
                 Voluntary context switches:        69968
