 running on   32 total cores
 distrk:  each k-point on   32 cores,    1 groups
 distr:  one band on    4 cores,    8 groups
 using from now: INCAR     
 vasp.5.4.4.18Apr17-6-g9f103f2a35 (build Aug 09 2018 16:20:53) complex          
  
 POSCAR found type information on POSCAR  Nb Mo Ta Ti W 
 POSCAR found :  5 types and      30 ions
 scaLAPACK will be used

 ----------------------------------------------------------------------------- 
|                                                                             |
|  ADVICE TO THIS USER RUNNING 'VASP/VAMP'   (HEAR YOUR MASTER'S VOICE ...):  |
|                                                                             |
|      You enforced a specific xc-type in the INCAR file,                     |
|      a different type was found on the POTCAR file                          |
|          I HOPE YOU KNOW, WHAT YOU ARE  DOING                               |
|                                                                             |
 ----------------------------------------------------------------------------- 

 LDA part: xc-table for Pade appr. of Perdew
 POSCAR found type information on POSCAR  Nb Mo Ta Ti W 
 POSCAR found :  5 types and      30 ions
 POSCAR, INCAR and KPOINTS ok, starting setup
 FFT: planning ...
 WAVECAR not read
 entering main loop
       N       E                     dE             d eps       ncg     rms          rms(c)
DAV:   1     0.161310040413E+04    0.16131E+04   -0.75332E+04 16240   0.124E+03
DAV:   2    -0.516267825754E+02   -0.16647E+04   -0.16007E+04 16128   0.396E+02
DAV:   3    -0.334925825033E+03   -0.28330E+03   -0.26593E+03 28320   0.138E+02
DAV:   4    -0.366619311004E+03   -0.31693E+02   -0.29802E+02 25776   0.432E+01
DAV:   5    -0.369261334101E+03   -0.26420E+01   -0.26049E+01 28312   0.151E+01    0.786E+01
DAV:   6    -0.357949732009E+03    0.11312E+02   -0.10593E+02 23544   0.280E+01    0.374E+01
DAV:   7    -0.372003955666E+03   -0.14054E+02   -0.35632E+02 23472   0.671E+01    0.274E+01
DAV:   8    -0.352624672967E+03    0.19379E+02   -0.38692E+01 22240   0.166E+01    0.150E+01
DAV:   9    -0.347495422752E+03    0.51293E+01   -0.10668E+01 23208   0.100E+01    0.863E+00
DAV:  10    -0.346517787130E+03    0.97764E+00   -0.53788E+00 24624   0.629E+00    0.494E+00
DAV:  11    -0.346273226949E+03    0.24456E+00   -0.23166E+00 23408   0.403E+00    0.259E+00
DAV:  12    -0.346267016534E+03    0.62104E-02   -0.82093E-01 23536   0.259E+00    0.191E+00
DAV:  13    -0.346240597469E+03    0.26419E-01   -0.62970E-01 24680   0.220E+00    0.135E+00
DAV:  14    -0.346214327225E+03    0.26270E-01   -0.21241E-01 24992   0.132E+00    0.678E-01
DAV:  15    -0.346215353615E+03   -0.10264E-02   -0.69888E-02 23968   0.718E-01    0.606E-01
DAV:  16    -0.346213763558E+03    0.15901E-02   -0.27864E-02 23864   0.459E-01    0.450E-01
DAV:  17    -0.346211445676E+03    0.23179E-02   -0.11788E-02 21632   0.304E-01    0.216E-01
DAV:  18    -0.346210883263E+03    0.56241E-03   -0.52587E-03 21888   0.207E-01    0.984E-02
DAV:  19    -0.346210813599E+03    0.69664E-04   -0.14816E-03 20704   0.113E-01    0.555E-02
DAV:  20    -0.346210801844E+03    0.11755E-04   -0.40531E-04 15520   0.683E-02
   1 F= -.34621080E+03 E0= -.34620755E+03  d E =-.974551E-02
 writing wavefunctions
VASP is done!
