<?xml version="1.0" encoding="ISO-8859-1"?>
<modeling>
 <generator>
  <i name="program" type="string">vasp </i>
  <i name="version" type="string">5.4.4.18Apr17-6-g9f103f2a35  </i>
  <i name="subversion" type="string">(build Aug 09 2018 16:20:53) complex            parallel </i>
  <i name="platform" type="string">LinuxIFC </i>
  <i name="date" type="string">2020 04 12 </i>
  <i name="time" type="string">14:10:30 </i>
 </generator>
 <incar>
  <i type="string" name="SYSTEM"> Nb - Mo - Ta - Ti - W SQS</i>
  <i type="string" name="PREC">normal</i>
  <i type="int" name="IALGO">    38</i>
  <i type="int" name="ICHARG">     2</i>
  <i type="int" name="IBRION">     1</i>
  <i type="int" name="ISYM">     0</i>
  <i name="ENCUT">    400.00000000</i>
  <i type="string" name="LREAL"> Auto</i>
  <i type="int" name="ISMEAR">     1</i>
  <i name="SIGMA">      0.20000000</i>
  <v type="int" name="KPOINT_BSE">    -1     0     0     0</v>
  <i type="string" name="GGA"> PS</i>
 </incar>
 <structure name="primitive_cell" >
  <crystal>
   <varray name="basis" >
    <v>       0.00000000       0.00000000       6.40000000 </v>
    <v>       8.00000000       1.60000000       1.60000000 </v>
    <v>       0.00000000       9.60000000       3.20000000 </v>
   </varray>
   <i name="volume">    491.52000000 </i>
   <varray name="rec_basis" >
    <v>      -0.02083333      -0.05208333       0.15625000 </v>
    <v>       0.12500000       0.00000000       0.00000000 </v>
    <v>      -0.02083333       0.10416667       0.00000000 </v>
   </varray>
  </crystal>
  <varray name="positions" >
   <v>       0.00000000       0.00000000       0.00000000 </v>
   <v>      -0.13333333      -0.20000000      -0.13333333 </v>
   <v>       0.13333333       0.20000000       0.13333333 </v>
   <v>      -0.36666667       0.20000000       0.13333333 </v>
   <v>       0.30000000       0.20000000      -0.20000000 </v>
   <v>       0.36666667      -0.20000000      -0.13333333 </v>
   <v>      -0.30000000      -0.20000000       0.20000000 </v>
   <v>       0.20000000      -0.20000000       0.20000000 </v>
   <v>      -0.20000000       0.20000000      -0.20000000 </v>
   <v>      -0.16666667       0.00000000       0.33333333 </v>
   <v>       0.16666667       0.00000000      -0.33333333 </v>
   <v>      -0.06666667       0.40000000      -0.06666667 </v>
   <v>       0.06666667      -0.40000000       0.06666667 </v>
   <v>      -0.50000000       0.00000000       0.00000000 </v>
   <v>       0.33333333       0.00000000       0.33333333 </v>
   <v>      -0.33333333       0.00000000      -0.33333333 </v>
   <v>      -0.43333333      -0.40000000       0.06666667 </v>
   <v>       0.43333333       0.40000000      -0.06666667 </v>
   <v>       0.10000000       0.40000000      -0.40000000 </v>
   <v>      -0.10000000      -0.40000000       0.40000000 </v>
   <v>       0.23333333      -0.40000000      -0.26666667 </v>
   <v>      -0.23333333       0.40000000       0.26666667 </v>
   <v>      -0.03333333       0.20000000       0.46666667 </v>
   <v>       0.03333333      -0.20000000      -0.46666667 </v>
   <v>       0.46666667       0.20000000       0.46666667 </v>
   <v>      -0.46666667      -0.20000000      -0.46666667 </v>
   <v>      -0.26666667      -0.40000000      -0.26666667 </v>
   <v>       0.26666667       0.40000000       0.26666667 </v>
   <v>       0.40000000      -0.40000000       0.40000000 </v>
   <v>      -0.40000000       0.40000000      -0.40000000 </v>
  </varray>
 </structure>
 <varray name="primitive_index" >
  <v type="int" >        1 </v>
  <v type="int" >       12 </v>
  <v type="int" >       13 </v>
  <v type="int" >       14 </v>
  <v type="int" >       21 </v>
  <v type="int" >       24 </v>
  <v type="int" >       28 </v>
  <v type="int" >        4 </v>
  <v type="int" >        5 </v>
  <v type="int" >        2 </v>
  <v type="int" >       19 </v>
  <v type="int" >        6 </v>
  <v type="int" >       25 </v>
  <v type="int" >        7 </v>
  <v type="int" >        8 </v>
  <v type="int" >       15 </v>
  <v type="int" >       26 </v>
  <v type="int" >       30 </v>
  <v type="int" >        3 </v>
  <v type="int" >       22 </v>
  <v type="int" >       10 </v>
  <v type="int" >       16 </v>
  <v type="int" >       27 </v>
  <v type="int" >       29 </v>
  <v type="int" >        9 </v>
  <v type="int" >       23 </v>
  <v type="int" >       11 </v>
  <v type="int" >       20 </v>
  <v type="int" >       17 </v>
  <v type="int" >       18 </v>
 </varray>
 <kpoints>
  <generation param="Gamma">
   <v type="int" name="divisions">       5        5        5 </v>
   <v name="usershift">      0.00000000       0.00000000       0.00000000 </v>
   <v name="genvec1">      0.20000000       0.00000000       0.00000000 </v>
   <v name="genvec2">      0.00000000       0.20000000       0.00000000 </v>
   <v name="genvec3">      0.00000000       0.00000000       0.20000000 </v>
   <v name="shift">      0.00000000       0.00000000       0.00000000 </v>
  </generation>
  <varray name="kpointlist" >
   <v>       0.00000000       0.00000000       0.00000000 </v>
   <v>       0.20000000      -0.00000000       0.00000000 </v>
   <v>       0.40000000      -0.00000000       0.00000000 </v>
   <v>       0.00000000       0.20000000       0.00000000 </v>
   <v>       0.20000000       0.20000000       0.00000000 </v>
   <v>       0.40000000       0.20000000       0.00000000 </v>
   <v>      -0.40000000       0.20000000       0.00000000 </v>
   <v>      -0.20000000       0.20000000       0.00000000 </v>
   <v>       0.00000000       0.40000000       0.00000000 </v>
   <v>       0.20000000       0.40000000       0.00000000 </v>
   <v>       0.40000000       0.40000000       0.00000000 </v>
   <v>      -0.40000000       0.40000000       0.00000000 </v>
   <v>      -0.20000000       0.40000000       0.00000000 </v>
   <v>       0.00000000       0.00000000       0.20000000 </v>
   <v>       0.20000000      -0.00000000       0.20000000 </v>
   <v>       0.40000000      -0.00000000       0.20000000 </v>
   <v>      -0.40000000       0.00000000       0.20000000 </v>
   <v>      -0.20000000       0.00000000       0.20000000 </v>
   <v>       0.00000000       0.20000000       0.20000000 </v>
   <v>       0.20000000       0.20000000       0.20000000 </v>
   <v>       0.40000000       0.20000000       0.20000000 </v>
   <v>      -0.40000000       0.20000000       0.20000000 </v>
   <v>      -0.20000000       0.20000000       0.20000000 </v>
   <v>       0.00000000       0.40000000       0.20000000 </v>
   <v>       0.20000000       0.40000000       0.20000000 </v>
   <v>       0.40000000       0.40000000       0.20000000 </v>
   <v>      -0.40000000       0.40000000       0.20000000 </v>
   <v>      -0.20000000       0.40000000       0.20000000 </v>
   <v>       0.00000000      -0.40000000       0.20000000 </v>
   <v>       0.20000000      -0.40000000       0.20000000 </v>
   <v>       0.40000000      -0.40000000       0.20000000 </v>
   <v>      -0.40000000      -0.40000000       0.20000000 </v>
   <v>      -0.20000000      -0.40000000       0.20000000 </v>
   <v>       0.00000000      -0.20000000       0.20000000 </v>
   <v>       0.20000000      -0.20000000       0.20000000 </v>
   <v>       0.40000000      -0.20000000       0.20000000 </v>
   <v>      -0.40000000      -0.20000000       0.20000000 </v>
   <v>      -0.20000000      -0.20000000       0.20000000 </v>
   <v>       0.00000000       0.00000000       0.40000000 </v>
   <v>       0.20000000       0.00000000       0.40000000 </v>
   <v>       0.40000000      -0.00000000       0.40000000 </v>
   <v>      -0.40000000       0.00000000       0.40000000 </v>
   <v>      -0.20000000       0.00000000       0.40000000 </v>
   <v>       0.00000000       0.20000000       0.40000000 </v>
   <v>       0.20000000       0.20000000       0.40000000 </v>
   <v>       0.40000000       0.20000000       0.40000000 </v>
   <v>      -0.40000000       0.20000000       0.40000000 </v>
   <v>      -0.20000000       0.20000000       0.40000000 </v>
   <v>       0.00000000       0.40000000       0.40000000 </v>
   <v>       0.20000000       0.40000000       0.40000000 </v>
   <v>       0.40000000       0.40000000       0.40000000 </v>
   <v>      -0.40000000       0.40000000       0.40000000 </v>
   <v>      -0.20000000       0.40000000       0.40000000 </v>
   <v>       0.00000000      -0.40000000       0.40000000 </v>
   <v>       0.20000000      -0.40000000       0.40000000 </v>
   <v>       0.40000000      -0.40000000       0.40000000 </v>
   <v>      -0.40000000      -0.40000000       0.40000000 </v>
   <v>      -0.20000000      -0.40000000       0.40000000 </v>
   <v>       0.00000000      -0.20000000       0.40000000 </v>
   <v>       0.20000000      -0.20000000       0.40000000 </v>
   <v>       0.40000000      -0.20000000       0.40000000 </v>
   <v>      -0.40000000      -0.20000000       0.40000000 </v>
   <v>      -0.20000000      -0.20000000       0.40000000 </v>
  </varray>
  <varray name="weights" >
   <v>       0.00800000 </v>
   <v>       0.01600000 </v>
   <v>       0.01600000 </v>
   <v>       0.01600000 </v>
   <v>       0.01600000 </v>
   <v>       0.01600000 </v>
   <v>       0.01600000 </v>
   <v>       0.01600000 </v>
   <v>       0.01600000 </v>
   <v>       0.01600000 </v>
   <v>       0.01600000 </v>
   <v>       0.01600000 </v>
   <v>       0.01600000 </v>
   <v>       0.01600000 </v>
   <v>       0.01600000 </v>
   <v>       0.01600000 </v>
   <v>       0.01600000 </v>
   <v>       0.01600000 </v>
   <v>       0.01600000 </v>
   <v>       0.01600000 </v>
   <v>       0.01600000 </v>
   <v>       0.01600000 </v>
   <v>       0.01600000 </v>
   <v>       0.01600000 </v>
   <v>       0.01600000 </v>
   <v>       0.01600000 </v>
   <v>       0.01600000 </v>
   <v>       0.01600000 </v>
   <v>       0.01600000 </v>
   <v>       0.01600000 </v>
   <v>       0.01600000 </v>
   <v>       0.01600000 </v>
   <v>       0.01600000 </v>
   <v>       0.01600000 </v>
   <v>       0.01600000 </v>
   <v>       0.01600000 </v>
   <v>       0.01600000 </v>
   <v>       0.01600000 </v>
   <v>       0.01600000 </v>
   <v>       0.01600000 </v>
   <v>       0.01600000 </v>
   <v>       0.01600000 </v>
   <v>       0.01600000 </v>
   <v>       0.01600000 </v>
   <v>       0.01600000 </v>
   <v>       0.01600000 </v>
   <v>       0.01600000 </v>
   <v>       0.01600000 </v>
   <v>       0.01600000 </v>
   <v>       0.01600000 </v>
   <v>       0.01600000 </v>
   <v>       0.01600000 </v>
   <v>       0.01600000 </v>
   <v>       0.01600000 </v>
   <v>       0.01600000 </v>
   <v>       0.01600000 </v>
   <v>       0.01600000 </v>
   <v>       0.01600000 </v>
   <v>       0.01600000 </v>
   <v>       0.01600000 </v>
   <v>       0.01600000 </v>
   <v>       0.01600000 </v>
   <v>       0.01600000 </v>
  </varray>
 </kpoints>
 <parameters>
  <separator name="general" >
   <i type="string" name="SYSTEM">Nb - Mo - Ta - Ti - W SQS</i>
   <i type="logical" name="LCOMPAT"> F  </i>
  </separator>
  <separator name="electronic" >
   <i type="string" name="PREC">normal</i>
   <i name="ENMAX">    400.00000000</i>
   <i name="ENAUG">    455.65900000</i>
   <i name="EDIFF">      0.00010000</i>
   <i type="int" name="IALGO">    38</i>
   <i type="int" name="IWAVPR">    10</i>
   <i type="int" name="NBANDS">   128</i>
   <i name="NELECT">    204.00000000</i>
   <i type="int" name="TURBO">     0</i>
   <i type="int" name="IRESTART">     0</i>
   <i type="int" name="NREBOOT">     0</i>
   <i type="int" name="NMIN">     0</i>
   <i name="EREF">      0.00000000</i>
   <separator name="electronic smearing" >
    <i type="int" name="ISMEAR">     1</i>
    <i name="SIGMA">      0.20000000</i>
    <i name="KSPACING">      0.50000000</i>
    <i type="logical" name="KGAMMA"> T  </i>
   </separator>
   <separator name="electronic projectors" >
    <i type="logical" name="LREAL"> T  </i>
    <v name="ROPT">     -0.00050000     -0.00050000     -0.00050000     -0.00050000     -0.00050000</v>
    <i type="int" name="LMAXPAW">  -100</i>
    <i type="int" name="LMAXMIX">     2</i>
    <i type="logical" name="NLSPLINE"> F  </i>
   </separator>
   <separator name="electronic startup" >
    <i type="int" name="ISTART">     0</i>
    <i type="int" name="ICHARG">     2</i>
    <i type="int" name="INIWAV">     1</i>
   </separator>
   <separator name="electronic spin" >
    <i type="int" name="ISPIN">     1</i>
    <i type="logical" name="LNONCOLLINEAR"> F  </i>
    <v name="MAGMOM">      1.00000000      1.00000000      1.00000000      1.00000000      1.00000000      1.00000000      1.00000000      1.00000000      1.00000000      1.00000000      1.00000000      1.00000000      1.00000000      1.00000000      1.00000000      1.00000000      1.00000000      1.00000000      1.00000000      1.00000000
      1.00000000      1.00000000      1.00000000      1.00000000      1.00000000      1.00000000      1.00000000      1.00000000      1.00000000      1.00000000</v>
    <i name="NUPDOWN">     -1.00000000</i>
    <i type="logical" name="LSORBIT"> F  </i>
    <v name="SAXIS">      0.00000000      0.00000000      1.00000000</v>
    <i type="logical" name="LSPIRAL"> F  </i>
    <v name="QSPIRAL">      0.00000000      0.00000000      0.00000000</v>
    <i type="logical" name="LZEROZ"> F  </i>
   </separator>
   <separator name="electronic exchange-correlation" >
    <i type="logical" name="LASPH"> F  </i>
    <i type="logical" name="LMETAGGA"> F  </i>
   </separator>
   <separator name="electronic convergence" >
    <i type="int" name="NELM">    60</i>
    <i type="int" name="NELMDL">    -5</i>
    <i type="int" name="NELMIN">     2</i>
    <i name="ENINI">    400.00000000</i>
    <separator name="electronic convergence detail" >
     <i type="logical" name="LDIAG"> T  </i>
     <i type="logical" name="LSUBROT"> F  </i>
     <i name="WEIMIN">      0.00000000</i>
     <i name="EBREAK">      0.00000020</i>
     <i name="DEPER">      0.30000000</i>
     <i type="int" name="NRMM">     4</i>
     <i name="TIME">      0.40000000</i>
    </separator>
   </separator>
   <separator name="electronic mixer" >
    <i name="AMIX">      0.40000000</i>
    <i name="BMIX">      1.00000000</i>
    <i name="AMIN">      0.10000000</i>
    <i name="AMIX_MAG">      1.60000000</i>
    <i name="BMIX_MAG">      1.00000000</i>
    <separator name="electronic mixer details" >
     <i type="int" name="IMIX">     4</i>
     <i type="logical" name="MIXFIRST"> F  </i>
     <i type="int" name="MAXMIX">   -45</i>
     <i name="WC">    100.00000000</i>
     <i type="int" name="INIMIX">     1</i>
     <i type="int" name="MIXPRE">     1</i>
     <i type="int" name="MREMOVE">     5</i>
    </separator>
   </separator>
   <separator name="electronic dipolcorrection" >
    <i type="logical" name="LDIPOL"> F  </i>
    <i type="logical" name="LMONO"> F  </i>
    <i type="int" name="IDIPOL">     0</i>
    <i name="EPSILON">      1.00000000</i>
    <v name="DIPOL">   -100.00000000   -100.00000000   -100.00000000</v>
    <i name="EFIELD">      0.00000000</i>
   </separator>
  </separator>
  <separator name="grids" >
   <i type="int" name="NGX">    32</i>
   <i type="int" name="NGY">    42</i>
   <i type="int" name="NGZ">    50</i>
   <i type="int" name="NGXF">    64</i>
   <i type="int" name="NGYF">    84</i>
   <i type="int" name="NGZF">   100</i>
   <i type="logical" name="ADDGRID"> F  </i>
  </separator>
  <separator name="ionic" >
   <i type="int" name="NSW">     0</i>
   <i type="int" name="IBRION">    -1</i>
   <i type="int" name="MDALGO">     0</i>
   <i type="int" name="ISIF">     2</i>
   <i name="PSTRESS">      0.00000000</i>
   <i name="EDIFFG">      0.00100000</i>
   <i type="int" name="NFREE">     0</i>
   <i name="POTIM">      0.50000000</i>
   <i name="SMASS">     -3.00000000</i>
   <i name="SCALEE">      1.00000000</i>
  </separator>
  <separator name="ionic md" >
   <i name="TEBEG">      0.00010000</i>
   <i name="TEEND">      0.00010000</i>
   <i type="int" name="NBLOCK">     1</i>
   <i type="int" name="KBLOCK">     1</i>
   <i type="int" name="NPACO">   256</i>
   <i name="APACO">     16.00000000</i>
  </separator>
  <separator name="symmetry" >
   <i type="int" name="ISYM">     0</i>
   <i name="SYMPREC">      0.00001000</i>
  </separator>
  <separator name="dos" >
   <i type="int" name="LORBIT">     0</i>
   <v name="RWIGS">     -1.00000000     -1.00000000     -1.00000000     -1.00000000     -1.00000000</v>
   <i type="int" name="NEDOS">   301</i>
   <i name="EMIN">     10.00000000</i>
   <i name="EMAX">    -10.00000000</i>
   <i name="EFERMI">      0.00000000</i>
  </separator>
  <separator name="writing" >
   <i type="int" name="NWRITE">     2</i>
   <i type="logical" name="LWAVE"> T  </i>
   <i type="logical" name="LDOWNSAMPLE"> F  </i>
   <i type="logical" name="LCHARG"> T  </i>
   <i type="logical" name="LPARD"> F  </i>
   <i type="logical" name="LVTOT"> F  </i>
   <i type="logical" name="LVHAR"> F  </i>
   <i type="logical" name="LELF"> F  </i>
   <i type="logical" name="LOPTICS"> F  </i>
   <v name="STM">      0.00000000      0.00000000      0.00000000      0.00000000      0.00000000      0.00000000      0.00000000</v>
  </separator>
  <separator name="performance" >
   <i type="int" name="NPAR">     8</i>
   <i type="int" name="NSIM">     4</i>
   <i type="int" name="NBLK">    -1</i>
   <i type="logical" name="LPLANE"> T  </i>
   <i type="logical" name="LSCALAPACK"> T  </i>
   <i type="logical" name="LSCAAWARE"> F  </i>
   <i type="logical" name="LSCALU"> F  </i>
   <i type="logical" name="LASYNC"> F  </i>
   <i type="logical" name="LORBITALREAL"> F  </i>
  </separator>
  <separator name="miscellaneous" >
   <i type="int" name="IDIOT">     3</i>
   <i type="int" name="ISPECIAL">     0</i>
   <i type="logical" name="LMUSIC"> F  </i>
   <v name="POMASS">     92.91000000     95.94000000    180.94800000     47.88000000    183.85000000</v>
   <v name="DARWINR">      0.00000000      0.00000000      0.00000000      0.00000000      0.00000000</v>
   <v name="DARWINV">      1.00000000      1.00000000      1.00000000      1.00000000      1.00000000</v>
   <i type="logical" name="LCORR"> T  </i>
  </separator>
  <i type="logical" name="GGA_COMPAT"> T  </i>
  <i type="logical" name="LBERRY"> F  </i>
  <i type="int" name="ICORELEVEL">     0</i>
  <i type="logical" name="LDAU"> F  </i>
  <i type="int" name="I_CONSTRAINED_M">     0</i>
  <separator name="electronic exchange-correlation" >
   <i type="string" name="GGA">PS</i>
   <i type="int" name="VOSKOWN">     0</i>
   <i type="logical" name="LHFCALC"> F  </i>
   <i type="string" name="PRECFOCK"></i>
   <i type="logical" name="LSYMGRAD"> F  </i>
   <i type="logical" name="LHFONE"> F  </i>
   <i type="logical" name="LRHFCALC"> F  </i>
   <i type="logical" name="LTHOMAS"> F  </i>
   <i type="logical" name="LMODELHF"> F  </i>
   <i name="ENCUT4O">     -1.00000000</i>
   <i type="int" name="EXXOEP">     0</i>
   <i type="int" name="FOURORBIT">     0</i>
   <i name="AEXX">      0.00000000</i>
   <i name="HFALPHA">      0.00000000</i>
   <i name="MCALPHA">      0.00000000</i>
   <i name="ALDAX">      1.00000000</i>
   <i name="AGGAX">      1.00000000</i>
   <i name="ALDAC">      1.00000000</i>
   <i name="AGGAC">      1.00000000</i>
   <i type="int" name="NKREDX">     1</i>
   <i type="int" name="NKREDY">     1</i>
   <i type="int" name="NKREDZ">     1</i>
   <i type="logical" name="SHIFTRED"> F  </i>
   <i type="logical" name="ODDONLY"> F  </i>
   <i type="logical" name="EVENONLY"> F  </i>
   <i type="int" name="LMAXFOCK">     0</i>
   <i type="int" name="NMAXFOCKAE">     0</i>
   <i type="logical" name="LFOCKAEDFT"> F  </i>
   <i name="HFSCREEN">      0.00000000</i>
   <i name="HFSCREENC">      0.00000000</i>
   <i type="int" name="NBANDSGWLOW">     0</i>
  </separator>
  <separator name="vdW DFT" >
   <i type="logical" name="LUSE_VDW"> F  </i>
   <i name="Zab_VDW">     -0.84910000</i>
   <i name="PARAM1">      0.12340000</i>
   <i name="PARAM2">      1.00000000</i>
   <i name="PARAM3">      0.00000000</i>
  </separator>
  <separator name="model GW" >
   <i type="int" name="MODEL_GW">     0</i>
   <i name="MODEL_EPS0">      9.83040000</i>
   <i name="MODEL_ALPHA">      1.00000000</i>
  </separator>
  <separator name="linear response parameters" >
   <i type="logical" name="LEPSILON"> F  </i>
   <i type="logical" name="LRPA"> F  </i>
   <i type="logical" name="LNABLA"> F  </i>
   <i type="logical" name="LVEL"> F  </i>
   <i type="int" name="KINTER">     0</i>
   <i name="CSHIFT">      0.10000000</i>
   <i name="OMEGAMAX">     -1.00000000</i>
   <i name="DEG_THRESHOLD">      0.00200000</i>
   <i name="RTIME">     -0.10000000</i>
   <i name="WPLASMAI">      0.00000000</i>
   <v name="DFIELD">      0.00000000      0.00000000      0.00000000</v>
   <v name="WPLASMA">      0.00000000      0.00000000      0.00000000      0.00000000      0.00000000      0.00000000      0.00000000      0.00000000      0.00000000</v>
  </separator>
  <separator name="orbital magnetization" >
   <i type="logical" name="NUCIND"> F  </i>
   <v name="MAGPOS">      0.00000000      0.00000000      0.00000000</v>
   <i type="logical" name="LNICSALL"> T  </i>
   <i type="logical" name="ORBITALMAG"> F  </i>
   <i type="logical" name="LMAGBLOCH"> F  </i>
   <i type="logical" name="LCHIMAG"> F  </i>
   <i type="logical" name="LGAUGE"> T  </i>
   <i type="int" name="MAGATOM">     0</i>
   <v name="MAGDIPOL">      0.00000000      0.00000000      0.00000000</v>
   <v name="AVECCONST">      0.00000000      0.00000000      0.00000000</v>
  </separator>
  <separator name="response functions" >
   <i type="logical" name="LADDER"> F  </i>
   <i type="logical" name="LRPAFORCE"> F  </i>
   <i type="logical" name="LFXC"> F  </i>
   <i type="logical" name="LHARTREE"> T  </i>
   <i type="int" name="IBSE">     0</i>
   <v type="int" name="KPOINT">    -1     0     0     0</v>
   <i type="logical" name="LTCTE"> F  </i>
   <i type="logical" name="LTETE"> F  </i>
   <i type="logical" name="LTRIPLET"> F  </i>
   <i type="logical" name="LFXCEPS"> F  </i>
   <i type="logical" name="LFXHEG"> F  </i>
   <i type="int" name="NATURALO">     2</i>
   <i type="logical" name="L2ORDER"> F  </i>
   <i type="logical" name="LMP2LT"> F  </i>
   <i type="logical" name="LUSEW"> F  </i>
   <i name="ENCUTGW">     -2.00000000</i>
   <i name="ENCUTGWSOFT">     -2.00000000</i>
   <i name="ENCUTLF">     -1.00000000</i>
   <i type="int" name="LMAXMP2">    -1</i>
   <i name="SCISSOR">      0.00000000</i>
   <i type="int" name="NOMEGA">     0</i>
   <i type="int" name="NOMEGAR">     0</i>
   <i type="int" name="NBANDSGW">    -1</i>
   <i type="int" name="NBANDSO">    -1</i>
   <i type="int" name="NBANDSV">    -1</i>
   <i type="int" name="NELM">     1</i>
   <i type="int" name="NELMHF">     1</i>
   <i type="int" name="DIM">     3</i>
   <i type="int" name="ANTIRES">     0</i>
   <i name="OMEGAMAX">    -30.00000000</i>
   <i name="OMEGAMIN">    -30.00000000</i>
   <i name="OMEGATL">   -200.00000000</i>
   <i type="int" name="OMEGAGRID">   140</i>
   <i name="CSHIFT">     -0.10000000</i>
   <i type="logical" name="SELFENERGY"> F  </i>
   <i type="logical" name="LSPECTRAL"> F  </i>
   <i type="logical" name="LSPECTRALGW"> F  </i>
   <i type="logical" name="LSINGLES"> F  </i>
   <i type="logical" name="LFERMIGW"> F  </i>
   <i type="logical" name="ODDONLYGW"> F  </i>
   <i type="logical" name="EVENONLYGW"> F  </i>
   <i type="int" name="NKREDLFX">     1</i>
   <i type="int" name="NKREDLFY">     1</i>
   <i type="int" name="NKREDLFZ">     1</i>
   <i type="int" name="MAXMEM">  2800</i>
   <i type="int" name="TELESCOPE">     0</i>
   <i type="int" name="TAUPAR">     1</i>
   <i type="int" name="OMEGAPAR">    -1</i>
   <i name="LAMBDA">      1.00000000</i>
  </separator>
  <separator name="External order field" >
   <i name="OFIELD_KAPPA">      0.00000000</i>
   <v name="OFIELD_K">      0.00000000      0.00000000      0.00000000</v>
   <i name="OFIELD_Q6_NEAR">      0.00000000</i>
   <i name="OFIELD_Q6_FAR">      0.00000000</i>
   <i name="OFIELD_A">      0.00000000</i>
  </separator>
  <separator name="solvation model" >
   <i type="logical" name="LSOL"> F  </i>
  </separator>
 </parameters>
 <atominfo>
  <atoms>      30 </atoms>
  <types>       5 </types>
  <array name="atoms" >
   <dimension dim="1">ion</dimension>
   <field type="string">element</field>
   <field type="int">atomtype</field>
   <set>
    <rc><c>Nb</c><c>   1</c></rc>
    <rc><c>Nb</c><c>   1</c></rc>
    <rc><c>Nb</c><c>   1</c></rc>
    <rc><c>Nb</c><c>   1</c></rc>
    <rc><c>Nb</c><c>   1</c></rc>
    <rc><c>Nb</c><c>   1</c></rc>
    <rc><c>Mo</c><c>   2</c></rc>
    <rc><c>Mo</c><c>   2</c></rc>
    <rc><c>Mo</c><c>   2</c></rc>
    <rc><c>Mo</c><c>   2</c></rc>
    <rc><c>Mo</c><c>   2</c></rc>
    <rc><c>Mo</c><c>   2</c></rc>
    <rc><c>Ta</c><c>   3</c></rc>
    <rc><c>Ta</c><c>   3</c></rc>
    <rc><c>Ta</c><c>   3</c></rc>
    <rc><c>Ta</c><c>   3</c></rc>
    <rc><c>Ta</c><c>   3</c></rc>
    <rc><c>Ta</c><c>   3</c></rc>
    <rc><c>Ti</c><c>   4</c></rc>
    <rc><c>Ti</c><c>   4</c></rc>
    <rc><c>Ti</c><c>   4</c></rc>
    <rc><c>Ti</c><c>   4</c></rc>
    <rc><c>Ti</c><c>   4</c></rc>
    <rc><c>Ti</c><c>   4</c></rc>
    <rc><c>W </c><c>   5</c></rc>
    <rc><c>W </c><c>   5</c></rc>
    <rc><c>W </c><c>   5</c></rc>
    <rc><c>W </c><c>   5</c></rc>
    <rc><c>W </c><c>   5</c></rc>
    <rc><c>W </c><c>   5</c></rc>
   </set>
  </array>
  <array name="atomtypes" >
   <dimension dim="1">type</dimension>
   <field type="int">atomspertype</field>
   <field type="string">element</field>
   <field>mass</field>
   <field>valence</field>
   <field type="string">pseudopotential</field>
   <set>
    <rc><c>   6</c><c>Nb</c><c>     92.91000000</c><c>     13.00000000</c><c>  PAW_PBE Nb_sv 25May2007               </c></rc>
    <rc><c>   6</c><c>Mo</c><c>     95.94000000</c><c>      6.00000000</c><c>  PAW_PBE Mo 08Apr2002                  </c></rc>
    <rc><c>   6</c><c>Ta</c><c>    180.94800000</c><c>      5.00000000</c><c>  PAW_PBE Ta 17Jan2003                  </c></rc>
    <rc><c>   6</c><c>Ti</c><c>     47.88000000</c><c>      4.00000000</c><c>  PAW_PBE Ti 08Apr2002                  </c></rc>
    <rc><c>   6</c><c>W </c><c>    183.85000000</c><c>      6.00000000</c><c>  PAW_PBE W 08Apr2002                   </c></rc>
   </set>
  </array>
 </atominfo>
 <structure name="initialpos" >
  <crystal>
   <varray name="basis" >
    <v>       0.00000000       0.00000000       6.40000000 </v>
    <v>       8.00000000       1.60000000       1.60000000 </v>
    <v>       0.00000000       9.60000000       3.20000000 </v>
   </varray>
   <i name="volume">    491.52000000 </i>
   <varray name="rec_basis" >
    <v>      -0.02083333      -0.05208333       0.15625000 </v>
    <v>       0.12500000       0.00000000       0.00000000 </v>
    <v>      -0.02083333       0.10416667       0.00000000 </v>
   </varray>
  </crystal>
  <varray name="positions" >
   <v>       0.00000000       0.00000000       0.00000000 </v>
   <v>       0.83333333       0.00000000       0.33333333 </v>
   <v>       0.10000000       0.40000000       0.60000000 </v>
   <v>       0.20000000       0.80000000       0.20000000 </v>
   <v>       0.80000000       0.20000000       0.80000000 </v>
   <v>       0.93333333       0.40000000       0.93333333 </v>
   <v>       0.50000000       0.00000000       0.00000000 </v>
   <v>       0.33333333       0.00000000       0.33333333 </v>
   <v>       0.46666667       0.20000000       0.46666667 </v>
   <v>       0.23333333       0.60000000       0.73333333 </v>
   <v>       0.73333333       0.60000000       0.73333333 </v>
   <v>       0.86666667       0.80000000       0.86666667 </v>
   <v>       0.13333333       0.20000000       0.13333333 </v>
   <v>       0.63333333       0.20000000       0.13333333 </v>
   <v>       0.66666667       0.00000000       0.66666667 </v>
   <v>       0.76666667       0.40000000       0.26666667 </v>
   <v>       0.40000000       0.60000000       0.40000000 </v>
   <v>       0.60000000       0.40000000       0.60000000 </v>
   <v>       0.16666667       0.00000000       0.66666667 </v>
   <v>       0.26666667       0.40000000       0.26666667 </v>
   <v>       0.30000000       0.20000000       0.80000000 </v>
   <v>       0.90000000       0.60000000       0.40000000 </v>
   <v>       0.53333333       0.80000000       0.53333333 </v>
   <v>       0.36666667       0.80000000       0.86666667 </v>
   <v>       0.06666667       0.60000000       0.06666667 </v>
   <v>       0.56666667       0.60000000       0.06666667 </v>
   <v>       0.96666667       0.20000000       0.46666667 </v>
   <v>       0.70000000       0.80000000       0.20000000 </v>
   <v>       0.03333333       0.80000000       0.53333333 </v>
   <v>       0.43333333       0.40000000       0.93333333 </v>
  </varray>
 </structure>
 <calculation>
  <scstep>
   <time name="dav">   11.09   11.13</time>
   <time name="total">   11.11   11.16</time>
   <energy>
    <i name="alphaZ">   1368.51138618 </i>
    <i name="ewald"> -12054.59604297 </i>
    <i name="hartreedc">  -3014.57032848 </i>
    <i name="XCdc">   -903.23493818 </i>
    <i name="pawpsdc">  12303.85264859 </i>
    <i name="pawaedc"> -10739.97191893 </i>
    <i name="eentropy">     -0.00220503 </i>
    <i name="bandstr">   1442.25917732 </i>
    <i name="atom">  13210.85262565 </i>
    <i name="e_fr_energy">   1613.10040413 </i>
    <i name="e_wo_entrp">   1613.10260917 </i>
    <i name="e_0_energy">   1613.10113914 </i>
   </energy>
  </scstep>
  <scstep>
   <time name="dav">   10.89   10.90</time>
   <time name="total">   10.89   10.91</time>
   <energy>
    <i name="e_fr_energy">    -51.62678258 </i>
    <i name="e_wo_entrp">    -51.61945587 </i>
    <i name="e_0_energy">    -51.62434034 </i>
   </energy>
  </scstep>
  <scstep>
   <time name="dav">   17.30   17.33</time>
   <time name="total">   17.30   17.34</time>
   <energy>
    <i name="e_fr_energy">   -334.92582503 </i>
    <i name="e_wo_entrp">   -334.93215403 </i>
    <i name="e_0_energy">   -334.92793470 </i>
   </energy>
  </scstep>
  <scstep>
   <time name="dav">   16.01   16.04</time>
   <time name="total">   16.02   16.04</time>
   <energy>
    <i name="e_fr_energy">   -366.61931100 </i>
    <i name="e_wo_entrp">   -366.62731882 </i>
    <i name="e_0_energy">   -366.62198028 </i>
   </energy>
  </scstep>
  <scstep>
   <time name="dav">   17.39   17.42</time>
   <time name="total">   17.71   17.74</time>
   <energy>
    <i name="e_fr_energy">   -369.26133410 </i>
    <i name="e_wo_entrp">   -369.27115717 </i>
    <i name="e_0_energy">   -369.26460846 </i>
   </energy>
  </scstep>
  <scstep>
   <time name="dav">   14.90   14.93</time>
   <time name="total">   15.25   15.27</time>
   <energy>
    <i name="e_fr_energy">   -357.94973201 </i>
    <i name="e_wo_entrp">   -357.94307251 </i>
    <i name="e_0_energy">   -357.94751218 </i>
   </energy>
  </scstep>
  <scstep>
   <time name="dav">   14.84   14.87</time>
   <time name="total">   15.19   15.22</time>
   <energy>
    <i name="e_fr_energy">   -372.00395567 </i>
    <i name="e_wo_entrp">   -372.01369494 </i>
    <i name="e_0_energy">   -372.00720209 </i>
   </energy>
  </scstep>
  <scstep>
   <time name="dav">   14.20   14.22</time>
   <time name="total">   14.54   14.56</time>
   <energy>
    <i name="e_fr_energy">   -352.62467297 </i>
    <i name="e_wo_entrp">   -352.63114598 </i>
    <i name="e_0_energy">   -352.62683064 </i>
   </energy>
  </scstep>
  <scstep>
   <time name="dav">   14.77   14.79</time>
   <time name="total">   15.11   15.14</time>
   <energy>
    <i name="e_fr_energy">   -347.49542275 </i>
    <i name="e_wo_entrp">   -347.49723724 </i>
    <i name="e_0_energy">   -347.49602758 </i>
   </energy>
  </scstep>
  <scstep>
   <time name="dav">   15.45   15.47</time>
   <time name="total">   15.78   15.80</time>
   <energy>
    <i name="e_fr_energy">   -346.51778713 </i>
    <i name="e_wo_entrp">   -346.51341841 </i>
    <i name="e_0_energy">   -346.51633089 </i>
   </energy>
  </scstep>
  <scstep>
   <time name="dav">   14.78   14.80</time>
   <time name="total">   15.12   15.14</time>
   <energy>
    <i name="e_fr_energy">   -346.27322695 </i>
    <i name="e_wo_entrp">   -346.26256586 </i>
    <i name="e_0_energy">   -346.26967325 </i>
   </energy>
  </scstep>
  <scstep>
   <time name="dav">   14.90   14.92</time>
   <time name="total">   15.23   15.26</time>
   <energy>
    <i name="e_fr_energy">   -346.26701653 </i>
    <i name="e_wo_entrp">   -346.26026468 </i>
    <i name="e_0_energy">   -346.26476592 </i>
   </energy>
  </scstep>
  <scstep>
   <time name="dav">   15.47   15.49</time>
   <time name="total">   15.80   15.83</time>
   <energy>
    <i name="e_fr_energy">   -346.24059747 </i>
    <i name="e_wo_entrp">   -346.22939773 </i>
    <i name="e_0_energy">   -346.23686422 </i>
   </energy>
  </scstep>
  <scstep>
   <time name="dav">   15.67   15.69</time>
   <time name="total">   16.00   16.02</time>
   <energy>
    <i name="e_fr_energy">   -346.21432722 </i>
    <i name="e_wo_entrp">   -346.20493275 </i>
    <i name="e_0_energy">   -346.21119573 </i>
   </energy>
  </scstep>
  <scstep>
   <time name="dav">   15.16   15.18</time>
   <time name="total">   15.51   15.54</time>
   <energy>
    <i name="e_fr_energy">   -346.21535362 </i>
    <i name="e_wo_entrp">   -346.20488419 </i>
    <i name="e_0_energy">   -346.21186381 </i>
   </energy>
  </scstep>
  <scstep>
   <time name="dav">   15.07   15.09</time>
   <time name="total">   15.40   15.42</time>
   <energy>
    <i name="e_fr_energy">   -346.21376356 </i>
    <i name="e_wo_entrp">   -346.20372289 </i>
    <i name="e_0_energy">   -346.21041667 </i>
   </energy>
  </scstep>
  <scstep>
   <time name="dav">   13.95   13.97</time>
   <time name="total">   14.29   14.31</time>
   <energy>
    <i name="e_fr_energy">   -346.21144568 </i>
    <i name="e_wo_entrp">   -346.20149039 </i>
    <i name="e_0_energy">   -346.20812725 </i>
   </energy>
  </scstep>
  <scstep>
   <time name="dav">   14.11   14.13</time>
   <time name="total">   14.44   14.46</time>
   <energy>
    <i name="e_fr_energy">   -346.21088326 </i>
    <i name="e_wo_entrp">   -346.20107487 </i>
    <i name="e_0_energy">   -346.20761380 </i>
   </energy>
  </scstep>
  <scstep>
   <time name="dav">   13.47   13.49</time>
   <time name="total">   13.80   13.82</time>
   <energy>
    <i name="e_fr_energy">   -346.21081360 </i>
    <i name="e_wo_entrp">   -346.20098300 </i>
    <i name="e_0_energy">   -346.20753673 </i>
   </energy>
  </scstep>
  <scstep>
   <time name="dav">   10.85   10.87</time>
   <time name="total">   10.87   10.89</time>
   <energy>
    <i name="alphaZ">   1368.51138618 </i>
    <i name="ewald"> -12054.59604297 </i>
    <i name="hartreedc">  -2853.32042245 </i>
    <i name="XCdc">   -897.32501184 </i>
    <i name="pawpsdc">  21629.28823547 </i>
    <i name="pawaedc"> -20069.57493528 </i>
    <i name="eentropy">     -0.00974551 </i>
    <i name="bandstr">   -680.03689108 </i>
    <i name="atom">  13210.85262565 </i>
    <i name="e_fr_energy">   -346.21080184 </i>
    <i name="e_wo_entrp">   -346.20105633 </i>
    <i name="e_0_energy">   -346.20755334 </i>
   </energy>
  </scstep>
  <structure>
   <crystal>
    <varray name="basis" >
     <v>       0.00000000       0.00000000       6.40000000 </v>
     <v>       8.00000000       1.60000000       1.60000000 </v>
     <v>       0.00000000       9.60000000       3.20000000 </v>
    </varray>
    <i name="volume">    491.52000000 </i>
    <varray name="rec_basis" >
     <v>      -0.02083333      -0.05208333       0.15625000 </v>
     <v>       0.12500000       0.00000000       0.00000000 </v>
     <v>      -0.02083333       0.10416667       0.00000000 </v>
    </varray>
   </crystal>
   <varray name="positions" >
    <v>       0.00000000       0.00000000       0.00000000 </v>
    <v>       0.83333333       0.00000000       0.33333333 </v>
    <v>       0.10000000       0.40000000       0.60000000 </v>
    <v>       0.20000000       0.80000000       0.20000000 </v>
    <v>       0.80000000       0.20000000       0.80000000 </v>
    <v>       0.93333333       0.40000000       0.93333333 </v>
    <v>       0.50000000       0.00000000       0.00000000 </v>
    <v>       0.33333333       0.00000000       0.33333333 </v>
    <v>       0.46666667       0.20000000       0.46666667 </v>
    <v>       0.23333333       0.60000000       0.73333333 </v>
    <v>       0.73333333       0.60000000       0.73333333 </v>
    <v>       0.86666667       0.80000000       0.86666667 </v>
    <v>       0.13333333       0.20000000       0.13333333 </v>
    <v>       0.63333333       0.20000000       0.13333333 </v>
    <v>       0.66666667       0.00000000       0.66666667 </v>
    <v>       0.76666667       0.40000000       0.26666667 </v>
    <v>       0.40000000       0.60000000       0.40000000 </v>
    <v>       0.60000000       0.40000000       0.60000000 </v>
    <v>       0.16666667       0.00000000       0.66666667 </v>
    <v>       0.26666667       0.40000000       0.26666667 </v>
    <v>       0.30000000       0.20000000       0.80000000 </v>
    <v>       0.90000000       0.60000000       0.40000000 </v>
    <v>       0.53333333       0.80000000       0.53333333 </v>
    <v>       0.36666667       0.80000000       0.86666667 </v>
    <v>       0.06666667       0.60000000       0.06666667 </v>
    <v>       0.56666667       0.60000000       0.06666667 </v>
    <v>       0.96666667       0.20000000       0.46666667 </v>
    <v>       0.70000000       0.80000000       0.20000000 </v>
    <v>       0.03333333       0.80000000       0.53333333 </v>
    <v>       0.43333333       0.40000000       0.93333333 </v>
   </varray>
  </structure>
  <varray name="forces" >
   <v>      -0.68294978      -0.42855473      -0.31020126 </v>
   <v>      -0.35008753       0.66027667      -0.13365355 </v>
   <v>      -0.14228228      -0.19807719      -0.07345684 </v>
   <v>      -0.19597109      -0.73112946       0.29257154 </v>
   <v>      -0.11315394       0.40842066      -0.43274225 </v>
   <v>       1.05025316      -0.17528636      -0.02397144 </v>
   <v>      -0.30092270      -0.03278370       0.37913730 </v>
   <v>       0.16568799       0.63149631      -0.01731438 </v>
   <v>      -0.31481521       0.04514535      -0.17564256 </v>
   <v>       0.16059551       0.12603234      -0.09075785 </v>
   <v>       0.42323208       0.01781966       0.10104900 </v>
   <v>      -0.59534204       0.25667685      -0.17691576 </v>
   <v>      -0.22143892      -0.43212493       0.87326253 </v>
   <v>      -0.42570194      -0.27076997      -0.87595986 </v>
   <v>       0.19352735      -0.54434706       0.47178069 </v>
   <v>       0.14109137       0.20188746      -0.00225394 </v>
   <v>       0.75539617       0.00790582      -0.05605868 </v>
   <v>       0.10398119       0.18119543      -0.00979902 </v>
   <v>      -0.04939838      -0.32841793      -0.43995021 </v>
   <v>      -0.15696666      -0.07432839       0.04275388 </v>
   <v>      -0.16668423       0.62820692       0.39864142 </v>
   <v>       0.40307463       0.00413984       0.15705249 </v>
   <v>      -0.48776335       0.43884098      -0.18427671 </v>
   <v>      -0.55449024       0.03608050       0.18784893 </v>
   <v>       0.11004333      -0.05934040      -0.09200378 </v>
   <v>       0.17646571      -0.22201175       0.12944743 </v>
   <v>      -0.06045264      -0.22741570       0.18635352 </v>
   <v>       0.02549050      -0.32564653      -0.43795741 </v>
   <v>      -0.06457513       0.22959864       0.27773350 </v>
   <v>       1.17415708       0.17651068       0.03528326 </v>
  </varray>
  <varray name="stress" >
   <v>     -27.11664548       3.46936613      -1.24260529 </v>
   <v>       3.46936596     -27.65321784      -0.98737420 </v>
   <v>      -1.24260537      -0.98737423     -27.07397424 </v>
  </varray>
  <energy>
   <i name="e_fr_energy">   -346.21080184 </i>
   <i name="e_wo_entrp">   -346.20755334 </i>
   <i name="e_0_energy">     -0.00974551 </i>
  </energy>
  <time name="totalsc">  308.71  313.61</time>
  <eigenvalues>
   <array>
    <dimension dim="1">band</dimension>
    <dimension dim="2">kpoint</dimension>
    <dimension dim="3">spin</dimension>
    <field>eigene</field>
    <field>occ</field>
    <set>
     <set comment="spin 1">
      <set comment="kpoint 1">
       <r>  -47.2043    1.0000 </r>
       <r>  -47.1937    1.0000 </r>
       <r>  -47.1586    1.0000 </r>
       <r>  -47.1011    1.0000 </r>
       <r>  -47.0630    1.0000 </r>
       <r>  -46.9972    1.0000 </r>
       <r>  -23.7524    1.0000 </r>
       <r>  -23.6837    1.0000 </r>
       <r>  -23.6189    1.0000 </r>
       <r>  -23.5110    1.0000 </r>
       <r>  -23.4007    1.0000 </r>
       <r>  -23.3820    1.0000 </r>
       <r>  -23.3682    1.0000 </r>
       <r>  -23.3367    1.0000 </r>
       <r>  -23.3207    1.0000 </r>
       <r>  -23.2897    1.0000 </r>
       <r>  -23.2803    1.0000 </r>
       <r>  -23.2644    1.0000 </r>
       <r>  -23.1899    1.0000 </r>
       <r>  -23.1624    1.0000 </r>
       <r>  -23.0617    1.0000 </r>
       <r>  -23.0265    1.0000 </r>
       <r>  -22.9607    1.0000 </r>
       <r>  -22.8189    1.0000 </r>
       <r>   -0.5129    1.0000 </r>
       <r>    1.3894    1.0000 </r>
       <r>    1.8915    1.0000 </r>
       <r>    2.0410    1.0000 </r>
       <r>    2.2463    1.0000 </r>
       <r>    2.3508    1.0000 </r>
       <r>    2.4310    1.0000 </r>
       <r>    2.5319    1.0000 </r>
       <r>    2.6276    1.0000 </r>
       <r>    2.8106    1.0000 </r>
       <r>    2.8607    1.0000 </r>
       <r>    2.9773    1.0000 </r>
       <r>    3.0069    1.0000 </r>
       <r>    3.0350    1.0000 </r>
       <r>    3.1287    1.0000 </r>
       <r>    3.2311    1.0000 </r>
       <r>    3.2727    1.0000 </r>
       <r>    3.3155    1.0000 </r>
       <r>    3.3548    1.0000 </r>
       <r>    3.3895    1.0000 </r>
       <r>    3.4210    1.0000 </r>
       <r>    3.4534    1.0000 </r>
       <r>    3.5451    1.0000 </r>
       <r>    3.6248    1.0000 </r>
       <r>    3.6570    1.0000 </r>
       <r>    3.7521    1.0000 </r>
       <r>    3.7702    1.0000 </r>
       <r>    3.8383    1.0000 </r>
       <r>    3.9141    1.0000 </r>
       <r>    4.1147    1.0000 </r>
       <r>    4.2991    1.0000 </r>
       <r>    4.3942    1.0000 </r>
       <r>    4.5444    1.0000 </r>
       <r>    4.5649    1.0000 </r>
       <r>    4.7061    1.0000 </r>
       <r>    4.7650    1.0000 </r>
       <r>    4.7968    1.0000 </r>
       <r>    4.8335    1.0000 </r>
       <r>    4.8802    1.0000 </r>
       <r>    4.9335    1.0000 </r>
       <r>    4.9826    1.0000 </r>
       <r>    5.0006    1.0000 </r>
       <r>    5.0428    1.0000 </r>
       <r>    5.0721    1.0000 </r>
       <r>    5.1273    1.0000 </r>
       <r>    5.1632    1.0000 </r>
       <r>    5.2174    1.0000 </r>
       <r>    5.2365    1.0000 </r>
       <r>    5.3232    1.0000 </r>
       <r>    5.3942    1.0000 </r>
       <r>    5.4911    1.0000 </r>
       <r>    5.5198    1.0000 </r>
       <r>    5.6380    1.0000 </r>
       <r>    5.7227    1.0000 </r>
       <r>    5.8183    1.0000 </r>
       <r>    5.8500    1.0000 </r>
       <r>    5.8835    1.0000 </r>
       <r>    6.1129    1.0000 </r>
       <r>    6.2455    1.0003 </r>
       <r>    6.2799    1.0006 </r>
       <r>    6.3799    1.0051 </r>
       <r>    6.4361    1.0126 </r>
       <r>    6.4678    1.0189 </r>
       <r>    6.5312    1.0327 </r>
       <r>    6.5506    1.0351 </r>
       <r>    6.5853    1.0328 </r>
       <r>    6.6633    0.9646 </r>
       <r>    6.6895    0.9120 </r>
       <r>    6.7276    0.8054 </r>
       <r>    6.7424    0.7549 </r>
       <r>    6.7728    0.6383 </r>
       <r>    6.8106    0.4807 </r>
       <r>    6.8283    0.4064 </r>
       <r>    6.8585    0.2863 </r>
       <r>    6.9208    0.0920 </r>
       <r>    7.0577   -0.0353 </r>
       <r>    7.1054   -0.0278 </r>
       <r>    7.1433   -0.0191 </r>
       <r>    7.1602   -0.0156 </r>
       <r>    7.1736   -0.0130 </r>
       <r>    7.2372   -0.0047 </r>
       <r>    7.2995   -0.0013 </r>
       <r>    7.3120   -0.0010 </r>
       <r>    7.3880   -0.0002 </r>
       <r>    7.4875   -0.0000 </r>
       <r>    7.5683   -0.0000 </r>
       <r>    7.6776   -0.0000 </r>
       <r>    7.7312   -0.0000 </r>
       <r>    7.7802   -0.0000 </r>
       <r>    7.8186   -0.0000 </r>
       <r>    7.8646   -0.0000 </r>
       <r>    7.9906   -0.0000 </r>
       <r>    8.1507   -0.0000 </r>
       <r>    8.2725   -0.0000 </r>
       <r>    8.3233   -0.0000 </r>
       <r>    8.4555   -0.0000 </r>
       <r>    8.4662   -0.0000 </r>
       <r>    8.4727   -0.0000 </r>
       <r>    8.4923   -0.0000 </r>
       <r>    8.5454   -0.0000 </r>
       <r>    8.5776   -0.0000 </r>
       <r>    8.6665   -0.0000 </r>
       <r>    8.6874   -0.0000 </r>
       <r>    8.7116   -0.0000 </r>
      </set>
      <set comment="kpoint 2">
       <r>  -47.2040    1.0000 </r>
       <r>  -47.1939    1.0000 </r>
       <r>  -47.1586    1.0000 </r>
       <r>  -47.1011    1.0000 </r>
       <r>  -47.0630    1.0000 </r>
       <r>  -46.9972    1.0000 </r>
       <r>  -23.7535    1.0000 </r>
       <r>  -23.6838    1.0000 </r>
       <r>  -23.6201    1.0000 </r>
       <r>  -23.5111    1.0000 </r>
       <r>  -23.4010    1.0000 </r>
       <r>  -23.3827    1.0000 </r>
       <r>  -23.3690    1.0000 </r>
       <r>  -23.3375    1.0000 </r>
       <r>  -23.3207    1.0000 </r>
       <r>  -23.2895    1.0000 </r>
       <r>  -23.2801    1.0000 </r>
       <r>  -23.2642    1.0000 </r>
       <r>  -23.1901    1.0000 </r>
       <r>  -23.1623    1.0000 </r>
       <r>  -23.0606    1.0000 </r>
       <r>  -23.0271    1.0000 </r>
       <r>  -22.9606    1.0000 </r>
       <r>  -22.8189    1.0000 </r>
       <r>   -0.2753    1.0000 </r>
       <r>    1.3753    1.0000 </r>
       <r>    1.9930    1.0000 </r>
       <r>    2.1233    1.0000 </r>
       <r>    2.2804    1.0000 </r>
       <r>    2.3926    1.0000 </r>
       <r>    2.5107    1.0000 </r>
       <r>    2.6751    1.0000 </r>
       <r>    2.7139    1.0000 </r>
       <r>    2.8014    1.0000 </r>
       <r>    2.9377    1.0000 </r>
       <r>    2.9727    1.0000 </r>
       <r>    3.0473    1.0000 </r>
       <r>    3.1289    1.0000 </r>
       <r>    3.1717    1.0000 </r>
       <r>    3.2602    1.0000 </r>
       <r>    3.3014    1.0000 </r>
       <r>    3.3537    1.0000 </r>
       <r>    3.4224    1.0000 </r>
       <r>    3.4612    1.0000 </r>
       <r>    3.5323    1.0000 </r>
       <r>    3.5598    1.0000 </r>
       <r>    3.6016    1.0000 </r>
       <r>    3.7406    1.0000 </r>
       <r>    3.8390    1.0000 </r>
       <r>    3.8888    1.0000 </r>
       <r>    3.9640    1.0000 </r>
       <r>    4.0558    1.0000 </r>
       <r>    4.0866    1.0000 </r>
       <r>    4.1277    1.0000 </r>
       <r>    4.3355    1.0000 </r>
       <r>    4.5266    1.0000 </r>
       <r>    4.5683    1.0000 </r>
       <r>    4.6212    1.0000 </r>
       <r>    4.6641    1.0000 </r>
       <r>    4.7020    1.0000 </r>
       <r>    4.7601    1.0000 </r>
       <r>    4.7990    1.0000 </r>
       <r>    4.8609    1.0000 </r>
       <r>    4.9323    1.0000 </r>
       <r>    4.9642    1.0000 </r>
       <r>    5.0149    1.0000 </r>
       <r>    5.0516    1.0000 </r>
       <r>    5.0889    1.0000 </r>
       <r>    5.1434    1.0000 </r>
       <r>    5.1793    1.0000 </r>
       <r>    5.2018    1.0000 </r>
       <r>    5.2636    1.0000 </r>
       <r>    5.2949    1.0000 </r>
       <r>    5.3497    1.0000 </r>
       <r>    5.4348    1.0000 </r>
       <r>    5.5091    1.0000 </r>
       <r>    5.5622    1.0000 </r>
       <r>    5.6530    1.0000 </r>
       <r>    5.7052    1.0000 </r>
       <r>    5.7758    1.0000 </r>
       <r>    5.8924    1.0000 </r>
       <r>    5.9433    1.0000 </r>
       <r>    6.0251    1.0000 </r>
       <r>    6.0845    1.0000 </r>
       <r>    6.1235    1.0000 </r>
       <r>    6.1624    1.0000 </r>
       <r>    6.1928    1.0001 </r>
       <r>    6.2439    1.0003 </r>
       <r>    6.2710    1.0005 </r>
       <r>    6.3241    1.0017 </r>
       <r>    6.3608    1.0036 </r>
       <r>    6.4191    1.0098 </r>
       <r>    6.4697    1.0194 </r>
       <r>    6.5048    1.0274 </r>
       <r>    6.5302    1.0325 </r>
       <r>    6.6025    1.0269 </r>
       <r>    6.6364    1.0014 </r>
       <r>    6.6610    0.9683 </r>
       <r>    6.7477    0.7356 </r>
       <r>    6.7753    0.6284 </r>
       <r>    6.8134    0.4688 </r>
       <r>    6.9336    0.0638 </r>
       <r>    6.9951   -0.0185 </r>
       <r>    7.0292   -0.0333 </r>
       <r>    7.0883   -0.0314 </r>
       <r>    7.1132   -0.0260 </r>
       <r>    7.2051   -0.0081 </r>
       <r>    7.2580   -0.0032 </r>
       <r>    7.2995   -0.0013 </r>
       <r>    7.3651   -0.0003 </r>
       <r>    7.5180   -0.0000 </r>
       <r>    7.5333   -0.0000 </r>
       <r>    7.8447   -0.0000 </r>
       <r>    7.9051   -0.0000 </r>
       <r>    7.9603   -0.0000 </r>
       <r>    8.0085   -0.0000 </r>
       <r>    8.1613   -0.0000 </r>
       <r>    8.3935   -0.0000 </r>
       <r>    8.6067   -0.0000 </r>
       <r>    8.6738   -0.0000 </r>
       <r>    8.6951   -0.0000 </r>
       <r>    8.7252   -0.0000 </r>
       <r>    8.8109   -0.0000 </r>
       <r>    8.8797   -0.0000 </r>
       <r>    8.9135   -0.0000 </r>
       <r>    9.0013   -0.0000 </r>
       <r>    9.0322   -0.0000 </r>
       <r>    9.1337   -0.0000 </r>
      </set>
      <set comment="kpoint 3">
       <r>  -47.2036    1.0000 </r>
       <r>  -47.1941    1.0000 </r>
       <r>  -47.1585    1.0000 </r>
       <r>  -47.1011    1.0000 </r>
       <r>  -47.0631    1.0000 </r>
       <r>  -46.9972    1.0000 </r>
       <r>  -23.7554    1.0000 </r>
       <r>  -23.6839    1.0000 </r>
       <r>  -23.6219    1.0000 </r>
       <r>  -23.5111    1.0000 </r>
       <r>  -23.4014    1.0000 </r>
       <r>  -23.3840    1.0000 </r>
       <r>  -23.3704    1.0000 </r>
       <r>  -23.3384    1.0000 </r>
       <r>  -23.3206    1.0000 </r>
       <r>  -23.2891    1.0000 </r>
       <r>  -23.2799    1.0000 </r>
       <r>  -23.2641    1.0000 </r>
       <r>  -23.1903    1.0000 </r>
       <r>  -23.1620    1.0000 </r>
       <r>  -23.0589    1.0000 </r>
       <r>  -23.0280    1.0000 </r>
       <r>  -22.9604    1.0000 </r>
       <r>  -22.8188    1.0000 </r>
       <r>    0.3782    1.0000 </r>
       <r>    1.3642    1.0000 </r>
       <r>    1.4879    1.0000 </r>
       <r>    2.0224    1.0000 </r>
       <r>    2.2968    1.0000 </r>
       <r>    2.5809    1.0000 </r>
       <r>    2.6444    1.0000 </r>
       <r>    2.8120    1.0000 </r>
       <r>    2.8335    1.0000 </r>
       <r>    2.9412    1.0000 </r>
       <r>    3.0547    1.0000 </r>
       <r>    3.2411    1.0000 </r>
       <r>    3.3614    1.0000 </r>
       <r>    3.4067    1.0000 </r>
       <r>    3.4393    1.0000 </r>
       <r>    3.5092    1.0000 </r>
       <r>    3.5874    1.0000 </r>
       <r>    3.6144    1.0000 </r>
       <r>    3.6848    1.0000 </r>
       <r>    3.7372    1.0000 </r>
       <r>    3.7768    1.0000 </r>
       <r>    3.8514    1.0000 </r>
       <r>    3.9055    1.0000 </r>
       <r>    3.9294    1.0000 </r>
       <r>    3.9684    1.0000 </r>
       <r>    4.0047    1.0000 </r>
       <r>    4.1118    1.0000 </r>
       <r>    4.1356    1.0000 </r>
       <r>    4.2377    1.0000 </r>
       <r>    4.2841    1.0000 </r>
       <r>    4.3281    1.0000 </r>
       <r>    4.4127    1.0000 </r>
       <r>    4.5519    1.0000 </r>
       <r>    4.5674    1.0000 </r>
       <r>    4.6413    1.0000 </r>
       <r>    4.7011    1.0000 </r>
       <r>    4.7935    1.0000 </r>
       <r>    4.8032    1.0000 </r>
       <r>    4.8277    1.0000 </r>
       <r>    4.8871    1.0000 </r>
       <r>    4.9207    1.0000 </r>
       <r>    4.9719    1.0000 </r>
       <r>    5.0198    1.0000 </r>
       <r>    5.0404    1.0000 </r>
       <r>    5.0710    1.0000 </r>
       <r>    5.1044    1.0000 </r>
       <r>    5.1276    1.0000 </r>
       <r>    5.1778    1.0000 </r>
       <r>    5.2492    1.0000 </r>
       <r>    5.2673    1.0000 </r>
       <r>    5.3171    1.0000 </r>
       <r>    5.3960    1.0000 </r>
       <r>    5.4272    1.0000 </r>
       <r>    5.4548    1.0000 </r>
       <r>    5.4791    1.0000 </r>
       <r>    5.5406    1.0000 </r>
       <r>    5.5718    1.0000 </r>
       <r>    5.6601    1.0000 </r>
       <r>    5.7628    1.0000 </r>
       <r>    5.8127    1.0000 </r>
       <r>    5.8678    1.0000 </r>
       <r>    5.9482    1.0000 </r>
       <r>    5.9776    1.0000 </r>
       <r>    6.0275    1.0000 </r>
       <r>    6.0605    1.0000 </r>
       <r>    6.0917    1.0000 </r>
       <r>    6.1356    1.0000 </r>
       <r>    6.1566    1.0000 </r>
       <r>    6.1866    1.0001 </r>
       <r>    6.2424    1.0002 </r>
       <r>    6.2589    1.0004 </r>
       <r>    6.2964    1.0009 </r>
       <r>    6.3600    1.0036 </r>
       <r>    6.3996    1.0072 </r>
       <r>    6.4262    1.0109 </r>
       <r>    6.4700    1.0194 </r>
       <r>    6.5899    1.0316 </r>
       <r>    6.6228    1.0141 </r>
       <r>    6.6563    0.9757 </r>
       <r>    6.7173    0.8376 </r>
       <r>    6.7734    0.6359 </r>
       <r>    6.7865    0.5822 </r>
       <r>    6.8265    0.4139 </r>
       <r>    6.8526    0.3086 </r>
       <r>    6.9376    0.0556 </r>
       <r>    7.0757   -0.0335 </r>
       <r>    7.1302   -0.0221 </r>
       <r>    7.2424   -0.0043 </r>
       <r>    7.6075   -0.0000 </r>
       <r>    7.7815   -0.0000 </r>
       <r>    8.1215   -0.0000 </r>
       <r>    8.3069   -0.0000 </r>
       <r>    8.5375   -0.0000 </r>
       <r>    8.6335   -0.0000 </r>
       <r>    8.6501   -0.0000 </r>
       <r>    8.7245   -0.0000 </r>
       <r>    8.8442   -0.0000 </r>
       <r>    8.9046   -0.0000 </r>
       <r>    8.9714   -0.0000 </r>
       <r>    9.0106   -0.0000 </r>
       <r>    9.0994   -0.0000 </r>
       <r>    9.1708   -0.0000 </r>
       <r>    9.2357   -0.0000 </r>
       <r>    9.3047   -0.0000 </r>
      </set>
      <set comment="kpoint 4">
       <r>  -47.2040    1.0000 </r>
       <r>  -47.1940    1.0000 </r>
       <r>  -47.1586    1.0000 </r>
       <r>  -47.1011    1.0000 </r>
       <r>  -47.0629    1.0000 </r>
       <r>  -46.9972    1.0000 </r>
       <r>  -23.7525    1.0000 </r>
       <r>  -23.6832    1.0000 </r>
       <r>  -23.6183    1.0000 </r>
       <r>  -23.5126    1.0000 </r>
       <r>  -23.4006    1.0000 </r>
       <r>  -23.3819    1.0000 </r>
       <r>  -23.3684    1.0000 </r>
       <r>  -23.3369    1.0000 </r>
       <r>  -23.3206    1.0000 </r>
       <r>  -23.2896    1.0000 </r>
       <r>  -23.2804    1.0000 </r>
       <r>  -23.2641    1.0000 </r>
       <r>  -23.1900    1.0000 </r>
       <r>  -23.1623    1.0000 </r>
       <r>  -23.0609    1.0000 </r>
       <r>  -23.0269    1.0000 </r>
       <r>  -22.9607    1.0000 </r>
       <r>  -22.8193    1.0000 </r>
       <r>   -0.3801    1.0000 </r>
       <r>    1.3123    1.0000 </r>
       <r>    1.5998    1.0000 </r>
       <r>    1.9420    1.0000 </r>
       <r>    2.1452    1.0000 </r>
       <r>    2.3837    1.0000 </r>
       <r>    2.4564    1.0000 </r>
       <r>    2.5849    1.0000 </r>
       <r>    2.7176    1.0000 </r>
       <r>    2.7623    1.0000 </r>
       <r>    2.8164    1.0000 </r>
       <r>    2.8618    1.0000 </r>
       <r>    2.9507    1.0000 </r>
       <r>    3.0584    1.0000 </r>
       <r>    3.1391    1.0000 </r>
       <r>    3.2369    1.0000 </r>
       <r>    3.2559    1.0000 </r>
       <r>    3.3397    1.0000 </r>
       <r>    3.3681    1.0000 </r>
       <r>    3.4561    1.0000 </r>
       <r>    3.5532    1.0000 </r>
       <r>    3.5874    1.0000 </r>
       <r>    3.6673    1.0000 </r>
       <r>    3.7128    1.0000 </r>
       <r>    3.7331    1.0000 </r>
       <r>    3.7671    1.0000 </r>
       <r>    3.8655    1.0000 </r>
       <r>    3.8954    1.0000 </r>
       <r>    3.9880    1.0000 </r>
       <r>    4.0198    1.0000 </r>
       <r>    4.1977    1.0000 </r>
       <r>    4.3545    1.0000 </r>
       <r>    4.5554    1.0000 </r>
       <r>    4.5975    1.0000 </r>
       <r>    4.6916    1.0000 </r>
       <r>    4.7184    1.0000 </r>
       <r>    4.7478    1.0000 </r>
       <r>    4.7930    1.0000 </r>
       <r>    4.8568    1.0000 </r>
       <r>    4.9257    1.0000 </r>
       <r>    4.9501    1.0000 </r>
       <r>    5.0401    1.0000 </r>
       <r>    5.0675    1.0000 </r>
       <r>    5.0960    1.0000 </r>
       <r>    5.1396    1.0000 </r>
       <r>    5.1641    1.0000 </r>
       <r>    5.2358    1.0000 </r>
       <r>    5.2823    1.0000 </r>
       <r>    5.3451    1.0000 </r>
       <r>    5.3856    1.0000 </r>
       <r>    5.4219    1.0000 </r>
       <r>    5.5454    1.0000 </r>
       <r>    5.6233    1.0000 </r>
       <r>    5.6987    1.0000 </r>
       <r>    5.7780    1.0000 </r>
       <r>    5.8066    1.0000 </r>
       <r>    5.9700    1.0000 </r>
       <r>    6.1058    1.0000 </r>
       <r>    6.1856    1.0001 </r>
       <r>    6.2245    1.0002 </r>
       <r>    6.2347    1.0002 </r>
       <r>    6.2724    1.0005 </r>
       <r>    6.3365    1.0022 </r>
       <r>    6.3697    1.0043 </r>
       <r>    6.4336    1.0122 </r>
       <r>    6.5087    1.0282 </r>
       <r>    6.5485    1.0349 </r>
       <r>    6.6086    1.0238 </r>
       <r>    6.7856    0.5861 </r>
       <r>    6.8334    0.3852 </r>
       <r>    6.8443    0.3411 </r>
       <r>    6.8704    0.2425 </r>
       <r>    6.9391    0.0528 </r>
       <r>    6.9758   -0.0015 </r>
       <r>    7.0037   -0.0239 </r>
       <r>    7.0770   -0.0333 </r>
       <r>    7.1187   -0.0248 </r>
       <r>    7.1603   -0.0156 </r>
       <r>    7.1864   -0.0108 </r>
       <r>    7.2197   -0.0064 </r>
       <r>    7.2773   -0.0021 </r>
       <r>    7.3045   -0.0012 </r>
       <r>    7.3942   -0.0001 </r>
       <r>    7.4167   -0.0001 </r>
       <r>    7.4485   -0.0000 </r>
       <r>    7.5481   -0.0000 </r>
       <r>    7.5765   -0.0000 </r>
       <r>    7.6614   -0.0000 </r>
       <r>    7.6955   -0.0000 </r>
       <r>    8.0156   -0.0000 </r>
       <r>    8.1300   -0.0000 </r>
       <r>    8.2006   -0.0000 </r>
       <r>    8.2435   -0.0000 </r>
       <r>    8.3096   -0.0000 </r>
       <r>    8.3753   -0.0000 </r>
       <r>    8.4138   -0.0000 </r>
       <r>    8.4574   -0.0000 </r>
       <r>    8.5052   -0.0000 </r>
       <r>    8.5897   -0.0000 </r>
       <r>    8.6055   -0.0000 </r>
       <r>    8.6679   -0.0000 </r>
       <r>    8.7935   -0.0000 </r>
       <r>    8.8583   -0.0000 </r>
       <r>    9.0042   -0.0000 </r>
      </set>
      <set comment="kpoint 5">
       <r>  -47.2039    1.0000 </r>
       <r>  -47.1940    1.0000 </r>
       <r>  -47.1585    1.0000 </r>
       <r>  -47.1011    1.0000 </r>
       <r>  -47.0630    1.0000 </r>
       <r>  -46.9972    1.0000 </r>
       <r>  -23.7528    1.0000 </r>
       <r>  -23.6836    1.0000 </r>
       <r>  -23.6201    1.0000 </r>
       <r>  -23.5125    1.0000 </r>
       <r>  -23.4009    1.0000 </r>
       <r>  -23.3826    1.0000 </r>
       <r>  -23.3692    1.0000 </r>
       <r>  -23.3373    1.0000 </r>
       <r>  -23.3208    1.0000 </r>
       <r>  -23.2895    1.0000 </r>
       <r>  -23.2801    1.0000 </r>
       <r>  -23.2640    1.0000 </r>
       <r>  -23.1901    1.0000 </r>
       <r>  -23.1623    1.0000 </r>
       <r>  -23.0601    1.0000 </r>
       <r>  -23.0269    1.0000 </r>
       <r>  -22.9607    1.0000 </r>
       <r>  -22.8191    1.0000 </r>
       <r>   -0.1967    1.0000 </r>
       <r>    1.3064    1.0000 </r>
       <r>    1.7426    1.0000 </r>
       <r>    2.1934    1.0000 </r>
       <r>    2.4098    1.0000 </r>
       <r>    2.4807    1.0000 </r>
       <r>    2.5476    1.0000 </r>
       <r>    2.6422    1.0000 </r>
       <r>    2.7576    1.0000 </r>
       <r>    2.8132    1.0000 </r>
       <r>    2.9082    1.0000 </r>
       <r>    2.9802    1.0000 </r>
       <r>    3.0271    1.0000 </r>
       <r>    3.0797    1.0000 </r>
       <r>    3.1641    1.0000 </r>
       <r>    3.1870    1.0000 </r>
       <r>    3.2807    1.0000 </r>
       <r>    3.3353    1.0000 </r>
       <r>    3.4059    1.0000 </r>
       <r>    3.4861    1.0000 </r>
       <r>    3.5525    1.0000 </r>
       <r>    3.6192    1.0000 </r>
       <r>    3.6784    1.0000 </r>
       <r>    3.7011    1.0000 </r>
       <r>    3.8019    1.0000 </r>
       <r>    3.8567    1.0000 </r>
       <r>    3.9565    1.0000 </r>
       <r>    4.0254    1.0000 </r>
       <r>    4.0817    1.0000 </r>
       <r>    4.1615    1.0000 </r>
       <r>    4.3788    1.0000 </r>
       <r>    4.4071    1.0000 </r>
       <r>    4.5328    1.0000 </r>
       <r>    4.6170    1.0000 </r>
       <r>    4.6636    1.0000 </r>
       <r>    4.7518    1.0000 </r>
       <r>    4.7857    1.0000 </r>
       <r>    4.8235    1.0000 </r>
       <r>    4.8457    1.0000 </r>
       <r>    4.8985    1.0000 </r>
       <r>    4.9330    1.0000 </r>
       <r>    5.0017    1.0000 </r>
       <r>    5.0509    1.0000 </r>
       <r>    5.0682    1.0000 </r>
       <r>    5.0946    1.0000 </r>
       <r>    5.1759    1.0000 </r>
       <r>    5.2604    1.0000 </r>
       <r>    5.2789    1.0000 </r>
       <r>    5.3018    1.0000 </r>
       <r>    5.4085    1.0000 </r>
       <r>    5.4476    1.0000 </r>
       <r>    5.5246    1.0000 </r>
       <r>    5.5860    1.0000 </r>
       <r>    5.6944    1.0000 </r>
       <r>    5.7343    1.0000 </r>
       <r>    5.7591    1.0000 </r>
       <r>    5.8159    1.0000 </r>
       <r>    5.8678    1.0000 </r>
       <r>    5.9391    1.0000 </r>
       <r>    6.0240    1.0000 </r>
       <r>    6.0897    1.0000 </r>
       <r>    6.1338    1.0000 </r>
       <r>    6.1738    1.0000 </r>
       <r>    6.2323    1.0002 </r>
       <r>    6.3185    1.0015 </r>
       <r>    6.3474    1.0028 </r>
       <r>    6.4136    1.0090 </r>
       <r>    6.4442    1.0141 </r>
       <r>    6.4616    1.0176 </r>
       <r>    6.5229    1.0312 </r>
       <r>    6.5713    1.0350 </r>
       <r>    6.6302    1.0076 </r>
       <r>    6.6645    0.9626 </r>
       <r>    6.7029    0.8785 </r>
       <r>    6.7301    0.7971 </r>
       <r>    6.7713    0.6447 </r>
       <r>    6.8189    0.4455 </r>
       <r>    6.8757    0.2240 </r>
       <r>    6.9645    0.0119 </r>
       <r>    6.9918   -0.0161 </r>
       <r>    7.0680   -0.0345 </r>
       <r>    7.1199   -0.0245 </r>
       <r>    7.2137   -0.0070 </r>
       <r>    7.3093   -0.0011 </r>
       <r>    7.3948   -0.0001 </r>
       <r>    7.4837   -0.0000 </r>
       <r>    7.5220   -0.0000 </r>
       <r>    7.6809   -0.0000 </r>
       <r>    7.8443   -0.0000 </r>
       <r>    7.8660   -0.0000 </r>
       <r>    8.0861   -0.0000 </r>
       <r>    8.2106   -0.0000 </r>
       <r>    8.2726   -0.0000 </r>
       <r>    8.3877   -0.0000 </r>
       <r>    8.4495   -0.0000 </r>
       <r>    8.4992   -0.0000 </r>
       <r>    8.5179   -0.0000 </r>
       <r>    8.5579   -0.0000 </r>
       <r>    8.7075   -0.0000 </r>
       <r>    8.7641   -0.0000 </r>
       <r>    8.9080   -0.0000 </r>
       <r>    8.9862   -0.0000 </r>
       <r>    9.1491   -0.0000 </r>
       <r>    9.1831   -0.0000 </r>
      </set>
      <set comment="kpoint 6">
       <r>  -47.2035    1.0000 </r>
       <r>  -47.1942    1.0000 </r>
       <r>  -47.1585    1.0000 </r>
       <r>  -47.1011    1.0000 </r>
       <r>  -47.0631    1.0000 </r>
       <r>  -46.9972    1.0000 </r>
       <r>  -23.7544    1.0000 </r>
       <r>  -23.6839    1.0000 </r>
       <r>  -23.6220    1.0000 </r>
       <r>  -23.5126    1.0000 </r>
       <r>  -23.4014    1.0000 </r>
       <r>  -23.3837    1.0000 </r>
       <r>  -23.3705    1.0000 </r>
       <r>  -23.3383    1.0000 </r>
       <r>  -23.3208    1.0000 </r>
       <r>  -23.2892    1.0000 </r>
       <r>  -23.2799    1.0000 </r>
       <r>  -23.2637    1.0000 </r>
       <r>  -23.1903    1.0000 </r>
       <r>  -23.1621    1.0000 </r>
       <r>  -23.0585    1.0000 </r>
       <r>  -23.0277    1.0000 </r>
       <r>  -22.9605    1.0000 </r>
       <r>  -22.8189    1.0000 </r>
       <r>    0.4028    1.0000 </r>
       <r>    1.3605    1.0000 </r>
       <r>    1.5584    1.0000 </r>
       <r>    2.1501    1.0000 </r>
       <r>    2.2987    1.0000 </r>
       <r>    2.4308    1.0000 </r>
       <r>    2.7012    1.0000 </r>
       <r>    2.8054    1.0000 </r>
       <r>    2.9037    1.0000 </r>
       <r>    2.9703    1.0000 </r>
       <r>    3.0780    1.0000 </r>
       <r>    3.2772    1.0000 </r>
       <r>    3.3200    1.0000 </r>
       <r>    3.3705    1.0000 </r>
       <r>    3.4293    1.0000 </r>
       <r>    3.4771    1.0000 </r>
       <r>    3.5123    1.0000 </r>
       <r>    3.5624    1.0000 </r>
       <r>    3.5861    1.0000 </r>
       <r>    3.6377    1.0000 </r>
       <r>    3.7352    1.0000 </r>
       <r>    3.7645    1.0000 </r>
       <r>    3.8210    1.0000 </r>
       <r>    3.8784    1.0000 </r>
       <r>    3.9738    1.0000 </r>
       <r>    4.0042    1.0000 </r>
       <r>    4.0847    1.0000 </r>
       <r>    4.1184    1.0000 </r>
       <r>    4.1449    1.0000 </r>
       <r>    4.2163    1.0000 </r>
       <r>    4.2875    1.0000 </r>
       <r>    4.3770    1.0000 </r>
       <r>    4.5027    1.0000 </r>
       <r>    4.6129    1.0000 </r>
       <r>    4.6765    1.0000 </r>
       <r>    4.7439    1.0000 </r>
       <r>    4.7834    1.0000 </r>
       <r>    4.8358    1.0000 </r>
       <r>    4.8870    1.0000 </r>
       <r>    4.9295    1.0000 </r>
       <r>    4.9775    1.0000 </r>
       <r>    5.0138    1.0000 </r>
       <r>    5.0714    1.0000 </r>
       <r>    5.0901    1.0000 </r>
       <r>    5.1480    1.0000 </r>
       <r>    5.1578    1.0000 </r>
       <r>    5.2160    1.0000 </r>
       <r>    5.2689    1.0000 </r>
       <r>    5.2896    1.0000 </r>
       <r>    5.3759    1.0000 </r>
       <r>    5.3991    1.0000 </r>
       <r>    5.4513    1.0000 </r>
       <r>    5.4700    1.0000 </r>
       <r>    5.5038    1.0000 </r>
       <r>    5.5658    1.0000 </r>
       <r>    5.6345    1.0000 </r>
       <r>    5.6509    1.0000 </r>
       <r>    5.6863    1.0000 </r>
       <r>    5.7505    1.0000 </r>
       <r>    5.7772    1.0000 </r>
       <r>    5.7969    1.0000 </r>
       <r>    5.8442    1.0000 </r>
       <r>    5.8825    1.0000 </r>
       <r>    5.9582    1.0000 </r>
       <r>    6.0000    1.0000 </r>
       <r>    6.0300    1.0000 </r>
       <r>    6.0760    1.0000 </r>
       <r>    6.1097    1.0000 </r>
       <r>    6.1509    1.0000 </r>
       <r>    6.1879    1.0001 </r>
       <r>    6.2121    1.0001 </r>
       <r>    6.2538    1.0003 </r>
       <r>    6.3271    1.0018 </r>
       <r>    6.3478    1.0028 </r>
       <r>    6.3877    1.0059 </r>
       <r>    6.4162    1.0094 </r>
       <r>    6.4773    1.0211 </r>
       <r>    6.5266    1.0319 </r>
       <r>    6.5711    1.0350 </r>
       <r>    6.6304    1.0075 </r>
       <r>    6.7122    0.8527 </r>
       <r>    6.7727    0.6387 </r>
       <r>    6.8605    0.2786 </r>
       <r>    6.8868    0.1870 </r>
       <r>    6.9661    0.0098 </r>
       <r>    7.1657   -0.0145 </r>
       <r>    7.2814   -0.0020 </r>
       <r>    7.4536   -0.0000 </r>
       <r>    7.7526   -0.0000 </r>
       <r>    8.0209   -0.0000 </r>
       <r>    8.2589   -0.0000 </r>
       <r>    8.3851   -0.0000 </r>
       <r>    8.5095   -0.0000 </r>
       <r>    8.5746   -0.0000 </r>
       <r>    8.6091   -0.0000 </r>
       <r>    8.7664   -0.0000 </r>
       <r>    8.8289   -0.0000 </r>
       <r>    8.8494   -0.0000 </r>
       <r>    8.9283   -0.0000 </r>
       <r>    8.9804   -0.0000 </r>
       <r>    9.0445   -0.0000 </r>
       <r>    9.0901   -0.0000 </r>
       <r>    9.1466   -0.0000 </r>
       <r>    9.2763   -0.0000 </r>
      </set>
      <set comment="kpoint 7">
       <r>  -47.2034    1.0000 </r>
       <r>  -47.1943    1.0000 </r>
       <r>  -47.1585    1.0000 </r>
       <r>  -47.1011    1.0000 </r>
       <r>  -47.0631    1.0000 </r>
       <r>  -46.9972    1.0000 </r>
       <r>  -23.7550    1.0000 </r>
       <r>  -23.6836    1.0000 </r>
       <r>  -23.6215    1.0000 </r>
       <r>  -23.5127    1.0000 </r>
       <r>  -23.4014    1.0000 </r>
       <r>  -23.3838    1.0000 </r>
       <r>  -23.3705    1.0000 </r>
       <r>  -23.3383    1.0000 </r>
       <r>  -23.3206    1.0000 </r>
       <r>  -23.2891    1.0000 </r>
       <r>  -23.2800    1.0000 </r>
       <r>  -23.2639    1.0000 </r>
       <r>  -23.1903    1.0000 </r>
       <r>  -23.1620    1.0000 </r>
       <r>  -23.0583    1.0000 </r>
       <r>  -23.0281    1.0000 </r>
       <r>  -22.9605    1.0000 </r>
       <r>  -22.8190    1.0000 </r>
       <r>    0.5675    1.0000 </r>
       <r>    1.3165    1.0000 </r>
       <r>    1.4708    1.0000 </r>
       <r>    1.9409    1.0000 </r>
       <r>    2.1026    1.0000 </r>
       <r>    2.5234    1.0000 </r>
       <r>    2.6013    1.0000 </r>
       <r>    2.7531    1.0000 </r>
       <r>    2.9223    1.0000 </r>
       <r>    2.9834    1.0000 </r>
       <r>    3.1270    1.0000 </r>
       <r>    3.1914    1.0000 </r>
       <r>    3.2726    1.0000 </r>
       <r>    3.3177    1.0000 </r>
       <r>    3.4174    1.0000 </r>
       <r>    3.4504    1.0000 </r>
       <r>    3.5370    1.0000 </r>
       <r>    3.5821    1.0000 </r>
       <r>    3.7028    1.0000 </r>
       <r>    3.7634    1.0000 </r>
       <r>    3.8554    1.0000 </r>
       <r>    3.8621    1.0000 </r>
       <r>    3.9302    1.0000 </r>
       <r>    3.9418    1.0000 </r>
       <r>    4.0223    1.0000 </r>
       <r>    4.0658    1.0000 </r>
       <r>    4.1265    1.0000 </r>
       <r>    4.1936    1.0000 </r>
       <r>    4.2551    1.0000 </r>
       <r>    4.3330    1.0000 </r>
       <r>    4.3830    1.0000 </r>
       <r>    4.4381    1.0000 </r>
       <r>    4.5448    1.0000 </r>
       <r>    4.6134    1.0000 </r>
       <r>    4.6944    1.0000 </r>
       <r>    4.7303    1.0000 </r>
       <r>    4.7811    1.0000 </r>
       <r>    4.8159    1.0000 </r>
       <r>    4.8609    1.0000 </r>
       <r>    4.9099    1.0000 </r>
       <r>    4.9249    1.0000 </r>
       <r>    4.9568    1.0000 </r>
       <r>    4.9764    1.0000 </r>
       <r>    5.0297    1.0000 </r>
       <r>    5.0685    1.0000 </r>
       <r>    5.1014    1.0000 </r>
       <r>    5.1305    1.0000 </r>
       <r>    5.1748    1.0000 </r>
       <r>    5.2181    1.0000 </r>
       <r>    5.2942    1.0000 </r>
       <r>    5.3312    1.0000 </r>
       <r>    5.3751    1.0000 </r>
       <r>    5.4359    1.0000 </r>
       <r>    5.5204    1.0000 </r>
       <r>    5.5531    1.0000 </r>
       <r>    5.6046    1.0000 </r>
       <r>    5.6169    1.0000 </r>
       <r>    5.6733    1.0000 </r>
       <r>    5.7304    1.0000 </r>
       <r>    5.7811    1.0000 </r>
       <r>    5.8300    1.0000 </r>
       <r>    5.8622    1.0000 </r>
       <r>    5.9013    1.0000 </r>
       <r>    5.9653    1.0000 </r>
       <r>    6.0223    1.0000 </r>
       <r>    6.0609    1.0000 </r>
       <r>    6.0997    1.0000 </r>
       <r>    6.1355    1.0000 </r>
       <r>    6.1946    1.0001 </r>
       <r>    6.2188    1.0001 </r>
       <r>    6.2456    1.0003 </r>
       <r>    6.3124    1.0013 </r>
       <r>    6.3631    1.0038 </r>
       <r>    6.4081    1.0083 </r>
       <r>    6.4632    1.0179 </r>
       <r>    6.5032    1.0270 </r>
       <r>    6.5218    1.0310 </r>
       <r>    6.5717    1.0350 </r>
       <r>    6.6145    1.0202 </r>
       <r>    6.6659    0.9601 </r>
       <r>    6.7268    0.8078 </r>
       <r>    6.7712    0.6448 </r>
       <r>    6.8251    0.4199 </r>
       <r>    6.8519    0.3114 </r>
       <r>    6.8924    0.1696 </r>
       <r>    6.9664    0.0094 </r>
       <r>    7.1153   -0.0255 </r>
       <r>    7.1897   -0.0103 </r>
       <r>    7.7212   -0.0000 </r>
       <r>    8.1340   -0.0000 </r>
       <r>    8.2750   -0.0000 </r>
       <r>    8.4977   -0.0000 </r>
       <r>    8.5204   -0.0000 </r>
       <r>    8.6565   -0.0000 </r>
       <r>    8.7068   -0.0000 </r>
       <r>    8.7553   -0.0000 </r>
       <r>    8.8669   -0.0000 </r>
       <r>    8.9127   -0.0000 </r>
       <r>    8.9721   -0.0000 </r>
       <r>    9.0048   -0.0000 </r>
       <r>    9.0524   -0.0000 </r>
       <r>    9.0912   -0.0000 </r>
       <r>    9.2269   -0.0000 </r>
       <r>    9.2804   -0.0000 </r>
      </set>
      <set comment="kpoint 8">
       <r>  -47.2037    1.0000 </r>
       <r>  -47.1942    1.0000 </r>
       <r>  -47.1586    1.0000 </r>
       <r>  -47.1011    1.0000 </r>
       <r>  -47.0630    1.0000 </r>
       <r>  -46.9972    1.0000 </r>
       <r>  -23.7538    1.0000 </r>
       <r>  -23.6831    1.0000 </r>
       <r>  -23.6193    1.0000 </r>
       <r>  -23.5127    1.0000 </r>
       <r>  -23.4008    1.0000 </r>
       <r>  -23.3826    1.0000 </r>
       <r>  -23.3691    1.0000 </r>
       <r>  -23.3376    1.0000 </r>
       <r>  -23.3205    1.0000 </r>
       <r>  -23.2894    1.0000 </r>
       <r>  -23.2802    1.0000 </r>
       <r>  -23.2640    1.0000 </r>
       <r>  -23.1902    1.0000 </r>
       <r>  -23.1620    1.0000 </r>
       <r>  -23.0597    1.0000 </r>
       <r>  -23.0277    1.0000 </r>
       <r>  -22.9606    1.0000 </r>
       <r>  -22.8193    1.0000 </r>
       <r>   -0.1003    1.0000 </r>
       <r>    1.3304    1.0000 </r>
       <r>    1.6915    1.0000 </r>
       <r>    1.8992    1.0000 </r>
       <r>    2.1852    1.0000 </r>
       <r>    2.4335    1.0000 </r>
       <r>    2.5584    1.0000 </r>
       <r>    2.6453    1.0000 </r>
       <r>    2.7355    1.0000 </r>
       <r>    2.8402    1.0000 </r>
       <r>    2.8677    1.0000 </r>
       <r>    2.9474    1.0000 </r>
       <r>    2.9954    1.0000 </r>
       <r>    3.0166    1.0000 </r>
       <r>    3.1021    1.0000 </r>
       <r>    3.2173    1.0000 </r>
       <r>    3.3553    1.0000 </r>
       <r>    3.3962    1.0000 </r>
       <r>    3.4878    1.0000 </r>
       <r>    3.5193    1.0000 </r>
       <r>    3.6745    1.0000 </r>
       <r>    3.7508    1.0000 </r>
       <r>    3.7916    1.0000 </r>
       <r>    3.8730    1.0000 </r>
       <r>    3.9182    1.0000 </r>
       <r>    3.9626    1.0000 </r>
       <r>    4.0381    1.0000 </r>
       <r>    4.0549    1.0000 </r>
       <r>    4.1361    1.0000 </r>
       <r>    4.2181    1.0000 </r>
       <r>    4.2891    1.0000 </r>
       <r>    4.3844    1.0000 </r>
       <r>    4.6036    1.0000 </r>
       <r>    4.6393    1.0000 </r>
       <r>    4.6807    1.0000 </r>
       <r>    4.7228    1.0000 </r>
       <r>    4.7275    1.0000 </r>
       <r>    4.8039    1.0000 </r>
       <r>    4.8473    1.0000 </r>
       <r>    4.8670    1.0000 </r>
       <r>    4.9184    1.0000 </r>
       <r>    4.9810    1.0000 </r>
       <r>    5.0119    1.0000 </r>
       <r>    5.0375    1.0000 </r>
       <r>    5.0922    1.0000 </r>
       <r>    5.1409    1.0000 </r>
       <r>    5.1562    1.0000 </r>
       <r>    5.2214    1.0000 </r>
       <r>    5.2404    1.0000 </r>
       <r>    5.3059    1.0000 </r>
       <r>    5.4386    1.0000 </r>
       <r>    5.5566    1.0000 </r>
       <r>    5.5712    1.0000 </r>
       <r>    5.6882    1.0000 </r>
       <r>    5.7642    1.0000 </r>
       <r>    5.8956    1.0000 </r>
       <r>    5.9292    1.0000 </r>
       <r>    5.9873    1.0000 </r>
       <r>    6.0029    1.0000 </r>
       <r>    6.0402    1.0000 </r>
       <r>    6.0904    1.0000 </r>
       <r>    6.1333    1.0000 </r>
       <r>    6.1702    1.0000 </r>
       <r>    6.2410    1.0002 </r>
       <r>    6.2854    1.0007 </r>
       <r>    6.3075    1.0012 </r>
       <r>    6.3466    1.0027 </r>
       <r>    6.3939    1.0065 </r>
       <r>    6.4225    1.0103 </r>
       <r>    6.4600    1.0173 </r>
       <r>    6.4952    1.0252 </r>
       <r>    6.5104    1.0286 </r>
       <r>    6.5601    1.0355 </r>
       <r>    6.6552    0.9773 </r>
       <r>    6.7175    0.8369 </r>
       <r>    6.8071    0.4954 </r>
       <r>    6.8632    0.2687 </r>
       <r>    6.9029    0.1387 </r>
       <r>    6.9501    0.0332 </r>
       <r>    7.0065   -0.0254 </r>
       <r>    7.0613   -0.0351 </r>
       <r>    7.0912   -0.0308 </r>
       <r>    7.1389   -0.0201 </r>
       <r>    7.2241   -0.0059 </r>
       <r>    7.3795   -0.0002 </r>
       <r>    7.5206   -0.0000 </r>
       <r>    7.6046   -0.0000 </r>
       <r>    7.7453   -0.0000 </r>
       <r>    7.9039   -0.0000 </r>
       <r>    7.9438   -0.0000 </r>
       <r>    8.1064   -0.0000 </r>
       <r>    8.1964   -0.0000 </r>
       <r>    8.3079   -0.0000 </r>
       <r>    8.3596   -0.0000 </r>
       <r>    8.4865   -0.0000 </r>
       <r>    8.6703   -0.0000 </r>
       <r>    8.7038   -0.0000 </r>
       <r>    8.7535   -0.0000 </r>
       <r>    8.8327   -0.0000 </r>
       <r>    8.8694   -0.0000 </r>
       <r>    8.9325   -0.0000 </r>
       <r>    8.9427   -0.0000 </r>
       <r>    8.9983   -0.0000 </r>
       <r>    9.1209   -0.0000 </r>
      </set>
      <set comment="kpoint 9">
       <r>  -47.2036    1.0000 </r>
       <r>  -47.1945    1.0000 </r>
       <r>  -47.1586    1.0000 </r>
       <r>  -47.1011    1.0000 </r>
       <r>  -47.0629    1.0000 </r>
       <r>  -46.9972    1.0000 </r>
       <r>  -23.7526    1.0000 </r>
       <r>  -23.6823    1.0000 </r>
       <r>  -23.6172    1.0000 </r>
       <r>  -23.5150    1.0000 </r>
       <r>  -23.4004    1.0000 </r>
       <r>  -23.3817    1.0000 </r>
       <r>  -23.3686    1.0000 </r>
       <r>  -23.3370    1.0000 </r>
       <r>  -23.3205    1.0000 </r>
       <r>  -23.2895    1.0000 </r>
       <r>  -23.2805    1.0000 </r>
       <r>  -23.2637    1.0000 </r>
       <r>  -23.1902    1.0000 </r>
       <r>  -23.1620    1.0000 </r>
       <r>  -23.0594    1.0000 </r>
       <r>  -23.0276    1.0000 </r>
       <r>  -22.9606    1.0000 </r>
       <r>  -22.8199    1.0000 </r>
       <r>   -0.0135    1.0000 </r>
       <r>    0.6964    1.0000 </r>
       <r>    1.6208    1.0000 </r>
       <r>    1.8389    1.0000 </r>
       <r>    2.1817    1.0000 </r>
       <r>    2.3003    1.0000 </r>
       <r>    2.4680    1.0000 </r>
       <r>    2.5486    1.0000 </r>
       <r>    2.6155    1.0000 </r>
       <r>    2.7144    1.0000 </r>
       <r>    2.8279    1.0000 </r>
       <r>    2.9134    1.0000 </r>
       <r>    3.0084    1.0000 </r>
       <r>    3.1250    1.0000 </r>
       <r>    3.1676    1.0000 </r>
       <r>    3.2341    1.0000 </r>
       <r>    3.3084    1.0000 </r>
       <r>    3.3483    1.0000 </r>
       <r>    3.4063    1.0000 </r>
       <r>    3.4741    1.0000 </r>
       <r>    3.5351    1.0000 </r>
       <r>    3.6075    1.0000 </r>
       <r>    3.6702    1.0000 </r>
       <r>    3.6943    1.0000 </r>
       <r>    3.7935    1.0000 </r>
       <r>    3.8367    1.0000 </r>
       <r>    3.8907    1.0000 </r>
       <r>    3.9163    1.0000 </r>
       <r>    3.9969    1.0000 </r>
       <r>    4.1071    1.0000 </r>
       <r>    4.3415    1.0000 </r>
       <r>    4.4446    1.0000 </r>
       <r>    4.5307    1.0000 </r>
       <r>    4.5668    1.0000 </r>
       <r>    4.6554    1.0000 </r>
       <r>    4.7237    1.0000 </r>
       <r>    4.7588    1.0000 </r>
[...]
       <r>    5.2343    1.0000 </r>
       <r>    5.2890    1.0000 </r>
       <r>    5.3176    1.0000 </r>
       <r>    5.3371    1.0000 </r>
       <r>    5.3731    1.0000 </r>
       <r>    5.4014    1.0000 </r>
       <r>    5.4854    1.0000 </r>
       <r>    5.5244    1.0000 </r>
       <r>    5.5852    1.0000 </r>
       <r>    5.6526    1.0000 </r>
       <r>    5.7161    1.0000 </r>
       <r>    5.8085    1.0000 </r>
       <r>    5.8472    1.0000 </r>
       <r>    5.8821    1.0000 </r>
       <r>    5.9429    1.0000 </r>
       <r>    5.9668    1.0000 </r>
       <r>    6.0218    1.0000 </r>
       <r>    6.0413    1.0000 </r>
       <r>    6.1073    1.0000 </r>
       <r>    6.1487    1.0000 </r>
       <r>    6.1860    1.0001 </r>
       <r>    6.2423    1.0002 </r>
       <r>    6.2714    1.0005 </r>
       <r>    6.3270    1.0018 </r>
       <r>    6.3617    1.0037 </r>
       <r>    6.3928    1.0064 </r>
       <r>    6.4433    1.0139 </r>
       <r>    6.4952    1.0252 </r>
       <r>    6.5720    1.0350 </r>
       <r>    6.6278    1.0098 </r>
       <r>    6.6564    0.9756 </r>
       <r>    6.7067    0.8682 </r>
       <r>    6.7668    0.6626 </r>
       <r>    6.8708    0.2411 </r>
       <r>    6.8958    0.1594 </r>
       <r>    6.9260    0.0801 </r>
       <r>    6.9947   -0.0182 </r>
       <r>    7.1615   -0.0153 </r>
       <r>    7.2187   -0.0065 </r>
       <r>    7.3137   -0.0010 </r>
       <r>    7.5550   -0.0000 </r>
       <r>    7.6219   -0.0000 </r>
       <r>    7.7392   -0.0000 </r>
       <r>    7.9147   -0.0000 </r>
       <r>    7.9810   -0.0000 </r>
       <r>    8.0643   -0.0000 </r>
       <r>    8.1478   -0.0000 </r>
       <r>    8.2048   -0.0000 </r>
       <r>    8.3035   -0.0000 </r>
       <r>    8.3159   -0.0000 </r>
       <r>    8.4086   -0.0000 </r>
       <r>    8.4699   -0.0000 </r>
       <r>    8.5571   -0.0000 </r>
       <r>    8.6362   -0.0000 </r>
       <r>    8.7743   -0.0000 </r>
       <r>    8.8306   -0.0000 </r>
       <r>    8.8641   -0.0000 </r>
       <r>    8.9127   -0.0000 </r>
       <r>    8.9902   -0.0000 </r>
       <r>    9.0416   -0.0000 </r>
      </set>
     </set>
    </set>
   </array>
  </eigenvalues>
  <separator name="orbital magnetization" >
   <v name="MAGDIPOLOUT">      0.00000000      0.00000000      0.00000000</v>
  </separator>
  <dos>
   <i name="efermi">      6.80602653 </i>
   <total>
    <array>
     <dimension dim="1">gridpoints</dimension>
     <dimension dim="2">spin</dimension>
     <field>energy</field>
     <field>total</field>
     <field>integrated</field>
     <set>
      <set comment="spin 1">
       <r>   -50.0315     0.0000     0.0000 </r>
       <r>   -49.8242     0.0000     0.0000 </r>
       <r>   -49.6168     0.0000     0.0000 </r>
       <r>   -49.4095     0.0000     0.0000 </r>
       <r>   -49.2022     0.0000     0.0000 </r>
       <r>   -48.9949    -0.0000    -0.0000 </r>
       <r>   -48.7875    -0.0000    -0.0000 </r>
       <r>   -48.5802    -0.0000    -0.0000 </r>
       <r>   -48.3729    -0.0000    -0.0000 </r>
       <r>   -48.1655    -0.0000    -0.0000 </r>
       <r>   -47.9582    -0.0000    -0.0000 </r>
       <r>   -47.7509    -0.0079    -0.0016 </r>
       <r>   -47.5436    -0.4858    -0.1024 </r>
       <r>   -47.3362     0.4383    -0.0115 </r>
       <r>   -47.1289    27.5845     5.7075 </r>
       <r>   -46.9216    29.0851    11.7377 </r>
       <r>   -46.7143     1.8891    12.1293 </r>
       <r>   -46.5069    -0.6056    12.0038 </r>
       <r>   -46.2996    -0.0181    12.0000 </r>
       <r>   -46.0923    -0.0001    12.0000 </r>
       <r>   -45.8849    -0.0000    12.0000 </r>
       <r>   -45.6776    -0.0000    12.0000 </r>
       <r>   -45.4703     0.0000    12.0000 </r>
       <r>   -45.2630     0.0000    12.0000 </r>
       <r>   -45.0556     0.0000    12.0000 </r>
       <r>   -44.8483     0.0000    12.0000 </r>
       <r>   -44.6410     0.0000    12.0000 </r>
       <r>   -44.4337     0.0000    12.0000 </r>
       <r>   -44.2263     0.0000    12.0000 </r>
       <r>   -44.0190     0.0000    12.0000 </r>
       <r>   -43.8117     0.0000    12.0000 </r>
       <r>   -43.6043     0.0000    12.0000 </r>
       <r>   -43.3970     0.0000    12.0000 </r>
       <r>   -43.1897     0.0000    12.0000 </r>
       <r>   -42.9824     0.0000    12.0000 </r>
       <r>   -42.7750     0.0000    12.0000 </r>
       <r>   -42.5677     0.0000    12.0000 </r>
       <r>   -42.3604     0.0000    12.0000 </r>
       <r>   -42.1531     0.0000    12.0000 </r>
       <r>   -41.9457     0.0000    12.0000 </r>
       <r>   -41.7384     0.0000    12.0000 </r>
       <r>   -41.5311     0.0000    12.0000 </r>
       <r>   -41.3237     0.0000    12.0000 </r>
       <r>   -41.1164     0.0000    12.0000 </r>
       <r>   -40.9091     0.0000    12.0000 </r>
       <r>   -40.7018     0.0000    12.0000 </r>
       <r>   -40.4944     0.0000    12.0000 </r>
       <r>   -40.2871     0.0000    12.0000 </r>
       <r>   -40.0798     0.0000    12.0000 </r>
       <r>   -39.8725     0.0000    12.0000 </r>
       <r>   -39.6651     0.0000    12.0000 </r>
       <r>   -39.4578     0.0000    12.0000 </r>
       <r>   -39.2505     0.0000    12.0000 </r>
       <r>   -39.0431     0.0000    12.0000 </r>
       <r>   -38.8358     0.0000    12.0000 </r>
       <r>   -38.6285     0.0000    12.0000 </r>
       <r>   -38.4212     0.0000    12.0000 </r>
       <r>   -38.2138     0.0000    12.0000 </r>
       <r>   -38.0065     0.0000    12.0000 </r>
       <r>   -37.7992     0.0000    12.0000 </r>
       <r>   -37.5918     0.0000    12.0000 </r>
       <r>   -37.3845     0.0000    12.0000 </r>
       <r>   -37.1772     0.0000    12.0000 </r>
       <r>   -36.9699     0.0000    12.0000 </r>
       <r>   -36.7625     0.0000    12.0000 </r>
       <r>   -36.5552     0.0000    12.0000 </r>
       <r>   -36.3479     0.0000    12.0000 </r>
       <r>   -36.1406     0.0000    12.0000 </r>
       <r>   -35.9332     0.0000    12.0000 </r>
       <r>   -35.7259     0.0000    12.0000 </r>
       <r>   -35.5186     0.0000    12.0000 </r>
       <r>   -35.3112     0.0000    12.0000 </r>
       <r>   -35.1039     0.0000    12.0000 </r>
       <r>   -34.8966     0.0000    12.0000 </r>
       <r>   -34.6893     0.0000    12.0000 </r>
       <r>   -34.4819     0.0000    12.0000 </r>
       <r>   -34.2746     0.0000    12.0000 </r>
       <r>   -34.0673     0.0000    12.0000 </r>
       <r>   -33.8600     0.0000    12.0000 </r>
       <r>   -33.6526     0.0000    12.0000 </r>
       <r>   -33.4453     0.0000    12.0000 </r>
       <r>   -33.2380     0.0000    12.0000 </r>
       <r>   -33.0306     0.0000    12.0000 </r>
       <r>   -32.8233     0.0000    12.0000 </r>
       <r>   -32.6160     0.0000    12.0000 </r>
       <r>   -32.4087     0.0000    12.0000 </r>
       <r>   -32.2013     0.0000    12.0000 </r>
       <r>   -31.9940     0.0000    12.0000 </r>
       <r>   -31.7867     0.0000    12.0000 </r>
       <r>   -31.5794     0.0000    12.0000 </r>
       <r>   -31.3720     0.0000    12.0000 </r>
       <r>   -31.1647     0.0000    12.0000 </r>
       <r>   -30.9574     0.0000    12.0000 </r>
       <r>   -30.7500     0.0000    12.0000 </r>
       <r>   -30.5427     0.0000    12.0000 </r>
       <r>   -30.3354     0.0000    12.0000 </r>
       <r>   -30.1281     0.0000    12.0000 </r>
       <r>   -29.9207     0.0000    12.0000 </r>
       <r>   -29.7134     0.0000    12.0000 </r>
       <r>   -29.5061     0.0000    12.0000 </r>
       <r>   -29.2988     0.0000    12.0000 </r>
       <r>   -29.0914     0.0000    12.0000 </r>
       <r>   -28.8841     0.0000    12.0000 </r>
       <r>   -28.6768     0.0000    12.0000 </r>
       <r>   -28.4694     0.0000    12.0000 </r>
       <r>   -28.2621     0.0000    12.0000 </r>
       <r>   -28.0548     0.0000    12.0000 </r>
       <r>   -27.8475     0.0000    12.0000 </r>
       <r>   -27.6401     0.0000    12.0000 </r>
       <r>   -27.4328     0.0000    12.0000 </r>
       <r>   -27.2255     0.0000    12.0000 </r>
       <r>   -27.0182     0.0000    12.0000 </r>
       <r>   -26.8108     0.0000    12.0000 </r>
       <r>   -26.6035     0.0000    12.0000 </r>
       <r>   -26.3962     0.0000    12.0000 </r>
       <r>   -26.1888     0.0000    12.0000 </r>
       <r>   -25.9815     0.0000    12.0000 </r>
       <r>   -25.7742     0.0000    12.0000 </r>
       <r>   -25.5669     0.0000    12.0000 </r>
       <r>   -25.3595    -0.0000    12.0000 </r>
       <r>   -25.1522    -0.0000    12.0000 </r>
       <r>   -24.9449    -0.0000    12.0000 </r>
       <r>   -24.7376    -0.0000    12.0000 </r>
       <r>   -24.5302    -0.0000    12.0000 </r>
       <r>   -24.3229    -0.0024    11.9995 </r>
       <r>   -24.1156    -0.1910    11.9599 </r>
       <r>   -23.9082    -0.3618    11.8849 </r>
       <r>   -23.7009    12.0848    14.3904 </r>
       <r>   -23.4936    24.7163    19.5148 </r>
       <r>   -23.2863    55.5833    31.0387 </r>
       <r>   -23.0789    49.9867    41.4023 </r>
       <r>   -22.8716    24.2081    46.4213 </r>
       <r>   -22.6643     7.9656    48.0728 </r>
       <r>   -22.4569    -0.2029    48.0307 </r>
       <r>   -22.2496    -0.1461    48.0004 </r>
       <r>   -22.0423    -0.0021    48.0000 </r>
       <r>   -21.8350    -0.0000    48.0000 </r>
       <r>   -21.6276    -0.0000    48.0000 </r>
       <r>   -21.4203    -0.0000    48.0000 </r>
       <r>   -21.2130     0.0000    48.0000 </r>
       <r>   -21.0057     0.0000    48.0000 </r>
       <r>   -20.7983     0.0000    48.0000 </r>
       <r>   -20.5910     0.0000    48.0000 </r>
       <r>   -20.3837     0.0000    48.0000 </r>
       <r>   -20.1763     0.0000    48.0000 </r>
       <r>   -19.9690     0.0000    48.0000 </r>
       <r>   -19.7617     0.0000    48.0000 </r>
       <r>   -19.5544     0.0000    48.0000 </r>
       <r>   -19.3470     0.0000    48.0000 </r>
       <r>   -19.1397     0.0000    48.0000 </r>
       <r>   -18.9324     0.0000    48.0000 </r>
       <r>   -18.7251     0.0000    48.0000 </r>
       <r>   -18.5177     0.0000    48.0000 </r>
       <r>   -18.3104     0.0000    48.0000 </r>
       <r>   -18.1031     0.0000    48.0000 </r>
       <r>   -17.8957     0.0000    48.0000 </r>
       <r>   -17.6884     0.0000    48.0000 </r>
       <r>   -17.4811     0.0000    48.0000 </r>
       <r>   -17.2738     0.0000    48.0000 </r>
       <r>   -17.0664     0.0000    48.0000 </r>
       <r>   -16.8591     0.0000    48.0000 </r>
       <r>   -16.6518     0.0000    48.0000 </r>
       <r>   -16.4445     0.0000    48.0000 </r>
       <r>   -16.2371     0.0000    48.0000 </r>
       <r>   -16.0298     0.0000    48.0000 </r>
       <r>   -15.8225     0.0000    48.0000 </r>
       <r>   -15.6151     0.0000    48.0000 </r>
       <r>   -15.4078     0.0000    48.0000 </r>
       <r>   -15.2005     0.0000    48.0000 </r>
       <r>   -14.9932     0.0000    48.0000 </r>
       <r>   -14.7858     0.0000    48.0000 </r>
       <r>   -14.5785     0.0000    48.0000 </r>
       <r>   -14.3712     0.0000    48.0000 </r>
       <r>   -14.1639     0.0000    48.0000 </r>
       <r>   -13.9565     0.0000    48.0000 </r>
       <r>   -13.7492     0.0000    48.0000 </r>
       <r>   -13.5419     0.0000    48.0000 </r>
       <r>   -13.3345     0.0000    48.0000 </r>
       <r>   -13.1272     0.0000    48.0000 </r>
       <r>   -12.9199     0.0000    48.0000 </r>
       <r>   -12.7126     0.0000    48.0000 </r>
       <r>   -12.5052     0.0000    48.0000 </r>
       <r>   -12.2979     0.0000    48.0000 </r>
       <r>   -12.0906     0.0000    48.0000 </r>
       <r>   -11.8833     0.0000    48.0000 </r>
       <r>   -11.6759     0.0000    48.0000 </r>
       <r>   -11.4686     0.0000    48.0000 </r>
       <r>   -11.2613     0.0000    48.0000 </r>
       <r>   -11.0539     0.0000    48.0000 </r>
       <r>   -10.8466     0.0000    48.0000 </r>
       <r>   -10.6393     0.0000    48.0000 </r>
       <r>   -10.4320     0.0000    48.0000 </r>
       <r>   -10.2246     0.0000    48.0000 </r>
       <r>   -10.0173     0.0000    48.0000 </r>
       <r>    -9.8100     0.0000    48.0000 </r>
       <r>    -9.6027     0.0000    48.0000 </r>
       <r>    -9.3953     0.0000    48.0000 </r>
       <r>    -9.1880     0.0000    48.0000 </r>
       <r>    -8.9807     0.0000    48.0000 </r>
       <r>    -8.7733     0.0000    48.0000 </r>
       <r>    -8.5660     0.0000    48.0000 </r>
       <r>    -8.3587     0.0000    48.0000 </r>
       <r>    -8.1514     0.0000    48.0000 </r>
       <r>    -7.9440     0.0000    48.0000 </r>
       <r>    -7.7367     0.0000    48.0000 </r>
       <r>    -7.5294     0.0000    48.0000 </r>
       <r>    -7.3220     0.0000    48.0000 </r>
       <r>    -7.1147     0.0000    48.0000 </r>
       <r>    -6.9074     0.0000    48.0000 </r>
       <r>    -6.7001     0.0000    48.0000 </r>
       <r>    -6.4927     0.0000    48.0000 </r>
       <r>    -6.2854     0.0000    48.0000 </r>
       <r>    -6.0781     0.0000    48.0000 </r>
       <r>    -5.8708     0.0000    48.0000 </r>
       <r>    -5.6634     0.0000    48.0000 </r>
       <r>    -5.4561     0.0000    48.0000 </r>
       <r>    -5.2488     0.0000    48.0000 </r>
       <r>    -5.0414     0.0000    48.0000 </r>
       <r>    -4.8341     0.0000    48.0000 </r>
       <r>    -4.6268     0.0000    48.0000 </r>
       <r>    -4.4195     0.0000    48.0000 </r>
       <r>    -4.2121     0.0000    48.0000 </r>
       <r>    -4.0048     0.0000    48.0000 </r>
       <r>    -3.7975     0.0000    48.0000 </r>
       <r>    -3.5902     0.0000    48.0000 </r>
       <r>    -3.3828     0.0000    48.0000 </r>
       <r>    -3.1755     0.0000    48.0000 </r>
       <r>    -2.9682     0.0000    48.0000 </r>
       <r>    -2.7608     0.0000    48.0000 </r>
       <r>    -2.5535     0.0000    48.0000 </r>
       <r>    -2.3462     0.0000    48.0000 </r>
       <r>    -2.1389    -0.0000    48.0000 </r>
       <r>    -1.9315    -0.0000    48.0000 </r>
       <r>    -1.7242    -0.0000    48.0000 </r>
       <r>    -1.5169    -0.0000    48.0000 </r>
       <r>    -1.3096    -0.0000    48.0000 </r>
       <r>    -1.1022    -0.0000    48.0000 </r>
       <r>    -0.8949    -0.0013    47.9997 </r>
       <r>    -0.6876    -0.0142    47.9968 </r>
       <r>    -0.4802     0.0889    48.0152 </r>
       <r>    -0.2729     0.6848    48.1572 </r>
       <r>    -0.0656     1.4445    48.4567 </r>
       <r>     0.1417     1.6595    48.8007 </r>
       <r>     0.3491     1.6870    49.1505 </r>
       <r>     0.5564     2.2267    49.6121 </r>
       <r>     0.7637     2.6025    50.1517 </r>
       <r>     0.9710     2.9450    50.7623 </r>
       <r>     1.1784     2.9699    51.3780 </r>
       <r>     1.3857     4.1512    52.2387 </r>
       <r>     1.5930     4.8643    53.2472 </r>
       <r>     1.8004     3.6726    54.0086 </r>
       <r>     2.0077     4.9152    55.0277 </r>
       <r>     2.2150     6.9484    56.4683 </r>
       <r>     2.4223    11.7133    58.8968 </r>
       <r>     2.6297    15.5587    62.1225 </r>
       <r>     2.8370    19.9750    66.2639 </r>
       <r>     3.0443    22.8480    71.0009 </r>
       <r>     3.2516    26.0363    76.3989 </r>
       <r>     3.4590    30.4960    82.7216 </r>
       <r>     3.6663    33.2604    89.6174 </r>
       <r>     3.8736    32.2082    96.2950 </r>
       <r>     4.0810    32.7025   103.0751 </r>
       <r>     4.2883    27.3694   108.7495 </r>
       <r>     4.4956    18.9570   112.6799 </r>
       <r>     4.7029    25.2127   117.9071 </r>
       <r>     4.9103    39.5059   126.0978 </r>
       <r>     5.1176    46.2986   135.6967 </r>
       <r>     5.3249    44.4288   144.9081 </r>
       <r>     5.5322    38.1445   152.8164 </r>
       <r>     5.7396    35.9855   160.2772 </r>
       <r>     5.9469    38.7419   168.3095 </r>
       <r>     6.1542    43.3011   177.2870 </r>
       <r>     6.3616    45.2423   186.6670 </r>
       <r>     6.5689    41.5655   195.2846 </r>
       <r>     6.7762    37.0402   202.9641 </r>
       <r>     6.9835    32.4987   209.7020 </r>
       <r>     7.1909    24.4521   214.7716 </r>
       <r>     7.3982    16.4098   218.1738 </r>
       <r>     7.6055    14.4747   221.1748 </r>
       <r>     7.8129    13.2039   223.9123 </r>
       <r>     8.0202    14.0321   226.8215 </r>
       <r>     8.2275    16.4356   230.2291 </r>
       <r>     8.4348    20.6232   234.5048 </r>
       <r>     8.6422    25.3259   239.7556 </r>
       <r>     8.8495    28.7400   245.7141 </r>
       <r>     9.0568    28.5335   251.6299 </r>
       <r>     9.2641    18.2043   255.4042 </r>
       <r>     9.4715     3.3226   256.0930 </r>
       <r>     9.6788    -0.4054   256.0090 </r>
       <r>     9.8861    -0.0429   256.0001 </r>
       <r>    10.0935    -0.0004   256.0000 </r>
       <r>    10.3008    -0.0000   256.0000 </r>
       <r>    10.5081    -0.0000   256.0000 </r>
       <r>    10.7154    -0.0000   256.0000 </r>
       <r>    10.9228     0.0000   256.0000 </r>
       <r>    11.1301     0.0000   256.0000 </r>
       <r>    11.3374     0.0000   256.0000 </r>
       <r>    11.5447     0.0000   256.0000 </r>
       <r>    11.7521     0.0000   256.0000 </r>
       <r>    11.9594     0.0000   256.0000 </r>
       <r>    12.1667     0.0000   256.0000 </r>
      </set>
     </set>
    </array>
   </total>
  </dos>
 </calculation>
 <structure name="finalpos" >
  <crystal>
   <varray name="basis" >
    <v>       0.00000000       0.00000000       6.40000000 </v>
    <v>       8.00000000       1.60000000       1.60000000 </v>
    <v>       0.00000000       9.60000000       3.20000000 </v>
   </varray>
   <i name="volume">    491.52000000 </i>
   <varray name="rec_basis" >
    <v>      -0.02083333      -0.05208333       0.15625000 </v>
    <v>       0.12500000       0.00000000       0.00000000 </v>
    <v>      -0.02083333       0.10416667       0.00000000 </v>
   </varray>
  </crystal>
  <varray name="positions" >
   <v>       0.00000000       0.00000000       0.00000000 </v>
   <v>       0.83333333       0.00000000       0.33333333 </v>
   <v>       0.10000000       0.40000000       0.60000000 </v>
   <v>       0.20000000       0.80000000       0.20000000 </v>
   <v>       0.80000000       0.20000000       0.80000000 </v>
   <v>       0.93333333       0.40000000       0.93333333 </v>
   <v>       0.50000000       0.00000000       0.00000000 </v>
   <v>       0.33333333       0.00000000       0.33333333 </v>
   <v>       0.46666667       0.20000000       0.46666667 </v>
   <v>       0.23333333       0.60000000       0.73333333 </v>
   <v>       0.73333333       0.60000000       0.73333333 </v>
   <v>       0.86666667       0.80000000       0.86666667 </v>
   <v>       0.13333333       0.20000000       0.13333333 </v>
   <v>       0.63333333       0.20000000       0.13333333 </v>
   <v>       0.66666667       0.00000000       0.66666667 </v>
   <v>       0.76666667       0.40000000       0.26666667 </v>
   <v>       0.40000000       0.60000000       0.40000000 </v>
   <v>       0.60000000       0.40000000       0.60000000 </v>
   <v>       0.16666667       0.00000000       0.66666667 </v>
   <v>       0.26666667       0.40000000       0.26666667 </v>
   <v>       0.30000000       0.20000000       0.80000000 </v>
   <v>       0.90000000       0.60000000       0.40000000 </v>
   <v>       0.53333333       0.80000000       0.53333333 </v>
   <v>       0.36666667       0.80000000       0.86666667 </v>
   <v>       0.06666667       0.60000000       0.06666667 </v>
   <v>       0.56666667       0.60000000       0.06666667 </v>
   <v>       0.96666667       0.20000000       0.46666667 </v>
   <v>       0.70000000       0.80000000       0.20000000 </v>
   <v>       0.03333333       0.80000000       0.53333333 </v>
   <v>       0.43333333       0.40000000       0.93333333 </v>
  </varray>
 </structure>
</modeling>
