  29  29   0   0
  0.1632129E+02  0.5473281E-09  0.8209921E-09  0.1128346E-08  0.5000000E-15
  1.000000000000000E-004
  CAR 
 Nb - Mo - Ta - Ti - V SQS               
     11.65211752    -50.15677340  301      6.76097895      1.00000000
    -50.157  0.0000E+00  0.0000E+00
    -49.951  0.0000E+00  0.0000E+00
    -49.745  0.0000E+00  0.0000E+00
    -49.539  0.0000E+00  0.0000E+00
    -49.333  0.0000E+00  0.0000E+00
    -49.127 -0.9128E-35 -0.1881E-35
    -48.921 -0.2735E-27 -0.5634E-28
    -48.715 -0.9707E-21 -0.2000E-21
    -48.509 -0.3947E-15 -0.8133E-16
    -48.303 -0.1923E-10 -0.3963E-11
    -48.096 -0.1082E-06 -0.2229E-07
    -47.890 -0.6859E-04 -0.1415E-04
    -47.684 -0.4465E-02 -0.9342E-03
    -47.478 -0.6987E-02 -0.2374E-02
    -47.272  0.2744E+00  0.5417E-01
    -47.066  0.6673E+00  0.1917E+00
    -46.860  0.2593E+00  0.2451E+00
    -46.654 -0.2188E-01  0.2406E+00
    -46.448 -0.2724E-02  0.2400E+00
    -46.242 -0.1932E-04  0.2400E+00
    -46.036 -0.1434E-07  0.2400E+00
    -45.830 -0.1212E-11  0.2400E+00
    -45.624  0.0000E+00  0.2400E+00
    -45.418  0.0000E+00  0.2400E+00
    -45.212  0.0000E+00  0.2400E+00
    -45.006  0.0000E+00  0.2400E+00
    -44.800  0.0000E+00  0.2400E+00
    -44.594  0.0000E+00  0.2400E+00
    -44.388  0.0000E+00  0.2400E+00
    -44.182  0.0000E+00  0.2400E+00
    -43.976  0.0000E+00  0.2400E+00
    -43.770  0.0000E+00  0.2400E+00
    -43.564  0.0000E+00  0.2400E+00
    -43.358  0.0000E+00  0.2400E+00
    -43.152  0.0000E+00  0.2400E+00
    -42.946  0.0000E+00  0.2400E+00
    -42.740  0.0000E+00  0.2400E+00
    -42.534  0.0000E+00  0.2400E+00
    -42.328  0.0000E+00  0.2400E+00
    -42.122  0.0000E+00  0.2400E+00
    -41.916  0.0000E+00  0.2400E+00
    -41.710  0.0000E+00  0.2400E+00
    -41.504  0.0000E+00  0.2400E+00
    -41.297  0.0000E+00  0.2400E+00
    -41.091  0.0000E+00  0.2400E+00
    -40.885  0.0000E+00  0.2400E+00
    -40.679  0.0000E+00  0.2400E+00
    -40.473  0.0000E+00  0.2400E+00
    -40.267  0.0000E+00  0.2400E+00
    -40.061  0.0000E+00  0.2400E+00
    -39.855  0.0000E+00  0.2400E+00
    -39.649  0.0000E+00  0.2400E+00
    -39.443  0.0000E+00  0.2400E+00
    -39.237  0.0000E+00  0.2400E+00
    -39.031  0.0000E+00  0.2400E+00
    -38.825  0.0000E+00  0.2400E+00
    -38.619  0.0000E+00  0.2400E+00
    -38.413  0.0000E+00  0.2400E+00
    -38.207  0.0000E+00  0.2400E+00
    -38.001  0.0000E+00  0.2400E+00
    -37.795  0.0000E+00  0.2400E+00
    -37.589  0.0000E+00  0.2400E+00
    -37.383  0.0000E+00  0.2400E+00
    -37.177  0.0000E+00  0.2400E+00
    -36.971  0.0000E+00  0.2400E+00
    -36.765  0.0000E+00  0.2400E+00
    -36.559  0.0000E+00  0.2400E+00
    -36.353  0.0000E+00  0.2400E+00
    -36.147  0.0000E+00  0.2400E+00
    -35.941  0.0000E+00  0.2400E+00
    -35.735  0.0000E+00  0.2400E+00
    -35.529  0.0000E+00  0.2400E+00
    -35.323  0.0000E+00  0.2400E+00
    -35.117  0.0000E+00  0.2400E+00
    -34.911  0.0000E+00  0.2400E+00
    -34.705  0.0000E+00  0.2400E+00
    -34.499  0.0000E+00  0.2400E+00
    -34.292  0.0000E+00  0.2400E+00
    -34.086  0.0000E+00  0.2400E+00
    -33.880  0.0000E+00  0.2400E+00
    -33.674  0.0000E+00  0.2400E+00
    -33.468  0.0000E+00  0.2400E+00
    -33.262  0.0000E+00  0.2400E+00
    -33.056  0.0000E+00  0.2400E+00
    -32.850  0.0000E+00  0.2400E+00
    -32.644  0.0000E+00  0.2400E+00
    -32.438  0.0000E+00  0.2400E+00
    -32.232  0.0000E+00  0.2400E+00
    -32.026  0.0000E+00  0.2400E+00
    -31.820  0.0000E+00  0.2400E+00
    -31.614  0.0000E+00  0.2400E+00
    -31.408  0.0000E+00  0.2400E+00
    -31.202  0.0000E+00  0.2400E+00
    -30.996  0.0000E+00  0.2400E+00
    -30.790  0.0000E+00  0.2400E+00
    -30.584  0.0000E+00  0.2400E+00
    -30.378  0.0000E+00  0.2400E+00
    -30.172  0.0000E+00  0.2400E+00
    -29.966  0.0000E+00  0.2400E+00
    -29.760  0.0000E+00  0.2400E+00
    -29.554  0.0000E+00  0.2400E+00
    -29.348  0.0000E+00  0.2400E+00
    -29.142  0.0000E+00  0.2400E+00
    -28.936  0.0000E+00  0.2400E+00
    -28.730  0.0000E+00  0.2400E+00
    -28.524  0.0000E+00  0.2400E+00
    -28.318  0.0000E+00  0.2400E+00
    -28.112  0.0000E+00  0.2400E+00
    -27.906  0.0000E+00  0.2400E+00
    -27.700  0.0000E+00  0.2400E+00
    -27.494  0.0000E+00  0.2400E+00
    -27.287  0.0000E+00  0.2400E+00
    -27.081  0.0000E+00  0.2400E+00
    -26.875  0.0000E+00  0.2400E+00
    -26.669  0.0000E+00  0.2400E+00
    -26.463  0.0000E+00  0.2400E+00
    -26.257  0.0000E+00  0.2400E+00
    -26.051  0.0000E+00  0.2400E+00
    -25.845 -0.4464E-34  0.2400E+00
    -25.639 -0.9415E-27  0.2400E+00
    -25.433 -0.2370E-20  0.2400E+00
    -25.227 -0.6939E-15  0.2400E+00
    -25.021 -0.2476E-10  0.2400E+00
    -24.815 -0.1057E-06  0.2400E+00
    -24.609 -0.5318E-04  0.2400E+00
    -24.403 -0.2840E-02  0.2394E+00
    -24.197  0.8498E-04  0.2394E+00
    -23.991  0.1528E+00  0.2709E+00
    -23.785  0.3229E+00  0.3374E+00
    -23.579  0.2797E+00  0.3951E+00
    -23.373  0.7931E+00  0.5585E+00
    -23.167  0.1101E+01  0.7853E+00
    -22.961  0.4324E+00  0.8744E+00
    -22.755  0.3246E+00  0.9413E+00
    -22.549  0.1020E+00  0.9623E+00
    -22.343 -0.1008E-01  0.9602E+00
    -22.137 -0.1138E-02  0.9600E+00
    -21.931 -0.7872E-05  0.9600E+00
    -21.725 -0.5881E-08  0.9600E+00
    -21.519 -0.5213E-12  0.9600E+00
    -21.313 -0.6158E-17  0.9600E+00
    -21.107  0.0000E+00  0.9600E+00
    -20.901  0.0000E+00  0.9600E+00
    -20.695  0.0000E+00  0.9600E+00
    -20.489  0.0000E+00  0.9600E+00
    -20.282  0.0000E+00  0.9600E+00
    -20.076  0.0000E+00  0.9600E+00
    -19.870  0.0000E+00  0.9600E+00
    -19.664  0.0000E+00  0.9600E+00
    -19.458  0.0000E+00  0.9600E+00
    -19.252  0.0000E+00  0.9600E+00
    -19.046  0.0000E+00  0.9600E+00
    -18.840  0.0000E+00  0.9600E+00
    -18.634  0.0000E+00  0.9600E+00
    -18.428  0.0000E+00  0.9600E+00
    -18.222  0.0000E+00  0.9600E+00
    -18.016  0.0000E+00  0.9600E+00
    -17.810  0.0000E+00  0.9600E+00
    -17.604  0.0000E+00  0.9600E+00
    -17.398  0.0000E+00  0.9600E+00
    -17.192  0.0000E+00  0.9600E+00
    -16.986  0.0000E+00  0.9600E+00
    -16.780  0.0000E+00  0.9600E+00
    -16.574  0.0000E+00  0.9600E+00
    -16.368  0.0000E+00  0.9600E+00
    -16.162  0.0000E+00  0.9600E+00
    -15.956  0.0000E+00  0.9600E+00
    -15.750  0.0000E+00  0.9600E+00
    -15.544  0.0000E+00  0.9600E+00
    -15.338  0.0000E+00  0.9600E+00
    -15.132  0.0000E+00  0.9600E+00
    -14.926  0.0000E+00  0.9600E+00
    -14.720  0.0000E+00  0.9600E+00
    -14.514  0.0000E+00  0.9600E+00
    -14.308  0.0000E+00  0.9600E+00
    -14.102  0.0000E+00  0.9600E+00
    -13.896  0.0000E+00  0.9600E+00
    -13.690  0.0000E+00  0.9600E+00
    -13.483  0.0000E+00  0.9600E+00
    -13.277  0.0000E+00  0.9600E+00
    -13.071  0.0000E+00  0.9600E+00
    -12.865  0.0000E+00  0.9600E+00
    -12.659  0.0000E+00  0.9600E+00
    -12.453  0.0000E+00  0.9600E+00
    -12.247  0.0000E+00  0.9600E+00
    -12.041  0.0000E+00  0.9600E+00
    -11.835  0.0000E+00  0.9600E+00
    -11.629  0.0000E+00  0.9600E+00
    -11.423  0.0000E+00  0.9600E+00
    -11.217  0.0000E+00  0.9600E+00
    -11.011  0.0000E+00  0.9600E+00
    -10.805  0.0000E+00  0.9600E+00
    -10.599  0.0000E+00  0.9600E+00
    -10.393  0.0000E+00  0.9600E+00
    -10.187  0.0000E+00  0.9600E+00
     -9.981  0.0000E+00  0.9600E+00
     -9.775  0.0000E+00  0.9600E+00
     -9.569  0.0000E+00  0.9600E+00
     -9.363  0.0000E+00  0.9600E+00
     -9.157  0.0000E+00  0.9600E+00
     -8.951  0.0000E+00  0.9600E+00
     -8.745  0.0000E+00  0.9600E+00
     -8.539  0.0000E+00  0.9600E+00
     -8.333  0.0000E+00  0.9600E+00
     -8.127  0.0000E+00  0.9600E+00
     -7.921  0.0000E+00  0.9600E+00
     -7.715  0.0000E+00  0.9600E+00
     -7.509  0.0000E+00  0.9600E+00
     -7.303  0.0000E+00  0.9600E+00
     -7.097  0.0000E+00  0.9600E+00
     -6.891  0.0000E+00  0.9600E+00
     -6.685  0.0000E+00  0.9600E+00
     -6.478  0.0000E+00  0.9600E+00
     -6.272  0.0000E+00  0.9600E+00
     -6.066  0.0000E+00  0.9600E+00
     -5.860  0.0000E+00  0.9600E+00
     -5.654  0.0000E+00  0.9600E+00
     -5.448  0.0000E+00  0.9600E+00
     -5.242  0.0000E+00  0.9600E+00
     -5.036  0.0000E+00  0.9600E+00
     -4.830  0.0000E+00  0.9600E+00
     -4.624  0.0000E+00  0.9600E+00
     -4.418  0.0000E+00  0.9600E+00
     -4.212  0.0000E+00  0.9600E+00
     -4.006  0.0000E+00  0.9600E+00
     -3.800  0.0000E+00  0.9600E+00
     -3.594  0.0000E+00  0.9600E+00
     -3.388  0.0000E+00  0.9600E+00
     -3.182  0.0000E+00  0.9600E+00
     -2.976  0.0000E+00  0.9600E+00
     -2.770  0.0000E+00  0.9600E+00
     -2.564  0.0000E+00  0.9600E+00
     -2.358  0.0000E+00  0.9600E+00
     -2.152  0.0000E+00  0.9600E+00
     -1.946  0.0000E+00  0.9600E+00
     -1.740 -0.1154E-31  0.9600E+00
     -1.534 -0.7790E-25  0.9600E+00
     -1.328 -0.6312E-19  0.9600E+00
     -1.122 -0.5931E-14  0.9600E+00
     -0.916 -0.6881E-10  0.9600E+00
     -0.710 -0.9633E-07  0.9600E+00
     -0.504 -0.1619E-04  0.9600E+00
     -0.298 -0.2835E-03  0.9599E+00
     -0.092  0.1134E-02  0.9602E+00
      0.114  0.1304E-01  0.9629E+00
      0.320  0.2444E-01  0.9679E+00
      0.527  0.3091E-01  0.9743E+00
      0.733  0.4252E-01  0.9830E+00
      0.939  0.3608E-01  0.9905E+00
      1.145  0.4742E-01  0.1000E+01
      1.351  0.6351E-01  0.1013E+01
      1.557  0.6320E-01  0.1026E+01
      1.763  0.7034E-01  0.1041E+01
      1.969  0.8452E-01  0.1058E+01
      2.175  0.1019E+00  0.1079E+01
      2.381  0.1199E+00  0.1104E+01
      2.587  0.1839E+00  0.1142E+01
      2.793  0.3024E+00  0.1204E+01
      2.999  0.4027E+00  0.1287E+01
      3.205  0.5017E+00  0.1390E+01
      3.411  0.5822E+00  0.1510E+01
      3.617  0.5987E+00  0.1634E+01
      3.823  0.5916E+00  0.1756E+01
      4.029  0.6125E+00  0.1882E+01
      4.235  0.6150E+00  0.2009E+01
      4.441  0.5812E+00  0.2128E+01
      4.647  0.5466E+00  0.2241E+01
      4.853  0.6331E+00  0.2371E+01
      5.059  0.7611E+00  0.2528E+01
      5.265  0.8000E+00  0.2693E+01
      5.471  0.7850E+00  0.2855E+01
      5.677  0.8116E+00  0.3022E+01
      5.883  0.8038E+00  0.3188E+01
      6.089  0.8047E+00  0.3353E+01
      6.295  0.8144E+00  0.3521E+01
      6.501  0.8055E+00  0.3687E+01
      6.707  0.7489E+00  0.3841E+01
      6.913  0.7028E+00  0.3986E+01
      7.119  0.6092E+00  0.4112E+01
      7.325  0.4750E+00  0.4210E+01
      7.532  0.4201E+00  0.4296E+01
      7.738  0.4110E+00  0.4381E+01
      7.944  0.4175E+00  0.4467E+01
      8.150  0.4744E+00  0.4565E+01
      8.356  0.5207E+00  0.4672E+01
      8.562  0.4237E+00  0.4759E+01
      8.768  0.1876E+00  0.4798E+01
      8.974  0.1488E-01  0.4801E+01
      9.180 -0.3773E-02  0.4800E+01
      9.386 -0.2610E-03  0.4800E+01
      9.592 -0.2436E-05  0.4800E+01
      9.798 -0.3085E-08  0.4800E+01
     10.004 -0.4922E-12  0.4800E+01
     10.210 -0.9175E-17  0.4800E+01
     10.416  0.0000E+00  0.4800E+01
     10.622  0.0000E+00  0.4800E+01
     10.828  0.0000E+00  0.4800E+01
     11.034  0.0000E+00  0.4800E+01
     11.240  0.0000E+00  0.4800E+01
     11.446  0.0000E+00  0.4800E+01
     11.652  0.0000E+00  0.4800E+01
