   29   29   50    1
  0.1632129E+02  0.5473281E-09  0.8209921E-09  0.1128346E-08  0.5000000E-15
  1.000000000000000E-004
  CAR 
 Nb - Mo - Ta - Ti - V SQS               
    194    172    120
 
  0.0000000E+00  0.0000000E+00  0.0000000E+00  0.2915452E-02
    1      -47.347278   1.000000
    2      -47.258127   1.000000
    3      -47.196199   1.000000
    4      -47.111946   1.000000
    5      -47.081605   1.000000
    6      -47.063673   1.000000
    7      -24.096618   1.000000
    8      -23.959171   1.000000
    9      -23.808926   1.000000
   10      -23.732024   1.000000
   11      -23.495975   1.000000
   12      -23.439046   1.000000
   13      -23.408484   1.000000
   14      -23.371835   1.000000
   15      -23.346473   1.000000
   16      -23.326867   1.000000
   17      -23.271195   1.000000
   18      -23.252544   1.000000
   19      -23.243710   1.000000
   20      -23.211716   1.000000
   21      -23.038542   1.000000
   22      -22.938606   1.000000
   23      -22.791568   1.000000
   24      -22.734507   1.000000
   25       -0.102374   1.000000
   26        1.271751   1.000000
   27        1.520291   1.000000
   28        2.356436   1.000000
   29        2.451463   1.000000
   30        2.554821   1.000000
   31        2.603052   1.000000
   32        2.791984   1.000000
   33        2.839929   1.000000
   34        2.901316   1.000000
   35        2.980450   1.000000
   36        3.019402   1.000000
   37        3.063658   1.000000
   38        3.192430   1.000000
   39        3.246881   1.000000
   40        3.341494   1.000000
   41        3.413975   1.000000
   42        3.448454   1.000000
   43        3.585002   1.000000
   44        3.636852   1.000000
   45        3.735797   1.000000
   46        3.757199   1.000000
   47        3.792671   1.000000
   48        3.855654   1.000000
   49        3.938900   1.000000
   50        3.972323   1.000000
   51        4.105645   1.000000
   52        4.131179   1.000000
   53        4.236137   1.000000
   54        4.353028   1.000000
   55        4.388923   1.000000
   56        4.442877   1.000000
   57        4.574393   1.000000
   58        4.656659   1.000000
   59        4.710720   1.000000
   60        4.745930   1.000000
   61        4.798532   1.000000
   62        4.835001   1.000000
   63        4.953463   1.000000
   64        4.981367   1.000000
   65        5.004451   1.000000
   66        5.090442   1.000000
   67        5.158299   1.000000
   68        5.196960   1.000000
   69        5.272322   1.000000
   70        5.290832   1.000000
   71        5.334384   1.000000
   72        5.370327   1.000000
   73        5.443781   1.000000
   74        5.510016   1.000000
   75        5.574738   1.000000
   76        5.645997   1.000000
   77        5.746277   1.000000
   78        5.830983   1.000000
   79        5.916635   1.000000
   80        5.959128   1.000000
   81        6.003878   1.000001
   82        6.046493   1.000003
   83        6.165902   1.000107
   84        6.203804   1.000294
   85        6.256050   1.001037
   86        6.287577   1.002055
   87        6.319577   1.003872
   88        6.405150   1.015246
   89        6.460979   1.027651
   90        6.552188   1.029108
   91        6.566724   1.021884
   92        6.632246   0.938647
   93        6.713457   0.694926
   94        6.722159   0.660880
   95        6.831154   0.222359
   96        6.898068   0.045310
   97        6.954719  -0.021567
   98        7.061765  -0.027476
   99        7.088601  -0.021314
  100        7.131689  -0.012460
  101        7.232490  -0.002137
  102        7.311414  -0.000349
  103        7.427778  -0.000013
  104        7.470761  -0.000003
  105        7.506634  -0.000001
  106        7.614938  -0.000000
  107        7.808872  -0.000000
  108        7.900296  -0.000000
  109        7.980691  -0.000000
  110        8.089110  -0.000000
  111        8.217328  -0.000000
  112        8.265672  -0.000000
  113        8.333463  -0.000000
  114        8.416430  -0.000000
  115        8.504318  -0.000000
  116        8.639575  -0.000000
  117        8.673568  -0.000000
  118        8.698973  -0.000000
  119        8.711332  -0.000000
  120        8.784883  -0.000000
 
  0.1428571E+00  0.0000000E+00 -0.1561251E-16  0.5830904E-02
    1      -47.342843   1.000000
    2      -47.257495   1.000000
    3      -47.195763   1.000000
    4      -47.112532   1.000000
    5      -47.085985   1.000000
    6      -47.063874   1.000000
    7      -24.058186   1.000000
    8      -23.943920   1.000000
    9      -23.802879   1.000000
   10      -23.729796   1.000000
   11      -23.490787   1.000000
   12      -23.441064   1.000000
   13      -23.410607   1.000000
   14      -23.372989   1.000000
   15      -23.347299   1.000000
   16      -23.329314   1.000000
   17      -23.276881   1.000000
   18      -23.253324   1.000000
   19      -23.245768   1.000000
   20      -23.213108   1.000000
   21      -23.040461   1.000000
   22      -22.943245   1.000000
   23      -22.814650   1.000000
   24      -22.776285   1.000000
   25        0.060796   1.000000
   26        1.413712   1.000000
   27        1.661739   1.000000
   28        2.381116   1.000000
   29        2.572161   1.000000
   30        2.669031   1.000000
   31        2.708712   1.000000
   32        2.877695   1.000000
   33        2.915881   1.000000
   34        2.945585   1.000000
   35        3.098242   1.000000
   36        3.135429   1.000000
   37        3.180243   1.000000
   38        3.268888   1.000000
   39        3.309900   1.000000
   40        3.408665   1.000000
   41        3.461899   1.000000
   42        3.515403   1.000000
   43        3.614868   1.000000
   44        3.675292   1.000000
   45        3.733231   1.000000
   46        3.804313   1.000000
   47        3.865661   1.000000
   48        3.937692   1.000000
   49        3.998571   1.000000
   50        4.036506   1.000000
   51        4.140524   1.000000
   52        4.170172   1.000000
   53        4.281880   1.000000
   54        4.359700   1.000000
   55        4.431434   1.000000
   56        4.520511   1.000000
   57        4.589373   1.000000
   58        4.665860   1.000000
   59        4.750154   1.000000
   60        4.780058   1.000000
   61        4.844963   1.000000
   62        4.910824   1.000000
   63        4.974753   1.000000
   64        5.025557   1.000000
   65        5.081062   1.000000
   66        5.127477   1.000000
   67        5.160985   1.000000
   68        5.226605   1.000000
   69        5.278488   1.000000
   70        5.325815   1.000000
   71        5.380678   1.000000
   72        5.423228   1.000000
   73        5.484584   1.000000
   74        5.562040   1.000000
   75        5.600582   1.000000
   76        5.656381   1.000000
   77        5.671205   1.000000
   78        5.799383   1.000000
   79        5.871114   1.000000
   80        5.945240   1.000000
   81        5.982705   1.000000
   82        6.076887   1.000007
   83        6.119386   1.000028
   84        6.158439   1.000087
   85        6.225249   1.000502
   86        6.269267   1.001391
   87        6.290633   1.002189
   88        6.375580   1.010049
   89        6.447415   1.024556
   90        6.474768   1.030583
   91        6.527892   1.034871
   92        6.570604   1.019385
   93        6.620450   0.960794
   94        6.666463   0.854667
   95        6.733290   0.615925
   96        6.770201   0.461023
   97        6.811572   0.293328
   98        6.922378   0.008184
   99        7.053689  -0.029242
  100        7.106830  -0.017291
  101        7.156334  -0.008611
  102        7.216844  -0.002930
  103        7.285673  -0.000655
  104        7.320641  -0.000276
  105        7.401633  -0.000029
  106        7.457371  -0.000005
  107        7.682117  -0.000000
  108        7.707215  -0.000000
  109        7.773026  -0.000000
  110        7.944647  -0.000000
  111        8.086465  -0.000000
  112        8.127568  -0.000000
  113        8.199055  -0.000000
  114        8.287817  -0.000000
  115        8.363140  -0.000000
  116        8.403987  -0.000000
  117        8.478793  -0.000000
  118        8.524362  -0.000000
  119        8.557470  -0.000000
  120        8.613861  -0.000000
 
  0.2857143E+00  0.1387779E-16  0.3469447E-17  0.5830904E-02
    1      -47.332338   1.000000
    2      -47.255813   1.000000
    3      -47.194712   1.000000
    4      -47.115296   1.000000
    5      -47.095403   1.000000
    6      -47.064171   1.000000
    7      -24.009876   1.000000
    8      -23.869565   1.000000
    9      -23.759531   1.000000
   10      -23.724211   1.000000
   11      -23.478040   1.000000
   12      -23.445657   1.000000
   13      -23.415905   1.000000
   14      -23.375036   1.000000
   15      -23.349176   1.000000
   16      -23.334605   1.000000
   17      -23.291023   1.000000
   18      -23.256777   1.000000
   19      -23.249030   1.000000
   20      -23.217969   1.000000
   21      -23.055262   1.000000
   22      -22.976412   1.000000
   23      -22.948937   1.000000
   24      -22.784638   1.000000
   25        0.524155   1.000000
   26        1.792670   1.000000
   27        2.039990   1.000000
   28        2.509334   1.000000
   29        2.711943   1.000000
   30        2.841691   1.000000
   31        2.952532   1.000000
   32        3.020445   1.000000
   33        3.073549   1.000000
   34        3.185746   1.000000
   35        3.313196   1.000000
   36        3.335139   1.000000
   37        3.399768   1.000000
   38        3.434697   1.000000
   39        3.509266   1.000000
   40        3.551104   1.000000
   41        3.600179   1.000000
   42        3.630170   1.000000
   43        3.718742   1.000000
   44        3.792983   1.000000
   45        3.839662   1.000000
   46        3.937322   1.000000
   47        3.968903   1.000000
   48        4.064600   1.000000
   49        4.135231   1.000000
   50        4.185706   1.000000
   51        4.298627   1.000000
   52        4.363248   1.000000
   53        4.417308   1.000000
   54        4.457472   1.000000
   55        4.559086   1.000000
   56        4.605688   1.000000
   57        4.667292   1.000000
   58        4.777399   1.000000
   59        4.801549   1.000000
   60        4.886898   1.000000
   61        4.903832   1.000000
   62        4.950738   1.000000
   63        5.020998   1.000000
   64        5.061710   1.000000
   65        5.131120   1.000000
   66        5.177141   1.000000
   67        5.233378   1.000000
   68        5.276739   1.000000
   69        5.294199   1.000000
   70        5.381750   1.000000
   71        5.423079   1.000000
   72        5.474009   1.000000
   73        5.559291   1.000000
   74        5.582779   1.000000
   75        5.648608   1.000000
   76        5.679278   1.000000
   77        5.722659   1.000000
   78        5.797618   1.000000
   79        5.826747   1.000000
   80        5.866269   1.000000
   81        5.910211   1.000000
   82        5.967527   1.000000
   83        6.010827   1.000001
   84        6.078951   1.000008
   85        6.148168   1.000065
   86        6.178984   1.000153
   87        6.264054   1.001240
   88        6.292260   1.002263
   89        6.340816   1.005695
   90        6.412745   1.016791
   91        6.459567   1.027336
   92        6.486785   1.032779
   93        6.509634   1.035307
   94        6.582413   1.010135
   95        6.624490   0.953595
   96        6.649720   0.899436
   97        6.760325   0.502769
   98        6.773533   0.446993
   99        6.812522   0.289727
  100        6.861043   0.129725
  101        6.908528   0.027636
  102        6.978055  -0.031869
  103        7.091166  -0.020731
  104        7.135245  -0.011844
  105        7.169725  -0.006923
  106        7.269753  -0.000950
  107        7.341175  -0.000161
  108        7.467566  -0.000003
  109        7.498001  -0.000001
  110        7.603136  -0.000000
  111        7.711744  -0.000000
  112        7.856154  -0.000000
  113        7.903081  -0.000000
  114        7.959863  -0.000000
  115        7.992921  -0.000000
  116        8.069081  -0.000000
  117        8.118608  -0.000000
  118        8.192189  -0.000000
  119        8.287968  -0.000000
  120        8.402157  -0.000000
 
  0.4285714E+00  0.5551115E-16 -0.4163336E-16  0.5830904E-02
    1      -47.323315   1.000000
    2      -47.254046   1.000000
    3      -47.193755   1.000000
    4      -47.120639   1.000000
    5      -47.101032   1.000000
    6      -47.064341   1.000000
    7      -23.998266   1.000000
    8      -23.831787   1.000000
    9      -23.720968   1.000000
   10      -23.579168   1.000000
   11      -23.466359   1.000000
   12      -23.450020   1.000000
   13      -23.420777   1.000000
   14      -23.377617   1.000000
   15      -23.351763   1.000000
   16      -23.338209   1.000000
   17      -23.305340   1.000000
   18      -23.279754   1.000000
   19      -23.251546   1.000000
   20      -23.246637   1.000000
   21      -23.187276   1.000000
   22      -23.031481   1.000000
   23      -22.960232   1.000000
   24      -22.785299   1.000000
   25        1.195437   1.000000
   26        1.965470   1.000000
   27        2.405436   1.000000
   28        2.596917   1.000000
   29        2.687988   1.000000
   30        2.973880   1.000000
   31        3.014561   1.000000
   32        3.154175   1.000000
   33        3.295662   1.000000
   34        3.381550   1.000000
   35        3.403870   1.000000
   36        3.436508   1.000000
   37        3.506251   1.000000
   38        3.536162   1.000000
   39        3.587842   1.000000
   40        3.690996   1.000000
   41        3.783213   1.000000
   42        3.832711   1.000000
   43        3.922931   1.000000
   44        3.977267   1.000000
   45        4.033697   1.000000
   46        4.082037   1.000000
   47        4.175871   1.000000
   48        4.186171   1.000000
   49        4.277617   1.000000
   50        4.339434   1.000000
   51        4.410799   1.000000
   52        4.455013   1.000000
   53        4.525761   1.000000
   54        4.564102   1.000000
   55        4.630050   1.000000
   56        4.704212   1.000000
   57        4.763092   1.000000
   58        4.789513   1.000000
   59        4.838452   1.000000
   60        4.879647   1.000000
   61        4.954442   1.000000
   62        4.973074   1.000000
   63        5.029026   1.000000
   64        5.082055   1.000000
   65        5.140608   1.000000
   66        5.168900   1.000000
   67        5.263458   1.000000
   68        5.280697   1.000000
   69        5.338075   1.000000
   70        5.410159   1.000000
   71        5.432984   1.000000
   72        5.482827   1.000000
   73        5.547253   1.000000
   74        5.589567   1.000000
   75        5.612916   1.000000
   76        5.663411   1.000000
   77        5.744752   1.000000
   78        5.767184   1.000000
   79        5.792622   1.000000
   80        5.864407   1.000000
   81        5.903073   1.000000
   82        5.950196   1.000000
   83        5.985356   1.000000
   84        6.019276   1.000001
   85        6.097410   1.000014
   86        6.154542   1.000078
   87        6.197421   1.000249
   88        6.240846   1.000730
   89        6.256227   1.001041
   90        6.316799   1.003674
   91        6.341988   1.005812
   92        6.395947   1.013483
   93        6.447856   1.024657
   94        6.528050   1.034854
   95        6.557777   1.026710
   96        6.616503   0.967445
   97        6.657709   0.878946
   98        6.704649   0.728192
   99        6.713991   0.692869
  100        6.810881   0.295961
  101        6.869722   0.106843
  102        6.914589   0.018583
  103        6.971443  -0.029739
  104        7.025313  -0.034193
  105        7.043023  -0.031392
  106        7.104111  -0.017870
  107        7.190711  -0.004803
  108        7.256479  -0.001280
  109        7.332854  -0.000201
  110        7.503239  -0.000001
  111        7.551024  -0.000000
  112        7.589737  -0.000000
  113        7.693138  -0.000000
  114        7.758141  -0.000000
  115        7.837585  -0.000000
  116        7.904264  -0.000000
  117        8.068298  -0.000000
  118        8.142771  -0.000000
  119        8.213549  -0.000000
  120        8.260456  -0.000000
 
 -0.6938894E-17  0.1428571E+00  0.1040834E-16  0.5830904E-02
    1      -47.347275   1.000000
    2      -47.258055   1.000000
    3      -47.196033   1.000000
    4      -47.111998   1.000000
    5      -47.081635   1.000000
    6      -47.063834   1.000000
    7      -24.096600   1.000000
    8      -23.958823   1.000000
    9      -23.808286   1.000000
   10      -23.729212   1.000000
   11      -23.496046   1.000000
   12      -23.439007   1.000000
   13      -23.408573   1.000000
   14      -23.371915   1.000000
   15      -23.346566   1.000000
   16      -23.326834   1.000000
   17      -23.271235   1.000000
   18      -23.252481   1.000000
   19      -23.243569   1.000000
   20      -23.211725   1.000000
   21      -23.038595   1.000000
   22      -22.942861   1.000000
   23      -22.791790   1.000000
   24      -22.734517   1.000000
   25       -0.031579   1.000000
   26        1.299576   1.000000
   27        1.592570   1.000000
   28        2.107227   1.000000
   29        2.478321   1.000000
   30        2.573389   1.000000
   31        2.617464   1.000000
   32        2.772342   1.000000
   33        2.821801   1.000000
   34        2.910819   1.000000
   35        2.996973   1.000000
   36        3.026053   1.000000
   37        3.061856   1.000000
   38        3.147440   1.000000
   39        3.190995   1.000000
   40        3.307373   1.000000
   41        3.436470   1.000000
   42        3.464060   1.000000
   43        3.590416   1.000000
   44        3.636634   1.000000
   45        3.720998   1.000000
   46        3.768079   1.000000
   47        3.819640   1.000000
   48        3.924587   1.000000
   49        3.951538   1.000000
   50        4.049874   1.000000
   51        4.092426   1.000000
   52        4.200100   1.000000
   53        4.263093   1.000000
   54        4.294639   1.000000
   55        4.388284   1.000000
   56        4.426053   1.000000
   57        4.558447   1.000000
   58        4.648880   1.000000
   59        4.744757   1.000000
   60        4.792065   1.000000
   61        4.806834   1.000000
   62        4.889766   1.000000
   63        4.950146   1.000000
   64        4.995822   1.000000
   65        5.086597   1.000000
   66        5.106871   1.000000
   67        5.142037   1.000000
   68        5.210445   1.000000
   69        5.258230   1.000000
   70        5.275393   1.000000
   71        5.364483   1.000000
   72        5.429532   1.000000
   73        5.497976   1.000000
   74        5.541896   1.000000
   75        5.584940   1.000000
   76        5.664975   1.000000
   77        5.698293   1.000000
   78        5.877688   1.000000
   79        5.927218   1.000000
   80        5.972674   1.000000
   81        5.997122   1.000000
   82        6.037395   1.000002
   83        6.079000   1.000008
   84        6.139908   1.000051
   85        6.218835   1.000429
   86        6.280074   1.001755
   87        6.316717   1.003669
   88        6.364789   1.008498
   89        6.404875   1.015192
   90        6.494889   1.033973
   91        6.541630   1.032473
   92        6.582162   1.010359
   93        6.635750   0.931401
   94        6.693899   0.766913
   95        6.769557   0.463739
   96        6.856860   0.141421
   97        6.948744  -0.017559
   98        7.023845  -0.034366
   99        7.099239  -0.018928
  100        7.154656  -0.008843
  101        7.278607  -0.000774
  102        7.345890  -0.000142
  103        7.385072  -0.000047
  104        7.486370  -0.000002
  105        7.559526  -0.000000
  106        7.708416  -0.000000
  107        7.780513  -0.000000
  108        7.848142  -0.000000
  109        7.937022  -0.000000
  110        8.046431  -0.000000
  111        8.098947  -0.000000
  112        8.263541  -0.000000
  113        8.324994  -0.000000
  114        8.395839  -0.000000
  115        8.455885  -0.000000
  116        8.554451  -0.000000
  117        8.598891  -0.000000
  118        8.635914  -0.000000
  119        8.685104  -0.000000
  120        8.713436  -0.000000
 
  0.1428571E+00  0.1428571E+00 -0.1387779E-16  0.5830904E-02
    1      -47.342845   1.000000
    2      -47.257565   1.000000
    3      -47.195921   1.000000
    4      -47.112489   1.000000
    5      -47.085956   1.000000
    6      -47.063714   1.000000
    7      -24.058226   1.000000
    8      -23.944262   1.000000
    9      -23.803508   1.000000
   10      -23.732503   1.000000
   11      -23.490751   1.000000
   12      -23.441096   1.000000
   13      -23.410608   1.000000
   14      -23.373014   1.000000
   15      -23.347248   1.000000
   16      -23.329288   1.000000
   17      -23.276854   1.000000
   18      -23.253362   1.000000
   19      -23.245757   1.000000
   20      -23.213085   1.000000
   21      -23.040404   1.000000
   22      -22.939131   1.000000
   23      -22.814544   1.000000
   24      -22.776172   1.000000
   25        0.063036   1.000000
   26        1.383519   1.000000
   27        1.686068   1.000000
   28        2.373642   1.000000
   29        2.543510   1.000000
   30        2.672143   1.000000
   31        2.691581   1.000000
   32        2.838879   1.000000
   33        2.886350   1.000000
   34        2.950571   1.000000
   35        3.022920   1.000000
   36        3.115539   1.000000
   37        3.164984   1.000000
   38        3.240771   1.000000
   39        3.293132   1.000000
   40        3.372752   1.000000
   41        3.466239   1.000000
   42        3.567610   1.000000
   43        3.634415   1.000000
   44        3.694432   1.000000
   45        3.747485   1.000000
   46        3.813999   1.000000
   47        3.855952   1.000000
   48        3.958788   1.000000
   49        3.967357   1.000000
   50        4.028035   1.000000
   51        4.135246   1.000000
   52        4.209128   1.000000
   53        4.336633   1.000000
   54        4.399673   1.000000
   55        4.427269   1.000000
   56        4.533672   1.000000
   57        4.611045   1.000000
   58        4.690722   1.000000
   59        4.749050   1.000000
   60        4.772740   1.000000
   61        4.838679   1.000000
   62        4.885174   1.000000
   63        4.938949   1.000000
   64        5.010953   1.000000
   65        5.059364   1.000000
   66        5.102370   1.000000
   67        5.176434   1.000000
   68        5.223733   1.000000
   69        5.266629   1.000000
   70        5.311529   1.000000
   71        5.349524   1.000000
   72        5.431148   1.000000
   73        5.472322   1.000000
   74        5.555989   1.000000
   75        5.578566   1.000000
   76        5.659470   1.000000
   77        5.735778   1.000000
   78        5.768799   1.000000
   79        5.843261   1.000000
   80        5.916104   1.000000
   81        5.947467   1.000000
   82        6.003149   1.000001
   83        6.061657   1.000004
   84        6.128700   1.000037
   85        6.218023   1.000421
   86        6.276507   1.001627
   87        6.312308   1.003372
   88        6.341730   1.005786
   89        6.444604   1.023905
   90        6.477003   1.031023
   91        6.543686   1.031930
   92        6.590631   1.002126
   93        6.686206   0.793209
   94        6.709402   0.710400
   95        6.771330   0.456267
   96        6.842783   0.183876
   97        6.880480   0.081108
   98        6.957943  -0.023479
   99        7.011952  -0.035324
  100        7.139029  -0.011211
  101        7.165073  -0.007479
  102        7.243536  -0.001695
  103        7.294577  -0.000529
  104        7.328596  -0.000224
  105        7.368208  -0.000076
  106        7.492292  -0.000001
  107        7.620094  -0.000000
  108        7.730930  -0.000000
  109        7.780557  -0.000000
  110        7.890310  -0.000000
  111        8.066231  -0.000000
  112        8.229147  -0.000000
  113        8.303738  -0.000000
  114        8.381608  -0.000000
  115        8.437530  -0.000000
  116        8.518518  -0.000000
  117        8.594814  -0.000000
  118        8.642357  -0.000000
  119        8.664475  -0.000000
  120        8.757154  -0.000000
 
  0.2857143E+00  0.1428571E+00  0.2775558E-16  0.5830904E-02
    1      -47.332345   1.000000
    2      -47.255973   1.000000
    3      -47.195074   1.000000
    4      -47.115230   1.000000
    5      -47.095313   1.000000
    6      -47.063797   1.000000
    7      -24.010266   1.000000
    8      -23.870618   1.000000
    9      -23.760748   1.000000
   10      -23.730086   1.000000
   11      -23.477931   1.000000
   12      -23.445761   1.000000
   13      -23.415854   1.000000
   14      -23.375028   1.000000
   15      -23.349049   1.000000
   16      -23.334561   1.000000
   17      -23.290952   1.000000
   18      -23.256823   1.000000
   19      -23.249148   1.000000
   20      -23.217944   1.000000
   21      -23.055175   1.000000
   22      -22.975209   1.000000
   23      -22.940507   1.000000
   24      -22.784242   1.000000
   25        0.463948   1.000000
   26        1.703944   1.000000
   27        2.011975   1.000000
   28        2.580899   1.000000
   29        2.631100   1.000000
   30        2.830748   1.000000
   31        2.937185   1.000000
   32        3.026360   1.000000
   33        3.114293   1.000000
   34        3.167617   1.000000
   35        3.264048   1.000000
   36        3.288542   1.000000
   37        3.394322   1.000000
   38        3.427284   1.000000
   39        3.513372   1.000000
   40        3.551684   1.000000
   41        3.608803   1.000000
   42        3.664891   1.000000
   43        3.742189   1.000000
   44        3.820951   1.000000
   45        3.861460   1.000000
   46        3.899094   1.000000
   47        3.978798   1.000000
   48        4.058325   1.000000
   49        4.115151   1.000000
   50        4.166239   1.000000
   51        4.272824   1.000000
   52        4.354342   1.000000
   53        4.414334   1.000000
   54        4.448078   1.000000
   55        4.545302   1.000000
   56        4.609528   1.000000
   57        4.667714   1.000000
   58        4.750341   1.000000
   59        4.814959   1.000000
   60        4.856486   1.000000
   61        4.920918   1.000000
   62        4.952982   1.000000
   63        5.011159   1.000000
   64        5.065710   1.000000
   65        5.103146   1.000000
   66        5.147423   1.000000
   67        5.221033   1.000000
   68        5.259885   1.000000
   69        5.288388   1.000000
   70        5.370507   1.000000
   71        5.392742   1.000000
   72        5.448739   1.000000
   73        5.529346   1.000000
   74        5.549812   1.000000
   75        5.647890   1.000000
   76        5.684248   1.000000
   77        5.733752   1.000000
   78        5.768911   1.000000
   79        5.790839   1.000000
   80        5.825601   1.000000
   81        5.958750   1.000000
   82        6.033432   1.000002
   83        6.046202   1.000003
   84        6.096821   1.000014
   85        6.157020   1.000084
   86        6.177990   1.000149
   87        6.245715   1.000818
   88        6.311219   1.003302
   89        6.350660   1.006743
   90        6.372134   1.009533
   91        6.432870   1.021203
   92        6.470681   1.029750
   93        6.526462   1.035008
   94        6.572942   1.017755
   95        6.607643   0.981025
   96        6.632992   0.937131
   97        6.694032   0.766449
   98        6.783872   0.403830
   99        6.823673   0.248617
  100        6.898847   0.043903
  101        6.928829   0.000581
  102        6.993291  -0.034788
  103        7.056795  -0.028574
  104        7.112811  -0.016049
  105        7.174223  -0.006417
  106        7.262593  -0.001117
  107        7.391476  -0.000039
  108        7.525412  -0.000000
  109        7.609593  -0.000000
  110        7.689527  -0.000000
  111        7.771043  -0.000000
  112        7.978458  -0.000000
  113        8.027956  -0.000000
  114        8.088455  -0.000000
  115        8.175799  -0.000000
  116        8.296789  -0.000000
  117        8.317114  -0.000000
  118        8.419570  -0.000000
  119        8.452560  -0.000000
  120        8.541863  -0.000000
 
  0.4285714E+00  0.1428571E+00 -0.2081668E-16  0.5830904E-02
    1      -47.323321   1.000000
    2      -47.254176   1.000000
    3      -47.194045   1.000000
    4      -47.120619   1.000000
    5      -47.100927   1.000000
    6      -47.064038   1.000000
    7      -23.998661   1.000000
    8      -23.832859   1.000000
    9      -23.726474   1.000000
   10      -23.579145   1.000000
   11      -23.466269   1.000000
   12      -23.450126   1.000000
   13      -23.420758   1.000000
   14      -23.377611   1.000000
   15      -23.351688   1.000000
   16      -23.338141   1.000000
   17      -23.305286   1.000000
   18      -23.279748   1.000000
   19      -23.251561   1.000000
   20      -23.246746   1.000000
   21      -23.187251   1.000000
   22      -23.031214   1.000000
   23      -22.952548   1.000000
   24      -22.785003   1.000000
   25        1.103622   1.000000
   26        1.993831   1.000000
   27        2.327997   1.000000
   28        2.513474   1.000000
   29        2.663816   1.000000
   30        2.797593   1.000000
   31        3.094539   1.000000
   32        3.243481   1.000000
   33        3.357728   1.000000
   34        3.379449   1.000000
   35        3.446787   1.000000
   36        3.458479   1.000000
   37        3.563753   1.000000
   38        3.585939   1.000000
   39        3.623044   1.000000
   40        3.694007   1.000000
   41        3.728265   1.000000
   42        3.846011   1.000000
   43        3.872756   1.000000
   44        3.949556   1.000000
   45        4.005223   1.000000
   46        4.083321   1.000000
   47        4.135175   1.000000