 running on   96 total cores
 distrk:  each k-point on   96 cores,    1 groups
 distr:  one band on    8 cores,   12 groups
 using from now: INCAR     
 vasp.5.4.4.18Apr17-6-g9f103f2a35 (build Aug 09 2018 16:20:53) complex          
  
 POSCAR found :  5 types and      29 ions
 scaLAPACK will be used

 ----------------------------------------------------------------------------- 
|                                                                             |
|  ADVICE TO THIS USER RUNNING 'VASP/VAMP'   (HEAR YOUR MASTER'S VOICE ...):  |
|                                                                             |
|      You enforced a specific xc-type in the INCAR file,                     |
|      a different type was found on the POTCAR file                          |
|          I HOPE YOU KNOW, WHAT YOU ARE  DOING                               |
|                                                                             |
 ----------------------------------------------------------------------------- 

 LDA part: xc-table for Pade appr. of Perdew
 POSCAR found :  5 types and      29 ions
 POSCAR, INCAR and KPOINTS ok, starting setup
 FFT: planning ...
 WAVECAR not read
 initial charge from wavefunction
 entering main loop
       N       E                     dE             d eps       ncg     rms          rms(c)
DAV:   1    -0.430888623540E+04   -0.43089E+04   -0.16395E+05 61680   0.199E+03
DAV:   2    -0.975725725897E+04   -0.54484E+04   -0.52256E+04 76104   0.120E+03
DAV:   3    -0.105658220190E+05   -0.80856E+03   -0.78128E+03 82560   0.491E+02
DAV:   4    -0.108025832545E+05   -0.23676E+03   -0.21688E+03 82560   0.232E+02
DAV:   5    -0.109592798397E+05   -0.15670E+03   -0.14347E+03 82560   0.169E+02    0.547E+03
DAV:   6    -0.105966307349E+04    0.98996E+04   -0.22566E+04 64812   0.606E+02    0.258E+03
DAV:   7    -0.914827852015E+03    0.14484E+03   -0.15553E+04 70056   0.527E+02    0.196E+03
DAV:   8    -0.714960162155E+03    0.19987E+03   -0.46212E+03 70992   0.327E+02    0.175E+03
DAV:   9    -0.625635664577E+03    0.89324E+02   -0.72408E+02 73116   0.846E+01    0.168E+03
DAV:  10    -0.615628374538E+03    0.10007E+02   -0.11894E+02 76248   0.364E+01    0.165E+03
DAV:  11    -0.570325219191E+03    0.45303E+02   -0.68048E+02 72132   0.922E+01    0.148E+03
DAV:  12    -0.550540617103E+03    0.19785E+02   -0.35565E+03 72876   0.409E+02    0.114E+03
DAV:  13    -0.489651133545E+03    0.60889E+02   -0.17506E+03 66120   0.206E+02    0.564E+02
DAV:  14    -0.450578835106E+03    0.39072E+02   -0.27386E+03 76344   0.216E+02    0.199E+02
DAV:  15    -0.396462852465E+03    0.54116E+02   -0.93807E+02 74736   0.104E+02    0.167E+02
DAV:  16    -0.365929567032E+03    0.30533E+02   -0.29485E+02 78216   0.713E+01    0.152E+02
DAV:  17    -0.367942377991E+03   -0.20128E+01   -0.10188E+02 72024   0.419E+01    0.137E+02
DAV:  18    -0.347042093715E+03    0.20900E+02   -0.39965E+01 78432   0.268E+01    0.127E+02
DAV:  19    -0.357944915769E+03   -0.10903E+02   -0.18668E+02 71148   0.545E+01    0.118E+02
DAV:  20    -0.338334005777E+03    0.19611E+02   -0.12868E+02 78276   0.564E+01    0.917E+01
DAV:  21    -0.324291469900E+03    0.14043E+02   -0.11502E+02 78432   0.529E+01    0.743E+01
DAV:  22    -0.321316259065E+03    0.29752E+01   -0.75426E+01 73728   0.466E+01    0.736E+01
DAV:  23    -0.315170312961E+03    0.61459E+01   -0.29839E+01 74724   0.287E+01    0.566E+01
DAV:  24    -0.312045710098E+03    0.31246E+01   -0.12152E+01 69900   0.165E+01    0.483E+01
DAV:  25    -0.312907656432E+03   -0.86195E+00   -0.14580E+01 68664   0.176E+01    0.446E+01
DAV:  26    -0.311166890057E+03    0.17408E+01   -0.62587E+00 72900   0.117E+01    0.384E+01
DAV:  27    -0.309869829284E+03    0.12971E+01   -0.65628E+00 68796   0.111E+01    0.306E+01
DAV:  28    -0.308487031556E+03    0.13828E+01   -0.42405E+00 69036   0.939E+00    0.237E+01
DAV:  29    -0.307785844355E+03    0.70119E+00   -0.34822E+00 69204   0.846E+00    0.167E+01
DAV:  30    -0.307739014841E+03    0.46830E-01   -0.10281E+00 69204   0.437E+00    0.158E+01
DAV:  31    -0.307584323821E+03    0.15469E+00   -0.93296E-01 67260   0.442E+00    0.122E+01
DAV:  32    -0.307464543547E+03    0.11978E+00   -0.77254E-01 68676   0.346E+00    0.995E+00
DAV:  33    -0.307457397097E+03    0.71464E-02   -0.27110E-01 66000   0.224E+00    0.810E+00
DAV:  34    -0.307455791993E+03    0.16051E-02   -0.29400E-01 73164   0.228E+00    0.492E+00
DAV:  35    -0.307454597819E+03    0.11942E-02   -0.32790E-01 72276   0.221E+00    0.455E+00
DAV:  36    -0.307403146014E+03    0.51452E-01   -0.23457E-01 71604   0.223E+00    0.324E+00
DAV:  37    -0.307394837325E+03    0.83087E-02   -0.48703E-02 71640   0.826E-01    0.275E+00
DAV:  38    -0.307389835351E+03    0.50020E-02   -0.19045E-02 68760   0.558E-01    0.191E+00
DAV:  39    -0.307386970457E+03    0.28649E-02   -0.14295E-02 71016   0.449E-01    0.145E+00
DAV:  40    -0.307383677032E+03    0.32934E-02   -0.80466E-03 63192   0.384E-01    0.111E+00
DAV:  41    -0.307382047226E+03    0.16298E-02   -0.10058E-02 70716   0.404E-01    0.818E-01
DAV:  42    -0.307380525685E+03    0.15215E-02   -0.30807E-03 61344   0.239E-01    0.540E-01
DAV:  43    -0.307379967982E+03    0.55770E-03   -0.23064E-03 64740   0.201E-01    0.307E-01
DAV:  44    -0.307379786016E+03    0.18197E-03   -0.48615E-04 42516   0.102E-01    0.208E-01
DAV:  45    -0.307379688232E+03    0.97784E-04   -0.15328E-04 26880   0.835E-02
   1 F= -.30737969E+03 E0= -.30737539E+03  d E =-.307380E+03
 curvature:   0.00 expect dE= 0.000E+00 dE for cont linesearch  0.000E+00
 trial: gam= 0.00000 g(F)=  0.697E+00 g(S)=  0.951E-01 ort = 0.000E+00 (trialstep = 0.100E+01)
 search vector abs. value=  0.792E+00
 bond charge predicted
       N       E                     dE             d eps       ncg     rms          rms(c)
DAV:   1    -0.307915946757E+03   -0.53616E+00   -0.83572E+01 41280   0.325E+01    0.631E+00
DAV:   2    -0.309468454205E+03   -0.15525E+01   -0.15569E+01 71892   0.230E+01    0.104E+01
DAV:   3    -0.308282826398E+03    0.11856E+01   -0.10239E+01 70140   0.131E+01    0.567E+00
DAV:   4    -0.308241655200E+03    0.41171E-01   -0.47279E+00 68268   0.101E+01    0.533E+00
DAV:   5    -0.308026178678E+03    0.21548E+00   -0.26096E+00 68820   0.778E+00    0.301E+00
DAV:   6    -0.307952719155E+03    0.73460E-01   -0.10269E+00 70956   0.434E+00    0.193E+00
DAV:   7    -0.307935980255E+03    0.16739E-01   -0.55082E-01 73128   0.340E+00    0.176E+00
DAV:   8    -0.307926118113E+03    0.98621E-02   -0.34717E-01 72336   0.261E+00    0.131E+00
DAV:   9    -0.307913166257E+03    0.12952E-01   -0.11060E-01 71604   0.143E+00    0.725E-01
DAV:  10    -0.307911888421E+03    0.12778E-02   -0.46800E-02 70584   0.961E-01    0.647E-01
DAV:  11    -0.307911311611E+03    0.57681E-03   -0.27249E-02 65916   0.672E-01    0.473E-01
DAV:  12    -0.307912371725E+03   -0.10601E-02   -0.14848E-02 70260   0.492E-01    0.362E-01
DAV:  13    -0.307913665476E+03   -0.12938E-02   -0.20840E-02 65460   0.692E-01    0.432E-01
DAV:  14    -0.307912153300E+03    0.15122E-02   -0.14661E-02 68832   0.541E-01    0.135E-01
DAV:  15    -0.307912113204E+03    0.40096E-04   -0.34326E-03 63972   0.243E-01    0.109E-01
DAV:  16    -0.307912061067E+03    0.52137E-04   -0.17139E-03 59892   0.187E-01    0.902E-02
DAV:  17    -0.307912006968E+03    0.54099E-04   -0.48188E-04 41904   0.123E-01
   2 F= -.30791201E+03 E0= -.30790783E+03  d E =-.532319E+00
 trial-energy change:   -0.532319  1 .order   -0.527992   -0.792160   -0.263824
 step:   1.4658(harm=  1.4993)  dis= 0.06032  next Energy=  -307.973889 (dE=-0.594E+00)
 bond charge predicted
       N       E                     dE             d eps       ncg     rms          rms(c)
DAV:   1    -0.307964662804E+03   -0.52602E-01   -0.18209E+01 41280   0.153E+01    0.300E+00
DAV:   2    -0.308294978673E+03   -0.33032E+00   -0.33197E+00 71184   0.106E+01    0.498E+00
DAV:   3    -0.308053333084E+03    0.24165E+00   -0.23187E+00 70692   0.678E+00    0.265E+00
DAV:   4    -0.308042881882E+03    0.10451E-01   -0.98065E-01 68532   0.454E+00    0.247E+00
DAV:   5    -0.307994710152E+03    0.48172E-01   -0.56409E-01 68676   0.361E+00    0.142E+00
DAV:   6    -0.307978889532E+03    0.15821E-01   -0.22750E-01 71580   0.209E+00    0.905E-01
DAV:   7    -0.307975571291E+03    0.33182E-02   -0.11764E-01 73356   0.159E+00    0.838E-01
DAV:   8    -0.307973022057E+03    0.25492E-02   -0.74392E-02 71808   0.121E+00    0.604E-01
DAV:   9    -0.307970384245E+03    0.26378E-02   -0.21475E-02 65232   0.650E-01    0.356E-01
DAV:  10    -0.307970015859E+03    0.36839E-03   -0.93752E-03 61596   0.434E-01    0.297E-01
DAV:  11    -0.307970091166E+03   -0.75307E-04   -0.59600E-03 63288   0.323E-01    0.240E-01
DAV:  12    -0.307970351208E+03   -0.26004E-03   -0.40286E-03 65616   0.263E-01    0.164E-01
DAV:  13    -0.307970628125E+03   -0.27692E-03   -0.52806E-03 62148   0.365E-01    0.212E-01
DAV:  14    -0.307970218966E+03    0.40916E-03   -0.33905E-03 59232   0.279E-01    0.596E-02
DAV:  15    -0.307970184985E+03    0.33981E-04   -0.44600E-04 40116   0.111E-01
   3 F= -.30797018E+03 E0= -.30796591E+03  d E =-.590497E+00
 curvature:  -0.75 expect dE=-0.690E+00 dE for cont linesearch -0.207E-03
 trial: gam= 1.18654 g(F)=  0.193E+00 g(S)=  0.732E+00 ort =-0.148E-01 (trialstep = 0.432E+00)
 search vector abs. value=  0.201E+01
 bond charge predicted
       N       E                     dE             d eps       ncg     rms          rms(c)
DAV:   1    -0.308295393518E+03   -0.32517E+00   -0.38023E+01 41652   0.232E+01    0.495E+00
DAV:   2    -0.308886323241E+03   -0.59093E+00   -0.66860E+00 69996   0.131E+01    0.711E+00
DAV:   3    -0.308435646618E+03    0.45068E+00   -0.57239E+00 71820   0.100E+01    0.445E+00
DAV:   4    -0.308401623026E+03    0.34024E-01   -0.23877E+00 70044   0.744E+00    0.373E+00
DAV:   5    -0.308265395207E+03    0.13623E+00   -0.12607E+00 70752   0.536E+00    0.175E+00
DAV:   6    -0.308237912382E+03    0.27483E-01   -0.43513E-01 68544   0.315E+00    0.139E+00
DAV:   7    -0.308235009335E+03    0.29030E-02   -0.26881E-01 70992   0.238E+00    0.127E+00
DAV:   8    -0.308223852177E+03    0.11157E-01   -0.11013E-01 71940   0.157E+00    0.604E-01
DAV:   9    -0.308222384784E+03    0.14674E-02   -0.29960E-02 68640   0.787E-01    0.524E-01
DAV:  10    -0.308221506926E+03    0.87786E-03   -0.15063E-02 64332   0.576E-01    0.397E-01
DAV:  11    -0.308221864658E+03   -0.35773E-03   -0.73361E-03 65952   0.347E-01    0.331E-01
DAV:  12    -0.308222573640E+03   -0.70898E-03   -0.71231E-03 71916   0.315E-01    0.224E-01
DAV:  13    -0.308223173042E+03   -0.59940E-03   -0.10034E-02 70572   0.449E-01    0.301E-01
DAV:  14    -0.308222451658E+03    0.72138E-03   -0.78411E-03 60492   0.406E-01    0.120E-01
DAV:  15    -0.308222328617E+03    0.12304E-03   -0.15882E-03 59904   0.168E-01    0.560E-02
DAV:  16    -0.308222304922E+03    0.23695E-04   -0.35995E-04 37140   0.105E-01
   4 F= -.30822230E+03 E0= -.30821809E+03  d E =-.252120E+00
 trial-energy change:   -0.252120  1 .order   -0.254051   -0.391922   -0.116180
 step:   0.6256(harm=  0.6138)  dis= 0.03946  next Energy=  -308.248192 (dE=-0.278E+00)
 bond charge predicted
       N       E                     dE             d eps       ncg     rms          rms(c)
DAV:   1    -0.308261748381E+03   -0.39420E-01   -0.76014E+00 41328   0.103E+01    0.218E+00
DAV:   2    -0.308384649491E+03   -0.12290E+00   -0.13532E+00 70236   0.587E+00    0.326E+00
DAV:   3    -0.308289790807E+03    0.94859E-01   -0.11424E+00 72096   0.481E+00    0.193E+00
DAV:   4    -0.308281616055E+03    0.81748E-02   -0.42763E-01 70044   0.310E+00    0.164E+00
DAV:   5    -0.308254921910E+03    0.26694E-01   -0.24408E-01 70476   0.235E+00    0.752E-01
DAV:   6    -0.308250781031E+03    0.41409E-02   -0.83561E-02 68628   0.138E+00    0.648E-01
DAV:   7    -0.308249609072E+03    0.11720E-02   -0.52263E-02 70800   0.104E+00    0.547E-01
DAV:   8    -0.308247590989E+03    0.20181E-02   -0.19780E-02 64464   0.653E-01    0.262E-01
DAV:   9    -0.308247361883E+03    0.22911E-03   -0.56036E-03 65340   0.337E-01    0.233E-01
DAV:  10    -0.308247193182E+03    0.16870E-03   -0.27715E-03 60852   0.252E-01    0.174E-01
DAV:  11    -0.308247289959E+03   -0.96776E-04   -0.13779E-03 57144   0.158E-01    0.145E-01
DAV:  12    -0.308247475167E+03   -0.18521E-03   -0.17054E-03 62160   0.174E-01    0.114E-01
DAV:  13    -0.308247545876E+03   -0.70710E-04   -0.24994E-03 62892   0.242E-01    0.139E-01
DAV:  14    -0.308247374213E+03    0.17166E-03   -0.13546E-03 56604   0.179E-01    0.375E-02
DAV:  15    -0.308247356637E+03    0.17576E-04   -0.13649E-04 26832   0.710E-02
   5 F= -.30824736E+03 E0= -.30824319E+03  d E =-.277172E+00
 curvature:  -0.68 expect dE=-0.102E+00 dE for cont linesearch -0.129E-04
 trial: gam= 0.10434 g(F)=  0.143E+00 g(S)=  0.769E-02 ort =-0.618E-02 (trialstep = 0.471E+00)
 search vector abs. value=  0.172E+00
 bond charge predicted
       N       E                     dE             d eps       ncg     rms          rms(c)
DAV:   1    -0.308303465530E+03   -0.56091E-01   -0.34336E+00 42156   0.531E+00    0.526E-01
DAV:   2    -0.308337957980E+03   -0.34492E-01   -0.26545E-01 69984   0.281E+00    0.158E+00
DAV:   3    -0.308312495696E+03    0.25462E-01   -0.16189E-01 68976   0.203E+00    0.379E-01
DAV:   4    -0.308312443259E+03    0.52437E-04   -0.22812E-02 66564   0.663E-01    0.367E-01
DAV:   5    -0.308311520875E+03    0.92238E-03   -0.15473E-02 65532   0.553E-01    0.274E-01
DAV:   6    -0.308311063550E+03    0.45733E-03   -0.80781E-03 59808   0.424E-01    0.193E-01
DAV:   7    -0.308310918914E+03    0.14464E-03   -0.52907E-03 62640   0.293E-01    0.152E-01
DAV:   8    -0.308310761948E+03    0.15697E-03   -0.24464E-03 59292   0.233E-01    0.118E-01
DAV:   9    -0.308310633172E+03    0.12878E-03   -0.11704E-03 52836   0.169E-01    0.585E-02
DAV:  10    -0.308310593038E+03    0.40133E-04   -0.21859E-04 30804   0.988E-02
   6 F= -.30831059E+03 E0= -.30830601E+03  d E =-.632364E-01
 ZBRENT: can't locate minimum, use default step
 trial-energy change:   -0.063236  1 .order   -0.063090   -0.070816   -0.055364
 step:   1.8824(harm=  2.1567)  dis= 0.04859  next Energy=  -308.409631 (dE=-0.162E+00)
 bond charge predicted
       N       E                     dE             d eps       ncg     rms          rms(c)
DAV:   1    -0.308343556782E+03   -0.32924E-01   -0.30852E+01 42168   0.160E+01    0.158E+00
DAV:   2    -0.308648823180E+03   -0.30527E+00   -0.23872E+00 69816   0.829E+00    0.468E+00
DAV:   3    -0.308424895630E+03    0.22393E+00   -0.14669E+00 68892   0.605E+00    0.112E+00
DAV:   4    -0.308424246984E+03    0.64865E-03   -0.20578E-01 70428   0.197E+00    0.105E+00
DAV:   5    -0.308415877264E+03    0.83697E-02   -0.12970E-01 68568   0.155E+00    0.757E-01
DAV:   6    -0.308413475470E+03    0.24018E-02   -0.71184E-02 67176   0.126E+00    0.635E-01
DAV:   7    -0.308410994909E+03    0.24806E-02   -0.48765E-02 71676   0.883E-01    0.400E-01
DAV:   8    -0.308409723150E+03    0.12718E-02   -0.17387E-02 70704   0.563E-01    0.304E-01
DAV:   9    -0.308408874150E+03    0.84900E-03   -0.87640E-03 60168   0.427E-01    0.174E-01
DAV:  10    -0.308408731627E+03    0.14252E-03   -0.36560E-03 62076   0.266E-01    0.116E-01
DAV:  11    -0.308408678505E+03    0.53123E-04   -0.18893E-03 62172   0.187E-01    0.827E-02
DAV:  12    -0.308408638813E+03    0.39692E-04   -0.67618E-04 43368   0.143E-01
   7 F= -.30840864E+03 E0= -.30840313E+03  d E =-.161282E+00
 curvature:  -1.20 expect dE=-0.827E-01 dE for cont linesearch -0.334E-02
 ZBRENT: extrapolating
 opt :   2.2051  next Energy=  -308.412172 (dE=-0.165E+00)
 bond charge predicted
       N       E                     dE             d eps       ncg     rms          rms(c)
DAV:   1    -0.308408891737E+03   -0.21323E-03   -0.16143E+00 41844   0.364E+00    0.365E-01
DAV:   2    -0.308427139108E+03   -0.18247E-01   -0.13865E-01 69900   0.206E+00    0.115E+00
DAV:   3    -0.308413083347E+03    0.14056E-01   -0.85248E-02 68832   0.148E+00    0.252E-01
DAV:   4    -0.308413089256E+03   -0.59087E-05   -0.11085E-02 61788   0.465E-01    0.251E-01
DAV:   5    -0.308412642128E+03    0.44713E-03   -0.74304E-03 62340   0.386E-01    0.184E-01
DAV:   6    -0.308412441576E+03    0.20055E-03   -0.37820E-03 59796   0.297E-01    0.136E-01
DAV:   7    -0.308412345622E+03    0.95954E-04   -0.24815E-03 62412   0.216E-01    0.997E-02
DAV:   8    -0.308412290931E+03    0.54690E-04   -0.11289E-03 52392   0.169E-01    0.783E-02
DAV:   9    -0.308412225612E+03    0.65320E-04   -0.51249E-04 41868   0.128E-01
   8 F= -.30841223E+03 E0= -.30840656E+03  d E =-.164869E+00
 curvature:  -1.27 expect dE=-0.109E+00 dE for cont linesearch -0.658E-05
 trial: gam= 0.56498 g(F)=  0.708E-01 g(S)=  0.156E-01 ort = 0.945E-03 (trialstep = 0.818E+00)
 search vector abs. value=  0.142E+00
 bond charge predicted
       N       E                     dE             d eps       ncg     rms          rms(c)
DAV:   1    -0.308478523890E+03   -0.66233E-01   -0.83982E+00 41280   0.102E+01    0.203E+00
DAV:   2    -0.308558918448E+03   -0.80395E-01   -0.11093E+00 70968   0.572E+00    0.270E+00
DAV:   3    -0.308505020855E+03    0.53898E-01   -0.81447E-01 68844   0.440E+00    0.172E+00
DAV:   4    -0.308485764135E+03    0.19257E-01   -0.32346E-01 70572   0.262E+00    0.117E+00
DAV:   5    -0.308473761664E+03    0.12002E-01   -0.19161E-01 71268   0.190E+00    0.875E-01
DAV:   6    -0.308469191461E+03    0.45702E-02   -0.91580E-02 69996   0.139E+00    0.634E-01
DAV:   7    -0.308466338942E+03    0.28525E-02   -0.39533E-02 72948   0.889E-01    0.411E-01
DAV:   8    -0.308465759101E+03    0.57984E-03   -0.18203E-02 67728   0.580E-01    0.323E-01
DAV:   9    -0.308465256473E+03    0.50263E-03   -0.79828E-03 59988   0.392E-01    0.221E-01
DAV:  10    -0.308465118841E+03    0.13763E-03   -0.33769E-03 61440   0.265E-01    0.163E-01
DAV:  11    -0.308465391609E+03   -0.27277E-03   -0.25513E-03 60912   0.236E-01    0.165E-01
DAV:  12    -0.308465342847E+03    0.48761E-04   -0.25909E-03 64032   0.244E-01    0.920E-02
DAV:  13    -0.308465357788E+03   -0.14941E-04   -0.15092E-03 58860   0.181E-01    0.921E-02
DAV:  14    -0.308465287055E+03    0.70733E-04   -0.78145E-04 48792   0.143E-01
   9 F= -.30846529E+03 E0= -.30845938E+03  d E =-.530614E-01
 trial-energy change:   -0.053061  1 .order   -0.053557   -0.071059   -0.036055
 step:   1.8616(harm=  1.6596)  dis= 0.04363  next Energy=  -308.487279 (dE=-0.751E-01)
 bond charge predicted
       N       E                     dE             d eps       ncg     rms          rms(c)
DAV:   1    -0.308498405933E+03   -0.33048E-01   -0.13695E+01 41280   0.131E+01    0.261E+00
DAV:   2    -0.308629664283E+03   -0.13126E+00   -0.18362E+00 71004   0.742E+00    0.343E+00
DAV:   3    -0.308540396635E+03    0.89268E-01   -0.13174E+00 68652   0.562E+00    0.215E+00
DAV:   4    -0.308508682719E+03    0.31714E-01   -0.50765E-01 70548   0.333E+00    0.143E+00
DAV:   5    -0.308490954657E+03    0.17728E-01   -0.30373E-01 71256   0.243E+00    0.111E+00
DAV:   6    -0.308483387631E+03    0.75670E-02   -0.14368E-01 70068   0.177E+00    0.786E-01
DAV:   7    -0.308478910259E+03    0.44774E-02   -0.60618E-02 74904   0.112E+00    0.517E-01
DAV:   8    -0.308477968696E+03    0.94156E-03   -0.28500E-02 71952   0.723E-01    0.400E-01
DAV:   9    -0.308477219209E+03    0.74949E-03   -0.11746E-02 60204   0.476E-01    0.277E-01
DAV:  10    -0.308477083849E+03    0.13536E-03   -0.53039E-03 61512   0.331E-01    0.213E-01
DAV:  11    -0.308477532176E+03   -0.44833E-03   -0.41575E-03 61212   0.297E-01    0.204E-01
DAV:  12    -0.308477451939E+03    0.80238E-04   -0.43379E-03 64584   0.314E-01    0.117E-01
DAV:  13    -0.308477419928E+03    0.32011E-04   -0.22717E-03 60624   0.223E-01    0.100E-01
DAV:  14    -0.308477355221E+03    0.64707E-04   -0.11810E-03 56400   0.166E-01    0.542E-02
DAV:  15    -0.308477325642E+03    0.29579E-04   -0.18553E-04 29160   0.983E-02
  10 F= -.30847733E+03 E0= -.30847150E+03  d E =-.651000E-01
 curvature:  -1.28 expect dE=-0.322E+00 dE for cont linesearch -0.353E-02
 ZBRENT: interpolating
 opt :   1.5379  next Energy=  -308.480533 (dE=-0.683E-01)
 bond charge predicted
       N       E                     dE             d eps       ncg     rms          rms(c)
DAV:   1    -0.308483004187E+03   -0.56490E-02   -0.13284E+00 41280   0.410E+00    0.826E-01
DAV:   2    -0.308497242869E+03   -0.14239E-01   -0.18523E-01 70392   0.234E+00    0.117E+00
DAV:   3    -0.308486754312E+03    0.10489E-01   -0.13845E-01 70140   0.192E+00    0.653E-01
DAV:   4    -0.308484029560E+03    0.27248E-02   -0.47627E-02 71268   0.988E-01    0.457E-01
DAV:   5    -0.308482088952E+03    0.19406E-02   -0.30281E-02 70920   0.764E-01    0.360E-01
DAV:   6    -0.308481371833E+03    0.71712E-03   -0.15117E-02 65652   0.589E-01    0.257E-01
DAV:   7    -0.308480867955E+03    0.50388E-03   -0.63805E-03 68508   0.360E-01    0.165E-01
DAV:   8    -0.308480766455E+03    0.10150E-03   -0.31538E-03 63204   0.242E-01    0.130E-01
DAV:   9    -0.308480662923E+03    0.10353E-03   -0.13084E-03 54288   0.167E-01    0.870E-02
DAV:  10    -0.308480622908E+03    0.40015E-04   -0.40940E-04 37224   0.113E-01
  11 F= -.30848062E+03 E0= -.30847472E+03  d E =-.683973E-01
 curvature:  -1.16 expect dE=-0.204E+00 dE for cont linesearch -0.105E-04
 trial: gam= 1.99116 g(F)=  0.393E-01 g(S)=  0.136E+00 ort =-0.113E-02 (trialstep = 0.186E+00)
 search vector abs. value=  0.735E+00
 bond charge predicted
       N       E                     dE             d eps       ncg     rms          rms(c)
DAV:   1    -0.308504892945E+03   -0.24230E-01   -0.21117E+00 41280   0.455E+00    0.620E-01
DAV:   2    -0.308530863485E+03   -0.25971E-01   -0.23392E-01 70632   0.245E+00    0.132E+00
DAV:   3    -0.308511802153E+03    0.19061E-01   -0.13300E-01 69588   0.181E+00    0.455E-01
DAV:   4    -0.308510882201E+03    0.91995E-03   -0.23774E-02 68856   0.697E-01    0.354E-01
DAV:   5    -0.308510317188E+03    0.56501E-03   -0.19124E-02 65880   0.642E-01    0.314E-01
DAV:   6    -0.308509564018E+03    0.75317E-03   -0.10387E-02 67800   0.504E-01    0.216E-01
DAV:   7    -0.308509361467E+03    0.20255E-03   -0.60814E-03 68268   0.331E-01    0.167E-01
DAV:   8    -0.308509150330E+03    0.21114E-03   -0.24870E-03 60756   0.232E-01    0.973E-02
DAV:   9    -0.308509070696E+03    0.79634E-04   -0.86263E-04 50064   0.134E-01
  12 F= -.30850907E+03 E0= -.30850326E+03  d E =-.284478E-01
 ZBRENT: can't locate minimum, use default step
 trial-energy change:   -0.028448  1 .order   -0.028547   -0.032232   -0.024863
 step:   0.7445(harm=  0.8141)  dis= 0.04385  next Energy=  -308.551114 (dE=-0.705E-01)
 bond charge predicted
       N       E                     dE             d eps       ncg     rms          rms(c)
DAV:   1    -0.308511025398E+03   -0.18751E-02   -0.18994E+01 41280   0.137E+01    0.184E+00
DAV:   2    -0.308716810096E+03   -0.20578E+00   -0.19552E+00 70836   0.705E+00    0.363E+00
DAV:   3    -0.308576001155E+03    0.14081E+00   -0.10697E+00 70344   0.503E+00    0.137E+00
DAV:   4    -0.308566973407E+03    0.90277E-02   -0.20893E-01 72120   0.208E+00    0.103E+00
DAV:   5    -0.308562530479E+03    0.44429E-02   -0.16787E-01 67284   0.190E+00    0.962E-01
DAV:   6    -0.308555233464E+03    0.72970E-02   -0.92978E-02 70548   0.149E+00    0.630E-01
DAV:   7    -0.308553451064E+03    0.17824E-02   -0.57047E-02 78528   0.959E-01    0.487E-01
DAV:   8    -0.308551572459E+03    0.18786E-02   -0.23312E-02 66840   0.685E-01    0.302E-01
DAV:   9    -0.308550767084E+03    0.80537E-03   -0.87421E-03 61284   0.393E-01    0.186E-01
DAV:  10    -0.308550656156E+03    0.11093E-03   -0.24099E-03 59904   0.216E-01    0.144E-01
DAV:  11    -0.308550674960E+03   -0.18804E-04   -0.13518E-03 55284   0.174E-01    0.118E-01
DAV:  12    -0.308550723712E+03   -0.48751E-04   -0.13692E-03 56856   0.168E-01    0.905E-02
DAV:  13    -0.308550670477E+03    0.53234E-04   -0.11972E-03 56040   0.142E-01    0.551E-02
DAV:  14    -0.308550656666E+03    0.13811E-04   -0.54166E-04 44352   0.119E-01
  13 F= -.30855066E+03 E0= -.30854536E+03  d E =-.700338E-01
 curvature:  -1.71 expect dE=-0.558E-01 dE for cont linesearch -0.592E-03
 trial: gam= 0.00162 g(F)=  0.301E-01 g(S)=  0.262E-02 ort = 0.160E-01 (trialstep = 0.298E+00)
 search vector abs. value=  0.328E-01
 bond charge predicted
       N       E                     dE             d eps       ncg     rms          rms(c)
DAV:   1    -0.308559130108E+03   -0.84596E-02   -0.27667E-01 41520   0.179E+00    0.299E-01
DAV:   2    -0.308560850283E+03   -0.17202E-02   -0.27186E-02 70812   0.755E-01    0.319E-01
DAV:   3    -0.308560674169E+03    0.17611E-03   -0.18056E-02 70368   0.641E-01    0.309E-01
DAV:   4    -0.308560000915E+03    0.67325E-03   -0.73666E-03 59532   0.424E-01    0.185E-01
DAV:   5    -0.308559753200E+03    0.24772E-03   -0.43348E-03 61116   0.302E-01    0.130E-01
DAV:   6    -0.308559583960E+03    0.16924E-03   -0.18365E-03 57648   0.216E-01    0.732E-02
DAV:   7    -0.308559559543E+03    0.24417E-04   -0.71280E-04 45408   0.147E-01
  14 F= -.30855956E+03 E0= -.30855432E+03  d E =-.890288E-02
 ZBRENT: can't locate minimum, use default step
 trial-energy change:   -0.008903  1 .order   -0.009065   -0.009751   -0.008380
 step:   1.1912(harm=  2.1185)  dis= 0.01123  next Energy=  -308.585338 (dE=-0.347E-01)
 bond charge predicted
       N       E                     dE             d eps       ncg     rms          rms(c)
DAV:   1    -0.308573175098E+03   -0.13591E-01   -0.24877E+00 41280   0.537E+00    0.890E-01
DAV:   2    -0.308587600066E+03   -0.14425E-01   -0.24148E-01 70548   0.222E+00    0.914E-01
DAV:   3    -0.308587433697E+03    0.16637E-03   -0.16099E-01 70440   0.186E+00    0.952E-01
DAV:   4    -0.308580911544E+03    0.65222E-02   -0.68685E-02 67236   0.131E+00    0.537E-01
DAV:   5    -0.308578720670E+03    0.21909E-02   -0.36536E-02 70560   0.838E-01    0.385E-01
DAV:   6    -0.308577398150E+03    0.13225E-02   -0.17924E-02 70992   0.626E-01    0.234E-01
DAV:   7    -0.308577117639E+03    0.28051E-03   -0.72959E-03 68880   0.393E-01    0.204E-01
DAV:   8    -0.308576858225E+03    0.25941E-03   -0.40869E-03 58272   0.317E-01    0.126E-01
DAV:   9    -0.308576754877E+03    0.10335E-03   -0.82918E-04 50232   0.143E-01    0.795E-02
DAV:  10    -0.308576749045E+03    0.58329E-05   -0.20081E-04 28812   0.899E-02
  15 F= -.30857675E+03 E0= -.30857160E+03  d E =-.260924E-01
 curvature:  -0.79 expect dE=-0.217E-01 dE for cont linesearch -0.344E-02
 ZBRENT: increasing intervall
 opt :   2.9781  next Energy=  -308.569269 (dE=-0.186E-01)
 bond charge predicted
       N       E                     dE             d eps       ncg     rms          rms(c)
DAV:   1    -0.308555678465E+03    0.21076E-01   -0.10005E+01 41280   0.108E+01    0.178E+00
DAV:   2    -0.308612590512E+03   -0.56912E-01   -0.96982E-01 70572   0.445E+00    0.184E+00
DAV:   3    -0.308611543454E+03    0.10471E-02   -0.65376E-01 70368   0.367E+00    0.190E+00
DAV:   4    -0.308585589842E+03    0.25954E-01   -0.27975E-01 67380   0.267E+00    0.108E+00
DAV:   5    -0.308576464870E+03    0.91250E-02   -0.14672E-01 71088   0.167E+00    0.760E-01
DAV:   6    -0.308571217868E+03    0.52470E-02   -0.70053E-02 72168   0.122E+00    0.466E-01
DAV:   7    -0.308569988248E+03    0.12296E-02   -0.30639E-02 75432   0.793E-01    0.388E-01
DAV:   8    -0.308569123831E+03    0.86442E-03   -0.16077E-02 63672   0.616E-01    0.258E-01
DAV:   9    -0.308568700949E+03    0.42288E-03   -0.39761E-03 60456   0.287E-01    0.161E-01
DAV:  10    -0.308568725904E+03   -0.24955E-04   -0.15932E-03 58548   0.161E-01    0.141E-01
DAV:  11    -0.308568863670E+03   -0.13777E-03   -0.14440E-03 54264   0.187E-01    0.130E-01
DAV:  12    -0.308568885103E+03   -0.21433E-04   -0.18950E-03 59796   0.209E-01    0.946E-02
DAV:  13    -0.308568795694E+03    0.89410E-04   -0.10410E-03 56304   0.142E-01    0.417E-02
DAV:  14    -0.308568776961E+03    0.18732E-04   -0.29471E-04 34140   0.975E-02
  16 F= -.30856878E+03 E0= -.30856383E+03  d E =-.181203E-01
 curvature:   1.71 expect dE= 0.263E+00 dE for cont linesearch  0.208E-01
 ZBRENT: bracketing found
 ZBRENT: interpolating
 opt :   1.8608  next Energy=  -308.580759 (dE=-0.301E-01)
 bond charge predicted
       N       E                     dE             d eps       ncg     rms          rms(c)
DAV:   1    -0.308575526803E+03   -0.67311E-02   -0.38925E+00 41280   0.668E+00    0.112E+00
DAV:   2    -0.308600853379E+03   -0.25327E-01   -0.40677E-01 71172   0.293E+00    0.126E+00
DAV:   3    -0.308597411637E+03    0.34417E-02   -0.27082E-01 69648   0.251E+00    0.118E+00
DAV:   4    -0.308586972053E+03    0.10440E-01   -0.99074E-02 68004   0.153E+00    0.667E-01
DAV:   5    -0.308583605517E+03    0.33665E-02   -0.58463E-02 70932   0.104E+00    0.484E-01
DAV:   6    -0.308581493246E+03    0.21123E-02   -0.29724E-02 72672   0.802E-01    0.309E-01
DAV:   7    -0.308581003397E+03    0.48985E-03   -0.13549E-02 68532   0.533E-01    0.262E-01
DAV:   8    -0.308580586289E+03    0.41711E-03   -0.74387E-03 58344   0.416E-01    0.161E-01
DAV:   9    -0.308580407401E+03    0.17889E-03   -0.17960E-03 59160   0.201E-01    0.974E-02
DAV:  10    -0.308580388251E+03    0.19150E-04   -0.48076E-04 41916   0.112E-01
  17 F= -.30858039E+03 E0= -.30857532E+03  d E =-.297316E-01
 curvature:  -0.33 expect dE=-0.202E-01 dE for cont linesearch -0.145E-04
 trial: gam= 1.91068 g(F)=  0.118E-01 g(S)=  0.494E-01 ort =-0.120E-02 (trialstep = 0.113E+00)
 search vector abs. value=  0.176E+00
 bond charge predicted
       N       E                     dE             d eps       ncg     rms          rms(c)
DAV:   1    -0.308586438509E+03   -0.60311E-02   -0.19451E-01 41316   0.158E+00    0.295E-01
DAV:   2    -0.308587823682E+03   -0.13852E-02   -0.22044E-02 69552   0.808E-01    0.343E-01
DAV:   3    -0.308587591005E+03    0.23268E-03   -0.17435E-02 67392   0.683E-01    0.300E-01
DAV:   4    -0.308586935710E+03    0.65529E-03   -0.72512E-03 60276   0.416E-01    0.161E-01
DAV:   5    -0.308586683279E+03    0.25243E-03   -0.32433E-03 62016   0.277E-01    0.115E-01
DAV:   6    -0.308586597860E+03    0.85419E-04   -0.15301E-03 57636   0.177E-01    0.787E-02
DAV:   7    -0.308586577909E+03    0.19951E-04   -0.58671E-04 41772   0.143E-01
  18 F= -.30858658E+03 E0= -.30858156E+03  d E =-.618966E-02
 ZBRENT: can't locate minimum, use default step
 trial-energy change:   -0.006190  1 .order   -0.006230   -0.006691   -0.005769
 step:   0.4538(harm=  0.8225)  dis= 0.01103  next Energy=  -308.604645 (dE=-0.243E-01)
 bond charge predicted
       N       E                     dE             d eps       ncg     rms          rms(c)
DAV:   1    -0.308598879174E+03   -0.12281E-01   -0.17398E+00 41280   0.472E+00    0.913E-01
DAV:   2    -0.308607940839E+03   -0.90617E-02   -0.18813E-01 70968   0.224E+00    0.879E-01
DAV:   3    -0.308609933109E+03   -0.19923E-02   -0.15050E-01 67740   0.189E+00    0.997E-01
DAV:   4    -0.308602995037E+03    0.69381E-02   -0.82870E-02 66996   0.142E+00    0.547E-01
DAV:   5    -0.308599606559E+03    0.33885E-02   -0.30162E-02 74508   0.748E-01    0.308E-01
DAV:   6    -0.308599101600E+03    0.50496E-03   -0.15809E-02 70908   0.501E-01    0.259E-01
DAV:   7    -0.308598818521E+03    0.28308E-03   -0.89844E-03 65124   0.424E-01    0.214E-01
DAV:   8    -0.308598547621E+03    0.27090E-03   -0.38522E-03 61884   0.289E-01    0.129E-01
DAV:   9    -0.308598475432E+03    0.72189E-04   -0.10415E-03 52320   0.155E-01    0.898E-02
DAV:  10    -0.308598487565E+03   -0.12133E-04   -0.72211E-04 48612   0.130E-01
  19 F= -.30859849E+03 E0= -.30859350E+03  d E =-.180993E-01
 curvature:  -0.90 expect dE=-0.206E-01 dE for cont linesearch -0.282E-02
 ZBRENT: increasing intervall
 opt :   1.1345  next Energy=  -308.595923 (dE=-0.155E-01)
 bond charge predicted
       N       E                     dE             d eps       ncg     rms          rms(c)
DAV:   1    -0.308595279948E+03    0.31955E-02   -0.69702E+00 41280   0.944E+00    0.187E+00
DAV:   2    -0.308630688810E+03   -0.35409E-01   -0.76747E-01 71148   0.453E+00    0.174E+00
DAV:   3    -0.308638260976E+03   -0.75722E-02   -0.60633E-01 67500   0.369E+00    0.201E+00
DAV:   4    -0.308611356795E+03    0.26904E-01   -0.36185E-01 67200   0.299E+00    0.114E+00
DAV:   5    -0.308596931605E+03    0.14425E-01   -0.12531E-01 77904   0.152E+00    0.619E-01
DAV:   6    -0.308594783482E+03    0.21481E-02   -0.64269E-02 71628   0.102E+00    0.525E-01
DAV:   7    -0.308593276298E+03    0.15072E-02   -0.37233E-02 73200   0.859E-01    0.409E-01
DAV:   8    -0.308592375543E+03    0.90076E-03   -0.15892E-02 65436   0.575E-01    0.259E-01
DAV:   9    -0.308592000991E+03    0.37455E-03   -0.46930E-03 62736   0.313E-01    0.171E-01
DAV:  10    -0.308592042373E+03   -0.41382E-04   -0.27723E-03 61212   0.235E-01    0.153E-01
DAV:  11    -0.308592225390E+03   -0.18302E-03   -0.19873E-03 59412   0.219E-01    0.141E-01
DAV:  12    -0.308592158079E+03    0.67311E-04   -0.18605E-03 63588   0.208E-01    0.663E-02
DAV:  13    -0.308592153632E+03    0.44473E-05   -0.69851E-04 48420   0.125E-01
  20 F= -.30859215E+03 E0= -.30858728E+03  d E =-.117654E-01
 curvature:   0.82 expect dE= 0.639E-01 dE for cont linesearch  0.667E-02
 ZBRENT: bracketing found
 ZBRENT: interpolating
 opt :   0.7144  next Energy=  -308.601555 (dE=-0.212E-01)
 bond charge predicted
       N       E                     dE             d eps       ncg     rms          rms(c)
DAV:   1    -0.308601915071E+03   -0.97570E-02   -0.26768E+00 41280   0.590E+00    0.117E+00
DAV:   2    -0.308618879216E+03   -0.16964E-01   -0.31273E-01 70800   0.294E+00    0.124E+00
DAV:   3    -0.308618376379E+03    0.50284E-03   -0.25389E-01 67092   0.255E+00    0.119E+00
DAV:   4    -0.308608823271E+03    0.95531E-02   -0.12179E-01 69336   0.164E+00    0.704E-01
DAV:   5    -0.308603111312E+03    0.57120E-02   -0.50582E-02 74520   0.990E-01    0.409E-01
DAV:   6    -0.308602068309E+03    0.10430E-02   -0.27975E-02 72300   0.680E-01    0.328E-01
DAV:   7    -0.308601606948E+03    0.46136E-03   -0.15467E-02 69576   0.566E-01    0.278E-01
DAV:   8    -0.308601070806E+03    0.53614E-03   -0.69837E-03 61392   0.390E-01    0.160E-01
DAV:   9    -0.308600914559E+03    0.15625E-03   -0.18741E-03 60840   0.202E-01    0.106E-01
DAV:  10    -0.308600900715E+03    0.13844E-04   -0.10368E-03 52068   0.148E-01    0.917E-02
DAV:  11    -0.308600947113E+03   -0.46398E-04   -0.65527E-04 46296   0.139E-01
  21 F= -.30860095E+03 E0= -.30859603E+03  d E =-.205589E-01
 curvature:  -0.38 expect dE=-0.107E-01 dE for cont linesearch -0.591E-04
 trial: gam= 0.50148 g(F)=  0.234E-01 g(S)=  0.502E-02 ort =-0.527E-02 (trialstep = 0.234E+00)
 search vector abs. value=  0.675E-01
 bond charge predicted
       N       E                     dE             d eps       ncg     rms          rms(c)
DAV:   1    -0.308606082863E+03   -0.51821E-02   -0.23849E-01 41304   0.144E+00    0.149E-01
DAV:   2    -0.308608619348E+03   -0.25365E-02   -0.22825E-02 70188   0.792E-01    0.405E-01
DAV:   3    -0.308606912682E+03    0.17067E-02   -0.12088E-02 62640   0.527E-01    0.116E-01
DAV:   4    -0.308606881069E+03    0.31613E-04   -0.19611E-03 59880   0.203E-01    0.102E-01
DAV:   5    -0.308606775915E+03    0.10515E-03   -0.87684E-04 49788   0.145E-01    0.573E-02
DAV:   6    -0.308606754108E+03    0.21806E-04   -0.28881E-04 34956   0.110E-01
  22 F= -.30860675E+03 E0= -.30860189E+03  d E =-.580699E-02
 ZBRENT: can't locate minimum, use default step
 trial-energy change:   -0.005807  1 .order   -0.005897   -0.006030   -0.005764
 step:   0.9345(harm=  5.3026)  dis= 0.01642  next Energy=  -308.669373 (dE=-0.684E-01)
 bond charge predicted
       N       E                     dE             d eps       ncg     rms          rms(c)
DAV:   1    -0.308616476437E+03   -0.97005E-02   -0.21439E+00 41280   0.429E+00    0.432E-01
DAV:   2    -0.308635423510E+03   -0.18947E-01   -0.17530E-01 70032   0.217E+00    0.110E+00
DAV:   3    -0.308623218118E+03    0.12205E-01   -0.90344E-02 68340   0.145E+00    0.328E-01
DAV:   4    -0.308623232054E+03   -0.13935E-04   -0.16879E-02 63696   0.582E-01    0.326E-01
DAV:   5    -0.308622049330E+03    0.11827E-02   -0.94339E-03 62412   0.441E-01    0.171E-01
DAV:   6    -0.308622018385E+03    0.30944E-04   -0.42013E-03 62076   0.313E-01    0.177E-01
DAV:   7    -0.308621744925E+03    0.27346E-03   -0.29778E-03 63240   0.259E-01    0.111E-01
DAV:   8    -0.308621688895E+03    0.56029E-04   -0.17740E-03 56892   0.207E-01    0.107E-01
DAV:   9    -0.308621550561E+03    0.13833E-03   -0.77943E-04 46608   0.150E-01    0.378E-02
DAV:  10    -0.308621543550E+03    0.70119E-05   -0.15125E-04 27048   0.872E-02
  23 F= -.30862154E+03 E0= -.30861682E+03  d E =-.205964E-01
 curvature:  -1.79 expect dE=-0.322E-01 dE for cont linesearch -0.889E-02
 ZBRENT: increasing intervall
 opt :   2.3363  next Energy=  -308.638361 (dE=-0.374E-01)
 bond charge predicted
       N       E                     dE             d eps       ncg     rms          rms(c)
DAV:   1    -0.308617373385E+03    0.41772E-02   -0.85849E+00 41460   0.861E+00    0.866E-01
DAV:   2    -0.308692568923E+03   -0.75196E-01   -0.69810E-01 69864   0.431E+00    0.218E+00
DAV:   3    -0.308645734368E+03    0.46835E-01   -0.36512E-01 68292   0.292E+00    0.671E-01
DAV:   4    -0.308645026077E+03    0.70829E-03   -0.66318E-02 70440   0.114E+00    0.606E-01
DAV:   5    -0.308640822538E+03    0.42035E-02   -0.33770E-02 69324   0.775E-01    0.317E-01
DAV:   6    -0.308640584180E+03    0.23836E-03   -0.15086E-02 67104   0.572E-01    0.342E-01
DAV:   7    -0.308639726807E+03    0.85737E-03   -0.11950E-02 61956   0.510E-01    0.220E-01
DAV:   8    -0.308639314904E+03    0.41190E-03   -0.55352E-03 64056   0.353E-01    0.176E-01
DAV:   9    -0.308638967268E+03    0.34764E-03   -0.28162E-03 60804   0.249E-01    0.691E-02
DAV:  10    -0.308638961835E+03    0.54330E-05   -0.79369E-04 49404   0.133E-01
  24 F= -.30863896E+03 E0= -.30863458E+03  d E =-.380147E-01
 curvature:  -3.38 expect dE=-0.644E-01 dE for cont linesearch -0.207E-02
 ZBRENT: increasing intervall
 opt :   5.1399  next Energy=  -308.623656 (dE=-0.227E-01)
 bond charge predicted
       N       E                     dE             d eps       ncg     rms          rms(c)
DAV:   1    -0.308529476465E+03    0.10949E+00   -0.34321E+01 41280   0.173E+01    0.180E+00
DAV:   2    -0.308844480372E+03   -0.31500E+00   -0.29227E+00 70056   0.881E+00    0.442E+00
DAV:   3    -0.308651984831E+03    0.19250E+00   -0.15336E+00 68340   0.585E+00    0.137E+00
DAV:   4    -0.308649091336E+03    0.28935E-02   -0.28368E-01 71892   0.236E+00    0.125E+00
DAV:   5    -0.308630731870E+03    0.18359E-01   -0.13766E-01 73500   0.154E+00    0.616E-01
DAV:   6    -0.308630702970E+03    0.28900E-04   -0.60994E-02 70980   0.115E+00    0.735E-01
DAV:   7    -0.308627033036E+03    0.36699E-02   -0.55804E-02 70584   0.110E+00    0.481E-01
DAV:   8    -0.308624905870E+03    0.21272E-02   -0.23256E-02 69804   0.700E-01    0.336E-01
DAV:   9    -0.308623638233E+03    0.12676E-02   -0.11531E-02 64764   0.482E-01    0.149E-01
DAV:  10    -0.308623608675E+03    0.29558E-04   -0.36180E-03 61716   0.264E-01    0.135E-01
DAV:  11    -0.308623480230E+03    0.12845E-03   -0.18604E-03 58632   0.205E-01    0.841E-02
DAV:  12    -0.308623429421E+03    0.50808E-04   -0.64452E-04 44772   0.134E-01
  25 F= -.30862343E+03 E0= -.30861975E+03  d E =-.224823E-01
 curvature:  24.93 expect dE= 0.172E+01 dE for cont linesearch  0.127E+00
 ZBRENT: bracketing found
 ZBRENT: interpolating
 opt :   3.0582  next Energy=  -308.641285 (dE=-0.403E-01)
 bond charge predicted
       N       E                     dE             d eps       ncg     rms          rms(c)
DAV:   1    -0.308593286598E+03    0.30194E-01   -0.18908E+01 41280   0.128E+01    0.138E+00
DAV:   2    -0.308816957474E+03   -0.22367E+00   -0.19482E+00 68376   0.764E+00    0.401E+00
DAV:   3    -0.308654000136E+03    0.16296E+00   -0.10408E+00 66648   0.519E+00    0.914E-01
DAV:   4    -0.308656219487E+03   -0.22194E-02   -0.15364E-01 73056   0.170E+00    0.959E-01
DAV:   5    -0.308645798720E+03    0.10421E-01   -0.69805E-02 71796   0.118E+00    0.500E-01
DAV:   6    -0.308645722610E+03    0.76109E-04   -0.34339E-02 71388   0.882E-01    0.547E-01
DAV:   7    -0.308644271070E+03    0.14515E-02   -0.36507E-02 64656   0.918E-01    0.445E-01
DAV:   8    -0.308642852489E+03    0.14186E-02   -0.19159E-02 67212   0.654E-01    0.294E-01
DAV:   9    -0.308641681244E+03    0.11712E-02   -0.68621E-03 65184   0.374E-01    0.125E-01
DAV:  10    -0.308641752855E+03   -0.71611E-04   -0.34059E-03 60636   0.266E-01    0.145E-01
DAV:  11    -0.308641565727E+03    0.18713E-03   -0.15263E-03 54540   0.190E-01    0.498E-02
DAV:  12    -0.308641532163E+03    0.33564E-04   -0.29553E-04 35028   0.913E-02
  26 F= -.30864153E+03 E0= -.30863733E+03  d E =-.405850E-01
 curvature:  -0.46 expect dE=-0.118E-01 dE for cont linesearch -0.423E-05
 trial: gam= 0.64560 g(F)=  0.253E-01 g(S)=  0.534E-03 ort = 0.792E-03 (trialstep = 0.799E+00)
 search vector abs. value=  0.550E-01
 bond charge predicted
       N       E                     dE             d eps       ncg     rms          rms(c)
DAV:   1    -0.308651837145E+03   -0.10271E-01   -0.26011E+00 41280   0.482E+00    0.469E-01
DAV:   2    -0.308671801722E+03   -0.19965E-01   -0.19721E-01 68676   0.240E+00    0.106E+00
DAV:   3    -0.308661880184E+03    0.99215E-02   -0.90132E-02 66468   0.152E+00    0.366E-01
DAV:   4    -0.308661557082E+03    0.32310E-03   -0.15598E-02 65316   0.583E-01    0.289E-01
DAV:   5    -0.308660522998E+03    0.10341E-02   -0.68120E-03 66036   0.348E-01    0.170E-01
DAV:   6    -0.308660683199E+03   -0.16020E-03   -0.45526E-03 63096   0.320E-01    0.212E-01
DAV:   7    -0.308660426843E+03    0.25636E-03   -0.44455E-03 61248   0.332E-01    0.153E-01
DAV:   8    -0.308660168746E+03    0.25810E-03   -0.25467E-03 60264   0.213E-01    0.852E-02
DAV:   9    -0.308660076887E+03    0.91858E-04   -0.58321E-04 42324   0.130E-01
  27 F= -.30866008E+03 E0= -.30865609E+03  d E =-.185447E-01
 ZBRENT: can't locate minimum, use default step
 trial-energy change:   -0.018545  1 .order   -0.018597   -0.021025   -0.016169
 step:   3.1942(harm=  3.4572)  dis= 0.04503  next Energy=  -308.687045 (dE=-0.455E-01)
 bond charge predicted
       N       E                     dE             d eps       ncg     rms          rms(c)
DAV:   1    -0.308606337958E+03    0.53831E-01   -0.23396E+01 41280   0.145E+01    0.144E+00
DAV:   2    -0.308784470677E+03   -0.17813E+00   -0.17755E+00 68448   0.706E+00    0.309E+00
DAV:   3    -0.308702386959E+03    0.82084E-01   -0.81698E-01 66936   0.456E+00    0.114E+00
DAV:   4    -0.308698736680E+03    0.36503E-02   -0.14928E-01 70008   0.181E+00    0.898E-01
DAV:   5    -0.308688644430E+03    0.10092E-01   -0.65204E-02 72420   0.104E+00    0.502E-01
DAV:   6    -0.308690716070E+03   -0.20716E-02   -0.40179E-02 70104   0.954E-01    0.655E-01
DAV:   7    -0.308687504303E+03    0.32118E-02   -0.38470E-02 67164   0.985E-01    0.424E-01
DAV:   8    -0.308685759881E+03    0.17444E-02   -0.19607E-02 70980   0.595E-01    0.267E-01
DAV:   9    -0.308684999740E+03    0.76014E-03   -0.63154E-03 62184   0.349E-01    0.124E-01
DAV:  10    -0.308684990434E+03    0.93059E-05   -0.26500E-03 63648   0.215E-01    0.111E-01
DAV:  11    -0.308684882785E+03    0.10765E-03   -0.11276E-03 51228   0.167E-01    0.661E-02
DAV:  12    -0.308684833146E+03    0.49639E-04   -0.35471E-04 36768   0.112E-01
  28 F= -.30868483E+03 E0= -.30868164E+03  d E =-.433010E-01
 curvature:  -3.57 expect dE=-0.748E-01 dE for cont linesearch -0.157E-04
 trial: gam= 0.82155 g(F)=  0.150E-01 g(S)=  0.594E-02 ort = 0.491E-03 (trialstep = 0.119E+01)
 search vector abs. value=  0.588E-01
 bond charge predicted
       N       E                     dE             d eps       ncg     rms          rms(c)
DAV:   1    -0.308706997458E+03   -0.22115E-01   -0.59017E+00 41280   0.855E+00    0.175E+00
DAV:   2    -0.308739389813E+03   -0.32392E-01   -0.66548E-01 71364   0.428E+00    0.184E+00
DAV:   3    -0.308726175295E+03    0.13215E-01   -0.51507E-01 70368   0.340E+00    0.149E+00
DAV:   4    -0.308708889512E+03    0.17286E-01   -0.22857E-01 68172   0.227E+00    0.906E-01
DAV:   5    -0.308699925293E+03    0.89642E-02   -0.10641E-01 71040   0.139E+00    0.553E-01
DAV:   6    -0.308697997815E+03    0.19275E-02   -0.52182E-02 72228   0.980E-01    0.468E-01
DAV:   7    -0.308697011982E+03    0.98583E-03   -0.29395E-02 70392   0.750E-01    0.373E-01
DAV:   8    -0.308696232759E+03    0.77922E-03   -0.11820E-02 63432   0.507E-01    0.223E-01
DAV:   9    -0.308695968752E+03    0.26401E-03   -0.30907E-03 62868   0.266E-01    0.154E-01
DAV:  10    -0.308696047949E+03   -0.79197E-04   -0.20416E-03 61788   0.208E-01    0.145E-01
DAV:  11    -0.308696173906E+03   -0.12596E-03   -0.14169E-03 55764   0.184E-01    0.117E-01
DAV:  12    -0.308696186098E+03   -0.12192E-04   -0.17697E-03 59676   0.209E-01    0.927E-02
DAV:  13    -0.308696112475E+03    0.73623E-04   -0.77980E-04 48552   0.154E-01
  29 F= -.30869611E+03 E0= -.30869324E+03  d E =-.112793E-01
 trial-energy change:   -0.011279  1 .order   -0.012074   -0.025468    0.001320
 step:   1.1231(harm=  1.1349)  dis= 0.02159  next Energy=  -308.696152 (dE=-0.113E-01)
 bond charge predicted
       N       E                     dE             d eps       ncg     rms          rms(c)
DAV:   1    -0.308696275740E+03   -0.89642E-04   -0.21871E-02 42948   0.539E-01    0.114E-01
DAV:   2    -0.308696588146E+03   -0.31241E-03   -0.38130E-03 70608   0.331E-01    0.174E-01
DAV:   3    -0.308696360464E+03    0.22768E-03   -0.28481E-03 58032   0.267E-01    0.940E-02
DAV:   4    -0.308696306569E+03    0.53895E-04   -0.87617E-04 50484   0.139E-01
  30 F= -.30869631E+03 E0= -.30869343E+03  d E =-.114734E-01
 curvature:  -1.50 expect dE=-0.490E-01 dE for cont linesearch -0.599E-04
 trial: gam= 1.65310 g(F)=  0.803E-02 g(S)=  0.246E-01 ort =-0.153E-02 (trialstep = 0.368E+00)
 search vector abs. value=  0.188E+00
 bond charge predicted
       N       E                     dE             d eps       ncg     rms          rms(c)
DAV:   1    -0.308702800809E+03   -0.64403E-02   -0.16081E+00 41280   0.371E+00    0.430E-01
DAV:   2    -0.308718239317E+03   -0.15439E-01   -0.14397E-01 70704   0.174E+00    0.947E-01
DAV:   3    -0.308707244671E+03    0.10995E-01   -0.79867E-02 71568   0.131E+00    0.323E-01
DAV:   4    -0.308707087795E+03    0.15688E-03   -0.13547E-02 61992   0.557E-01    0.289E-01
DAV:   5    -0.308706284479E+03    0.80332E-03   -0.82174E-03 62340   0.446E-01    0.180E-01
DAV:   6    -0.308706154302E+03    0.13018E-03   -0.43641E-03 61680   0.332E-01    0.166E-01
DAV:   7    -0.308706031716E+03    0.12259E-03   -0.35964E-03 63864   0.267E-01    0.134E-01
DAV:   8    -0.308705854149E+03    0.17757E-03   -0.17605E-03 59976   0.203E-01    0.714E-02
DAV:   9    -0.308705799249E+03    0.54900E-04   -0.53407E-04 42768   0.124E-01
  31 F= -.30870580E+03 E0= -.30870308E+03  d E =-.949268E-02
 trial-energy change:   -0.009493  1 .order   -0.009508   -0.011090   -0.007926
 step:   1.2915(harm=  1.2915)  dis= 0.04942  next Energy=  -308.715741 (dE=-0.194E-01)
 bond charge predicted
       N       E                     dE             d eps       ncg     rms          rms(c)
DAV:   1    -0.308692242651E+03    0.13611E-01   -0.10080E+01 41280   0.932E+00    0.104E+00
DAV:   2    -0.308772795144E+03   -0.80552E-01   -0.80041E-01 70284   0.414E+00    0.211E+00
DAV:   3    -0.308722158122E+03    0.50637E-01   -0.41196E-01 71052   0.294E+00    0.772E-01
DAV:   4    -0.308720867445E+03    0.12907E-02   -0.72351E-02 69588   0.130E+00    0.675E-01
DAV:   5    -0.308716142973E+03    0.47245E-02   -0.46102E-02 68040   0.996E-01    0.404E-01
DAV:   6    -0.308716068025E+03    0.74948E-04   -0.25479E-02 71184   0.799E-01    0.426E-01
DAV:   7    -0.308714927292E+03    0.11407E-02   -0.20554E-02 73140   0.638E-01    0.306E-01
DAV:   8    -0.308713920133E+03    0.10072E-02   -0.87327E-03 64956   0.411E-01    0.161E-01
DAV:   9    -0.308713693234E+03    0.22690E-03   -0.27237E-03 60528   0.241E-01    0.100E-01
DAV:  10    -0.308713643157E+03    0.50077E-04   -0.10043E-03 54396   0.130E-01    0.673E-02
DAV:  11    -0.308713659054E+03   -0.15897E-04   -0.48912E-04 43056   0.122E-01
  32 F= -.30871366E+03 E0= -.30871139E+03  d E =-.173525E-01
 curvature:  -4.04 expect dE=-0.514E-01 dE for cont linesearch -0.428E-03
 trial: gam= 0.26457 g(F)=  0.114E-01 g(S)=  0.128E-02 ort =-0.447E-02 (trialstep = 0.553E+00)
 search vector abs. value=  0.235E-01
 bond charge predicted
       N       E                     dE             d eps       ncg     rms          rms(c)
DAV:   1    -0.308716724678E+03   -0.30815E-02   -0.61435E-01 41304   0.273E+00    0.382E-01
DAV:   2    -0.308724937286E+03   -0.82126E-02   -0.82128E-02 69816   0.151E+00    0.716E-01
DAV:   3    -0.308719956111E+03    0.49812E-02   -0.46836E-02 68388   0.108E+00    0.315E-01
DAV:   4    -0.308719603853E+03    0.35226E-03   -0.12318E-02 64272   0.507E-01    0.250E-01
DAV:   5    -0.308718995763E+03    0.60809E-03   -0.70861E-03 63564   0.384E-01    0.159E-01
DAV:   6    -0.308718832460E+03    0.16330E-03   -0.32936E-03 59496   0.292E-01    0.120E-01
DAV:   7    -0.308718736397E+03    0.96062E-04   -0.19175E-03 60180   0.199E-01    0.862E-02
DAV:   8    -0.308718686265E+03    0.50132E-04   -0.87969E-04 50544   0.157E-01
  33 F= -.30871869E+03 E0= -.30871645E+03  d E =-.502721E-02
 trial-energy change:   -0.005027  1 .order   -0.005220   -0.006378   -0.004062
 step:   1.5234(harm=  1.5234)  dis= 0.02265  next Energy=  -308.722443 (dE=-0.878E-02)
 bond charge predicted
       N       E                     dE             d eps       ncg     rms          rms(c)
DAV:   1    -0.308716101165E+03    0.26352E-02   -0.18881E+00 41280   0.479E+00    0.670E-01
DAV:   2    -0.308743000846E+03   -0.26900E-01   -0.25713E-01 69084   0.274E+00    0.133E+00
DAV:   3    -0.308725890188E+03    0.17111E-01   -0.14611E-01 67920   0.194E+00    0.523E-01
DAV:   4    -0.308725151461E+03    0.73873E-03   -0.36572E-02 69864   0.856E-01    0.438E-01
DAV:   5    -0.308723317255E+03    0.18342E-02   -0.22055E-02 67044   0.659E-01    0.287E-01
DAV:   6    -0.308722783481E+03    0.53377E-03   -0.10141E-02 67980   0.493E-01    0.199E-01
DAV:   7    -0.308722573189E+03    0.21029E-03   -0.57134E-03 68400   0.308E-01    0.156E-01
DAV:   8    -0.308722376322E+03    0.19687E-03   -0.24122E-03 62424   0.232E-01    0.944E-02
DAV:   9    -0.308722290302E+03    0.86020E-04   -0.59925E-04 43644   0.133E-01
  34 F= -.30872229E+03 E0= -.30872009E+03  d E =-.863125E-02
 curvature:  -1.55 expect dE=-0.259E-01 dE for cont linesearch -0.952E-05
 trial: gam= 1.16018 g(F)=  0.358E-02 g(S)=  0.131E-01 ort = 0.380E-03 (trialstep = 0.357E+00)
 search vector abs. value=  0.492E-01
 bond charge predicted
       N       E                     dE             d eps       ncg     rms          rms(c)
DAV:   1    -0.308727957055E+03   -0.55807E-02   -0.56349E-01 41292   0.290E+00    0.629E-01
DAV:   2    -0.308733040030E+03   -0.50830E-02   -0.90806E-02 70620   0.163E+00    0.733E-01
DAV:   3    -0.308731676876E+03    0.13632E-02   -0.78036E-02 68376   0.143E+00    0.625E-01
DAV:   4    -0.308728139985E+03    0.35369E-02   -0.29567E-02 64932   0.846E-01    0.283E-01
DAV:   5    -0.308727411213E+03    0.72877E-03   -0.14323E-02 68460   0.535E-01    0.249E-01
DAV:   6    -0.308727070133E+03    0.34108E-03   -0.80108E-03 60120   0.417E-01    0.173E-01
DAV:   7    -0.308726820906E+03    0.24923E-03   -0.31483E-03 61920   0.262E-01    0.100E-01
DAV:   8    -0.308726803619E+03    0.17287E-04   -0.13932E-03 58092   0.164E-01    0.862E-02
DAV:   9    -0.308726732706E+03    0.70913E-04   -0.33203E-04 33852   0.114E-01
  35 F= -.30872673E+03 E0= -.30872453E+03  d E =-.444240E-02
 trial-energy change:   -0.004442  1 .order   -0.004524   -0.006113   -0.002935
 step:   0.6869(harm=  0.6869)  dis= 0.01456  next Energy=  -308.728170 (dE=-0.588E-02)
 bond charge predicted
       N       E                     dE             d eps       ncg     rms          rms(c)
DAV:   1    -0.308728763871E+03   -0.19603E-02   -0.48166E-01 41280   0.269E+00    0.551E-01
DAV:   2    -0.308732905581E+03   -0.41417E-02   -0.72211E-02 69624   0.146E+00    0.648E-01
DAV:   3    -0.308731718156E+03    0.11874E-02   -0.60623E-02 67692   0.127E+00    0.545E-01
DAV:   4    -0.308729047235E+03    0.26709E-02   -0.23028E-02 64656   0.750E-01    0.243E-01
DAV:   5    -0.308728409712E+03    0.63752E-03   -0.10432E-02 69132   0.443E-01    0.199E-01
DAV:   6    -0.308728250400E+03    0.15931E-03   -0.55336E-03 59592   0.338E-01    0.154E-01
DAV:   7    -0.308728093170E+03    0.15723E-03   -0.22027E-03 60420   0.221E-01    0.941E-02
DAV:   8    -0.308728062840E+03    0.30330E-04   -0.74692E-04 48624   0.122E-01
  36 F= -.30872806E+03 E0= -.30872590E+03  d E =-.577254E-02
 curvature:  -0.99 expect dE=-0.463E-02 dE for cont linesearch -0.235E-04
 trial: gam= 0.28137 g(F)=  0.397E-02 g(S)=  0.720E-03 ort = 0.108E-02 (trialstep = 0.423E+00)
 search vector abs. value=  0.919E-02
 bond charge predicted
       N       E                     dE             d eps       ncg     rms          rms(c)
DAV:   1    -0.308729342107E+03   -0.12489E-02   -0.14679E-01 41784   0.127E+00    0.132E-01
DAV:   2    -0.308731040538E+03   -0.16984E-02   -0.15832E-02 68304   0.708E-01    0.317E-01
DAV:   3    -0.308730094373E+03    0.94617E-03   -0.74288E-03 61956   0.460E-01    0.110E-01
DAV:   4    -0.308730040265E+03    0.54108E-04   -0.13194E-03 56016   0.176E-01    0.858E-02
DAV:   5    -0.308729998305E+03    0.41960E-04   -0.69949E-04 47676   0.131E-01
  37 F= -.30873000E+03 E0= -.30872780E+03  d E =-.193546E-02
 ZBRENT: can't locate minimum, use default step
 trial-energy change:   -0.001935  1 .order   -0.001987   -0.002112   -0.001863
 step:   1.6924(harm=  3.5873)  dis= 0.01587  next Energy=  -308.737015 (dE=-0.895E-02)
 bond charge predicted
       N       E                     dE             d eps       ncg     rms          rms(c)
DAV:   1    -0.308728262083E+03    0.17782E-02   -0.13176E+00 41784   0.380E+00    0.373E-01
DAV:   2    -0.308743571751E+03   -0.15310E-01   -0.13969E-01 67824   0.212E+00    0.977E-01
DAV:   3    -0.308734607284E+03    0.89645E-02   -0.63582E-02 67476   0.134E+00    0.273E-01
DAV:   4    -0.308734329028E+03    0.27826E-03   -0.99359E-03 62292   0.463E-01    0.238E-01
DAV:   5    -0.308733929645E+03    0.39938E-03   -0.65111E-03 59616   0.388E-01    0.183E-01
DAV:   6    -0.308733754208E+03    0.17544E-03   -0.33770E-03 62100   0.283E-01    0.136E-01
DAV:   7    -0.308733655795E+03    0.98413E-04   -0.21315E-03 61056   0.215E-01    0.996E-02
DAV:   8    -0.308733586237E+03    0.69558E-04   -0.14126E-03 55752   0.185E-01    0.853E-02
DAV:   9    -0.308733501236E+03    0.85001E-04   -0.60293E-04 43200   0.135E-01
  38 F= -.30873350E+03 E0= -.30873129E+03  d E =-.543840E-02
 curvature:  -2.12 expect dE=-0.407E-02 dE for cont linesearch -0.665E-03
 trial: gam= 0.08402 g(F)=  0.168E-02 g(S)=  0.237E-03 ort = 0.170E-02 (trialstep = 0.677E+00)
 search vector abs. value=  0.227E-02
 bond charge predicted
       N       E                     dE             d eps       ncg     rms          rms(c)
DAV:   1    -0.308734047940E+03   -0.46170E-03   -0.12041E-01 41472   0.128E+00    0.177E-01
DAV:   2    -0.308734991325E+03   -0.94338E-03   -0.14139E-02 68052   0.587E-01    0.162E-01
DAV:   3    -0.308735032655E+03   -0.41331E-04   -0.56411E-03 66468   0.365E-01    0.170E-01
DAV:   4    -0.308734792871E+03    0.23978E-03   -0.26566E-03 58404   0.265E-01    0.951E-02
DAV:   5    -0.308734686948E+03    0.10592E-03   -0.89882E-04 49968   0.146E-01    0.575E-02
DAV:   6    -0.308734684208E+03    0.27396E-05   -0.45588E-04 39804   0.122E-01
  39 F= -.30873468E+03 E0= -.30873248E+03  d E =-.118297E-02
 trial-energy change:   -0.001183  1 .order   -0.001211   -0.001397   -0.001024
 step:   2.5345(harm=  2.5345)  dis= 0.00981  next Energy=  -308.736117 (dE=-0.262E-02)
 bond charge predicted
       N       E                     dE             d eps       ncg     rms          rms(c)
DAV:   1    -0.308731251299E+03    0.34356E-02   -0.90542E-01 41280   0.350E+00    0.468E-01
DAV:   2    -0.308737978004E+03   -0.67267E-02   -0.10322E-01 67860   0.153E+00    0.425E-01
DAV:   3    -0.308738340973E+03   -0.36297E-03   -0.42090E-02 70020   0.934E-01    0.475E-01
DAV:   4    -0.308736587706E+03    0.17533E-02   -0.20814E-02 59688   0.713E-01    0.269E-01
DAV:   5    -0.308735801355E+03    0.78635E-03   -0.77001E-03 67884   0.385E-01    0.143E-01
DAV:   6    -0.308735856136E+03   -0.54780E-04   -0.39440E-03 63600   0.279E-01    0.163E-01
DAV:   7    -0.308735638562E+03    0.21757E-03   -0.26474E-03 64704   0.260E-01    0.918E-02
DAV:   8    -0.308735581883E+03    0.56679E-04   -0.93767E-04 52368   0.147E-01
  40 F= -.30873558E+03 E0= -.30873332E+03  d E =-.208065E-02
 curvature:  -1.39 expect dE=-0.652E-02 dE for cont linesearch -0.391E-04
 trial: gam= 2.63164 g(F)=  0.121E-02 g(S)=  0.346E-02 ort =-0.252E-03 (trialstep = 0.125E+00)
 search vector abs. value=  0.191E-01
 bond charge predicted
       N       E                     dE             d eps       ncg     rms          rms(c)
DAV:   1    -0.308735885836E+03   -0.24727E-03   -0.29884E-02 41880   0.618E-01    0.990E-02
DAV:   2    -0.308736165469E+03   -0.27963E-03   -0.36189E-03 69720   0.288E-01    0.122E-01
DAV:   3    -0.308736110941E+03    0.54528E-04   -0.19565E-03 58248   0.225E-01    0.999E-02
DAV:   4    -0.308736027131E+03    0.83810E-04   -0.48814E-04 40044   0.133E-01
  41 F= -.30873603E+03 E0= -.30873375E+03  d E =-.445247E-03
 ZBRENT: can't locate minimum, use default step
 trial-energy change:   -0.000445  1 .order   -0.000458   -0.000501   -0.000415
 step:   0.4993(harm=  0.7246)  dis= 0.00667  next Energy=  -308.737036 (dE=-0.145E-02)
 bond charge predicted
       N       E                     dE             d eps       ncg     rms          rms(c)
DAV:   1    -0.308735707124E+03    0.40382E-03   -0.26739E-01 41292   0.182E+00    0.245E-01
DAV:   2    -0.308737405336E+03   -0.16982E-02   -0.25700E-02 67440   0.795E-01    0.227E-01
DAV:   3    -0.308737703225E+03   -0.29789E-03   -0.10475E-02 68448   0.547E-01    0.270E-01
DAV:   4    -0.308737019556E+03    0.68367E-03   -0.48521E-03 60804   0.356E-01    0.119E-01
DAV:   5    -0.308736950447E+03    0.69109E-04   -0.21970E-03 60480   0.229E-01    0.113E-01
DAV:   6    -0.308736860347E+03    0.90100E-04   -0.13229E-03 54348   0.179E-01    0.668E-02
DAV:   7    -0.308736820700E+03    0.39647E-04   -0.62376E-04 45792   0.130E-01
  42 F= -.30873682E+03 E0= -.30873454E+03  d E =-.123882E-02
 curvature:  -1.48 expect dE=-0.333E-02 dE for cont linesearch -0.171E-03
 trial: gam=-0.03600 g(F)=  0.174E-02 g(S)=  0.508E-03 ort = 0.149E-02 (trialstep = 0.200E+00)
 search vector abs. value=  0.217E-02
 bond charge predicted
       N       E                     dE             d eps       ncg     rms          rms(c)
DAV:   1    -0.308737236617E+03   -0.37627E-03   -0.11972E-02 51852   0.424E-01    0.796E-02
DAV:   2    -0.308737852579E+03   -0.61596E-03   -0.48680E-03 70176   0.368E-01    0.224E-01
DAV:   3    -0.308737262842E+03    0.58974E-03   -0.32858E-03 59976   0.287E-01    0.553E-02
DAV:   4    -0.308737240938E+03    0.21904E-04   -0.37462E-04 39900   0.944E-02
  43 F= -.30873724E+03 E0= -.30873497E+03  d E =-.420238E-03
 ZBRENT: can't locate minimum, use default step
 trial-energy change:   -0.000420  1 .order   -0.000427   -0.000439   -0.000416
 step:   0.7988(harm=  3.8602)  dis= 0.00203  next Energy=  -308.741061 (dE=-0.424E-02)
 bond charge predicted
       N       E                     dE             d eps       ncg     rms          rms(c)
DAV:   1    -0.308738001200E+03   -0.73836E-03   -0.10258E-01 41484   0.119E+00    0.228E-01
DAV:   2    -0.308739340644E+03   -0.13394E-02   -0.18484E-02 70992   0.714E-01    0.333E-01
DAV:   3    -0.308738560810E+03    0.77983E-03   -0.13279E-02 65736   0.567E-01    0.215E-01
DAV:   4    -0.308738238993E+03    0.32182E-03   -0.46208E-03 62520   0.321E-01    0.118E-01
DAV:   5    -0.308738081814E+03    0.15718E-03   -0.20481E-03 62532   0.188E-01    0.800E-02
DAV:   6    -0.308738026029E+03    0.55785E-04   -0.74386E-04 46848   0.137E-01
  44 F= -.30873803E+03 E0= -.30873577E+03  d E =-.120533E-02
 curvature:  -0.57 expect dE=-0.555E-03 dE for cont linesearch -0.275E-03
 trial: gam=-0.04281 g(F)=  0.780E-03 g(S)=  0.189E-03 ort = 0.102E-02 (trialstep = 0.320E+00)
 search vector abs. value=  0.885E-03
 bond charge predicted
       N       E                     dE             d eps       ncg     rms          rms(c)
DAV:   1    -0.308738278821E+03   -0.19701E-03   -0.99681E-03 42480   0.374E-01    0.789E-02
DAV:   2    -0.308738686129E+03   -0.40731E-03   -0.34582E-03 70128   0.315E-01    0.184E-01
DAV:   3    -0.308738323872E+03    0.36226E-03   -0.24663E-03 57000   0.249E-01    0.626E-02
DAV:   4    -0.308738303411E+03    0.20461E-04   -0.39060E-04 40020   0.934E-02
  45 F= -.30873830E+03 E0= -.30873606E+03  d E =-.277382E-03
 ZBRENT: can't locate minimum, use default step
 trial-energy change:   -0.000277  1 .order   -0.000278   -0.000296   -0.000260
 step:   1.2781(harm=  2.6378)  dis= 0.00337  next Energy=  -308.739246 (dE=-0.122E-02)
 bond charge predicted
       N       E                     dE             d eps       ncg     rms          rms(c)
DAV:   1    -0.308738793680E+03   -0.46981E-03   -0.85856E-02 41328   0.104E+00    0.178E-01
DAV:   2    -0.308740712758E+03   -0.19191E-02   -0.17734E-02 68796   0.771E-01    0.406E-01
DAV:   3    -0.308739061690E+03    0.16511E-02   -0.11560E-02 62028   0.558E-01    0.130E-01
DAV:   4    -0.308739020886E+03    0.40804E-04   -0.26878E-03 62808   0.219E-01    0.111E-01
DAV:   5    -0.308738910329E+03    0.11056E-03   -0.16552E-03 56988   0.172E-01    0.871E-02
DAV:   6    -0.308738852153E+03    0.58176E-04   -0.88287E-04 49296   0.149E-01
  46 F= -.30873885E+03 E0= -.30873662E+03  d E =-.826123E-03
 curvature:  -0.83 expect dE=-0.457E-03 dE for cont linesearch -0.254E-03
 trial: gam= 0.00959 g(F)=  0.485E-03 g(S)=  0.661E-04 ort = 0.521E-03 (trialstep = 0.511E+00)
 search vector abs. value=  0.561E-03
 reached required accuracy - stopping structural energy minimisation
 writing wavefunctions
VASP is done!
