<?xml version="1.0" encoding="ISO-8859-1"?>
<modeling>
 <generator>
  <i name="program" type="string">vasp </i>
  <i name="version" type="string">5.4.4.18Apr17-6-g9f103f2a35  </i>
  <i name="subversion" type="string">(build Aug 09 2018 16:20:53) complex            parallel </i>
  <i name="platform" type="string">LinuxIFC </i>
  <i name="date" type="string">2020 04 30 </i>
  <i name="time" type="string">05:49:36 </i>
 </generator>
 <incar>
  <i type="string" name="SYSTEM"> Nb - Mo - Ta - Ti - V SQS</i>
  <i type="string" name="PREC">normal</i>
  <i type="int" name="ICHARG">     0</i>
  <i type="int" name="IBRION">     2</i>
  <i type="int" name="NSW">    50</i>
  <i type="int" name="ISIF">     3</i>
  <i name="ENCUT">    600.00000000</i>
  <i type="string" name="LREAL"> Auto</i>
  <i type="int" name="ISMEAR">     1</i>
  <i name="SIGMA">      0.20000000</i>
  <v type="int" name="KPOINT_BSE">    -1     0     0     0</v>
  <i type="string" name="GGA"> PS</i>
 </incar>
 <structure name="primitive_cell" >
  <crystal>
   <varray name="basis" >
    <v>      -3.16000000      -3.16000000      -3.16000000 </v>
    <v>       1.58000000       1.58000000      -7.90000000 </v>
    <v>       7.90000000      -7.90000000      -1.58000000 </v>
   </varray>
   <i name="volume">    473.31744000 </i>
   <varray name="rec_basis" >
    <v>      -0.13713080      -0.12658228      -0.05274262 </v>
    <v>       0.04219409       0.06329114      -0.10548523 </v>
    <v>       0.06329114      -0.06329114       0.00000000 </v>
   </varray>
  </crystal>
  <varray name="positions" >
   <v>      -0.03333333      -0.06666667       0.40000000 </v>
   <v>       0.30000000      -0.40000000       0.40000000 </v>
   <v>      -0.10000000      -0.20000000       0.20000000 </v>
   <v>       0.06666667       0.13333333       0.20000000 </v>
   <v>       0.46666667      -0.06666667       0.40000000 </v>
   <v>      -0.13333333      -0.26666667      -0.40000000 </v>
   <v>       0.03333333       0.06666667      -0.40000000 </v>
   <v>      -0.36666667       0.26666667       0.40000000 </v>
   <v>       0.40000000      -0.20000000       0.20000000 </v>
   <v>      -0.20000000      -0.40000000       0.40000000 </v>
   <v>      -0.43333333       0.13333333       0.20000000 </v>
   <v>       0.36666667      -0.26666667      -0.40000000 </v>
   <v>       0.13333333       0.26666667       0.40000000 </v>
   <v>      -0.46666667       0.06666667      -0.40000000 </v>
   <v>       0.23333333       0.46666667       0.20000000 </v>
   <v>       0.20000000       0.40000000      -0.40000000 </v>
   <v>       0.00000000       0.00000000       0.00000000 </v>
   <v>      -0.06666667      -0.13333333      -0.20000000 </v>
   <v>      -0.30000000       0.40000000      -0.40000000 </v>
   <v>      -0.26666667       0.46666667       0.20000000 </v>
   <v>       0.33333333      -0.33333333       0.00000000 </v>
   <v>       0.43333333      -0.13333333      -0.20000000 </v>
   <v>      -0.50000000       0.00000000       0.00000000 </v>
   <v>      -0.33333333       0.33333333       0.00000000 </v>
   <v>      -0.40000000       0.20000000      -0.20000000 </v>
   <v>      -0.16666667      -0.33333333       0.00000000 </v>
   <v>      -0.23333333      -0.46666667      -0.20000000 </v>
   <v>       0.16666667       0.33333333       0.00000000 </v>
   <v>       0.10000000       0.20000000      -0.20000000 </v>
  </varray>
 </structure>
 <varray name="primitive_index" >
  <v type="int" >        1 </v>
  <v type="int" >       18 </v>
  <v type="int" >        7 </v>
  <v type="int" >       23 </v>
  <v type="int" >       20 </v>
  <v type="int" >       19 </v>
  <v type="int" >        6 </v>
  <v type="int" >        2 </v>
  <v type="int" >       16 </v>
  <v type="int" >        8 </v>
  <v type="int" >       15 </v>
  <v type="int" >       11 </v>
  <v type="int" >       12 </v>
  <v type="int" >       27 </v>
  <v type="int" >       29 </v>
  <v type="int" >       22 </v>
  <v type="int" >        4 </v>
  <v type="int" >       14 </v>
  <v type="int" >       25 </v>
  <v type="int" >        9 </v>
  <v type="int" >       28 </v>
  <v type="int" >       17 </v>
  <v type="int" >        3 </v>
  <v type="int" >       10 </v>
  <v type="int" >       26 </v>
  <v type="int" >       13 </v>
  <v type="int" >       24 </v>
  <v type="int" >       21 </v>
  <v type="int" >        5 </v>
 </varray>
 <kpoints>
  <generation param="Gamma">
   <v type="int" name="divisions">       7        7        7 </v>
   <v name="usershift">      0.00000000       0.00000000       0.00000000 </v>
   <v name="genvec1">      0.14285714       0.00000000       0.00000000 </v>
   <v name="genvec2">     -0.00000000       0.14285714       0.00000000 </v>
   <v name="genvec3">      0.00000000       0.00000000       0.14285714 </v>
   <v name="shift">      0.00000000       0.00000000       0.00000000 </v>
  </generation>
  <varray name="kpointlist" >
   <v>       0.00000000       0.00000000       0.00000000 </v>
   <v>       0.14285714       0.00000000      -0.00000000 </v>
   <v>       0.28571429       0.00000000       0.00000000 </v>
   <v>       0.42857143       0.00000000      -0.00000000 </v>
   <v>      -0.00000000       0.14285714       0.00000000 </v>
   <v>       0.14285714       0.14285714      -0.00000000 </v>
   <v>       0.28571429       0.14285714       0.00000000 </v>
   <v>       0.42857143       0.14285714      -0.00000000 </v>
   <v>      -0.42857143       0.14285714       0.00000000 </v>
   <v>      -0.28571429       0.14285714       0.00000000 </v>
   <v>      -0.14285714       0.14285714       0.00000000 </v>
   <v>       0.00000000       0.28571429      -0.00000000 </v>
   <v>       0.14285714       0.28571429      -0.00000000 </v>
   <v>       0.28571429       0.28571429      -0.00000000 </v>
   <v>       0.42857143       0.28571429      -0.00000000 </v>
   <v>      -0.42857143       0.28571429      -0.00000000 </v>
   <v>      -0.28571429       0.28571429      -0.00000000 </v>
   <v>      -0.14285714       0.28571429      -0.00000000 </v>
   <v>      -0.00000000       0.42857143      -0.00000000 </v>
   <v>       0.14285714       0.42857143       0.00000000 </v>
   <v>       0.28571429       0.42857143       0.00000000 </v>
   <v>       0.42857143       0.42857143      -0.00000000 </v>
   <v>      -0.42857143       0.42857143       0.00000000 </v>
   <v>      -0.28571429       0.42857143      -0.00000000 </v>
   <v>      -0.14285714       0.42857143      -0.00000000 </v>
   <v>       0.00000000       0.00000000       0.14285714 </v>
   <v>       0.14285714       0.00000000       0.14285714 </v>
   <v>       0.28571429       0.00000000       0.14285714 </v>
   <v>       0.42857143       0.00000000       0.14285714 </v>
   <v>      -0.42857143       0.00000000       0.14285714 </v>
   <v>      -0.28571429       0.00000000       0.14285714 </v>
   <v>      -0.14285714      -0.00000000       0.14285714 </v>
   <v>      -0.00000000       0.14285714       0.14285714 </v>
   <v>       0.14285714       0.14285714       0.14285714 </v>
   <v>       0.28571429       0.14285714       0.14285714 </v>
   <v>       0.42857143       0.14285714       0.14285714 </v>
   <v>      -0.42857143       0.14285714       0.14285714 </v>
   <v>      -0.28571429       0.14285714       0.14285714 </v>
   <v>      -0.14285714       0.14285714       0.14285714 </v>
   <v>      -0.00000000       0.28571429       0.14285714 </v>
   <v>       0.14285714       0.28571429       0.14285714 </v>
   <v>       0.28571429       0.28571429       0.14285714 </v>
   <v>       0.42857143       0.28571429       0.14285714 </v>
   <v>      -0.42857143       0.28571429       0.14285714 </v>
   <v>      -0.28571429       0.28571429       0.14285714 </v>
   <v>      -0.14285714       0.28571429       0.14285714 </v>
   <v>       0.00000000       0.42857143       0.14285714 </v>
   <v>       0.14285714       0.42857143       0.14285714 </v>
   <v>       0.28571429       0.42857143       0.14285714 </v>
   <v>       0.42857143       0.42857143       0.14285714 </v>
   <v>      -0.42857143       0.42857143       0.14285714 </v>
   <v>      -0.28571429       0.42857143       0.14285714 </v>
   <v>      -0.14285714       0.42857143       0.14285714 </v>
   <v>       0.00000000      -0.42857143       0.14285714 </v>
   <v>       0.14285714      -0.42857143       0.14285714 </v>
   <v>       0.28571429      -0.42857143       0.14285714 </v>
   <v>       0.42857143      -0.42857143       0.14285714 </v>
   <v>      -0.42857143      -0.42857143       0.14285714 </v>
   <v>      -0.28571429      -0.42857143       0.14285714 </v>
   <v>      -0.14285714      -0.42857143       0.14285714 </v>
   <v>       0.00000000      -0.28571429       0.14285714 </v>
   <v>       0.14285714      -0.28571429       0.14285714 </v>
   <v>       0.28571429      -0.28571429       0.14285714 </v>
   <v>       0.42857143      -0.28571429       0.14285714 </v>
   <v>      -0.42857143      -0.28571429       0.14285714 </v>
   <v>      -0.28571429      -0.28571429       0.14285714 </v>
   <v>      -0.14285714      -0.28571429       0.14285714 </v>
   <v>       0.00000000      -0.14285714       0.14285714 </v>
   <v>       0.14285714      -0.14285714       0.14285714 </v>
   <v>       0.28571429      -0.14285714       0.14285714 </v>
   <v>       0.42857143      -0.14285714       0.14285714 </v>
   <v>      -0.42857143      -0.14285714       0.14285714 </v>
   <v>      -0.28571429      -0.14285714       0.14285714 </v>
   <v>      -0.14285714      -0.14285714       0.14285714 </v>
   <v>       0.00000000       0.00000000       0.28571429 </v>
   <v>       0.14285714       0.00000000       0.28571429 </v>
   <v>       0.28571429       0.00000000       0.28571429 </v>
   <v>       0.42857143       0.00000000       0.28571429 </v>
   <v>      -0.42857143      -0.00000000       0.28571429 </v>
   <v>      -0.28571429      -0.00000000       0.28571429 </v>
   <v>      -0.14285714      -0.00000000       0.28571429 </v>
   <v>      -0.00000000       0.14285714       0.28571429 </v>
   <v>       0.14285714       0.14285714       0.28571429 </v>
   <v>       0.28571429       0.14285714       0.28571429 </v>
   <v>       0.42857143       0.14285714       0.28571429 </v>
   <v>      -0.42857143       0.14285714       0.28571429 </v>
   <v>      -0.28571429       0.14285714       0.28571429 </v>
   <v>      -0.14285714       0.14285714       0.28571429 </v>
   <v>      -0.00000000       0.28571429       0.28571429 </v>
   <v>       0.14285714       0.28571429       0.28571429 </v>
   <v>       0.28571429       0.28571429       0.28571429 </v>
   <v>       0.42857143       0.28571429       0.28571429 </v>
   <v>      -0.42857143       0.28571429       0.28571429 </v>
   <v>      -0.28571429       0.28571429       0.28571429 </v>
   <v>      -0.14285714       0.28571429       0.28571429 </v>
   <v>       0.00000000       0.42857143       0.28571429 </v>
   <v>       0.14285714       0.42857143       0.28571429 </v>
   <v>       0.28571429       0.42857143       0.28571429 </v>
   <v>       0.42857143       0.42857143       0.28571429 </v>
   <v>      -0.42857143       0.42857143       0.28571429 </v>
   <v>      -0.28571429       0.42857143       0.28571429 </v>
   <v>      -0.14285714       0.42857143       0.28571429 </v>
   <v>      -0.00000000      -0.42857143       0.28571429 </v>
   <v>       0.14285714      -0.42857143       0.28571429 </v>
   <v>       0.28571429      -0.42857143       0.28571429 </v>
   <v>       0.42857143      -0.42857143       0.28571429 </v>
   <v>      -0.42857143      -0.42857143       0.28571429 </v>
   <v>      -0.28571429      -0.42857143       0.28571429 </v>
   <v>      -0.14285714      -0.42857143       0.28571429 </v>
   <v>       0.00000000      -0.28571429       0.28571429 </v>
   <v>       0.14285714      -0.28571429       0.28571429 </v>
   <v>       0.28571429      -0.28571429       0.28571429 </v>
   <v>       0.42857143      -0.28571429       0.28571429 </v>
   <v>      -0.42857143      -0.28571429       0.28571429 </v>
   <v>      -0.28571429      -0.28571429       0.28571429 </v>
   <v>      -0.14285714      -0.28571429       0.28571429 </v>
   <v>       0.00000000      -0.14285714       0.28571429 </v>
   <v>       0.14285714      -0.14285714       0.28571429 </v>
   <v>       0.28571429      -0.14285714       0.28571429 </v>
   <v>       0.42857143      -0.14285714       0.28571429 </v>
   <v>      -0.42857143      -0.14285714       0.28571429 </v>
   <v>      -0.28571429      -0.14285714       0.28571429 </v>
   <v>      -0.14285714      -0.14285714       0.28571429 </v>
   <v>       0.00000000       0.00000000       0.42857143 </v>
   <v>       0.14285714       0.00000000       0.42857143 </v>
   <v>       0.28571429       0.00000000       0.42857143 </v>
   <v>       0.42857143      -0.00000000       0.42857143 </v>
   <v>      -0.42857143      -0.00000000       0.42857143 </v>
   <v>      -0.28571429       0.00000000       0.42857143 </v>
   <v>      -0.14285714      -0.00000000       0.42857143 </v>
   <v>      -0.00000000       0.14285714       0.42857143 </v>
   <v>       0.14285714       0.14285714       0.42857143 </v>
   <v>       0.28571429       0.14285714       0.42857143 </v>
   <v>       0.42857143       0.14285714       0.42857143 </v>
   <v>      -0.42857143       0.14285714       0.42857143 </v>
   <v>      -0.28571429       0.14285714       0.42857143 </v>
   <v>      -0.14285714       0.14285714       0.42857143 </v>
   <v>       0.00000000       0.28571429       0.42857143 </v>
   <v>       0.14285714       0.28571429       0.42857143 </v>
   <v>       0.28571429       0.28571429       0.42857143 </v>
   <v>       0.42857143       0.28571429       0.42857143 </v>
   <v>      -0.42857143       0.28571429       0.42857143 </v>
   <v>      -0.28571429       0.28571429       0.42857143 </v>
   <v>      -0.14285714       0.28571429       0.42857143 </v>
   <v>       0.00000000       0.42857143       0.42857143 </v>
   <v>       0.14285714       0.42857143       0.42857143 </v>
   <v>       0.28571429       0.42857143       0.42857143 </v>
   <v>       0.42857143       0.42857143       0.42857143 </v>
   <v>      -0.42857143       0.42857143       0.42857143 </v>
   <v>      -0.28571429       0.42857143       0.42857143 </v>
   <v>      -0.14285714       0.42857143       0.42857143 </v>
   <v>       0.00000000      -0.42857143       0.42857143 </v>
   <v>       0.14285714      -0.42857143       0.42857143 </v>
   <v>       0.28571429      -0.42857143       0.42857143 </v>
   <v>       0.42857143      -0.42857143       0.42857143 </v>
   <v>      -0.42857143      -0.42857143       0.42857143 </v>
   <v>      -0.28571429      -0.42857143       0.42857143 </v>
   <v>      -0.14285714      -0.42857143       0.42857143 </v>
   <v>      -0.00000000      -0.28571429       0.42857143 </v>
   <v>       0.14285714      -0.28571429       0.42857143 </v>
   <v>       0.28571429      -0.28571429       0.42857143 </v>
   <v>       0.42857143      -0.28571429       0.42857143 </v>
   <v>      -0.42857143      -0.28571429       0.42857143 </v>
   <v>      -0.28571429      -0.28571429       0.42857143 </v>
   <v>      -0.14285714      -0.28571429       0.42857143 </v>
   <v>       0.00000000      -0.14285714       0.42857143 </v>
   <v>       0.14285714      -0.14285714       0.42857143 </v>
   <v>       0.28571429      -0.14285714       0.42857143 </v>
   <v>       0.42857143      -0.14285714       0.42857143 </v>
   <v>      -0.42857143      -0.14285714       0.42857143 </v>
   <v>      -0.28571429      -0.14285714       0.42857143 </v>
   <v>      -0.14285714      -0.14285714       0.42857143 </v>
  </varray>
  <varray name="weights" >
   <v>       0.00291545 </v>
   <v>       0.00583090 </v>
   <v>       0.00583090 </v>
   <v>       0.00583090 </v>
   <v>       0.00583090 </v>
   <v>       0.00583090 </v>
   <v>       0.00583090 </v>
   <v>       0.00583090 </v>
   <v>       0.00583090 </v>
   <v>       0.00583090 </v>
   <v>       0.00583090 </v>
   <v>       0.00583090 </v>
   <v>       0.00583090 </v>
   <v>       0.00583090 </v>
   <v>       0.00583090 </v>
   <v>       0.00583090 </v>
   <v>       0.00583090 </v>
   <v>       0.00583090 </v>
   <v>       0.00583090 </v>
   <v>       0.00583090 </v>
   <v>       0.00583090 </v>
   <v>       0.00583090 </v>
   <v>       0.00583090 </v>
   <v>       0.00583090 </v>
   <v>       0.00583090 </v>
   <v>       0.00583090 </v>
   <v>       0.00583090 </v>
   <v>       0.00583090 </v>
   <v>       0.00583090 </v>
   <v>       0.00583090 </v>
   <v>       0.00583090 </v>
   <v>       0.00583090 </v>
   <v>       0.00583090 </v>
   <v>       0.00583090 </v>
   <v>       0.00583090 </v>
   <v>       0.00583090 </v>
   <v>       0.00583090 </v>
   <v>       0.00583090 </v>
   <v>       0.00583090 </v>
   <v>       0.00583090 </v>
   <v>       0.00583090 </v>
   <v>       0.00583090 </v>
   <v>       0.00583090 </v>
   <v>       0.00583090 </v>
   <v>       0.00583090 </v>
   <v>       0.00583090 </v>
   <v>       0.00583090 </v>
   <v>       0.00583090 </v>
   <v>       0.00583090 </v>
   <v>       0.00583090 </v>
   <v>       0.00583090 </v>
   <v>       0.00583090 </v>
   <v>       0.00583090 </v>
   <v>       0.00583090 </v>
   <v>       0.00583090 </v>
   <v>       0.00583090 </v>
   <v>       0.00583090 </v>
   <v>       0.00583090 </v>
   <v>       0.00583090 </v>
   <v>       0.00583090 </v>
   <v>       0.00583090 </v>
   <v>       0.00583090 </v>
   <v>       0.00583090 </v>
   <v>       0.00583090 </v>
   <v>       0.00583090 </v>
   <v>       0.00583090 </v>
   <v>       0.00583090 </v>
   <v>       0.00583090 </v>
   <v>       0.00583090 </v>
   <v>       0.00583090 </v>
   <v>       0.00583090 </v>
   <v>       0.00583090 </v>
   <v>       0.00583090 </v>
   <v>       0.00583090 </v>
   <v>       0.00583090 </v>
   <v>       0.00583090 </v>
   <v>       0.00583090 </v>
   <v>       0.00583090 </v>
   <v>       0.00583090 </v>
   <v>       0.00583090 </v>
   <v>       0.00583090 </v>
   <v>       0.00583090 </v>
   <v>       0.00583090 </v>
   <v>       0.00583090 </v>
   <v>       0.00583090 </v>
   <v>       0.00583090 </v>
   <v>       0.00583090 </v>
   <v>       0.00583090 </v>
   <v>       0.00583090 </v>
   <v>       0.00583090 </v>
   <v>       0.00583090 </v>
   <v>       0.00583090 </v>
   <v>       0.00583090 </v>
   <v>       0.00583090 </v>
   <v>       0.00583090 </v>
   <v>       0.00583090 </v>
   <v>       0.00583090 </v>
   <v>       0.00583090 </v>
   <v>       0.00583090 </v>
   <v>       0.00583090 </v>
   <v>       0.00583090 </v>
   <v>       0.00583090 </v>
   <v>       0.00583090 </v>
   <v>       0.00583090 </v>
   <v>       0.00583090 </v>
   <v>       0.00583090 </v>
   <v>       0.00583090 </v>
   <v>       0.00583090 </v>
   <v>       0.00583090 </v>
   <v>       0.00583090 </v>
   <v>       0.00583090 </v>
   <v>       0.00583090 </v>
   <v>       0.00583090 </v>
   <v>       0.00583090 </v>
   <v>       0.00583090 </v>
   <v>       0.00583090 </v>
   <v>       0.00583090 </v>
   <v>       0.00583090 </v>
   <v>       0.00583090 </v>
   <v>       0.00583090 </v>
   <v>       0.00583090 </v>
   <v>       0.00583090 </v>
   <v>       0.00583090 </v>
   <v>       0.00583090 </v>
   <v>       0.00583090 </v>
   <v>       0.00583090 </v>
   <v>       0.00583090 </v>
   <v>       0.00583090 </v>
   <v>       0.00583090 </v>
   <v>       0.00583090 </v>
   <v>       0.00583090 </v>
   <v>       0.00583090 </v>
   <v>       0.00583090 </v>
   <v>       0.00583090 </v>
   <v>       0.00583090 </v>
   <v>       0.00583090 </v>
   <v>       0.00583090 </v>
   <v>       0.00583090 </v>
   <v>       0.00583090 </v>
   <v>       0.00583090 </v>
   <v>       0.00583090 </v>
   <v>       0.00583090 </v>
   <v>       0.00583090 </v>
   <v>       0.00583090 </v>
   <v>       0.00583090 </v>
   <v>       0.00583090 </v>
   <v>       0.00583090 </v>
   <v>       0.00583090 </v>
   <v>       0.00583090 </v>
   <v>       0.00583090 </v>
   <v>       0.00583090 </v>
   <v>       0.00583090 </v>
   <v>       0.00583090 </v>
   <v>       0.00583090 </v>
   <v>       0.00583090 </v>
   <v>       0.00583090 </v>
   <v>       0.00583090 </v>
   <v>       0.00583090 </v>
   <v>       0.00583090 </v>
   <v>       0.00583090 </v>
   <v>       0.00583090 </v>
   <v>       0.00583090 </v>
   <v>       0.00583090 </v>
   <v>       0.00583090 </v>
   <v>       0.00583090 </v>
   <v>       0.00583090 </v>
   <v>       0.00583090 </v>
   <v>       0.00583090 </v>
   <v>       0.00583090 </v>
   <v>       0.00583090 </v>
   <v>       0.00583090 </v>
   <v>       0.00583090 </v>
  </varray>
 </kpoints>
 <parameters>
  <separator name="general" >
   <i type="string" name="SYSTEM">Nb - Mo - Ta - Ti - V SQS</i>
   <i type="logical" name="LCOMPAT"> F  </i>
  </separator>
  <separator name="electronic" >
   <i type="string" name="PREC">normal</i>
   <i name="ENMAX">    600.00000000</i>
   <i name="ENAUG">    455.65900000</i>
   <i name="EDIFF">      0.00010000</i>
   <i type="int" name="IALGO">    38</i>
   <i type="int" name="IWAVPR">    11</i>
   <i type="int" name="NBANDS">   120</i>
   <i name="NELECT">    194.00000000</i>
   <i type="int" name="TURBO">     0</i>
   <i type="int" name="IRESTART">     0</i>
   <i type="int" name="NREBOOT">     0</i>
   <i type="int" name="NMIN">     0</i>
   <i name="EREF">      0.00000000</i>
   <separator name="electronic smearing" >
    <i type="int" name="ISMEAR">     1</i>
    <i name="SIGMA">      0.20000000</i>
    <i name="KSPACING">      0.50000000</i>
    <i type="logical" name="KGAMMA"> T  </i>
   </separator>
   <separator name="electronic projectors" >
    <i type="logical" name="LREAL"> T  </i>
    <v name="ROPT">     -0.00050000     -0.00050000     -0.00050000     -0.00050000     -0.00050000</v>
    <i type="int" name="LMAXPAW">  -100</i>
    <i type="int" name="LMAXMIX">     2</i>
    <i type="logical" name="NLSPLINE"> F  </i>
   </separator>
   <separator name="electronic startup" >
    <i type="int" name="ISTART">     0</i>
    <i type="int" name="ICHARG">     0</i>
    <i type="int" name="INIWAV">     1</i>
   </separator>
   <separator name="electronic spin" >
    <i type="int" name="ISPIN">     1</i>
    <i type="logical" name="LNONCOLLINEAR"> F  </i>
    <v name="MAGMOM">      1.00000000      1.00000000      1.00000000      1.00000000      1.00000000      1.00000000      1.00000000      1.00000000      1.00000000      1.00000000      1.00000000      1.00000000      1.00000000      1.00000000      1.00000000      1.00000000      1.00000000      1.00000000      1.00000000      1.00000000
      1.00000000      1.00000000      1.00000000      1.00000000      1.00000000      1.00000000      1.00000000      1.00000000      1.00000000</v>
    <i name="NUPDOWN">     -1.00000000</i>
    <i type="logical" name="LSORBIT"> F  </i>
    <v name="SAXIS">      0.00000000      0.00000000      1.00000000</v>
    <i type="logical" name="LSPIRAL"> F  </i>
    <v name="QSPIRAL">      0.00000000      0.00000000      0.00000000</v>
    <i type="logical" name="LZEROZ"> F  </i>
   </separator>
   <separator name="electronic exchange-correlation" >
    <i type="logical" name="LASPH"> F  </i>
    <i type="logical" name="LMETAGGA"> F  </i>
   </separator>
   <separator name="electronic convergence" >
    <i type="int" name="NELM">    60</i>
    <i type="int" name="NELMDL">    -5</i>
    <i type="int" name="NELMIN">     2</i>
    <i name="ENINI">    600.00000000</i>
    <separator name="electronic convergence detail" >
     <i type="logical" name="LDIAG"> T  </i>
     <i type="logical" name="LSUBROT"> F  </i>
     <i name="WEIMIN">      0.00100000</i>
     <i name="EBREAK">      0.00000021</i>
     <i name="DEPER">      0.30000000</i>
     <i type="int" name="NRMM">     4</i>
     <i name="TIME">      0.40000000</i>
    </separator>
   </separator>
   <separator name="electronic mixer" >
    <i name="AMIX">      0.40000000</i>
    <i name="BMIX">      1.00000000</i>
    <i name="AMIN">      0.10000000</i>
    <i name="AMIX_MAG">      1.60000000</i>
    <i name="BMIX_MAG">      1.00000000</i>
    <separator name="electronic mixer details" >
     <i type="int" name="IMIX">     4</i>
     <i type="logical" name="MIXFIRST"> F  </i>
     <i type="int" name="MAXMIX">   -45</i>
     <i name="WC">    100.00000000</i>
     <i type="int" name="INIMIX">     1</i>
     <i type="int" name="MIXPRE">     1</i>
     <i type="int" name="MREMOVE">     5</i>
    </separator>
   </separator>
   <separator name="electronic dipolcorrection" >
    <i type="logical" name="LDIPOL"> F  </i>
    <i type="logical" name="LMONO"> F  </i>
    <i type="int" name="IDIPOL">     0</i>
    <i name="EPSILON">      1.00000000</i>
    <v name="DIPOL">   -100.00000000   -100.00000000   -100.00000000</v>
    <i name="EFIELD">      0.00000000</i>
   </separator>
  </separator>
  <separator name="grids" >
   <i type="int" name="NGX">    36</i>
   <i type="int" name="NGY">    50</i>
   <i type="int" name="NGZ">    70</i>
   <i type="int" name="NGXF">    72</i>
   <i type="int" name="NGYF">   100</i>
   <i type="int" name="NGZF">   140</i>
   <i type="logical" name="ADDGRID"> F  </i>
  </separator>
  <separator name="ionic" >
   <i type="int" name="NSW">    50</i>
   <i type="int" name="IBRION">     2</i>
   <i type="int" name="MDALGO">     0</i>
   <i type="int" name="ISIF">     3</i>
   <i name="PSTRESS">      0.00000000</i>
   <i name="EDIFFG">      0.00100000</i>
   <i type="int" name="NFREE">     1</i>
   <i name="POTIM">      0.50000000</i>
   <i name="SMASS">     -3.00000000</i>
   <i name="SCALEE">      1.00000000</i>
  </separator>
  <separator name="ionic md" >
   <i name="TEBEG">      0.00010000</i>
   <i name="TEEND">      0.00010000</i>
   <i type="int" name="NBLOCK">     1</i>
   <i type="int" name="KBLOCK">    50</i>
   <i type="int" name="NPACO">   256</i>
   <i name="APACO">     16.00000000</i>
  </separator>
  <separator name="symmetry" >
   <i type="int" name="ISYM">     2</i>
   <i name="SYMPREC">      0.00001000</i>
  </separator>
  <separator name="dos" >
   <i type="int" name="LORBIT">     0</i>
   <v name="RWIGS">     -1.00000000     -1.00000000     -1.00000000     -1.00000000     -1.00000000</v>
   <i type="int" name="NEDOS">   301</i>
   <i name="EMIN">     10.00000000</i>
   <i name="EMAX">    -10.00000000</i>
   <i name="EFERMI">      0.00000000</i>
  </separator>
  <separator name="writing" >
   <i type="int" name="NWRITE">     2</i>
   <i type="logical" name="LWAVE"> T  </i>
   <i type="logical" name="LDOWNSAMPLE"> F  </i>
   <i type="logical" name="LCHARG"> T  </i>
   <i type="logical" name="LPARD"> F  </i>
   <i type="logical" name="LVTOT"> F  </i>
   <i type="logical" name="LVHAR"> F  </i>
   <i type="logical" name="LELF"> F  </i>
   <i type="logical" name="LOPTICS"> F  </i>
   <v name="STM">      0.00000000      0.00000000      0.00000000      0.00000000      0.00000000      0.00000000      0.00000000</v>
  </separator>
  <separator name="performance" >
   <i type="int" name="NPAR">    12</i>
   <i type="int" name="NSIM">     4</i>
   <i type="int" name="NBLK">    -1</i>
   <i type="logical" name="LPLANE"> T  </i>
   <i type="logical" name="LSCALAPACK"> T  </i>
   <i type="logical" name="LSCAAWARE"> F  </i>
   <i type="logical" name="LSCALU"> F  </i>
   <i type="logical" name="LASYNC"> F  </i>
   <i type="logical" name="LORBITALREAL"> F  </i>
  </separator>
  <separator name="miscellaneous" >
   <i type="int" name="IDIOT">     3</i>
   <i type="int" name="ISPECIAL">     0</i>
   <i type="logical" name="LMUSIC"> F  </i>
   <v name="POMASS">     92.91000000     95.94000000    180.94800000     47.88000000     50.94100000</v>
   <v name="DARWINR">      0.00000000      0.00000000      0.00000000      0.00000000      0.00000000</v>
   <v name="DARWINV">      1.00000000      1.00000000      1.00000000      1.00000000      1.00000000</v>
   <i type="logical" name="LCORR"> T  </i>
  </separator>
  <i type="logical" name="GGA_COMPAT"> T  </i>
  <i type="logical" name="LBERRY"> F  </i>
  <i type="int" name="ICORELEVEL">     0</i>
  <i type="logical" name="LDAU"> F  </i>
  <i type="int" name="I_CONSTRAINED_M">     0</i>
  <separator name="electronic exchange-correlation" >
   <i type="string" name="GGA">PS</i>
   <i type="int" name="VOSKOWN">     0</i>
   <i type="logical" name="LHFCALC"> F  </i>
   <i type="string" name="PRECFOCK"></i>
   <i type="logical" name="LSYMGRAD"> F  </i>
   <i type="logical" name="LHFONE"> F  </i>
   <i type="logical" name="LRHFCALC"> F  </i>
   <i type="logical" name="LTHOMAS"> F  </i>
   <i type="logical" name="LMODELHF"> F  </i>
   <i name="ENCUT4O">     -1.00000000</i>
   <i type="int" name="EXXOEP">     0</i>
   <i type="int" name="FOURORBIT">     0</i>
   <i name="AEXX">      0.00000000</i>
   <i name="HFALPHA">      0.00000000</i>
   <i name="MCALPHA">      0.00000000</i>
   <i name="ALDAX">      1.00000000</i>
   <i name="AGGAX">      1.00000000</i>
   <i name="ALDAC">      1.00000000</i>
   <i name="AGGAC">      1.00000000</i>
   <i type="int" name="NKREDX">     1</i>
   <i type="int" name="NKREDY">     1</i>
   <i type="int" name="NKREDZ">     1</i>
   <i type="logical" name="SHIFTRED"> F  </i>
   <i type="logical" name="ODDONLY"> F  </i>
   <i type="logical" name="EVENONLY"> F  </i>
   <i type="int" name="LMAXFOCK">     0</i>
   <i type="int" name="NMAXFOCKAE">     0</i>
   <i type="logical" name="LFOCKAEDFT"> F  </i>
   <i name="HFSCREEN">      0.00000000</i>
   <i name="HFSCREENC">      0.00000000</i>
   <i type="int" name="NBANDSGWLOW">     0</i>
  </separator>
  <separator name="vdW DFT" >
   <i type="logical" name="LUSE_VDW"> F  </i>
   <i name="Zab_VDW">     -0.84910000</i>
   <i name="PARAM1">      0.12340000</i>
   <i name="PARAM2">      1.00000000</i>
   <i name="PARAM3">      0.00000000</i>
  </separator>
  <separator name="model GW" >
   <i type="int" name="MODEL_GW">     0</i>
   <i name="MODEL_EPS0">      9.79277462</i>
   <i name="MODEL_ALPHA">      1.00000000</i>
  </separator>
  <separator name="linear response parameters" >
   <i type="logical" name="LEPSILON"> F  </i>
   <i type="logical" name="LRPA"> F  </i>
   <i type="logical" name="LNABLA"> F  </i>
   <i type="logical" name="LVEL"> F  </i>
   <i type="int" name="KINTER">     0</i>
   <i name="CSHIFT">      0.10000000</i>
   <i name="OMEGAMAX">     -1.00000000</i>
   <i name="DEG_THRESHOLD">      0.00200000</i>
   <i name="RTIME">     -0.10000000</i>
   <i name="WPLASMAI">      0.00000000</i>
   <v name="DFIELD">      0.00000000      0.00000000      0.00000000</v>
   <v name="WPLASMA">      0.00000000      0.00000000      0.00000000      0.00000000      0.00000000      0.00000000      0.00000000      0.00000000      0.00000000</v>
  </separator>
  <separator name="orbital magnetization" >
   <i type="logical" name="NUCIND"> F  </i>
   <v name="MAGPOS">      0.00000000      0.00000000      0.00000000</v>
   <i type="logical" name="LNICSALL"> T  </i>
   <i type="logical" name="ORBITALMAG"> F  </i>
   <i type="logical" name="LMAGBLOCH"> F  </i>
   <i type="logical" name="LCHIMAG"> F  </i>
   <i type="logical" name="LGAUGE"> T  </i>
   <i type="int" name="MAGATOM">     0</i>
   <v name="MAGDIPOL">      0.00000000      0.00000000      0.00000000</v>
   <v name="AVECCONST">      0.00000000      0.00000000      0.00000000</v>
  </separator>
  <separator name="response functions" >
   <i type="logical" name="LADDER"> F  </i>
   <i type="logical" name="LRPAFORCE"> F  </i>
   <i type="logical" name="LFXC"> F  </i>
   <i type="logical" name="LHARTREE"> T  </i>
   <i type="int" name="IBSE">     0</i>
   <v type="int" name="KPOINT">    -1     0     0     0</v>
   <i type="logical" name="LTCTE"> F  </i>
   <i type="logical" name="LTETE"> F  </i>
   <i type="logical" name="LTRIPLET"> F  </i>
   <i type="logical" name="LFXCEPS"> F  </i>
   <i type="logical" name="LFXHEG"> F  </i>
   <i type="int" name="NATURALO">     2</i>
   <i type="logical" name="L2ORDER"> F  </i>
   <i type="logical" name="LMP2LT"> F  </i>
   <i type="logical" name="LUSEW"> F  </i>
   <i name="ENCUTGW">     -2.00000000</i>
   <i name="ENCUTGWSOFT">     -2.00000000</i>
   <i name="ENCUTLF">     -1.00000000</i>
   <i type="int" name="LMAXMP2">    -1</i>
   <i name="SCISSOR">      0.00000000</i>
   <i type="int" name="NOMEGA">     0</i>
   <i type="int" name="NOMEGAR">     0</i>
   <i type="int" name="NBANDSGW">    -1</i>
   <i type="int" name="NBANDSO">    -1</i>
   <i type="int" name="NBANDSV">    -1</i>
   <i type="int" name="NELM">     1</i>
   <i type="int" name="NELMHF">     1</i>
   <i type="int" name="DIM">     3</i>
   <i type="int" name="ANTIRES">     0</i>
   <i name="OMEGAMAX">    -30.00000000</i>
   <i name="OMEGAMIN">    -30.00000000</i>
   <i name="OMEGATL">   -200.00000000</i>
   <i type="int" name="OMEGAGRID">   140</i>
   <i name="CSHIFT">     -0.10000000</i>
   <i type="logical" name="SELFENERGY"> F  </i>
   <i type="logical" name="LSPECTRAL"> F  </i>
   <i type="logical" name="LSPECTRALGW"> F  </i>
   <i type="logical" name="LSINGLES"> F  </i>
   <i type="logical" name="LFERMIGW"> F  </i>
   <i type="logical" name="ODDONLYGW"> F  </i>
   <i type="logical" name="EVENONLYGW"> F  </i>
   <i type="int" name="NKREDLFX">     1</i>
   <i type="int" name="NKREDLFY">     1</i>
   <i type="int" name="NKREDLFZ">     1</i>
   <i type="int" name="MAXMEM">  2800</i>
   <i type="int" name="TELESCOPE">     0</i>
   <i type="int" name="TAUPAR">     1</i>
   <i type="int" name="OMEGAPAR">    -1</i>
   <i name="LAMBDA">      1.00000000</i>
  </separator>
  <separator name="External order field" >
   <i name="OFIELD_KAPPA">      0.00000000</i>
   <v name="OFIELD_K">      0.00000000      0.00000000      0.00000000</v>
   <i name="OFIELD_Q6_NEAR">      0.00000000</i>
   <i name="OFIELD_Q6_FAR">      0.00000000</i>
   <i name="OFIELD_A">      0.00000000</i>
  </separator>
  <separator name="solvation model" >
   <i type="logical" name="LSOL"> F  </i>
  </separator>
 </parameters>
 <atominfo>
  <atoms>      29 </atoms>
  <types>       5 </types>
  <array name="atoms" >
   <dimension dim="1">ion</dimension>
   <field type="string">element</field>
   <field type="int">atomtype</field>
   <set>
    <rc><c>Nb</c><c>   1</c></rc>
    <rc><c>Nb</c><c>   1</c></rc>
    <rc><c>Nb</c><c>   1</c></rc>
    <rc><c>Nb</c><c>   1</c></rc>
    <rc><c>Nb</c><c>   1</c></rc>
    <rc><c>Nb</c><c>   1</c></rc>
    <rc><c>Mo</c><c>   2</c></rc>
    <rc><c>Mo</c><c>   2</c></rc>
    <rc><c>Mo</c><c>   2</c></rc>
    <rc><c>Mo</c><c>   2</c></rc>
    <rc><c>Mo</c><c>   2</c></rc>
    <rc><c>Mo</c><c>   2</c></rc>
    <rc><c>Ta</c><c>   3</c></rc>
    <rc><c>Ta</c><c>   3</c></rc>
    <rc><c>Ta</c><c>   3</c></rc>
    <rc><c>Ta</c><c>   3</c></rc>
    <rc><c>Ta</c><c>   3</c></rc>
    <rc><c>Ta</c><c>   3</c></rc>
    <rc><c>Ti</c><c>   4</c></rc>
    <rc><c>Ti</c><c>   4</c></rc>
    <rc><c>Ti</c><c>   4</c></rc>
    <rc><c>Ti</c><c>   4</c></rc>
    <rc><c>Ti</c><c>   4</c></rc>
    <rc><c>V </c><c>   5</c></rc>
    <rc><c>V </c><c>   5</c></rc>
    <rc><c>V </c><c>   5</c></rc>
    <rc><c>V </c><c>   5</c></rc>
    <rc><c>V </c><c>   5</c></rc>
    <rc><c>V </c><c>   5</c></rc>
   </set>
  </array>
  <array name="atomtypes" >
   <dimension dim="1">type</dimension>
   <field type="int">atomspertype</field>
   <field type="string">element</field>
   <field>mass</field>
   <field>valence</field>
   <field type="string">pseudopotential</field>
   <set>
    <rc><c>   6</c><c>Nb</c><c>     92.91000000</c><c>     13.00000000</c><c>  PAW_PBE Nb_sv 25May2007               </c></rc>
    <rc><c>   6</c><c>Mo</c><c>     95.94000000</c><c>      6.00000000</c><c>  PAW_PBE Mo 08Apr2002                  </c></rc>
    <rc><c>   6</c><c>Ta</c><c>    180.94800000</c><c>      5.00000000</c><c>  PAW_PBE Ta 17Jan2003                  </c></rc>
    <rc><c>   5</c><c>Ti</c><c>     47.88000000</c><c>      4.00000000</c><c>  PAW_PBE Ti 08Apr2002                  </c></rc>
    <rc><c>   6</c><c>V </c><c>     50.94100000</c><c>      5.00000000</c><c>  PAW_PBE V 08Apr2002                   </c></rc>
   </set>
  </array>
 </atominfo>
 <structure name="initialpos" >
  <crystal>
   <varray name="basis" >
    <v>      -3.16000000      -3.16000000      -3.16000000 </v>
    <v>       1.58000000       1.58000000      -7.90000000 </v>
    <v>       7.90000000      -7.90000000      -1.58000000 </v>
   </varray>
   <i name="volume">    473.31744000 </i>
   <varray name="rec_basis" >
    <v>      -0.13713080      -0.12658228      -0.05274262 </v>
    <v>       0.04219409       0.06329114      -0.10548523 </v>
    <v>       0.06329114      -0.06329114       0.00000000 </v>
   </varray>
  </crystal>
  <varray name="positions" >
   <v>       0.96666667       0.93333333       0.40000000 </v>
   <v>       0.63333333       0.26666667       0.40000000 </v>
   <v>       0.50000000       0.00000000       0.00000000 </v>
   <v>       0.00000000       0.00000000       0.00000000 </v>
   <v>       0.10000000       0.20000000       0.80000000 </v>
   <v>       0.03333333       0.06666667       0.60000000 </v>
   <v>       0.90000000       0.80000000       0.20000000 </v>
   <v>       0.80000000       0.60000000       0.40000000 </v>
   <v>       0.73333333       0.46666667       0.20000000 </v>
   <v>       0.66666667       0.33333333       0.00000000 </v>
   <v>       0.36666667       0.73333333       0.60000000 </v>
   <v>       0.13333333       0.26666667       0.40000000 </v>
   <v>       0.83333333       0.66666667       0.00000000 </v>
   <v>       0.93333333       0.86666667       0.80000000 </v>
   <v>       0.56666667       0.13333333       0.20000000 </v>
   <v>       0.40000000       0.80000000       0.20000000 </v>
   <v>       0.43333333       0.86666667       0.80000000 </v>
   <v>       0.30000000       0.60000000       0.40000000 </v>
   <v>       0.86666667       0.73333333       0.60000000 </v>
   <v>       0.46666667       0.93333333       0.40000000 </v>
   <v>       0.16666667       0.33333333       0.00000000 </v>
   <v>       0.20000000       0.40000000       0.60000000 </v>
   <v>       0.06666667       0.13333333       0.20000000 </v>
   <v>       0.76666667       0.53333333       0.80000000 </v>
   <v>       0.70000000       0.40000000       0.60000000 </v>
   <v>       0.60000000       0.20000000       0.80000000 </v>
   <v>       0.53333333       0.06666667       0.60000000 </v>
   <v>       0.33333333       0.66666667       0.00000000 </v>
   <v>       0.23333333       0.46666667       0.20000000 </v>
  </varray>
 </structure>
 <calculation>
  <scstep>
   <time name="dav">   44.71   44.78</time>
   <time name="total">   44.84   44.92</time>
   <energy>
    <i name="alphaZ">   1169.09370839 </i>
    <i name="ewald"> -11091.87228770 </i>
    <i name="hartreedc">   -108.11722617 </i>
    <i name="XCdc">   -942.58216201 </i>
    <i name="pawpsdc"> 587633.12081148 </i>
    <i name="pawaedc">-586362.88213708 </i>
    <i name="eentropy">      0.00133375 </i>
    <i name="bandstr">  -7516.99346696 </i>
    <i name="atom">  12911.34519091 </i>
    <i name="e_fr_energy">  -4308.88623540 </i>
    <i name="e_wo_entrp">  -4308.88756915 </i>
    <i name="e_0_energy">  -4308.88667998 </i>
   </energy>
  </scstep>
  <scstep>
   <time name="dav">   52.89   52.96</time>
   <time name="total">   52.90   52.97</time>
   <energy>
    <i name="e_fr_energy">  -9757.25725897 </i>
    <i name="e_wo_entrp">  -9757.25750274 </i>
    <i name="e_0_energy">  -9757.25734023 </i>
   </energy>
  </scstep>
  <scstep>
   <time name="dav">   56.60   56.67</time>
   <time name="total">   56.61   56.68</time>
   <energy>
    <i name="e_fr_energy"> -10565.82201904 </i>
    <i name="e_wo_entrp"> -10565.82276766 </i>
    <i name="e_0_energy"> -10565.82226858 </i>
   </energy>
  </scstep>
  <scstep>
   <time name="dav">   56.57   56.65</time>
   <time name="total">   56.58   56.65</time>
   <energy>
    <i name="e_fr_energy"> -10802.58325452 </i>
    <i name="e_wo_entrp"> -10802.58450040 </i>
    <i name="e_0_energy"> -10802.58366981 </i>
   </energy>
  </scstep>
  <scstep>
   <time name="dav">   56.59   56.66</time>
   <time name="total">   57.30   57.37</time>
   <energy>
    <i name="e_fr_energy"> -10959.27983969 </i>
    <i name="e_wo_entrp"> -10959.28269228 </i>
    <i name="e_0_energy"> -10959.28079056 </i>
   </energy>
  </scstep>
  <scstep>
   <time name="dav">   46.39   46.45</time>
   <time name="total">   47.15   47.22</time>
   <energy>
    <i name="e_fr_energy">  -1059.66307349 </i>
    <i name="e_wo_entrp">  -1059.66467198 </i>
    <i name="e_0_energy">  -1059.66360632 </i>
   </energy>
  </scstep>
  <scstep>
   <time name="dav">   49.39   49.45</time>
   <time name="total">   50.09   50.15</time>
   <energy>
    <i name="e_fr_energy">   -914.82785201 </i>
    <i name="e_wo_entrp">   -914.82361878 </i>
    <i name="e_0_energy">   -914.82644094 </i>
   </energy>
  </scstep>
  <scstep>
   <time name="dav">   49.92   49.98</time>
   <time name="total">   50.58   50.64</time>
   <energy>
    <i name="e_fr_energy">   -714.96016215 </i>
    <i name="e_wo_entrp">   -714.95937444 </i>
    <i name="e_0_energy">   -714.95989958 </i>
   </energy>
  </scstep>
  <scstep>
   <time name="dav">   51.15   51.21</time>
   <time name="total">   51.80   51.87</time>
   <energy>
    <i name="e_fr_energy">   -625.63566458 </i>
    <i name="e_wo_entrp">   -625.64580914 </i>
    <i name="e_0_energy">   -625.63904610 </i>
   </energy>
  </scstep>
  <scstep>
   <time name="dav">   52.81   52.88</time>
   <time name="total">   53.47   53.54</time>
   <energy>
    <i name="e_fr_energy">   -615.62837454 </i>
    <i name="e_wo_entrp">   -615.63230256 </i>
    <i name="e_0_energy">   -615.62968388 </i>
   </energy>
  </scstep>
  <scstep>
   <time name="dav">   50.73   50.79</time>
   <time name="total">   51.38   51.44</time>
   <energy>
    <i name="e_fr_energy">   -570.32521919 </i>
    <i name="e_wo_entrp">   -570.32862707 </i>
    <i name="e_0_energy">   -570.32635515 </i>
   </energy>
  </scstep>
  <scstep>
   <time name="dav">   51.17   51.23</time>
   <time name="total">   51.82   51.91</time>
   <energy>
    <i name="e_fr_energy">   -550.54061710 </i>
    <i name="e_wo_entrp">   -550.54243861 </i>
    <i name="e_0_energy">   -550.54122427 </i>
   </energy>
  </scstep>
  <scstep>
   <time name="dav">   47.70   47.77</time>
   <time name="total">   48.32   48.44</time>
   <energy>
    <i name="e_fr_energy">   -489.65113354 </i>
    <i name="e_wo_entrp">   -489.64201512 </i>
    <i name="e_0_energy">   -489.64809407 </i>
   </energy>
  </scstep>
  <scstep>
   <time name="dav">   53.28   53.35</time>
   <time name="total">   53.95   54.03</time>
   <energy>
    <i name="e_fr_energy">   -450.57883511 </i>
    <i name="e_wo_entrp">   -450.58456711 </i>
    <i name="e_0_energy">   -450.58074578 </i>
   </energy>
  </scstep>
  <scstep>
   <time name="dav">   52.03   52.10</time>
   <time name="total">   52.69   52.75</time>
   <energy>
    <i name="e_fr_energy">   -396.46285246 </i>
    <i name="e_wo_entrp">   -396.45717631 </i>
    <i name="e_0_energy">   -396.46096041 </i>
   </energy>
  </scstep>
  <scstep>
   <time name="dav">   53.98   54.05</time>
   <time name="total">   54.65   54.72</time>
   <energy>
    <i name="e_fr_energy">   -365.92956703 </i>
    <i name="e_wo_entrp">   -365.92131390 </i>
    <i name="e_0_energy">   -365.92681599 </i>
   </energy>
  </scstep>
  <scstep>
   <time name="dav">   50.44   50.50</time>
   <time name="total">   51.09   51.15</time>
   <energy>
    <i name="e_fr_energy">   -367.94237799 </i>
    <i name="e_wo_entrp">   -367.93463763 </i>
    <i name="e_0_energy">   -367.93979787 </i>
   </energy>
  </scstep>
  <scstep>
   <time name="dav">   54.24   54.31</time>
   <time name="total">   54.91   55.00</time>
   <energy>
    <i name="e_fr_energy">   -347.04209372 </i>
    <i name="e_wo_entrp">   -347.03228557 </i>
    <i name="e_0_energy">   -347.03882433 </i>
   </energy>
  </scstep>
  <scstep>
   <time name="dav">   50.15   50.21</time>
   <time name="total">   50.80   50.86</time>
   <energy>
    <i name="e_fr_energy">   -357.94491577 </i>
    <i name="e_wo_entrp">   -357.92878790 </i>
    <i name="e_0_energy">   -357.93953981 </i>
   </energy>
  </scstep>
  <scstep>
   <time name="dav">   54.45   54.52</time>
   <time name="total">   55.12   55.20</time>
   <energy>
    <i name="e_fr_energy">   -338.33400578 </i>
    <i name="e_wo_entrp">   -338.32421288 </i>
    <i name="e_0_energy">   -338.33074148 </i>
   </energy>
  </scstep>
  <scstep>
   <time name="dav">   54.30   54.37</time>
   <time name="total">   54.95   55.02</time>
   <energy>
    <i name="e_fr_energy">   -324.29146990 </i>
    <i name="e_wo_entrp">   -324.28329045 </i>
    <i name="e_0_energy">   -324.28874342 </i>
   </energy>
  </scstep>
  <scstep>
   <time name="dav">   51.32   51.38</time>
   <time name="total">   51.97   52.04</time>
   <energy>
    <i name="e_fr_energy">   -321.31625907 </i>
    <i name="e_wo_entrp">   -321.30330396 </i>
    <i name="e_0_energy">   -321.31194070 </i>
   </energy>
  </scstep>
  <scstep>
   <time name="dav">   52.10   52.16</time>
   <time name="total">   52.75   52.82</time>
   <energy>
    <i name="e_fr_energy">   -315.17031296 </i>
    <i name="e_wo_entrp">   -315.16983121 </i>
    <i name="e_0_energy">   -315.17015238 </i>
   </energy>
  </scstep>
  <scstep>
   <time name="dav">   49.11   49.17</time>
   <time name="total">   49.77   49.83</time>
   <energy>
    <i name="e_fr_energy">   -312.04571010 </i>
    <i name="e_wo_entrp">   -312.04529905 </i>
    <i name="e_0_energy">   -312.04557308 </i>
   </energy>
  </scstep>
  <scstep>
   <time name="dav">   48.41   48.46</time>
   <time name="total">   49.07   49.13</time>
   <energy>
    <i name="e_fr_energy">   -312.90765643 </i>
    <i name="e_wo_entrp">   -312.90598203 </i>
    <i name="e_0_energy">   -312.90709830 </i>
   </energy>
  </scstep>
  <scstep>
   <time name="dav">   50.95   51.01</time>
   <time name="total">   51.60   51.67</time>
   <energy>
    <i name="e_fr_energy">   -311.16689006 </i>
    <i name="e_wo_entrp">   -311.15904403 </i>
    <i name="e_0_energy">   -311.16427472 </i>
   </energy>
  </scstep>
  <scstep>
   <time name="dav">   48.51   48.57</time>
   <time name="total">   49.16   49.22</time>
   <energy>
    <i name="e_fr_energy">   -309.86982928 </i>
    <i name="e_wo_entrp">   -309.86307695 </i>
    <i name="e_0_energy">   -309.86757851 </i>
   </energy>
  </scstep>
  <scstep>
   <time name="dav">   48.57   48.64</time>
   <time name="total">   49.23   49.35</time>
   <energy>
    <i name="e_fr_energy">   -308.48703156 </i>
    <i name="e_wo_entrp">   -308.47704632 </i>
    <i name="e_0_energy">   -308.48370314 </i>
   </energy>
  </scstep>
  <scstep>
   <time name="dav">   48.62   48.69</time>
   <time name="total">   49.28   49.36</time>
   <energy>
    <i name="e_fr_energy">   -307.78584435 </i>
    <i name="e_wo_entrp">   -307.77339835 </i>
    <i name="e_0_energy">   -307.78169569 </i>
   </energy>
  </scstep>
  <scstep>
   <time name="dav">   48.62   48.70</time>
   <time name="total">   49.28   49.36</time>
   <energy>
    <i name="e_fr_energy">   -307.73901484 </i>
    <i name="e_wo_entrp">   -307.72844757 </i>
    <i name="e_0_energy">   -307.73549242 </i>
   </energy>
  </scstep>
  <scstep>
   <time name="dav">   47.39   47.45</time>
   <time name="total">   48.04   48.11</time>
   <energy>
    <i name="e_fr_energy">   -307.58432382 </i>
    <i name="e_wo_entrp">   -307.57202312 </i>
    <i name="e_0_energy">   -307.58022359 </i>
   </energy>
  </scstep>
  <scstep>
   <time name="dav">   48.40   48.46</time>
   <time name="total">   49.06   49.14</time>
   <energy>
    <i name="e_fr_energy">   -307.46454355 </i>
    <i name="e_wo_entrp">   -307.45108958 </i>
    <i name="e_0_energy">   -307.46005889 </i>
   </energy>
  </scstep>
  <scstep>
   <time name="dav">   46.72   46.78</time>
   <time name="total">   47.37   47.43</time>
   <energy>
    <i name="e_fr_energy">   -307.45739710 </i>
    <i name="e_wo_entrp">   -307.44228857 </i>
    <i name="e_0_energy">   -307.45236092 </i>
   </energy>
  </scstep>
  <scstep>
   <time name="dav">   51.01   51.08</time>
   <time name="total">   51.67   51.74</time>
   <energy>
    <i name="e_fr_energy">   -307.45579199 </i>
    <i name="e_wo_entrp">   -307.44297114 </i>
    <i name="e_0_energy">   -307.45151837 </i>
   </energy>
  </scstep>
  <scstep>
   <time name="dav">   50.68   50.75</time>
   <time name="total">   51.34   51.41</time>
   <energy>
    <i name="e_fr_energy">   -307.45459782 </i>
    <i name="e_wo_entrp">   -307.44037496 </i>
    <i name="e_0_energy">   -307.44985687 </i>
   </energy>
  </scstep>
  <scstep>
   <time name="dav">   49.87   49.93</time>
   <time name="total">   50.53   50.60</time>
   <energy>
    <i name="e_fr_energy">   -307.40314601 </i>
    <i name="e_wo_entrp">   -307.39103582 </i>
    <i name="e_0_energy">   -307.39910928 </i>
   </energy>
  </scstep>
  <scstep>
   <time name="dav">   49.98   50.05</time>
   <time name="total">   50.64   50.70</time>
   <energy>
    <i name="e_fr_energy">   -307.39483733 </i>
    <i name="e_wo_entrp">   -307.38255191 </i>
    <i name="e_0_energy">   -307.39074219 </i>
   </energy>
  </scstep>
  <scstep>
   <time name="dav">   48.49   48.55</time>
   <time name="total">   49.15   49.22</time>
   <energy>
    <i name="e_fr_energy">   -307.38983535 </i>
    <i name="e_wo_entrp">   -307.37755567 </i>
    <i name="e_0_energy">   -307.38574212 </i>
   </energy>
  </scstep>
  <scstep>
   <time name="dav">   49.87   49.94</time>
   <time name="total">   50.52   50.59</time>
   <energy>
    <i name="e_fr_energy">   -307.38697046 </i>
    <i name="e_wo_entrp">   -307.37433562 </i>
    <i name="e_0_energy">   -307.38275884 </i>
   </energy>
  </scstep>
  <scstep>
   <time name="dav">   45.26   45.34</time>
   <time name="total">   45.92   46.00</time>
   <energy>
    <i name="e_fr_energy">   -307.38367703 </i>
    <i name="e_wo_entrp">   -307.37107696 </i>
    <i name="e_0_energy">   -307.37947701 </i>
   </energy>
  </scstep>
  <scstep>
   <time name="dav">   49.58   49.64</time>
   <time name="total">   50.23   50.30</time>
   <energy>
    <i name="e_fr_energy">   -307.38204723 </i>
    <i name="e_wo_entrp">   -307.36944060 </i>
    <i name="e_0_energy">   -307.37784502 </i>
   </energy>
  </scstep>
  <scstep>
   <time name="dav">   44.63   44.68</time>
   <time name="total">   45.30   45.36</time>
   <energy>
    <i name="e_fr_energy">   -307.38052568 </i>
    <i name="e_wo_entrp">   -307.36777081 </i>
    <i name="e_0_energy">   -307.37627406 </i>
   </energy>
  </scstep>
  <scstep>
   <time name="dav">   46.37   46.42</time>
   <time name="total">   47.03   47.09</time>
   <energy>
    <i name="e_fr_energy">   -307.37996798 </i>
    <i name="e_wo_entrp">   -307.36710424 </i>
    <i name="e_0_energy">   -307.37568007 </i>
   </energy>
  </scstep>
  <scstep>
   <time name="dav">   33.99   34.57</time>
   <time name="total">   34.62   35.26</time>
   <energy>
    <i name="e_fr_energy">   -307.37978602 </i>
    <i name="e_wo_entrp">   -307.36695297 </i>
    <i name="e_0_energy">   -307.37550833 </i>
   </energy>
  </scstep>
  <scstep>
   <time name="dav">   25.69   25.72</time>
   <time name="total">   25.76   25.80</time>
   <energy>
    <i name="alphaZ">   1169.09370839 </i>
    <i name="ewald"> -11091.87228770 </i>
    <i name="hartreedc">  -3167.70783270 </i>
    <i name="XCdc">   -852.26946541 </i>
    <i name="pawpsdc">  18864.54087304 </i>
    <i name="pawaedc"> -17393.86572616 </i>
    <i name="eentropy">     -0.01288753 </i>
    <i name="bandstr">   -746.63126107 </i>
    <i name="atom">  12911.34519091 </i>
    <i name="e_fr_energy">   -307.37968823 </i>
    <i name="e_wo_entrp">   -307.36680070 </i>
    <i name="e_0_energy">   -307.37539239 </i>
   </energy>
  </scstep>
  <structure>
   <crystal>
    <varray name="basis" >
     <v>      -3.16000000      -3.16000000      -3.16000000 </v>
     <v>       1.58000000       1.58000000      -7.90000000 </v>
     <v>       7.90000000      -7.90000000      -1.58000000 </v>
    </varray>
    <i name="volume">    473.31744000 </i>
    <varray name="rec_basis" >
     <v>      -0.13713080      -0.12658228      -0.05274262 </v>
     <v>       0.04219409       0.06329114      -0.10548523 </v>
     <v>       0.06329114      -0.06329114       0.00000000 </v>
    </varray>
   </crystal>
   <varray name="positions" >
    <v>       0.96666667       0.93333333       0.40000000 </v>
    <v>       0.63333333       0.26666667       0.40000000 </v>
    <v>       0.50000000       0.00000000       0.00000000 </v>
    <v>       0.00000000       0.00000000       0.00000000 </v>
    <v>       0.10000000       0.20000000       0.80000000 </v>
    <v>       0.03333333       0.06666667       0.60000000 </v>
    <v>       0.90000000       0.80000000       0.20000000 </v>
    <v>       0.80000000       0.60000000       0.40000000 </v>
    <v>       0.73333333       0.46666667       0.20000000 </v>
    <v>       0.66666667       0.33333333       0.00000000 </v>
    <v>       0.36666667       0.73333333       0.60000000 </v>
    <v>       0.13333333       0.26666667       0.40000000 </v>
    <v>       0.83333333       0.66666667       0.00000000 </v>
    <v>       0.93333333       0.86666667       0.80000000 </v>
    <v>       0.56666667       0.13333333       0.20000000 </v>
    <v>       0.40000000       0.80000000       0.20000000 </v>
    <v>       0.43333333       0.86666667       0.80000000 </v>
    <v>       0.30000000       0.60000000       0.40000000 </v>
    <v>       0.86666667       0.73333333       0.60000000 </v>
    <v>       0.46666667       0.93333333       0.40000000 </v>
    <v>       0.16666667       0.33333333       0.00000000 </v>
    <v>       0.20000000       0.40000000       0.60000000 </v>
    <v>       0.06666667       0.13333333       0.20000000 </v>
    <v>       0.76666667       0.53333333       0.80000000 </v>
    <v>       0.70000000       0.40000000       0.60000000 </v>
    <v>       0.60000000       0.20000000       0.80000000 </v>
    <v>       0.53333333       0.06666667       0.60000000 </v>
    <v>       0.33333333       0.66666667       0.00000000 </v>
    <v>       0.23333333       0.46666667       0.20000000 </v>
   </varray>
  </structure>
  <varray name="forces" >
   <v>       0.03667005       0.29334110       0.23104052 </v>
   <v>       0.45380018      -0.18509499      -0.01186007 </v>
   <v>      -0.25428549       0.46854273      -0.24776388 </v>
   <v>       0.13557037       0.13077816      -0.04444391 </v>
   <v>       0.11746495       0.85306371      -0.04490387 </v>
   <v>      -0.07123281       0.11530126      -0.35732486 </v>
   <v>      -0.16681783      -0.57853254       0.20294274 </v>
   <v>      -0.33365096      -0.42020525       0.54793738 </v>
   <v>      -0.29703339       0.40794267       0.02669124 </v>
   <v>       0.01572684       0.27011205      -0.68295406 </v>
   <v>      -0.09458512      -0.70912999       0.29778403 </v>
   <v>       0.05366430       0.20337994      -0.65165630 </v>
   <v>       0.51706004      -0.39931457       0.58607592 </v>
   <v>      -0.16761888       0.09956874       0.57089622 </v>
   <v>      -0.14270232       0.59713822      -0.17211519 </v>
   <v>      -0.62091932      -0.05477884       0.78913213 </v>
   <v>      -1.07103161      -0.24692354       0.17071340 </v>
   <v>       0.47562431      -0.44355462      -0.16603309 </v>
   <v>       0.12408908       0.81078958       0.60767233 </v>
   <v>       0.47026641      -0.41813380       0.05424639 </v>
   <v>      -0.20938916       0.16519940      -0.66075699 </v>
   <v>       0.13837343      -0.36572097       0.19078554 </v>
   <v>       0.61794485      -0.22011981      -0.87315995 </v>
   <v>       0.24183080      -0.06292813       0.67211918 </v>
   <v>       0.01963757       0.05468280      -0.53901091 </v>
   <v>      -0.09134022       0.10771591      -0.47537423 </v>
   <v>       0.35313473      -0.49356113      -0.46506391 </v>
   <v>      -0.34607551      -0.32965555       0.59030435 </v>
   <v>       0.09582470       0.35009746      -0.14592013 </v>
  </varray>
  <varray name="stress" >
   <v>      -9.12867423      -2.79043694       4.19342031 </v>
   <v>      -2.79043689     -15.49628741       0.64967235 </v>
   <v>       4.19342027       0.64967235     -16.73272476 </v>
  </varray>
  <energy>
   <i name="e_fr_energy">   -307.37968823 </i>
   <i name="e_wo_entrp">   -307.37539239 </i>
   <i name="e_0_energy">     -0.01288753 </i>
  </energy>
  <time name="totalsc"> 2270.64 2274.46</time>
 </calculation>
 <calculation>
  <scstep>
   <time name="dav">   33.29   33.34</time>
   <time name="total">   33.93   34.00</time>
   <energy>
    <i name="alphaZ">   1193.19361871 </i>
    <i name="ewald"> -11218.74217347 </i>
    <i name="hartreedc">  -3141.09052907 </i>
    <i name="XCdc">   -849.73122416 </i>
    <i name="pawpsdc">  18860.24373064 </i>
    <i name="pawaedc"> -17389.57654732 </i>
    <i name="eentropy">     -0.00831673 </i>
    <i name="bandstr">   -673.54969627 </i>
    <i name="atom">  12911.34519091 </i>
    <i name="e_fr_energy">   -307.91594676 </i>
    <i name="e_wo_entrp">   -307.90763003 </i>
    <i name="e_0_energy">   -307.91317452 </i>
   </energy>
  </scstep>
  <scstep>
   <time name="dav">   50.61   50.68</time>
   <time name="total">   51.25   51.32</time>
   <energy>
    <i name="e_fr_energy">   -309.46845420 </i>
    <i name="e_wo_entrp">   -309.45916866 </i>
    <i name="e_0_energy">   -309.46535902 </i>
   </energy>
  </scstep>
  <scstep>
   <time name="dav">   49.60   49.67</time>
   <time name="total">   50.25   50.33</time>
   <energy>
    <i name="e_fr_energy">   -308.28282640 </i>
    <i name="e_wo_entrp">   -308.27515084 </i>
    <i name="e_0_energy">   -308.28026788 </i>
   </energy>
  </scstep>
  <scstep>
   <time name="dav">   48.43   48.50</time>
   <time name="total">   49.08   49.14</time>
   <energy>
    <i name="e_fr_energy">   -308.24165520 </i>
    <i name="e_wo_entrp">   -308.22936799 </i>
    <i name="e_0_energy">   -308.23755946 </i>
   </energy>
  </scstep>
  <scstep>
   <time name="dav">   49.51   49.57</time>
   <time name="total">   50.17   50.24</time>
   <energy>
    <i name="e_fr_energy">   -308.02617868 </i>
    <i name="e_wo_entrp">   -308.01240841 </i>
    <i name="e_0_energy">   -308.02158859 </i>
   </energy>
  </scstep>
  <scstep>
   <time name="dav">   50.31   50.38</time>
   <time name="total">   50.97   51.03</time>
   <energy>
    <i name="e_fr_energy">   -307.95271915 </i>
    <i name="e_wo_entrp">   -307.94217618 </i>
    <i name="e_0_energy">   -307.94920483 </i>
   </energy>
  </scstep>
  <scstep>
   <time name="dav">   51.63   51.69</time>
   <time name="total">   52.30   52.38</time>
   <energy>
    <i name="e_fr_energy">   -307.93598026 </i>
    <i name="e_wo_entrp">   -307.92295891 </i>
    <i name="e_0_energy">   -307.93163981 </i>
   </energy>
  </scstep>
  <scstep>
   <time name="dav">   50.99   51.05</time>
   <time name="total">   51.64   51.70</time>
   <energy>
    <i name="e_fr_energy">   -307.92611811 </i>
    <i name="e_wo_entrp">   -307.91362966 </i>
    <i name="e_0_energy">   -307.92195530 </i>
   </energy>
  </scstep>
  <scstep>
   <time name="dav">   50.70   50.76</time>
   <time name="total">   51.35   51.42</time>
   <energy>
    <i name="e_fr_energy">   -307.91316626 </i>
    <i name="e_wo_entrp">   -307.90012046 </i>
    <i name="e_0_energy">   -307.90881766 </i>
   </energy>
  </scstep>
  <scstep>
   <time name="dav">   50.19   50.25</time>
   <time name="total">   50.85   50.91</time>
   <energy>
    <i name="e_fr_energy">   -307.91188842 </i>
    <i name="e_wo_entrp">   -307.89990807 </i>
    <i name="e_0_energy">   -307.90789497 </i>
   </energy>
  </scstep>
  <scstep>
   <time name="dav">   47.41   47.47</time>
   <time name="total">   48.08   48.14</time>
   <energy>
    <i name="e_fr_energy">   -307.91131161 </i>
    <i name="e_wo_entrp">   -307.89869680 </i>
    <i name="e_0_energy">   -307.90710667 </i>
   </energy>
  </scstep>
  <scstep>
   <time name="dav">   49.82   49.88</time>
   <time name="total">   50.47   50.53</time>
   <energy>
    <i name="e_fr_energy">   -307.91237172 </i>
    <i name="e_wo_entrp">   -307.89987921 </i>
    <i name="e_0_energy">   -307.90820755 </i>
   </energy>
  </scstep>
  <scstep>
   <time name="dav">   47.02   47.08</time>
   <time name="total">   47.68   47.74</time>
   <energy>
    <i name="e_fr_energy">   -307.91366548 </i>
    <i name="e_wo_entrp">   -307.90121882 </i>
    <i name="e_0_energy">   -307.90951659 </i>
   </energy>
  </scstep>
  <scstep>
   <time name="dav">   49.02   49.08</time>
   <time name="total">   49.68   49.74</time>
   <energy>
    <i name="e_fr_energy">   -307.91215330 </i>
    <i name="e_wo_entrp">   -307.89969456 </i>
    <i name="e_0_energy">   -307.90800039 </i>
   </energy>
  </scstep>
  <scstep>
   <time name="dav">   46.46   46.52</time>
   <time name="total">   47.10   47.18</time>
   <energy>
    <i name="e_fr_energy">   -307.91211320 </i>
    <i name="e_wo_entrp">   -307.89965758 </i>
    <i name="e_0_energy">   -307.90796133 </i>
   </energy>
  </scstep>
  <scstep>
   <time name="dav">   44.11   44.17</time>
   <time name="total">   44.77   44.82</time>
   <energy>
    <i name="e_fr_energy">   -307.91206107 </i>
    <i name="e_wo_entrp">   -307.89955302 </i>
    <i name="e_0_energy">   -307.90789172 </i>
   </energy>
  </scstep>
  <scstep>
   <time name="dav">   34.03   34.09</time>
   <time name="total">   34.11   34.17</time>
   <energy>
    <i name="alphaZ">   1193.19361871 </i>
    <i name="ewald"> -11218.74217347 </i>
    <i name="hartreedc">  -3100.68317613 </i>
    <i name="XCdc">   -850.91887904 </i>
    <i name="pawpsdc">  19297.79824326 </i>
    <i name="pawaedc"> -17828.02268914 </i>
    <i name="eentropy">     -0.01251960 </i>
    <i name="bandstr">   -711.86962246 </i>
    <i name="atom">  12911.34519091 </i>
    <i name="e_fr_energy">   -307.91200697 </i>
    <i name="e_wo_entrp">   -307.89948737 </i>
    <i name="e_0_energy">   -307.90783377 </i>
   </energy>
  </scstep>
  <structure>
   <crystal>
    <varray name="basis" >
     <v>      -3.14800226      -3.13261024      -3.14153579 </v>
     <v>       1.55446440       1.56327836      -7.83127600 </v>
     <v>       7.87213620      -7.85117505      -1.55324901 </v>
    </varray>
    <i name="volume">    463.75745939 </i>
    <varray name="rec_basis" >
     <v>      -0.13781531      -0.12772711      -0.05285244 </v>
     <v>       0.04269263       0.06387009      -0.10646913 </v>
     <v>       0.06348886      -0.06368907      -0.00011142 </v>
    </varray>
   </crystal>
   <varray name="positions" >
    <v>       0.96404487       0.93312790       0.39921630 </v>
    <v>       0.63149168       0.26708560       0.40195076 </v>
    <v>       0.49945143       0.00217385      -0.00220703 </v>
    <v>      -0.00158241       0.00090144       0.00001463 </v>
    <v>       0.09412779       0.20307230       0.79775397 </v>
    <v>       0.03400966       0.06869211       0.59943045 </v>
    <v>       0.90412012       0.79686123       0.20125710 </v>
    <v>       0.80337914       0.59524942       0.40026428 </v>
    <v>       0.73273929       0.46717180       0.19784747 </v>
    <v>       0.66665088       0.33766556      -0.00077672 </v>
    <v>       0.37086513       0.72946020       0.60187641 </v>
    <v>       0.13339444       0.27071310       0.39954287 </v>
    <v>       0.83085993       0.66351746       0.00279800 </v>
    <v>       0.93238158       0.86372426       0.79918419 </v>
    <v>       0.56440214       0.13574199       0.19774102 </v>
    <v>       0.40243434       0.79455302       0.19827138 </v>
    <v>       0.44149231       0.86286385       0.79748372 </v>
    <v>       0.29998458       0.60045876       0.40280656 </v>
    <v>       0.85934834       0.73296915       0.59790328 </v>
    <v>       0.46597097       0.93273783       0.40271258 </v>
    <v>       0.16872434       0.33677403      -0.00114374 </v>
    <v>       0.20083248       0.39819411       0.60153917 </v>
    <v>       0.06614453       0.13836250       0.20255889 </v>
    <v>       0.76374094       0.53021311       0.80093053 </v>
    <v>       0.70090764       0.40294990       0.59989300 </v>
    <v>       0.60115604       0.20256209       0.79939222 </v>
    <v>       0.53519449       0.06824515       0.60258524 </v>
    <v>       0.33613391       0.66195167      -0.00005014 </v>
    <v>       0.23093275       0.46867326       0.19922362 </v>
   </varray>
  </structure>
  <varray name="forces" >
   <v>       0.04818422       0.19758602       0.04204106 </v>
   <v>       0.15372239      -0.09190483       0.05132726 </v>
   <v>      -0.21245391       0.31741352      -0.10163531 </v>
   <v>       0.00851416       0.10068721      -0.09618557 </v>
   <v>       0.08333330       0.45690680      -0.02961423 </v>
   <v>      -0.09166303       0.04506504      -0.16120558 </v>
   <v>      -0.08535742      -0.20769164       0.09333354 </v>
   <v>      -0.11159233      -0.21319449       0.21327763 </v>
   <v>      -0.04619398       0.04543499       0.16081543 </v>
   <v>      -0.05465703       0.32833682      -0.29814481 </v>
   <v>      -0.01196307      -0.52396913       0.32910108 </v>
   <v>       0.09422452       0.07356732      -0.28174170 </v>
   <v>       0.17172474      -0.11377261       0.06381706 </v>
   <v>      -0.40845870      -0.21189034       0.43068850 </v>
   <v>      -0.02814404       0.28627349      -0.09630976 </v>
   <v>      -0.25282268      -0.01914649       0.21789509 </v>
   <v>      -0.35952201      -0.00532785       0.25019211 </v>
   <v>       0.29748709      -0.39622928      -0.11910483 </v>
   <v>       0.12580610       0.50606954       0.44077871 </v>
   <v>       0.23686095      -0.21222818       0.01890893 </v>
   <v>      -0.35106817       0.15107178      -0.52920424 </v>
   <v>       0.16087814      -0.36129577       0.01738293 </v>
   <v>       0.33673947      -0.09340395      -0.51963013 </v>
   <v>       0.18630172       0.02076882       0.56067586 </v>
   <v>       0.12048001      -0.03832233      -0.35461556 </v>
   <v>       0.01182842       0.23324096      -0.40927628 </v>
   <v>       0.25316579      -0.42285398      -0.35684276 </v>
   <v>      -0.31667608      -0.09684228       0.60722154 </v>
   <v>       0.04132143       0.24565087      -0.14394597 </v>
  </varray>
  <varray name="stress" >
   <v>      25.24321662      -1.30481271       2.31400648 </v>
   <v>      -1.30481262      21.24852712       1.98227252 </v>
   <v>       2.31400647       1.98227254      21.89146796 </v>
  </varray>
  <energy>
   <i name="e_fr_energy">   -307.91200697 </i>
   <i name="e_wo_entrp">   -307.90783377 </i>
   <i name="e_0_energy">     -0.01251960 </i>
  </energy>
  <time name="totalsc">  832.86  834.03</time>
 </calculation>
 <calculation>
  <scstep>
   <time name="dav">   33.31   33.36</time>
   <time name="total">   33.96   34.02</time>
   <energy>
    <i name="alphaZ">   1204.65439805 </i>
    <i name="ewald"> -11275.74742578 </i>
    <i name="hartreedc">  -3090.32590231 </i>
    <i name="XCdc">   -849.73059755 </i>
    <i name="pawpsdc">  19297.62555443 </i>
    <i name="pawaedc"> -17827.80379870 </i>
    <i name="eentropy">     -0.01149430 </i>
    <i name="bandstr">   -677.97058755 </i>
    <i name="atom">  12911.34519091 </i>
    <i name="e_fr_energy">   -307.96466280 </i>
    <i name="e_wo_entrp">   -307.95316850 </i>
    <i name="e_0_energy">   -307.96083137 </i>
   </energy>
  </scstep>
  <scstep>
   <time name="dav">   50.35   50.42</time>
   <time name="total">   51.00   51.08</time>
   <energy>
    <i name="e_fr_energy">   -308.29497867 </i>
    <i name="e_wo_entrp">   -308.28291734 </i>
    <i name="e_0_energy">   -308.29095823 </i>
   </energy>
  </scstep>
  <scstep>
   <time name="dav">   50.07   50.15</time>
   <time name="total">   50.72   50.80</time>
   <energy>
    <i name="e_fr_energy">   -308.05333308 </i>
    <i name="e_wo_entrp">   -308.04268866 </i>
    <i name="e_0_energy">   -308.04978494 </i>
   </energy>
  </scstep>
  <scstep>
   <time name="dav">   48.96   49.03</time>
   <time name="total">   49.61   49.69</time>
   <energy>
    <i name="e_fr_energy">   -308.04288188 </i>
    <i name="e_wo_entrp">   -308.02950720 </i>
    <i name="e_0_energy">   -308.03842365 </i>
   </energy>
  </scstep>
  <scstep>
   <time name="dav">   49.02   49.09</time>
   <time name="total">   49.67   49.74</time>
   <energy>
    <i name="e_fr_energy">   -307.99471015 </i>
    <i name="e_wo_entrp">   -307.98125719 </i>
    <i name="e_0_energy">   -307.99022583 </i>
   </energy>
  </scstep>
  <scstep>
   <time name="dav">   50.66   50.74</time>
   <time name="total">   51.32   51.41</time>
   <energy>
    <i name="e_fr_energy">   -307.97888953 </i>
    <i name="e_wo_entrp">   -307.96694914 </i>
    <i name="e_0_energy">   -307.97490940 </i>
   </energy>
  </scstep>
  <scstep>
   <time name="dav">   51.65   51.73</time>
   <time name="total">   52.30   52.38</time>
   <energy>
    <i name="e_fr_energy">   -307.97557129 </i>
    <i name="e_wo_entrp">   -307.96251673 </i>
    <i name="e_0_energy">   -307.97121977 </i>
   </energy>
  </scstep>
  <scstep>
   <time name="dav">   50.65   50.73</time>
   <time name="total">   51.30   51.39</time>
   <energy>
    <i name="e_fr_energy">   -307.97302206 </i>
    <i name="e_wo_entrp">   -307.96024243 </i>
    <i name="e_0_energy">   -307.96876218 </i>
   </energy>
  </scstep>
  <scstep>
   <time name="dav">   47.01   47.08</time>
   <time name="total">   47.66   47.73</time>
   <energy>
    <i name="e_fr_energy">   -307.97038425 </i>
    <i name="e_wo_entrp">   -307.95728669 </i>
    <i name="e_0_energy">   -307.96601839 </i>
   </energy>
  </scstep>
  <scstep>
   <time name="dav">   45.17   45.23</time>
   <time name="total">   45.84   45.90</time>
   <energy>
    <i name="e_fr_energy">   -307.97001586 </i>
    <i name="e_wo_entrp">   -307.95736887 </i>
    <i name="e_0_energy">   -307.96580019 </i>
   </energy>
  </scstep>
  <scstep>
   <time name="dav">   46.12   46.17</time>
   <time name="total">   46.78   46.84</time>
   <energy>
    <i name="e_fr_energy">   -307.97009117 </i>
    <i name="e_wo_entrp">   -307.95719036 </i>
    <i name="e_0_energy">   -307.96579090 </i>
   </energy>
  </scstep>
  <scstep>
   <time name="dav">   47.60   47.65</time>
   <time name="total">   48.26   48.32</time>
   <energy>
    <i name="e_fr_energy">   -307.97035121 </i>
    <i name="e_wo_entrp">   -307.95749332 </i>
    <i name="e_0_energy">   -307.96606525 </i>
   </energy>
  </scstep>
  <scstep>
   <time name="dav">   45.26   45.32</time>
   <time name="total">   45.91   45.96</time>
   <energy>
    <i name="e_fr_energy">   -307.97062812 </i>
    <i name="e_wo_entrp">   -307.95782627 </i>
    <i name="e_0_energy">   -307.96636084 </i>
   </energy>
  </scstep>
  <scstep>
   <time name="dav">   43.76   43.81</time>
   <time name="total">   44.41   44.47</time>
   <energy>
    <i name="e_fr_energy">   -307.97021897 </i>
    <i name="e_wo_entrp">   -307.95740114 </i>
    <i name="e_0_energy">   -307.96594636 </i>
   </energy>
  </scstep>
  <scstep>
   <time name="dav">   33.16   33.20</time>
   <time name="total">   33.23   33.27</time>
   <energy>
    <i name="alphaZ">   1204.65439805 </i>
    <i name="ewald"> -11275.74742578 </i>
    <i name="hartreedc">  -3071.84027660 </i>
    <i name="XCdc">   -850.28044821 </i>
    <i name="pawpsdc">  19519.27984470 </i>
    <i name="pawaedc"> -18049.81720747 </i>
    <i name="eentropy">     -0.01282887 </i>
    <i name="bandstr">   -695.55143171 </i>
    <i name="atom">  12911.34519091 </i>
    <i name="e_fr_energy">   -307.97018499 </i>
    <i name="e_wo_entrp">   -307.95735612 </i>
    <i name="e_0_energy">   -307.96590870 </i>
   </energy>
  </scstep>
  <structure>
   <crystal>
    <varray name="basis" >
     <v>      -3.14241367      -3.11985199      -3.13293510 </v>
     <v>       1.54256982       1.55548936      -7.79926411 </v>
     <v>       7.85915714      -7.82843221      -1.54078830 </v>
    </varray>
    <i name="volume">    459.34538742 </i>
    <varray name="rec_basis" >
     <v>      -0.13813721      -0.12826703      -0.05290298 </v>
     <v>       0.04292835       0.06414351      -0.10693387 </v>
     <v>       0.06358134      -0.06387630      -0.00016415 </v>
    </varray>
   </crystal>
   <varray name="positions" >
    <v>       0.96281495       0.93303133       0.39884821 </v>
    <v>       0.63063164       0.26728368       0.40286313 </v>
    <v>       0.49918837       0.00319516      -0.00323978 </v>
    <v>      -0.00232484       0.00132554       0.00002099 </v>
    <v>       0.09136884       0.20451680       0.79670077 </v>
    <v>       0.03432371       0.06964417       0.59916470 </v>
    <v>       0.90605624       0.79538529       0.20184659 </v>
    <v>       0.80496775       0.59301526       0.40038828 </v>
    <v>       0.73245659       0.46740848       0.19683978 </v>
    <v>       0.66663802       0.33970232      -0.00113916 </v>
    <v>       0.37283975       0.72763921       0.60275562 </v>
    <v>       0.13341846       0.27261560       0.39932999 </v>
    <v>       0.82970869       0.66203819       0.00410571 </v>
    <v>       0.93193685       0.86234047       0.79880111 </v>
    <v>       0.56333457       0.13687393       0.19668324 </v>
    <v>       0.40357728       0.79199068       0.19746194 </v>
    <v>       0.44531519       0.86107349       0.79630866 </v>
    <v>       0.29998191       0.60067569       0.40412036 </v>
    <v>       0.85591517       0.73279802       0.59691839 </v>
    <v>       0.46565030       0.93245907       0.40398180 </v>
    <v>       0.16968341       0.33839114      -0.00167726 </v>
    <v>       0.20122705       0.39734550       0.60225953 </v>
    <v>       0.06589962       0.14072848       0.20375773 </v>
    <v>       0.76237436       0.52874673       0.80136393 </v>
    <v>       0.70133004       0.40433683       0.59984410 </v>
    <v>       0.60169434       0.20376641       0.79910893 </v>
    <v>       0.53606984       0.06898822       0.60379661 </v>
    <v>       0.33745078       0.65973419      -0.00007356 </v>
    <v>       0.22980444       0.46961679       0.19885964 </v>
   </varray>
  </structure>
  <varray name="forces" >
   <v>       0.04975970       0.14828517      -0.04821389 </v>
   <v>       0.00186316      -0.04971144       0.06945895 </v>
   <v>      -0.19158884       0.24582161      -0.03077433 </v>
   <v>      -0.04769969       0.08146219      -0.11564263 </v>
   <v>       0.06247308       0.23367812      -0.03088020 </v>
   <v>      -0.09967268       0.00868843      -0.06733807 </v>
   <v>      -0.03387156      -0.02042855       0.03592657 </v>
   <v>       0.00099917      -0.08697244       0.03843049 </v>
   <v>       0.10375434      -0.17196789       0.23273556 </v>
   <v>      -0.09122751       0.34305677      -0.07275818 </v>
   <v>       0.03704637      -0.41662422       0.35029259 </v>
   <v>       0.10198997      -0.00591900      -0.07833073 </v>
   <v>      -0.02229011       0.03447271      -0.20311233 </v>
   <v>      -0.51584362      -0.38632473       0.37342478 </v>
   <v>       0.00498961       0.13372982      -0.07687190 </v>
   <v>      -0.06837333       0.01111984      -0.06757482 </v>
   <v>       0.00278968       0.10829374       0.26513659 </v>
   <v>       0.21025140      -0.32141637      -0.09879998 </v>
   <v>       0.11223001       0.33008189       0.33176310 </v>
   <v>       0.13366753      -0.11230665       0.01151107 </v>
   <v>      -0.41730088       0.15838591      -0.45898219 </v>
   <v>       0.17615279      -0.35883050      -0.07028118 </v>
   <v>       0.19037895      -0.02033436      -0.32584279 </v>
   <v>       0.15664026       0.06737887       0.48862165 </v>
   <v>       0.16055319      -0.08573826      -0.24465146 </v>
   <v>       0.06494769       0.30314270      -0.36779496 </v>
   <v>       0.20099363      -0.38448241      -0.30469457 </v>
   <v>      -0.29040844       0.03555455       0.60719568 </v>
   <v>       0.00679613       0.17790450      -0.14195281 </v>
  </varray>
  <varray name="stress" >
   <v>      43.41583573      -0.56442499       1.62009301 </v>
   <v>      -0.56442496      40.54632864       2.47432416 </v>
   <v>       1.62009299       2.47432428      42.47269690 </v>
  </varray>
  <energy>
   <i name="e_fr_energy">   -307.97018499 </i>
   <i name="e_wo_entrp">   -307.96590870 </i>
   <i name="e_0_energy">     -0.01282887 </i>
  </energy>
  <time name="totalsc">  721.81  722.88</time>
 </calculation>
 <calculation>
  <scstep>
   <time name="dav">   33.51   33.56</time>
   <time name="total">   34.18   34.23</time>
   <energy>
    <i name="alphaZ">   1186.02992619 </i>
    <i name="ewald"> -11246.59706497 </i>
    <i name="hartreedc">  -3027.84708772 </i>
    <i name="XCdc">   -852.43516526 </i>
    <i name="pawpsdc">  19518.99091157 </i>
    <i name="pawaedc"> -18049.51095673 </i>
    <i name="eentropy">     -0.01158251 </i>
    <i name="bandstr">   -748.25956501 </i>
    <i name="atom">  12911.34519091 </i>
    <i name="e_fr_energy">   -308.29539352 </i>
    <i name="e_wo_entrp">   -308.28381101 </i>
    <i name="e_0_energy">   -308.29153268 </i>
   </energy>
  </scstep>
  <scstep>
   <time name="dav">   49.53   49.59</time>
   <time name="total">   50.18   50.24</time>
   <energy>
    <i name="e_fr_energy">   -308.88632324 </i>
    <i name="e_wo_entrp">   -308.87083994 </i>
    <i name="e_0_energy">   -308.88116214 </i>
   </energy>
  </scstep>
  <scstep>
   <time name="dav">   50.65   50.71</time>
   <time name="total">   51.32   51.39</time>
   <energy>
    <i name="e_fr_energy">   -308.43564662 </i>
    <i name="e_wo_entrp">   -308.42349798 </i>
    <i name="e_0_energy">   -308.43159707 </i>
   </energy>
  </scstep>
  <scstep>
   <time name="dav">   49.54   49.60</time>
   <time name="total">   50.19   50.25</time>
   <energy>
    <i name="e_fr_energy">   -308.40162303 </i>
    <i name="e_wo_entrp">   -308.39036310 </i>
    <i name="e_0_energy">   -308.39786972 </i>
   </energy>
  </scstep>
  <scstep>
   <time name="dav">   49.88   49.94</time>
   <time name="total">   50.54   50.61</time>
   <energy>
    <i name="e_fr_energy">   -308.26539521 </i>
    <i name="e_wo_entrp">   -308.25386650 </i>
    <i name="e_0_energy">   -308.26155231 </i>
   </energy>
  </scstep>
  <scstep>
   <time name="dav">   48.66   48.71</time>
   <time name="total">   49.31   49.37</time>
   <energy>
    <i name="e_fr_energy">   -308.23791238 </i>
    <i name="e_wo_entrp">   -308.22521561 </i>
    <i name="e_0_energy">   -308.23368012 </i>
   </energy>
  </scstep>
  <scstep>
   <time name="dav">   50.05   50.11</time>
   <time name="total">   50.71   50.77</time>
   <energy>
    <i name="e_fr_energy">   -308.23500934 </i>
    <i name="e_wo_entrp">   -308.22166502 </i>
    <i name="e_0_energy">   -308.23056123 </i>
   </energy>
  </scstep>
  <scstep>
   <time name="dav">   50.58   50.64</time>
   <time name="total">   51.23   51.29</time>
   <energy>
    <i name="e_fr_energy">   -308.22385218 </i>
    <i name="e_wo_entrp">   -308.21153340 </i>
    <i name="e_0_energy">   -308.21974592 </i>
   </energy>
  </scstep>
  <scstep>
   <time name="dav">   48.80   48.86</time>
   <time name="total">   49.47   49.53</time>
   <energy>
    <i name="e_fr_energy">   -308.22238478 </i>
    <i name="e_wo_entrp">   -308.20944860 </i>
[...]
       <r>    4.8306    1.0000 </r>
       <r>    4.9021    1.0000 </r>
       <r>    4.9314    1.0000 </r>
       <r>    4.9864    1.0000 </r>
       <r>    5.0287    1.0000 </r>
       <r>    5.0403    1.0000 </r>
       <r>    5.1297    1.0000 </r>
       <r>    5.1982    1.0000 </r>
       <r>    5.2493    1.0000 </r>
       <r>    5.2876    1.0000 </r>
       <r>    5.3610    1.0000 </r>
       <r>    5.4270    1.0000 </r>
       <r>    5.5131    1.0000 </r>
       <r>    5.5620    1.0000 </r>
       <r>    5.6064    1.0000 </r>
       <r>    5.6210    1.0000 </r>
       <r>    5.6953    1.0000 </r>
       <r>    5.7447    1.0000 </r>
       <r>    5.8000    1.0000 </r>
       <r>    5.8358    1.0000 </r>
       <r>    5.8586    1.0000 </r>
       <r>    5.9537    1.0000 </r>
       <r>    6.0277    1.0000 </r>
       <r>    6.0681    1.0000 </r>
       <r>    6.1149    1.0000 </r>
       <r>    6.2195    1.0004 </r>
       <r>    6.3278    1.0045 </r>
       <r>    6.3308    1.0048 </r>
       <r>    6.3504    1.0067 </r>
       <r>    6.3921    1.0128 </r>
       <r>    6.4203    1.0184 </r>
       <r>    6.4637    1.0283 </r>
       <r>    6.4958    1.0341 </r>
       <r>    6.5743    1.0167 </r>
       <r>    6.5973    0.9946 </r>
       <r>    6.6961    0.7592 </r>
       <r>    6.7573    0.5155 </r>
       <r>    6.7980    0.3461 </r>
       <r>    6.8497    0.1623 </r>
       <r>    6.9313   -0.0021 </r>
       <r>    7.0334   -0.0331 </r>
       <r>    7.0990   -0.0190 </r>
       <r>    7.1430   -0.0106 </r>
       <r>    7.2719   -0.0009 </r>
       <r>    7.3412   -0.0002 </r>
       <r>    7.4565   -0.0000 </r>
       <r>    7.4910   -0.0000 </r>
       <r>    7.6175   -0.0000 </r>
       <r>    7.6896   -0.0000 </r>
       <r>    7.7869   -0.0000 </r>
       <r>    7.9437   -0.0000 </r>
       <r>    7.9877   -0.0000 </r>
       <r>    8.1703   -0.0000 </r>
       <r>    8.3086   -0.0000 </r>
       <r>    8.3747   -0.0000 </r>
       <r>    8.4654   -0.0000 </r>
       <r>    8.5237   -0.0000 </r>
       <r>    8.5652   -0.0000 </r>
       <r>    8.6159   -0.0000 </r>
       <r>    8.7277   -0.0000 </r>
       <r>    8.8091   -0.0000 </r>
      </set>
     </set>
    </set>
   </array>
  </eigenvalues>
  <separator name="orbital magnetization" >
   <v name="MAGDIPOLOUT">      0.00000000      0.00000000      0.00000000</v>
  </separator>
  <dos>
   <i name="efermi">      6.76097895 </i>
   <total>
    <array>
     <dimension dim="1">gridpoints</dimension>
     <dimension dim="2">spin</dimension>
     <field>energy</field>
     <field>total</field>
     <field>integrated</field>
     <set>
      <set comment="spin 1">
       <r>   -50.1568     0.0000     0.0000 </r>
       <r>   -49.9507     0.0000     0.0000 </r>
       <r>   -49.7447     0.0000     0.0000 </r>
       <r>   -49.5387     0.0000     0.0000 </r>
       <r>   -49.3327     0.0000     0.0000 </r>
       <r>   -49.1266    -0.0000    -0.0000 </r>
       <r>   -48.9206    -0.0000    -0.0000 </r>
       <r>   -48.7146    -0.0000    -0.0000 </r>
       <r>   -48.5085    -0.0000    -0.0000 </r>
       <r>   -48.3025    -0.0000    -0.0000 </r>
       <r>   -48.0965    -0.0000    -0.0000 </r>
       <r>   -47.8904    -0.0034    -0.0007 </r>
       <r>   -47.6844    -0.2233    -0.0467 </r>
       <r>   -47.4784    -0.3493    -0.1187 </r>
       <r>   -47.2724    13.7211     2.7083 </r>
       <r>   -47.0663    33.3674     9.5830 </r>
       <r>   -46.8603    12.9628    12.2537 </r>
       <r>   -46.6543    -1.0941    12.0283 </r>
       <r>   -46.4482    -0.1362    12.0002 </r>
       <r>   -46.2422    -0.0010    12.0000 </r>
       <r>   -46.0362    -0.0000    12.0000 </r>
       <r>   -45.8302    -0.0000    12.0000 </r>
       <r>   -45.6241     0.0000    12.0000 </r>
       <r>   -45.4181     0.0000    12.0000 </r>
       <r>   -45.2121     0.0000    12.0000 </r>
       <r>   -45.0060     0.0000    12.0000 </r>
       <r>   -44.8000     0.0000    12.0000 </r>
       <r>   -44.5940     0.0000    12.0000 </r>
       <r>   -44.3879     0.0000    12.0000 </r>
       <r>   -44.1819     0.0000    12.0000 </r>
       <r>   -43.9759     0.0000    12.0000 </r>
       <r>   -43.7699     0.0000    12.0000 </r>
       <r>   -43.5638     0.0000    12.0000 </r>
       <r>   -43.3578     0.0000    12.0000 </r>
       <r>   -43.1518     0.0000    12.0000 </r>
       <r>   -42.9457     0.0000    12.0000 </r>
       <r>   -42.7397     0.0000    12.0000 </r>
       <r>   -42.5337     0.0000    12.0000 </r>
       <r>   -42.3276     0.0000    12.0000 </r>
       <r>   -42.1216     0.0000    12.0000 </r>
       <r>   -41.9156     0.0000    12.0000 </r>
       <r>   -41.7096     0.0000    12.0000 </r>
       <r>   -41.5035     0.0000    12.0000 </r>
       <r>   -41.2975     0.0000    12.0000 </r>
       <r>   -41.0915     0.0000    12.0000 </r>
       <r>   -40.8854     0.0000    12.0000 </r>
       <r>   -40.6794     0.0000    12.0000 </r>
       <r>   -40.4734     0.0000    12.0000 </r>
       <r>   -40.2674     0.0000    12.0000 </r>
       <r>   -40.0613     0.0000    12.0000 </r>
       <r>   -39.8553     0.0000    12.0000 </r>
       <r>   -39.6493     0.0000    12.0000 </r>
       <r>   -39.4432     0.0000    12.0000 </r>
       <r>   -39.2372     0.0000    12.0000 </r>
       <r>   -39.0312     0.0000    12.0000 </r>
       <r>   -38.8251     0.0000    12.0000 </r>
       <r>   -38.6191     0.0000    12.0000 </r>
       <r>   -38.4131     0.0000    12.0000 </r>
       <r>   -38.2071     0.0000    12.0000 </r>
       <r>   -38.0010     0.0000    12.0000 </r>
       <r>   -37.7950     0.0000    12.0000 </r>
       <r>   -37.5890     0.0000    12.0000 </r>
       <r>   -37.3829     0.0000    12.0000 </r>
       <r>   -37.1769     0.0000    12.0000 </r>
       <r>   -36.9709     0.0000    12.0000 </r>
       <r>   -36.7648     0.0000    12.0000 </r>
       <r>   -36.5588     0.0000    12.0000 </r>
       <r>   -36.3528     0.0000    12.0000 </r>
       <r>   -36.1468     0.0000    12.0000 </r>
       <r>   -35.9407     0.0000    12.0000 </r>
       <r>   -35.7347     0.0000    12.0000 </r>
       <r>   -35.5287     0.0000    12.0000 </r>
       <r>   -35.3226     0.0000    12.0000 </r>
       <r>   -35.1166     0.0000    12.0000 </r>
       <r>   -34.9106     0.0000    12.0000 </r>
       <r>   -34.7046     0.0000    12.0000 </r>
       <r>   -34.4985     0.0000    12.0000 </r>
       <r>   -34.2925     0.0000    12.0000 </r>
       <r>   -34.0865     0.0000    12.0000 </r>
       <r>   -33.8804     0.0000    12.0000 </r>
       <r>   -33.6744     0.0000    12.0000 </r>
       <r>   -33.4684     0.0000    12.0000 </r>
       <r>   -33.2623     0.0000    12.0000 </r>
       <r>   -33.0563     0.0000    12.0000 </r>
       <r>   -32.8503     0.0000    12.0000 </r>
       <r>   -32.6443     0.0000    12.0000 </r>
       <r>   -32.4382     0.0000    12.0000 </r>
       <r>   -32.2322     0.0000    12.0000 </r>
       <r>   -32.0262     0.0000    12.0000 </r>
       <r>   -31.8201     0.0000    12.0000 </r>
       <r>   -31.6141     0.0000    12.0000 </r>
       <r>   -31.4081     0.0000    12.0000 </r>
       <r>   -31.2020     0.0000    12.0000 </r>
       <r>   -30.9960     0.0000    12.0000 </r>
       <r>   -30.7900     0.0000    12.0000 </r>
       <r>   -30.5840     0.0000    12.0000 </r>
       <r>   -30.3779     0.0000    12.0000 </r>
       <r>   -30.1719     0.0000    12.0000 </r>
       <r>   -29.9659     0.0000    12.0000 </r>
       <r>   -29.7598     0.0000    12.0000 </r>
       <r>   -29.5538     0.0000    12.0000 </r>
       <r>   -29.3478     0.0000    12.0000 </r>
       <r>   -29.1418     0.0000    12.0000 </r>
       <r>   -28.9357     0.0000    12.0000 </r>
       <r>   -28.7297     0.0000    12.0000 </r>
       <r>   -28.5237     0.0000    12.0000 </r>
       <r>   -28.3176     0.0000    12.0000 </r>
       <r>   -28.1116     0.0000    12.0000 </r>
       <r>   -27.9056     0.0000    12.0000 </r>
       <r>   -27.6995     0.0000    12.0000 </r>
       <r>   -27.4935     0.0000    12.0000 </r>
       <r>   -27.2875     0.0000    12.0000 </r>
       <r>   -27.0815     0.0000    12.0000 </r>
       <r>   -26.8754     0.0000    12.0000 </r>
       <r>   -26.6694     0.0000    12.0000 </r>
       <r>   -26.4634     0.0000    12.0000 </r>
       <r>   -26.2573     0.0000    12.0000 </r>
       <r>   -26.0513     0.0000    12.0000 </r>
       <r>   -25.8453    -0.0000    12.0000 </r>
       <r>   -25.6392    -0.0000    12.0000 </r>
       <r>   -25.4332    -0.0000    12.0000 </r>
       <r>   -25.2272    -0.0000    12.0000 </r>
       <r>   -25.0212    -0.0000    12.0000 </r>
       <r>   -24.8151    -0.0000    12.0000 </r>
       <r>   -24.6091    -0.0027    11.9995 </r>
       <r>   -24.4031    -0.1420    11.9702 </r>
       <r>   -24.1970     0.0042    11.9711 </r>
       <r>   -23.9910     7.6413    13.5454 </r>
       <r>   -23.7850    16.1441    16.8716 </r>
       <r>   -23.5790    13.9860    19.7531 </r>
       <r>   -23.3729    39.6549    27.9232 </r>
       <r>   -23.1669    55.0527    39.2657 </r>
       <r>   -22.9609    21.6216    43.7204 </r>
       <r>   -22.7548    16.2318    47.0646 </r>
       <r>   -22.5488     5.1012    48.1156 </r>
       <r>   -22.3428    -0.5038    48.0118 </r>
       <r>   -22.1367    -0.0569    48.0001 </r>
       <r>   -21.9307    -0.0004    48.0000 </r>
       <r>   -21.7247    -0.0000    48.0000 </r>
       <r>   -21.5187    -0.0000    48.0000 </r>
       <r>   -21.3126    -0.0000    48.0000 </r>
       <r>   -21.1066     0.0000    48.0000 </r>
       <r>   -20.9006     0.0000    48.0000 </r>
       <r>   -20.6945     0.0000    48.0000 </r>
       <r>   -20.4885     0.0000    48.0000 </r>
       <r>   -20.2825     0.0000    48.0000 </r>
       <r>   -20.0764     0.0000    48.0000 </r>
       <r>   -19.8704     0.0000    48.0000 </r>
       <r>   -19.6644     0.0000    48.0000 </r>
       <r>   -19.4584     0.0000    48.0000 </r>
       <r>   -19.2523     0.0000    48.0000 </r>
       <r>   -19.0463     0.0000    48.0000 </r>
       <r>   -18.8403     0.0000    48.0000 </r>
       <r>   -18.6342     0.0000    48.0000 </r>
       <r>   -18.4282     0.0000    48.0000 </r>
       <r>   -18.2222     0.0000    48.0000 </r>
       <r>   -18.0162     0.0000    48.0000 </r>
       <r>   -17.8101     0.0000    48.0000 </r>
       <r>   -17.6041     0.0000    48.0000 </r>
       <r>   -17.3981     0.0000    48.0000 </r>
       <r>   -17.1920     0.0000    48.0000 </r>
       <r>   -16.9860     0.0000    48.0000 </r>
       <r>   -16.7800     0.0000    48.0000 </r>
       <r>   -16.5739     0.0000    48.0000 </r>
       <r>   -16.3679     0.0000    48.0000 </r>
       <r>   -16.1619     0.0000    48.0000 </r>
       <r>   -15.9559     0.0000    48.0000 </r>
       <r>   -15.7498     0.0000    48.0000 </r>
       <r>   -15.5438     0.0000    48.0000 </r>
       <r>   -15.3378     0.0000    48.0000 </r>
       <r>   -15.1317     0.0000    48.0000 </r>
       <r>   -14.9257     0.0000    48.0000 </r>
       <r>   -14.7197     0.0000    48.0000 </r>
       <r>   -14.5136     0.0000    48.0000 </r>
       <r>   -14.3076     0.0000    48.0000 </r>
       <r>   -14.1016     0.0000    48.0000 </r>
       <r>   -13.8956     0.0000    48.0000 </r>
       <r>   -13.6895     0.0000    48.0000 </r>
       <r>   -13.4835     0.0000    48.0000 </r>
       <r>   -13.2775     0.0000    48.0000 </r>
       <r>   -13.0714     0.0000    48.0000 </r>
       <r>   -12.8654     0.0000    48.0000 </r>
       <r>   -12.6594     0.0000    48.0000 </r>
       <r>   -12.4533     0.0000    48.0000 </r>
       <r>   -12.2473     0.0000    48.0000 </r>
       <r>   -12.0413     0.0000    48.0000 </r>
       <r>   -11.8353     0.0000    48.0000 </r>
       <r>   -11.6292     0.0000    48.0000 </r>
       <r>   -11.4232     0.0000    48.0000 </r>
       <r>   -11.2172     0.0000    48.0000 </r>
       <r>   -11.0111     0.0000    48.0000 </r>
       <r>   -10.8051     0.0000    48.0000 </r>
       <r>   -10.5991     0.0000    48.0000 </r>
       <r>   -10.3931     0.0000    48.0000 </r>
       <r>   -10.1870     0.0000    48.0000 </r>
       <r>    -9.9810     0.0000    48.0000 </r>
       <r>    -9.7750     0.0000    48.0000 </r>
       <r>    -9.5689     0.0000    48.0000 </r>
       <r>    -9.3629     0.0000    48.0000 </r>
       <r>    -9.1569     0.0000    48.0000 </r>
       <r>    -8.9508     0.0000    48.0000 </r>
       <r>    -8.7448     0.0000    48.0000 </r>
       <r>    -8.5388     0.0000    48.0000 </r>
       <r>    -8.3328     0.0000    48.0000 </r>
       <r>    -8.1267     0.0000    48.0000 </r>
       <r>    -7.9207     0.0000    48.0000 </r>
       <r>    -7.7147     0.0000    48.0000 </r>
       <r>    -7.5086     0.0000    48.0000 </r>
       <r>    -7.3026     0.0000    48.0000 </r>
       <r>    -7.0966     0.0000    48.0000 </r>
       <r>    -6.8905     0.0000    48.0000 </r>
       <r>    -6.6845     0.0000    48.0000 </r>
       <r>    -6.4785     0.0000    48.0000 </r>
       <r>    -6.2725     0.0000    48.0000 </r>
       <r>    -6.0664     0.0000    48.0000 </r>
       <r>    -5.8604     0.0000    48.0000 </r>
       <r>    -5.6544     0.0000    48.0000 </r>
       <r>    -5.4483     0.0000    48.0000 </r>
       <r>    -5.2423     0.0000    48.0000 </r>
       <r>    -5.0363     0.0000    48.0000 </r>
       <r>    -4.8303     0.0000    48.0000 </r>
       <r>    -4.6242     0.0000    48.0000 </r>
       <r>    -4.4182     0.0000    48.0000 </r>
       <r>    -4.2122     0.0000    48.0000 </r>
       <r>    -4.0061     0.0000    48.0000 </r>
       <r>    -3.8001     0.0000    48.0000 </r>
       <r>    -3.5941     0.0000    48.0000 </r>
       <r>    -3.3880     0.0000    48.0000 </r>
       <r>    -3.1820     0.0000    48.0000 </r>
       <r>    -2.9760     0.0000    48.0000 </r>
       <r>    -2.7700     0.0000    48.0000 </r>
       <r>    -2.5639     0.0000    48.0000 </r>
       <r>    -2.3579     0.0000    48.0000 </r>
       <r>    -2.1519     0.0000    48.0000 </r>
       <r>    -1.9458     0.0000    48.0000 </r>
       <r>    -1.7398    -0.0000    48.0000 </r>
       <r>    -1.5338    -0.0000    48.0000 </r>
       <r>    -1.3277    -0.0000    48.0000 </r>
       <r>    -1.1217    -0.0000    48.0000 </r>
       <r>    -0.9157    -0.0000    48.0000 </r>
       <r>    -0.7097    -0.0000    48.0000 </r>
       <r>    -0.5036    -0.0008    47.9998 </r>
       <r>    -0.2976    -0.0142    47.9969 </r>
       <r>    -0.0916     0.0567    48.0086 </r>
       <r>     0.1145     0.6518    48.1429 </r>
       <r>     0.3205     1.2220    48.3946 </r>
       <r>     0.5265     1.5454    48.7130 </r>
       <r>     0.7325     2.1260    49.1511 </r>
       <r>     0.9386     1.8042    49.5228 </r>
       <r>     1.1446     2.3708    50.0112 </r>
       <r>     1.3506     3.1757    50.6655 </r>
       <r>     1.5567     3.1601    51.3166 </r>
       <r>     1.7627     3.5172    52.0412 </r>
       <r>     1.9687     4.2259    52.9119 </r>
       <r>     2.1748     5.0968    53.9620 </r>
       <r>     2.3808     5.9965    55.1975 </r>
       <r>     2.5868     9.1972    57.0924 </r>
       <r>     2.7928    15.1190    60.2073 </r>
       <r>     2.9989    20.1338    64.3555 </r>
       <r>     3.2049    25.0872    69.5242 </r>
       <r>     3.4109    29.1102    75.5218 </r>
       <r>     3.6170    29.9346    81.6892 </r>
       <r>     3.8230    29.5798    87.7835 </r>
       <r>     4.0290    30.6225    94.0926 </r>
       <r>     4.2351    30.7485   100.4277 </r>
       <r>     4.4411    29.0606   106.4151 </r>
       <r>     4.6471    27.3319   112.0463 </r>
       <r>     4.8531    31.6554   118.5682 </r>
       <r>     5.0592    38.0535   126.4083 </r>
       <r>     5.2652    39.9993   134.6494 </r>
       <r>     5.4712    39.2508   142.7362 </r>
       <r>     5.6773    40.5789   151.0967 </r>
       <r>     5.8833    40.1903   159.3771 </r>
       <r>     6.0893    40.2334   167.6663 </r>
       <r>     6.2953    40.7185   176.0556 </r>
       <r>     6.5014    40.2751   184.3534 </r>
       <r>     6.7074    37.4470   192.0686 </r>
       <r>     6.9134    35.1406   199.3086 </r>
       <r>     7.1195    30.4593   205.5841 </r>
       <r>     7.3255    23.7498   210.4773 </r>
       <r>     7.5315    21.0044   214.8048 </r>
       <r>     7.7376    20.5497   219.0387 </r>
       <r>     7.9436    20.8742   223.3394 </r>
       <r>     8.1496    23.7206   228.2265 </r>
       <r>     8.3556    26.0344   233.5904 </r>
       <r>     8.5617    21.1875   237.9557 </r>
       <r>     8.7677     9.3805   239.8883 </r>
       <r>     8.9737     0.7439   240.0416 </r>
       <r>     9.1798    -0.1886   240.0027 </r>
       <r>     9.3858    -0.0130   240.0000 </r>
       <r>     9.5918    -0.0001   240.0000 </r>
       <r>     9.7979    -0.0000   240.0000 </r>
       <r>    10.0039    -0.0000   240.0000 </r>
       <r>    10.2099    -0.0000   240.0000 </r>
       <r>    10.4159     0.0000   240.0000 </r>
       <r>    10.6220     0.0000   240.0000 </r>
       <r>    10.8280     0.0000   240.0000 </r>
       <r>    11.0340     0.0000   240.0000 </r>
       <r>    11.2401     0.0000   240.0000 </r>
       <r>    11.4461     0.0000   240.0000 </r>
       <r>    11.6521     0.0000   240.0000 </r>
      </set>
     </set>
    </array>
   </total>
  </dos>
 </calculation>
 <structure name="finalpos" >
  <crystal>
   <varray name="basis" >
    <v>      -3.16541986      -3.17718864      -3.17947201 </v>
    <v>       1.58296632       1.46566918      -7.82726244 </v>
    <v>       7.89627871      -7.84060991      -1.67247378 </v>
   </varray>
   <i name="volume">    466.24025300 </i>
   <varray name="rec_basis" >
    <v>      -0.13688609      -0.12688475      -0.05144291 </v>
    <v>       0.04207109       0.06520260      -0.10704093 </v>
    <v>       0.06333375      -0.06393607       0.00083632 </v>
   </varray>
  </crystal>
  <varray name="positions" >
   <v>       0.96590161       0.93995795       0.39779237 </v>
   <v>       0.63459329       0.26850604       0.40454805 </v>
   <v>       0.50253284       0.00890288      -0.01121872 </v>
   <v>       0.00328590      -0.00291301      -0.00369498 </v>
   <v>       0.07937335       0.19410791       0.79468038 </v>
   <v>       0.04132971       0.06235559       0.59923954 </v>
   <v>       0.90815393       0.80370887       0.20303353 </v>
   <v>       0.80794531       0.59552350       0.40415999 </v>
   <v>       0.73048459       0.47424137       0.20394150 </v>
   <v>       0.66941402       0.34085775      -0.00505326 </v>
   <v>       0.36619042       0.71778521       0.60694074 </v>
   <v>       0.13761026       0.27959465       0.40173541 </v>
   <v>       0.82479016       0.65896911       0.00986427 </v>
   <v>       0.97054937       0.81147697       0.80027275 </v>
   <v>       0.56576884       0.14690407       0.19084378 </v>
   <v>       0.40661905       0.80335595       0.19768600 </v>
   <v>       0.45086559       0.85158006       0.79779294 </v>
   <v>       0.30251182       0.60288336       0.41031188 </v>
   <v>       0.84039610       0.72756400       0.59597168 </v>
   <v>       0.46712773       0.93949817       0.40590008 </v>
   <v>       0.19012426       0.36862006      -0.04014974 </v>
   <v>       0.21127953       0.40618555       0.63057987 </v>
   <v>       0.06528847       0.16092628       0.19610451 </v>
   <v>       0.68718462       0.51083517       0.80760159 </v>
   <v>       0.70879922       0.39734755       0.60217927 </v>
   <v>       0.59085403       0.19585082       0.78805953 </v>
   <v>       0.54519746       0.06718248       0.60900145 </v>
   <v>       0.32972923       0.65479872       0.00363946 </v>
   <v>       0.22943261       0.48005963       0.19823612 </v>
  </varray>
 </structure>
</modeling>
