Nb - Mo - Ta - Ti - V SQS               
           1
    -3.160000   -3.160000   -3.160000
     1.580000    1.580000   -7.900000
     7.900000   -7.900000   -1.580000
   Nb   Mo   Ta   Ti   V 
   6   6   6   5   6
Direct configuration=     1
   0.96666667  0.93333333  0.40000000
   0.63333333  0.26666667  0.40000000
   0.50000000  0.00000000  0.00000000
   0.00000000  0.00000000  0.00000000
   0.10000000  0.20000000  0.80000000
   0.03333333  0.06666667  0.60000000
   0.90000000  0.80000000  0.20000000
   0.80000000  0.60000000  0.40000000
   0.73333333  0.46666667  0.20000000
   0.66666667  0.33333333  0.00000000
   0.36666667  0.73333333  0.60000000
   0.13333333  0.26666667  0.40000000
   0.83333333  0.66666667  0.00000000
   0.93333333  0.86666667  0.80000000
   0.56666667  0.13333333  0.20000000
   0.40000000  0.80000000  0.20000000
   0.43333333  0.86666667  0.80000000
   0.30000000  0.60000000  0.40000000
   0.86666667  0.73333333  0.60000000
   0.46666667  0.93333333  0.40000000
   0.16666667  0.33333333  0.00000000
   0.20000000  0.40000000  0.60000000
   0.06666667  0.13333333  0.20000000
   0.76666667  0.53333333  0.80000000
   0.70000000  0.40000000  0.60000000
   0.60000000  0.20000000  0.80000000
   0.53333333  0.06666667  0.60000000
   0.33333333  0.66666667  0.00000000
   0.23333333  0.46666667  0.20000000
Nb - Mo - Ta - Ti - V SQS               
           1
    -3.148002   -3.132610   -3.141536
     1.554464    1.563278   -7.831276
     7.872136   -7.851175   -1.553249
   Nb   Mo   Ta   Ti   V 
   6   6   6   5   6
Direct configuration=     2
   0.96404487  0.93312790  0.39921630
   0.63149168  0.26708560  0.40195076
   0.49945143  0.00217385 -0.00220703
  -0.00158241  0.00090144  0.00001463
   0.09412779  0.20307230  0.79775397
   0.03400966  0.06869211  0.59943045
   0.90412012  0.79686123  0.20125710
   0.80337914  0.59524942  0.40026428
   0.73273929  0.46717180  0.19784747
   0.66665088  0.33766556 -0.00077672
   0.37086513  0.72946020  0.60187641
   0.13339444  0.27071310  0.39954287
   0.83085993  0.66351746  0.00279800
   0.93238158  0.86372426  0.79918419
   0.56440214  0.13574199  0.19774102
   0.40243434  0.79455302  0.19827138
   0.44149231  0.86286385  0.79748372
   0.29998458  0.60045876  0.40280656
   0.85934834  0.73296915  0.59790328
   0.46597097  0.93273783  0.40271258
   0.16872434  0.33677403 -0.00114374
   0.20083248  0.39819411  0.60153917
   0.06614453  0.13836250  0.20255889
   0.76374094  0.53021311  0.80093053
   0.70090764  0.40294990  0.59989300
   0.60115604  0.20256209  0.79939222
   0.53519449  0.06824515  0.60258524
   0.33613391  0.66195167 -0.00005014
   0.23093275  0.46867326  0.19922362
Nb - Mo - Ta - Ti - V SQS               
           1
    -3.142414   -3.119852   -3.132935
     1.542570    1.555489   -7.799264
     7.859157   -7.828432   -1.540788
   Nb   Mo   Ta   Ti   V 
   6   6   6   5   6
Direct configuration=     3
   0.96281495  0.93303133  0.39884821
   0.63063164  0.26728368  0.40286313
   0.49918837  0.00319516 -0.00323978
  -0.00232484  0.00132554  0.00002099
   0.09136884  0.20451680  0.79670077
   0.03432371  0.06964417  0.59916470
   0.90605624  0.79538529  0.20184659
   0.80496775  0.59301526  0.40038828
   0.73245659  0.46740848  0.19683978
   0.66663802  0.33970232 -0.00113916
   0.37283975  0.72763921  0.60275562
   0.13341846  0.27261560  0.39932999
   0.82970869  0.66203819  0.00410571
   0.93193685  0.86234047  0.79880111
   0.56333457  0.13687393  0.19668324
   0.40357728  0.79199068  0.19746194
   0.44531519  0.86107349  0.79630866
   0.29998191  0.60067569  0.40412036
   0.85591517  0.73279802  0.59691839
   0.46565030  0.93245907  0.40398180
   0.16968341  0.33839114 -0.00167726
   0.20122705  0.39734550  0.60225953
   0.06589962  0.14072848  0.20375773
   0.76237436  0.52874673  0.80136393
   0.70133004  0.40433683  0.59984410
   0.60169434  0.20376641  0.79910893
   0.53606984  0.06898822  0.60379661
   0.33745078  0.65973419 -0.00007356
   0.22980444  0.46961679  0.19885964
Nb - Mo - Ta - Ti - V SQS               
           1
    -3.165088   -3.133267   -3.153608
     1.540705    1.555896   -7.831437
     7.915638   -7.870733   -1.542123
   Nb   Mo   Ta   Ti   V 
   6   6   6   5   6
Direct configuration=     4
   0.96097117  0.93327471  0.39831047
   0.62973537  0.26728360  0.40393707
   0.49882347  0.00454888 -0.00495907
  -0.00309727  0.00211807 -0.00014344
   0.08755144  0.20654971  0.79531048
   0.03500649  0.07076843  0.59872877
   0.90830730  0.79361687  0.20247927
   0.80691004  0.59034557  0.40064209
   0.73204693  0.46701406  0.19609417
   0.66604700  0.34249153 -0.00211529
   0.37564238  0.72432330  0.60432777
   0.13325118  0.27497540  0.39923908
   0.82863865  0.66088313  0.00547181
   0.93355223  0.85900189  0.79820767
   0.56186659  0.13847870  0.19534568
   0.40508077  0.78926321  0.19646420
   0.44894249  0.85865070  0.79487318
   0.30034402  0.60089462  0.40627551
   0.85055530  0.73241136  0.59553899
   0.46520207  0.93209554  0.40570741
   0.17202226  0.34103846 -0.00302649
   0.20219404  0.39624273  0.60376480
   0.06549491  0.14421228  0.20536042
   0.75969978  0.52626850  0.80195680
   0.70183120  0.40644322  0.60011841
   0.60169476  0.20637941  0.79848109
   0.53782192  0.07015446  0.60591178
   0.33897733  0.65571894 -0.00053342
   0.22821948  0.47121937  0.19823078
Nb - Mo - Ta - Ti - V SQS               
           1
    -3.175261   -3.139286   -3.162882
     1.539869    1.556078   -7.845871
     7.940977   -7.889711   -1.542722
   Nb   Mo   Ta   Ti   V 
   6   6   6   5   6
Direct configuration=     5
   0.96014811  0.93338381  0.39807026
   0.62933674  0.26728379  0.40441564
   0.49865782  0.00515412 -0.00572560
  -0.00344260  0.00247256 -0.00021691
   0.08584577  0.20745923  0.79468977
   0.03530961  0.07127097  0.59853466
   0.90931341  0.79282582  0.20276182
   0.80777880  0.58915157  0.40075559
   0.73186380  0.46683772  0.19576162
   0.66578005  0.34373871 -0.00255047
   0.37689675  0.72284029  0.60502921
   0.13317449  0.27603056  0.39919865
   0.82816379  0.66036694  0.00608053
   0.93427491  0.85750880  0.79794330
   0.56120916  0.13919641  0.19474907
   0.40575261  0.78804336  0.19601959
   0.45056082  0.85756670  0.79423398
   0.30050754  0.60099258  0.40723647
   0.84816376  0.73223929  0.59492260
   0.46500424  0.93193318  0.40647661
   0.17306175  0.34222168 -0.00362726
   0.20262779  0.39574959  0.60443608
   0.06531310  0.14577016  0.20607507
   0.75850964  0.52516090  0.80222029
   0.70205320  0.40738499  0.60024097
   0.60169209  0.20754773  0.79820134
   0.53860451  0.07067576  0.60685533
   0.33966109  0.65392332 -0.00073830
   0.22751061  0.47193616  0.19795010
Nb - Mo - Ta - Ti - V SQS               
           1
    -3.175632   -3.141440   -3.167381
     1.538263    1.549484   -7.847632
     7.937609   -7.887396   -1.548276
   Nb   Mo   Ta   Ti   V 
   6   6   6   5   6
Direct configuration=     6
   0.95996878  0.93376524  0.39792382
   0.62971037  0.26703490  0.40413412
   0.49898795  0.00500305 -0.00620446
  -0.00349226  0.00273785 -0.00049035
   0.08573357  0.20700618  0.79479815
   0.03588589  0.07092588  0.59847979
   0.90870923  0.79327095  0.20255866
   0.80745399  0.58975880  0.40067849
   0.73162854  0.46626540  0.19669245
   0.66547298  0.34342539 -0.00294855
   0.37671141  0.72185241  0.60538898
   0.13301571  0.27572813  0.39957462
   0.82828895  0.66187943  0.00571772
   0.93696950  0.85577932  0.79795134
   0.56148006  0.13915387  0.19472731
   0.40580006  0.78874715  0.19608662
   0.44904064  0.85760867  0.79453253
   0.30097733  0.60103327  0.40765823
   0.84707094  0.73215154  0.59479415
   0.46480100  0.93195574  0.40650577
   0.17438018  0.34284672 -0.00449202
   0.20327965  0.39570934  0.60501009
   0.06507722  0.14629717  0.20601149
   0.75691194  0.52468285  0.80235320
   0.70225335  0.40759235  0.60051887
   0.60089578  0.20857580  0.79786637
   0.53950875  0.07088001  0.60756062
   0.33934937  0.65260373 -0.00126194
   0.22746244  0.47239555  0.19787393
Nb - Mo - Ta - Ti - V SQS               
           1
    -3.176744   -3.147903   -3.180875
     1.533444    1.529701   -7.852914
     7.927506   -7.880452   -1.564936
   Nb   Mo   Ta   Ti   V 
   6   6   6   5   6
Direct configuration=     7
   0.95942996  0.93491030  0.39748405
   0.63083187  0.26628816  0.40328937
   0.49997895  0.00455023 -0.00764151
  -0.00364171  0.00353449 -0.00131120
   0.08539857  0.20564655  0.79512386
   0.03761503  0.06988981  0.59831524
   0.90689646  0.79460770  0.20194875
   0.80647809  0.59158150  0.40044663
   0.73092387  0.46454648  0.19948657
   0.66455389  0.34248617 -0.00414283
   0.37615863  0.71888741  0.60646970
   0.13254019  0.27482005  0.40070327
   0.82865947  0.66641880  0.00462743
   0.94505473  0.85058669  0.79797621
   0.56229250  0.13902600  0.19466197
   0.40593981  0.79085898  0.19628710
   0.44448211  0.85773556  0.79542899
   0.30238522  0.60115416  0.40892376
   0.84379481  0.73188950  0.59440914
   0.46419153  0.93202361  0.40659334
   0.17833230  0.34472266 -0.00708827
   0.20523352  0.39558690  0.60673254
   0.06436825  0.14787900  0.20582023
   0.75212298  0.52324960  0.80275308
   0.70285238  0.40821393  0.60135260
   0.59850508  0.21166231  0.79686039
   0.54221828  0.07149080  0.60967675
   0.33842001  0.64864499 -0.00283207
   0.22731655  0.47377433  0.19764492
Nb - Mo - Ta - Ti - V SQS               
           1
    -3.176998   -3.149380   -3.183961
     1.532343    1.525178   -7.854122
     7.925196   -7.878864   -1.568745
   Nb   Mo   Ta   Ti   V 
   6   6   6   5   6
Direct configuration=     8
   0.95930621  0.93517263  0.39738318
   0.63108870  0.26611737  0.40309610
   0.50020595  0.00444697 -0.00797040
  -0.00367619  0.00371716 -0.00149924
   0.08532308  0.20533535  0.79519873
   0.03801058  0.06965240  0.59827767
   0.90648183  0.79491425  0.20180901
   0.80625397  0.59199891  0.40039324
   0.73076352  0.46415214  0.20012651
   0.66434522  0.34227193 -0.00441590
   0.37603446  0.71820858  0.60671774
   0.13243202  0.27461189  0.40096183
   0.82874079  0.66745795  0.00437687
   0.94690426  0.84939660  0.79798240
   0.56247806  0.13899659  0.19464698
   0.40596998  0.79134213  0.19633252
   0.44344125  0.85776525  0.79563450
   0.30270608  0.60118099  0.40921327
   0.84304737  0.73183043  0.59432133
   0.46405233  0.93203924  0.40661341
   0.17923368  0.34515213 -0.00768320
   0.20567905  0.39555774  0.60712664
   0.06420524  0.14824122  0.20577617
   0.75103092  0.52292251  0.80284528
   0.70298836  0.40835570  0.60154324
   0.59795728  0.21236958  0.79662966
   0.54283558  0.07162911  0.61016074
   0.33821150  0.64773993 -0.00319049
   0.22728223  0.47408998  0.19759222
Nb - Mo - Ta - Ti - V SQS               
           1
    -3.172198   -3.149366   -3.182069
     1.528963    1.509892   -7.833281
     7.902223   -7.858425   -1.577020
   Nb   Mo   Ta   Ti   V 
   6   6   6   5   6
Direct configuration=     9
   0.95969783  0.93540929  0.39732979
   0.63141025  0.26592797  0.40331001
   0.50037928  0.00501648 -0.00833724
  -0.00351511  0.00387096 -0.00196386
   0.08561511  0.20421274  0.79536475
   0.03914635  0.06865170  0.59859044
   0.90602094  0.79613780  0.20142286
   0.80574724  0.59295499  0.40054557
   0.73036286  0.46564238  0.20020723
   0.66539662  0.34205825 -0.00440799
   0.37460527  0.71690094  0.60752629
   0.13296164  0.27427747  0.40144133
   0.82822449  0.66702965  0.00471015
   0.94904062  0.84618249  0.79752438
   0.56272068  0.13850000  0.19416427
   0.40563090  0.79220231  0.19653079
   0.44499891  0.85742961  0.79626359
   0.30258153  0.60129598  0.40887416
   0.84202929  0.73174354  0.59439987
   0.46365916  0.93246022  0.40642249
   0.17989775  0.34679670 -0.00951493
   0.20662626  0.39585797  0.60853124
   0.06406028  0.14904166  0.20533719
   0.74724394  0.52267078  0.80325903
   0.70359994  0.40789470  0.60186809
   0.59581679  0.21370423  0.79592288
   0.54411576  0.07185061  0.61095430
   0.33799640  0.64655894 -0.00416829
   0.22726237  0.47438632  0.19789159
Nb - Mo - Ta - Ti - V SQS               
           1
    -3.166067   -3.149347   -3.179654
     1.524646    1.490368   -7.806662
     7.872883   -7.832321   -1.587588
   Nb   Mo   Ta   Ti   V 
   6   6   6   5   6
Direct configuration=    10
   0.96019804  0.93571264  0.39726103
   0.63182130  0.26568493  0.40358403
   0.50060029  0.00574687 -0.00880767
  -0.00330892  0.00406877 -0.00255911
   0.08599009  0.20277388  0.79557835
   0.04059938  0.06736882  0.59899155
   0.90543024  0.79770637  0.20092731
   0.80509772  0.59417994  0.40073993
   0.72984809  0.46755196  0.20030931
   0.66674083  0.34178441 -0.00439806
   0.37277980  0.71522398  0.60856363
   0.13363857  0.27384818  0.40205555
   0.82756489  0.66648028  0.00513759
   0.95177729  0.84206438  0.79694009
   0.56303223  0.13786437  0.19354646
   0.40519580  0.79330429  0.19678402
   0.44698963  0.85699851  0.79706900
   0.30242256  0.60144385  0.40843978
   0.84072807  0.73163207  0.59450095
   0.46315613  0.93300000  0.40617772
   0.18074597  0.34890701 -0.01186269
   0.20783468  0.39624052  0.61032947
   0.06387418  0.15006807  0.20477427
   0.74240352  0.52234757  0.80379062
   0.70438202  0.40730343  0.60228434
   0.59307949  0.21541568  0.79501723
   0.54575067  0.07213322  0.61196990
   0.33772470  0.64504706 -0.00541933
   0.22723610  0.47476562  0.19827471
Nb - Mo - Ta - Ti - V SQS               
           1
    -3.167968   -3.149353   -3.180403
     1.525984    1.496421   -7.814915
     7.881979   -7.840414   -1.584311
   Nb   Mo   Ta   Ti   V 
   6   6   6   5   6
Direct configuration=    11
   0.96004295  0.93561815  0.39728258
   0.63169371  0.26576074  0.40349875
   0.50053191  0.00551922 -0.00866106
  -0.00337303  0.00400689 -0.00237383
   0.08587303  0.20322199  0.79551151
   0.04014793  0.06776846  0.59886654
   0.90561420  0.79721773  0.20108189
   0.80530001  0.59379863  0.40067976
   0.73000890  0.46695744  0.20027807
   0.66632354  0.34186968 -0.00440107
   0.37334580  0.71574662  0.60824016
   0.13342851  0.27398214  0.40186441
   0.82776945  0.66665154  0.00500435
   0.95092560  0.84334633  0.79712096
   0.56293497  0.13806198  0.19373852
   0.40533151  0.79296130  0.19670552
   0.44637193  0.85713314  0.79681853
   0.30247180  0.60139760  0.40857495
   0.84113185  0.73166682  0.59446931
   0.46331242  0.93283181  0.40625398
   0.18048297  0.34824880 -0.01113151
   0.20746057  0.39612229  0.60977026
   0.06393226  0.14974821  0.20494969
   0.74390566  0.52244846  0.80362455
   0.70413916  0.40748773  0.60215475
   0.59392951  0.21488235  0.79529919
   0.54524386  0.07204572  0.61165421
   0.33780772  0.64551719 -0.00503059
   0.22724460  0.47464771  0.19815563
Nb - Mo - Ta - Ti - V SQS               
           1
    -3.171116   -3.155051   -3.184178
     1.527861    1.491548   -7.817042
     7.884568   -7.843798   -1.591667
   Nb   Mo   Ta   Ti   V 
   6   6   6   5   6
Direct configuration=    12
   0.96034411  0.93570002  0.39730398
   0.63184991  0.26571847  0.40368624
   0.50053674  0.00593922 -0.00881999
  -0.00315814  0.00397787 -0.00262681
   0.08599970  0.20273192  0.79556374
   0.04071594  0.06724722  0.59906236
   0.90549564  0.79783685  0.20092817
   0.80504119  0.59418539  0.40082712
   0.72989513  0.46781225  0.20019177
   0.66694837  0.34181569 -0.00433089
   0.37253248  0.71506076  0.60867867
   0.13377872  0.27390044  0.40204819
   0.82749009  0.66608619  0.00524389
   0.95197673  0.84156363  0.79688518
   0.56296975  0.13791640  0.19349005
   0.40506045  0.79344386  0.19674005
   0.44745948  0.85689974  0.79710264
   0.30220590  0.60144004  0.40833284
   0.84071988  0.73160754  0.59454331
   0.46315478  0.93310976  0.40615341
   0.18063476  0.34919970 -0.01217426
   0.20787365  0.39640360  0.61062275
   0.06391299  0.15018098  0.20465593
   0.74189932  0.52235224  0.80384680
   0.70445969  0.40709550  0.60230697
   0.59272291  0.21544837  0.79490928
   0.54585212  0.07210221  0.61198760
   0.33770619  0.64514993 -0.00547349
   0.22725486  0.47474091  0.19831448
Nb - Mo - Ta - Ti - V SQS               
           1
    -3.180558   -3.172147   -3.195503
     1.533490    1.476928   -7.823425
     7.892334   -7.853950   -1.613733
   Nb   Mo   Ta   Ti   V 
   6   6   6   5   6
Direct configuration=    13
   0.96124623  0.93594566  0.39736791
   0.63231766  0.26559135  0.40424846
   0.50055081  0.00719955 -0.00929713
  -0.00251395  0.00389138 -0.00338551
   0.08637979  0.20126164  0.79572094
   0.04241814  0.06568327  0.59965001
   0.90513978  0.79969449  0.20046644
   0.80426503  0.59534531  0.40126868
   0.72955319  0.47037684  0.19993193
   0.66882031  0.34165375 -0.00412067
   0.37009620  0.71300201  0.60999496
   0.13482781  0.27365504  0.40259926
   0.82665361  0.66438953  0.00596308
   0.95512870  0.83621629  0.79617990
   0.56307451  0.13748016  0.19274512
   0.40424763  0.79489139  0.19684313
   0.45071765  0.85619932  0.79795441
   0.30140952  0.60156778  0.40760686
   0.83948562  0.73142940  0.59476550
   0.46268221  0.93394376  0.40585155
   0.18108961  0.35205458 -0.01530263
   0.20910965  0.39724592  0.61317868
   0.06385505  0.15147989  0.20377443
   0.73588826  0.52206251  0.80451443
   0.70542033  0.40591859  0.60276379
   0.58910773  0.21714686  0.79373987
   0.54767391  0.07227117  0.61298703
   0.33740312  0.64404899 -0.00680115
   0.22728524  0.47502023  0.19879072
Nb - Mo - Ta - Ti - V SQS               
           1
    -3.181678   -3.173528   -3.195755
     1.535191    1.477490   -7.825118
     7.895430   -7.856443   -1.615097
   Nb   Mo   Ta   Ti   V 
   6   6   6   5   6
Direct configuration=    14
   0.96135385  0.93594373  0.39741051
   0.63243005  0.26569911  0.40422872
   0.50057993  0.00723002 -0.00930777
  -0.00230085  0.00363561 -0.00343153
   0.08607179  0.20145904  0.79563866
   0.04235827  0.06576060  0.59962192
   0.90524579  0.79956555  0.20060226
   0.80425038  0.59505705  0.40135445
   0.72968419  0.47012332  0.20001581
   0.66873459  0.34168292 -0.00407419
   0.37016268  0.71288582  0.60994669
   0.13476814  0.27394831  0.40248627
   0.82663306  0.66433883  0.00593492
   0.95558635  0.83589040  0.79638608
   0.56308206  0.13788456  0.19279100
   0.40424099  0.79502973  0.19666597
   0.45050194  0.85615460  0.79780428
   0.30117472  0.60155499  0.40768238
   0.83939504  0.73136923  0.59475779
   0.46281999  0.93403005  0.40589755
   0.18104304  0.35221022 -0.01550278
   0.20896022  0.39750032  0.61340407
   0.06389884  0.15160647  0.20367397
   0.73579356  0.52197820  0.80454839
   0.70543477  0.40571582  0.60271612
   0.58913593  0.21680746  0.79369548
   0.54765003  0.07212387  0.61289753
   0.33735881  0.64445397 -0.00654209
   0.22728518  0.47502688  0.19869757
Nb - Mo - Ta - Ti - V SQS               
           1
    -3.185037   -3.177671   -3.196511
     1.540293    1.479178   -7.830197
     7.904721   -7.863920   -1.619189
   Nb   Mo   Ta   Ti   V 
   6   6   6   5   6
Direct configuration=    15
   0.96167660  0.93593794  0.39753823
   0.63276717  0.26602232  0.40416948
   0.50066729  0.00732142 -0.00933965
  -0.00166194  0.00286859 -0.00356950
   0.08514822  0.20205100  0.79539187
   0.04217877  0.06599253  0.59953767
   0.90556364  0.79917883  0.20100960
   0.80420628  0.59419247  0.40161173
   0.73007692  0.46936298  0.20026739
   0.66847753  0.34177036 -0.00393480
   0.37036198  0.71253738  0.60980194
   0.13458939  0.27482786  0.40214736
   0.82657139  0.66418678  0.00585048
   0.95695863  0.83491309  0.79700443
   0.56310499  0.13909739  0.19292852
   0.40422115  0.79544470  0.19613464
   0.44985498  0.85602047  0.79735406
   0.30047054  0.60151654  0.40790886
   0.83912337  0.73118872  0.59473469
   0.46323322  0.93428889  0.40603548
   0.18090346  0.35267704 -0.01610306
   0.20851226  0.39826319  0.61407997
   0.06403025  0.15198615  0.20337265
   0.73550951  0.52172531  0.80465024
   0.70547793  0.40510770  0.60257323
   0.58922028  0.21578958  0.79356240
   0.54757830  0.07168211  0.61262915
   0.33722623  0.64566843 -0.00576529
   0.22728499  0.47504689  0.19841822
Nb - Mo - Ta - Ti - V SQS               
           1
    -3.191756   -3.185956   -3.198024
     1.550499    1.482554   -7.840356
     7.923301   -7.878874   -1.627371
   Nb   Mo   Ta   Ti   V 
   6   6   6   5   6
Direct configuration=    16
   0.96232147  0.93592651  0.39779338
   0.63344113  0.26666844  0.40405096
   0.50084194  0.00750415 -0.00940341
  -0.00038646  0.00133643 -0.00384489
   0.08330369  0.20323345  0.79489867
   0.04182042  0.06645592  0.59936928
   0.90619828  0.79840599  0.20182356
   0.80411709  0.59246462  0.40212611
   0.73086065  0.46784373  0.20077031
   0.66796410  0.34194482 -0.00365633
   0.37075968  0.71184135  0.60951287
   0.13423332  0.27658554  0.40146990
   0.82644797  0.66388296  0.00568185
   0.95969925  0.83296065  0.79824010
   0.56315241  0.14152086  0.19320276
   0.40418194  0.79627427  0.19507295
   0.44856211  0.85575234  0.79645470
   0.29906362  0.60143906  0.40836144
   0.83858034  0.73082786  0.59468864
   0.46405921  0.93480630  0.40631089
   0.18062505  0.35361020 -0.01730252
   0.20761840  0.39978682  0.61543006
   0.06429323  0.15274514  0.20277047
   0.73494168  0.52121970  0.80485388
   0.70556335  0.40389266  0.60228799
   0.58938744  0.21375573  0.79329696
   0.54743436  0.07079950  0.61209316
   0.33696309  0.64809461 -0.00421382
   0.22728457  0.47508706  0.19786010
Nb - Mo - Ta - Ti - V SQS               
           1
    -3.187555   -3.180776   -3.197078
     1.544118    1.480443   -7.834004
     7.911683   -7.869524   -1.622255
   Nb   Mo   Ta   Ti   V 
   6   6   6   5   6
Direct configuration=    17
   0.96191906  0.93593349  0.39763422
   0.63302008  0.26626482  0.40412513
   0.50073282  0.00739000 -0.00936357
  -0.00118105  0.00229211 -0.00367339
   0.08445375  0.20249595  0.79520659
   0.04204367  0.06616676  0.59947444
   0.90580279  0.79888846  0.20131554
   0.80417408  0.59354335  0.40180470
   0.73037278  0.46879190  0.20045617
   0.66828429  0.34183626 -0.00383006
   0.37051213  0.71227550  0.60969307
   0.13445417  0.27548830  0.40189303
   0.82652525  0.66407257  0.00578698
   0.95799057  0.83417871  0.79746878
   0.56312082  0.14000831  0.19303230
   0.40420588  0.79575603  0.19573559
   0.44936918  0.85591985  0.79701568
   0.29994151  0.60148820  0.40807895
   0.83891948  0.73105331  0.59471724
   0.46354335  0.93448313  0.40613924
   0.18079818  0.35302734 -0.01655391
   0.20817472  0.39883677  0.61458804
   0.06412860  0.15227103  0.20314640
   0.73529638  0.52153561  0.80472665
   0.70551108  0.40465089  0.60246564
   0.58928482  0.21502501  0.79346205
   0.54752497  0.07135023  0.61242734
   0.33712509  0.64658104 -0.00518120
   0.22728488  0.47506174  0.19820834
Nb - Mo - Ta - Ti - V SQS               
           1
    -3.186447   -3.179952   -3.195482
     1.544582    1.479842   -7.830874
     7.908999   -7.866377   -1.622615
   Nb   Mo   Ta   Ti   V 
   6   6   6   5   6
Direct configuration=    18
   0.96202994  0.93593511  0.39766822
   0.63309011  0.26633087  0.40411894
   0.50078123  0.00741789 -0.00939718
  -0.00100957  0.00209628 -0.00370052
   0.08416796  0.20260714  0.79514789
   0.04200646  0.06619371  0.59945075
   0.90586918  0.79881187  0.20142255
   0.80414899  0.59335199  0.40186053
   0.73045635  0.46867573  0.20050182
   0.66822876  0.34185464 -0.00379833
   0.37052278  0.71219770  0.60963917
   0.13444143  0.27571720  0.40180186
   0.82648440  0.66401464  0.00582252
   0.95831936  0.83383670  0.79762327
   0.56316693  0.14031734  0.19304913
   0.40423648  0.79584798  0.19563125
   0.44930179  0.85589087  0.79689645
   0.29979596  0.60149048  0.40812222
   0.83883546  0.73099912  0.59472678
   0.46365872  0.93455508  0.40616797
   0.18079014  0.35319423 -0.01676562
   0.20805078  0.39909181  0.61482035
   0.06417412  0.15239017  0.20303090
   0.73511191  0.52144907  0.80477814
   0.70552247  0.40445359  0.60241581
   0.58931737  0.21467473  0.79341966
   0.54749934  0.07122644  0.61233791
   0.33706051  0.64696134 -0.00493280
   0.22727394  0.47508295  0.19814038
Nb - Mo - Ta - Ti - V SQS               
           1
    -3.183123   -3.177483   -3.190694
     1.545976    1.478037   -7.821484
     7.900944   -7.856936   -1.623694
   Nb   Mo   Ta   Ti   V 
   6   6   6   5   6
Direct configuration=    19
   0.96236269  0.93593998  0.39777026
   0.63330030  0.26652911  0.40410034
   0.50092653  0.00750163 -0.00949807
  -0.00049502  0.00150862 -0.00378192
   0.08331035  0.20294079  0.79497172
   0.04189478  0.06627461  0.59937965
   0.90606837  0.79858198  0.20174371
   0.80407363  0.59277768  0.40202812
   0.73070711  0.46832712  0.20063882
   0.66806210  0.34190977 -0.00370311
   0.37055474  0.71196423  0.60947742
   0.13440330  0.27640416  0.40152818
   0.82636178  0.66384077  0.00592921
   0.95930593  0.83281033  0.79808693
   0.56330547  0.14124477  0.19309958
   0.40432834  0.79612396  0.19531808
   0.44909952  0.85580394  0.79653865
   0.29935919  0.60149728  0.40825209
   0.83858330  0.73083649  0.59475542
   0.46400497  0.93477102  0.40625414
   0.18076608  0.35369514 -0.01740105
   0.20767896  0.39985710  0.61551750
   0.06431077  0.15274778  0.20268423
   0.73455829  0.52118931  0.80493270
   0.70555657  0.40386148  0.60226629
   0.58941489  0.21362353  0.79329251
   0.54742238  0.07085497  0.61206955
   0.33686688  0.64810251 -0.00418739
   0.22724112  0.47514662  0.19793643
Nb - Mo - Ta - Ti - V SQS               
           1
    -3.176475   -3.172544   -3.181118
     1.548763    1.474427   -7.802704
     7.884834   -7.838056   -1.625853
   Nb   Mo   Ta   Ti   V 
   6   6   6   5   6
Direct configuration=    20
   0.96302889  0.93594980  0.39797452
   0.63372129  0.26692612  0.40406301
   0.50121747  0.00766941 -0.00970012
   0.00053460  0.00033234 -0.00394471
   0.08159367  0.20360857  0.79461895
   0.04167128  0.06643659  0.59923726
   0.90646699  0.79812155  0.20238681
   0.80392228  0.59162766  0.40236392
   0.73120882  0.46762915  0.20091325
   0.66772850  0.34202001 -0.00351244
   0.37061848  0.71149694  0.60915366
   0.13432755  0.27777973  0.40097993
   0.82611615  0.66349251  0.00614290
   0.96128018  0.83075545  0.79901562
   0.56358365  0.14310162  0.19320020
   0.40451247  0.79667679  0.19469092
   0.44869447  0.85563010  0.79582229
   0.29848479  0.60151061  0.40851216
   0.83807833  0.73051074  0.59481287
   0.46469836  0.93520345  0.40642656
   0.18071829  0.35469852 -0.01867351
   0.20693528  0.40138860  0.61691306
   0.06458462  0.15346408  0.20198997
   0.73344972  0.52066887  0.80524232
   0.70562430  0.40267614  0.60196715
   0.58960921  0.21151904  0.79303835
   0.54726794  0.07011142  0.61153241
   0.33648029  0.65038662 -0.00269538
   0.22717546  0.47527423  0.19752806
Nb - Mo - Ta - Ti - V SQS               
           1
    -3.180578   -3.175592   -3.187028
     1.547043    1.476655   -7.814295
     7.894777   -7.849708   -1.624521
   Nb   Mo   Ta   Ti   V 
   6   6   6   5   6
Direct configuration=    21
   0.96261688  0.93594365  0.39784822
   0.63346073  0.26668045  0.40408623
   0.50103746  0.00756547 -0.00957508
  -0.00010149  0.00105951 -0.00384425
   0.08265496  0.20319583  0.79483721
   0.04180942  0.06633640  0.59932536
   0.90622070  0.79840652  0.20198893
   0.80401649  0.59233913  0.40215591
   0.73089891  0.46806084  0.20074336
   0.66793474  0.34195200 -0.00363037
   0.37057933  0.71178579  0.60935381
   0.13437367  0.27692871  0.40131940
   0.82626823  0.66370807  0.00601062
   0.96006033  0.83202630  0.79844079
   0.56341060  0.14195315  0.19313846
   0.40439833  0.79633452  0.19507901
   0.44894510  0.85573738  0.79626532
   0.29902552  0.60150272  0.40835124
   0.83839079  0.73071237  0.59477722
   0.46426930  0.93493590  0.40632007
   0.18074736  0.35407735 -0.01788617
   0.20739428  0.40044224  0.61605018
   0.06441491  0.15302065  0.20241961
   0.73413556  0.52099119  0.80505060
   0.70558307  0.40340910  0.60215188
   0.58949020  0.21282048  0.79319503
   0.54736388  0.07057108  0.61186446
   0.33671805  0.64897473 -0.00361770
   0.22721602  0.47519513  0.19778069
Nb - Mo - Ta - Ti - V SQS               
           1
    -3.180156   -3.175857   -3.187044
     1.548333    1.476210   -7.815263
     7.894118   -7.848836   -1.626439
   Nb   Mo   Ta   Ti   V 
   6   6   6   5   6
Direct configuration=    22
   0.96276142  0.93598452  0.39788897
   0.63342240  0.26662964  0.40414138
   0.50112723  0.00763074 -0.00968708
   0.00005205  0.00096728 -0.00382563
   0.08237788  0.20312263  0.79481966
   0.04179839  0.06623709  0.59930712
   0.90624894  0.79845525  0.20205657
   0.80394704  0.59239860  0.40217587
   0.73093390  0.46822202  0.20072388
   0.66791962  0.34194276 -0.00364572
   0.37042516  0.71177722  0.60927535
   0.13454308  0.27701014  0.40125681
   0.82623385  0.66362095  0.00618068
   0.96025374  0.83142907  0.79849043
   0.56345569  0.14213476  0.19309287
   0.40446290  0.79641165  0.19516121
   0.44920092  0.85576436  0.79622396
   0.29900871  0.60154380  0.40832547
   0.83834402  0.73066259  0.59484255
   0.46440306  0.93500855  0.40629886
   0.18081469  0.35437946 -0.01825851
   0.20731243  0.40078353  0.61643567
   0.06452714  0.15313517  0.20219739
   0.73360347  0.52085740  0.80515033
   0.70559888  0.40311470  0.60209094
   0.58951533  0.21230102  0.79311801
   0.54730263  0.07046263  0.61171757
   0.33652470  0.64942349 -0.00330794
   0.22721406  0.47525564  0.19775335
Nb - Mo - Ta - Ti - V SQS               
           1
    -3.178888   -3.176650   -3.187094
     1.552206    1.474874   -7.818167
     7.892142   -7.846219   -1.632194
   Nb   Mo   Ta   Ti   V 
   6   6   6   5   6
Direct configuration=    23
   0.96319507  0.93610706  0.39801118
   0.63330739  0.26647722  0.40430688
   0.50139660  0.00782663 -0.01002315
   0.00051268  0.00069061 -0.00376976