  29  29   0   0
  0.1679057E+02  0.5525242E-09  0.8287863E-09  0.1139058E-08  0.5000000E-15
  1.000000000000000E-004
  CAR 
 SQS with 1 vacancy for VFE and VRV      
     12.06362917    -50.37326647  301      6.80185300      1.00000000
    -50.373  0.0000E+00  0.0000E+00
    -50.165  0.0000E+00  0.0000E+00
    -49.957  0.0000E+00  0.0000E+00
    -49.749  0.0000E+00  0.0000E+00
    -49.541  0.0000E+00  0.0000E+00
    -49.333 -0.3962E-35 -0.8246E-36
    -49.125 -0.1581E-27 -0.3290E-28
    -48.916 -0.7107E-21 -0.1479E-21
    -48.708 -0.3474E-15 -0.7231E-16
    -48.500 -0.1921E-10 -0.3998E-11
    -48.292 -0.1148E-06 -0.2389E-07
    -48.084 -0.7093E-04 -0.1479E-04
    -47.876 -0.3926E-02 -0.8319E-03
    -47.668  0.1408E-02 -0.5388E-03
    -47.460  0.2079E+00  0.4273E-01
    -47.251  0.5244E+00  0.1519E+00
    -47.043  0.2977E+00  0.2138E+00
    -46.835  0.1231E+00  0.2394E+00
    -46.627  0.5691E-02  0.2406E+00
    -46.419 -0.2938E-02  0.2400E+00
    -46.211 -0.4875E-04  0.2400E+00
    -46.003 -0.6916E-07  0.2400E+00
    -45.795 -0.1011E-10  0.2400E+00
    -45.586 -0.1707E-15  0.2400E+00
    -45.378  0.0000E+00  0.2400E+00
    -45.170  0.0000E+00  0.2400E+00
    -44.962  0.0000E+00  0.2400E+00
    -44.754  0.0000E+00  0.2400E+00
    -44.546  0.0000E+00  0.2400E+00
    -44.338  0.0000E+00  0.2400E+00
    -44.130  0.0000E+00  0.2400E+00
    -43.921  0.0000E+00  0.2400E+00
    -43.713  0.0000E+00  0.2400E+00
    -43.505  0.0000E+00  0.2400E+00
    -43.297  0.0000E+00  0.2400E+00
    -43.089  0.0000E+00  0.2400E+00
    -42.881  0.0000E+00  0.2400E+00
    -42.673  0.0000E+00  0.2400E+00
    -42.465  0.0000E+00  0.2400E+00
    -42.256  0.0000E+00  0.2400E+00
    -42.048  0.0000E+00  0.2400E+00
    -41.840  0.0000E+00  0.2400E+00
    -41.632  0.0000E+00  0.2400E+00
    -41.424  0.0000E+00  0.2400E+00
    -41.216  0.0000E+00  0.2400E+00
    -41.008  0.0000E+00  0.2400E+00
    -40.800  0.0000E+00  0.2400E+00
    -40.591  0.0000E+00  0.2400E+00
    -40.383  0.0000E+00  0.2400E+00
    -40.175  0.0000E+00  0.2400E+00
    -39.967  0.0000E+00  0.2400E+00
    -39.759  0.0000E+00  0.2400E+00
    -39.551  0.0000E+00  0.2400E+00
    -39.343  0.0000E+00  0.2400E+00
    -39.135  0.0000E+00  0.2400E+00
    -38.927  0.0000E+00  0.2400E+00
    -38.718  0.0000E+00  0.2400E+00
    -38.510  0.0000E+00  0.2400E+00
    -38.302  0.0000E+00  0.2400E+00
    -38.094  0.0000E+00  0.2400E+00
    -37.886  0.0000E+00  0.2400E+00
    -37.678  0.0000E+00  0.2400E+00
    -37.470  0.0000E+00  0.2400E+00
    -37.262  0.0000E+00  0.2400E+00
    -37.053  0.0000E+00  0.2400E+00
    -36.845  0.0000E+00  0.2400E+00
    -36.637  0.0000E+00  0.2400E+00
    -36.429  0.0000E+00  0.2400E+00
    -36.221  0.0000E+00  0.2400E+00
    -36.013  0.0000E+00  0.2400E+00
    -35.805  0.0000E+00  0.2400E+00
    -35.597  0.0000E+00  0.2400E+00
    -35.388  0.0000E+00  0.2400E+00
    -35.180  0.0000E+00  0.2400E+00
    -34.972  0.0000E+00  0.2400E+00
    -34.764  0.0000E+00  0.2400E+00
    -34.556  0.0000E+00  0.2400E+00
    -34.348  0.0000E+00  0.2400E+00
    -34.140  0.0000E+00  0.2400E+00
    -33.932  0.0000E+00  0.2400E+00
    -33.723  0.0000E+00  0.2400E+00
    -33.515  0.0000E+00  0.2400E+00
    -33.307  0.0000E+00  0.2400E+00
    -33.099  0.0000E+00  0.2400E+00
    -32.891  0.0000E+00  0.2400E+00
    -32.683  0.0000E+00  0.2400E+00
    -32.475  0.0000E+00  0.2400E+00
    -32.267  0.0000E+00  0.2400E+00
    -32.058  0.0000E+00  0.2400E+00
    -31.850  0.0000E+00  0.2400E+00
    -31.642  0.0000E+00  0.2400E+00
    -31.434  0.0000E+00  0.2400E+00
    -31.226  0.0000E+00  0.2400E+00
    -31.018  0.0000E+00  0.2400E+00
    -30.810  0.0000E+00  0.2400E+00
    -30.602  0.0000E+00  0.2400E+00
    -30.393  0.0000E+00  0.2400E+00
    -30.185  0.0000E+00  0.2400E+00
    -29.977  0.0000E+00  0.2400E+00
    -29.769  0.0000E+00  0.2400E+00
    -29.561  0.0000E+00  0.2400E+00
    -29.353  0.0000E+00  0.2400E+00
    -29.145  0.0000E+00  0.2400E+00
    -28.937  0.0000E+00  0.2400E+00
    -28.728  0.0000E+00  0.2400E+00
    -28.520  0.0000E+00  0.2400E+00
    -28.312  0.0000E+00  0.2400E+00
    -28.104  0.0000E+00  0.2400E+00
    -27.896  0.0000E+00  0.2400E+00
    -27.688  0.0000E+00  0.2400E+00
    -27.480  0.0000E+00  0.2400E+00
    -27.272  0.0000E+00  0.2400E+00
    -27.063  0.0000E+00  0.2400E+00
    -26.855  0.0000E+00  0.2400E+00
    -26.647  0.0000E+00  0.2400E+00
    -26.439  0.0000E+00  0.2400E+00
    -26.231  0.0000E+00  0.2400E+00
    -26.023  0.0000E+00  0.2400E+00
    -25.815 -0.2310E-35  0.2400E+00
    -25.607 -0.8129E-28  0.2400E+00
    -25.399 -0.3225E-21  0.2400E+00
    -25.190 -0.1393E-15  0.2400E+00
    -24.982 -0.6828E-11  0.2400E+00
    -24.774 -0.3668E-07  0.2400E+00
    -24.566 -0.2121E-04  0.2400E+00
    -24.358 -0.1265E-02  0.2397E+00
    -24.150 -0.4726E-02  0.2387E+00
    -23.942  0.6172E-01  0.2516E+00
    -23.734  0.4116E+00  0.3373E+00
    -23.525  0.9651E+00  0.5381E+00
    -23.317  0.1026E+01  0.7515E+00
    -23.109  0.6954E+00  0.8963E+00
    -22.901  0.2319E+00  0.9446E+00
    -22.693  0.5854E-01  0.9567E+00
    -22.485  0.1822E-01  0.9605E+00
    -22.277 -0.2412E-02  0.9600E+00
    -22.069 -0.1710E-03  0.9600E+00
    -21.860 -0.8906E-06  0.9600E+00
    -21.652 -0.4734E-09  0.9600E+00
    -21.444 -0.2704E-13  0.9600E+00
    -21.236  0.0000E+00  0.9600E+00
    -21.028  0.0000E+00  0.9600E+00
    -20.820  0.0000E+00  0.9600E+00
    -20.612  0.0000E+00  0.9600E+00
    -20.404  0.0000E+00  0.9600E+00
    -20.195  0.0000E+00  0.9600E+00
    -19.987  0.0000E+00  0.9600E+00
    -19.779  0.0000E+00  0.9600E+00
    -19.571  0.0000E+00  0.9600E+00
    -19.363  0.0000E+00  0.9600E+00
    -19.155  0.0000E+00  0.9600E+00
    -18.947  0.0000E+00  0.9600E+00
    -18.739  0.0000E+00  0.9600E+00
    -18.530  0.0000E+00  0.9600E+00
    -18.322  0.0000E+00  0.9600E+00
    -18.114  0.0000E+00  0.9600E+00
    -17.906  0.0000E+00  0.9600E+00
    -17.698  0.0000E+00  0.9600E+00
    -17.490  0.0000E+00  0.9600E+00
    -17.282  0.0000E+00  0.9600E+00
    -17.074  0.0000E+00  0.9600E+00
    -16.865  0.0000E+00  0.9600E+00
    -16.657  0.0000E+00  0.9600E+00
    -16.449  0.0000E+00  0.9600E+00
    -16.241  0.0000E+00  0.9600E+00
    -16.033  0.0000E+00  0.9600E+00
    -15.825  0.0000E+00  0.9600E+00
    -15.617  0.0000E+00  0.9600E+00
    -15.409  0.0000E+00  0.9600E+00
    -15.200  0.0000E+00  0.9600E+00
    -14.992  0.0000E+00  0.9600E+00
    -14.784  0.0000E+00  0.9600E+00
    -14.576  0.0000E+00  0.9600E+00
    -14.368  0.0000E+00  0.9600E+00
    -14.160  0.0000E+00  0.9600E+00
    -13.952  0.0000E+00  0.9600E+00
    -13.744  0.0000E+00  0.9600E+00
    -13.535  0.0000E+00  0.9600E+00
    -13.327  0.0000E+00  0.9600E+00
    -13.119  0.0000E+00  0.9600E+00
    -12.911  0.0000E+00  0.9600E+00
    -12.703  0.0000E+00  0.9600E+00
    -12.495  0.0000E+00  0.9600E+00
    -12.287  0.0000E+00  0.9600E+00
    -12.079  0.0000E+00  0.9600E+00
    -11.871  0.0000E+00  0.9600E+00
    -11.662  0.0000E+00  0.9600E+00
    -11.454  0.0000E+00  0.9600E+00
    -11.246  0.0000E+00  0.9600E+00
    -11.038  0.0000E+00  0.9600E+00
    -10.830  0.0000E+00  0.9600E+00
    -10.622  0.0000E+00  0.9600E+00
    -10.414  0.0000E+00  0.9600E+00
    -10.206  0.0000E+00  0.9600E+00
     -9.997  0.0000E+00  0.9600E+00
     -9.789  0.0000E+00  0.9600E+00
     -9.581  0.0000E+00  0.9600E+00
     -9.373  0.0000E+00  0.9600E+00
     -9.165  0.0000E+00  0.9600E+00
     -8.957  0.0000E+00  0.9600E+00
     -8.749  0.0000E+00  0.9600E+00
     -8.541  0.0000E+00  0.9600E+00
     -8.332  0.0000E+00  0.9600E+00
     -8.124  0.0000E+00  0.9600E+00
     -7.916  0.0000E+00  0.9600E+00
     -7.708  0.0000E+00  0.9600E+00
     -7.500  0.0000E+00  0.9600E+00
     -7.292  0.0000E+00  0.9600E+00
     -7.084  0.0000E+00  0.9600E+00
     -6.876  0.0000E+00  0.9600E+00
     -6.667  0.0000E+00  0.9600E+00
     -6.459  0.0000E+00  0.9600E+00
     -6.251  0.0000E+00  0.9600E+00
     -6.043  0.0000E+00  0.9600E+00
     -5.835  0.0000E+00  0.9600E+00
     -5.627  0.0000E+00  0.9600E+00
     -5.419  0.0000E+00  0.9600E+00
     -5.211  0.0000E+00  0.9600E+00
     -5.002  0.0000E+00  0.9600E+00
     -4.794  0.0000E+00  0.9600E+00
     -4.586  0.0000E+00  0.9600E+00
     -4.378  0.0000E+00  0.9600E+00
     -4.170  0.0000E+00  0.9600E+00
     -3.962  0.0000E+00  0.9600E+00
     -3.754  0.0000E+00  0.9600E+00
     -3.546  0.0000E+00  0.9600E+00
     -3.337  0.0000E+00  0.9600E+00
     -3.129  0.0000E+00  0.9600E+00
     -2.921  0.0000E+00  0.9600E+00
     -2.713  0.0000E+00  0.9600E+00
     -2.505  0.0000E+00  0.9600E+00
     -2.297 -0.2121E-34  0.9600E+00
     -2.089 -0.3913E-27  0.9600E+00
     -1.881 -0.8177E-21  0.9600E+00
     -1.672 -0.1872E-15  0.9600E+00
     -1.464 -0.4947E-11  0.9600E+00
     -1.256 -0.1467E-07  0.9600E+00
     -1.048 -0.4806E-05  0.9600E+00
     -0.840 -0.1556E-03  0.9600E+00
     -0.632  0.2622E-03  0.9600E+00
     -0.424  0.7281E-02  0.9615E+00
     -0.216  0.2050E-01  0.9658E+00
     -0.008  0.3268E-01  0.9726E+00
      0.201  0.3452E-01  0.9798E+00
      0.409  0.2698E-01  0.9854E+00
      0.617  0.5648E-01  0.9972E+00
      0.825  0.6676E-01  0.1011E+01
      1.033  0.5333E-01  0.1022E+01
      1.241  0.6133E-01  0.1035E+01
      1.449  0.8487E-01  0.1053E+01
      1.657  0.7959E-01  0.1069E+01
      1.866  0.8970E-01  0.1088E+01
      2.074  0.1333E+00  0.1116E+01
      2.282  0.1892E+00  0.1155E+01
      2.490  0.2741E+00  0.1212E+01
      2.698  0.3710E+00  0.1289E+01
      2.906  0.4171E+00  0.1376E+01
      3.114  0.4961E+00  0.1479E+01
      3.322  0.5830E+00  0.1601E+01
      3.531  0.6125E+00  0.1728E+01
      3.739  0.5905E+00  0.1851E+01
      3.947  0.5871E+00  0.1973E+01
      4.155  0.5717E+00  0.2092E+01
      4.363  0.4946E+00  0.2195E+01
      4.571  0.4803E+00  0.2295E+01
      4.779  0.6923E+00  0.2439E+01
      4.987  0.8013E+00  0.2606E+01
      5.196  0.7990E+00  0.2772E+01
      5.404  0.7725E+00  0.2933E+01
      5.612  0.7316E+00  0.3085E+01
      5.820  0.7558E+00  0.3242E+01
      6.028  0.7681E+00  0.3402E+01
      6.236  0.7662E+00  0.3562E+01
      6.444  0.7605E+00  0.3720E+01
      6.652  0.6967E+00  0.3865E+01
      6.861  0.6265E+00  0.3995E+01
      7.069  0.5540E+00  0.4111E+01
      7.277  0.4479E+00  0.4204E+01
      7.485  0.3411E+00  0.4275E+01
      7.693  0.3198E+00  0.4342E+01
      7.901  0.3448E+00  0.4413E+01
      8.109  0.3645E+00  0.4489E+01
      8.317  0.4220E+00  0.4577E+01
      8.526  0.4328E+00  0.4667E+01
      8.734  0.3444E+00  0.4739E+01
      8.942  0.1975E+00  0.4780E+01
      9.150  0.8362E-01  0.4797E+01
      9.358  0.1461E-01  0.4800E+01
      9.566 -0.1434E-02  0.4800E+01
      9.774 -0.2476E-03  0.4800E+01
      9.982 -0.2902E-05  0.4800E+01
     10.191 -0.3622E-08  0.4800E+01
     10.399 -0.5076E-12  0.4800E+01
     10.607 -0.8535E-17  0.4800E+01
     10.815  0.0000E+00  0.4800E+01
     11.023  0.0000E+00  0.4800E+01
     11.231  0.0000E+00  0.4800E+01
     11.439  0.0000E+00  0.4800E+01
     11.647  0.0000E+00  0.4800E+01
     11.856  0.0000E+00  0.4800E+01
     12.064  0.0000E+00  0.4800E+01
