   29   29   50    1
  0.1679057E+02  0.5525242E-09  0.8287863E-09  0.1139058E-08  0.5000000E-15
  1.000000000000000E-004
  CAR 
 SQS with 1 vacancy for VFE and VRV      
    198     63    120
 
  0.0000000E+00  0.0000000E+00  0.0000000E+00  0.8000000E-02
    1      -47.535226   1.000000
    2      -47.406153   1.000000
    3      -47.328125   1.000000
    4      -47.291651   1.000000
    5      -47.219891   1.000000
    6      -46.974244   1.000000
    7      -24.029039   1.000000
    8      -23.826052   1.000000
    9      -23.747826   1.000000
   10      -23.661135   1.000000
   11      -23.649688   1.000000
   12      -23.615655   1.000000
   13      -23.555083   1.000000
   14      -23.522384   1.000000
   15      -23.470217   1.000000
   16      -23.443539   1.000000
   17      -23.416485   1.000000
   18      -23.385200   1.000000
   19      -23.323313   1.000000
   20      -23.292532   1.000000
   21      -23.185517   1.000000
   22      -23.151319   1.000000
   23      -23.118301   1.000000
   24      -22.717308   1.000000
   25       -0.573406   1.000000
   26        0.891298   1.000000
   27        1.090470   1.000000
   28        1.984450   1.000000
   29        2.077838   1.000000
   30        2.177475   1.000000
   31        2.300156   1.000000
   32        2.326624   1.000000
   33        2.511990   1.000000
   34        2.613345   1.000000
   35        2.665713   1.000000
   36        2.741939   1.000000
   37        2.775398   1.000000
   38        2.846827   1.000000
   39        2.995001   1.000000
   40        3.102667   1.000000
   41        3.148763   1.000000
   42        3.247627   1.000000
   43        3.274253   1.000000
   44        3.372858   1.000000
   45        3.452089   1.000000
   46        3.502724   1.000000
   47        3.560817   1.000000
   48        3.642611   1.000000
   49        3.666737   1.000000
   50        3.735145   1.000000
   51        3.827953   1.000000
   52        3.936816   1.000000
   53        4.014694   1.000000
   54        4.065787   1.000000
   55        4.085655   1.000000
   56        4.157327   1.000000
   57        4.326276   1.000000
   58        4.443394   1.000000
   59        4.459909   1.000000
   60        4.629701   1.000000
   61        4.699814   1.000000
   62        4.719087   1.000000
   63        4.746437   1.000000
   64        4.772714   1.000000
   65        4.887779   1.000000
   66        4.948178   1.000000
   67        4.964856   1.000000
   68        5.045949   1.000000
   69        5.073888   1.000000
   70        5.130523   1.000000
   71        5.196327   1.000000
   72        5.210682   1.000000
   73        5.228866   1.000000
   74        5.331852   1.000000
   75        5.367682   1.000000
   76        5.403564   1.000000
   77        5.562574   1.000000
   78        5.704149   1.000000
   79        5.705451   1.000000
   80        5.726208   1.000000
   81        5.801026   1.000000
   82        5.885322   1.000000
   83        5.972417   1.000000
   84        5.998675   1.000000
   85        6.093952   1.000003
   86        6.186722   1.000061
   87        6.236812   1.000240
   88        6.306546   1.001285
   89        6.318739   1.001675
   90        6.360811   1.003899
   91        6.495694   1.026260
   92        6.546447   1.035066
   93        6.624890   1.008679
   94        6.673724   0.937419
   95        6.839362   0.344339
   96        6.843445   0.328161
   97        6.862323   0.256636
   98        6.941246   0.041190
   99        7.011327  -0.029370
  100        7.119347  -0.023646
  101        7.131530  -0.020846
  102        7.190569  -0.009552
  103        7.322270  -0.000725
  104        7.466073  -0.000014
  105        7.684269  -0.000000
  106        7.703733  -0.000000
  107        7.827488  -0.000000
  108        7.991439  -0.000000
  109        8.071458  -0.000000
  110        8.424727  -0.000000
  111        8.497866  -0.000000
  112        8.570439  -0.000000
  113        8.653595  -0.000000
  114        8.667299  -0.000000
  115        8.717007  -0.000000
  116        8.901925  -0.000000
  117        8.983636  -0.000000
  118        9.089026  -0.000000
  119        9.123777  -0.000000
  120        9.179718  -0.000000
 
  0.2000000E+00 -0.1387779E-16  0.0000000E+00  0.1600000E-01
    1      -47.535006   1.000000
    2      -47.401176   1.000000
    3      -47.327527   1.000000
    4      -47.291306   1.000000
    5      -47.219490   1.000000
    6      -46.979655   1.000000
    7      -23.927159   1.000000
    8      -23.823597   1.000000
    9      -23.745396   1.000000
   10      -23.656613   1.000000
   11      -23.650704   1.000000
   12      -23.616830   1.000000
   13      -23.559144   1.000000
   14      -23.517380   1.000000
   15      -23.477388   1.000000
   16      -23.448356   1.000000
   17      -23.420467   1.000000
   18      -23.391216   1.000000
   19      -23.328819   1.000000
   20      -23.294939   1.000000
   21      -23.190837   1.000000
   22      -23.158075   1.000000
   23      -23.117151   1.000000
   24      -22.836771   1.000000
   25       -0.255977   1.000000
   26        1.144491   1.000000
   27        1.368434   1.000000
   28        2.069270   1.000000
   29        2.274106   1.000000
   30        2.386086   1.000000
   31        2.458603   1.000000
   32        2.621843   1.000000
   33        2.644751   1.000000
   34        2.754836   1.000000
   35        2.847798   1.000000
   36        2.892380   1.000000
   37        2.983491   1.000000
   38        3.049213   1.000000
   39        3.154465   1.000000
   40        3.188969   1.000000
   41        3.290600   1.000000
   42        3.307943   1.000000
   43        3.366806   1.000000
   44        3.463459   1.000000
   45        3.529669   1.000000
   46        3.632473   1.000000
   47        3.662815   1.000000
   48        3.796519   1.000000
   49        3.852386   1.000000
   50        3.914271   1.000000
   51        3.933952   1.000000
   52        4.017020   1.000000
   53        4.075572   1.000000
   54        4.155430   1.000000
   55        4.236915   1.000000
   56        4.285409   1.000000
   57        4.403191   1.000000
   58        4.496412   1.000000
   59        4.561846   1.000000
   60        4.680827   1.000000
   61        4.714931   1.000000
   62        4.762094   1.000000
   63        4.850689   1.000000
   64        4.875554   1.000000
   65        4.956408   1.000000
   66        4.980977   1.000000
   67        5.064181   1.000000
   68        5.111027   1.000000
   69        5.157967   1.000000
   70        5.196186   1.000000
   71        5.261985   1.000000
   72        5.296286   1.000000
   73        5.355596   1.000000
   74        5.377944   1.000000
   75        5.439146   1.000000
   76        5.452202   1.000000
   77        5.505382   1.000000
   78        5.586295   1.000000
   79        5.650759   1.000000
   80        5.711044   1.000000
   81        5.741375   1.000000
   82        5.843702   1.000000
   83        5.910840   1.000000
   84        5.964117   1.000000
   85        6.011125   1.000000
   86        6.105141   1.000005
   87        6.202399   1.000095
   88        6.233209   1.000218
   89        6.304936   1.001240
   90        6.324517   1.001892
   91        6.364493   1.004177
   92        6.400440   1.007814
   93        6.490585   1.025086
   94        6.540778   1.034562
   95        6.609870   1.020452
   96        6.700261   0.874438
   97        6.730496   0.781685
   98        6.784393   0.573569
   99        6.886910   0.173653
  100        6.931532   0.059450
  101        7.007923  -0.027997
  102        7.061939  -0.034663
  103        7.094849  -0.029181
  104        7.303895  -0.001106
  105        7.350732  -0.000363
  106        7.414916  -0.000065
  107        7.556866  -0.000001
  108        7.676896  -0.000000
  109        7.812143  -0.000000
  110        7.909095  -0.000000
  111        7.985790  -0.000000
  112        8.087632  -0.000000
  113        8.214192  -0.000000
  114        8.280348  -0.000000
  115        8.349125  -0.000000
  116        8.429195  -0.000000
  117        8.525894  -0.000000
  118        8.615193  -0.000000
  119        8.677866  -0.000000
  120        8.765214  -0.000000
 
  0.4000000E+00 -0.2775558E-16  0.0000000E+00  0.1600000E-01
    1      -47.534650   1.000000
    2      -47.392832   1.000000
    3      -47.326556   1.000000
    4      -47.290750   1.000000
    5      -47.218864   1.000000
    6      -46.988678   1.000000
    7      -23.824042   1.000000
    8      -23.748291   1.000000
    9      -23.699269   1.000000
   10      -23.655567   1.000000
   11      -23.622796   1.000000
   12      -23.608028   1.000000
   13      -23.566522   1.000000
   14      -23.508882   1.000000
   15      -23.488804   1.000000
   16      -23.456267   1.000000
   17      -23.428722   1.000000
   18      -23.399269   1.000000
   19      -23.337908   1.000000
   20      -23.300445   1.000000
   21      -23.199831   1.000000
   22      -23.169239   1.000000
   23      -23.140337   1.000000
   24      -23.087686   1.000000
   25        0.558375   1.000000
   26        1.537318   1.000000
   27        2.013074   1.000000
   28        2.178055   1.000000
   29        2.371003   1.000000
   30        2.546008   1.000000
   31        2.647753   1.000000
   32        2.841136   1.000000
   33        2.952938   1.000000
   34        3.046347   1.000000
   35        3.152957   1.000000
   36        3.219129   1.000000
   37        3.312432   1.000000
   38        3.356502   1.000000
   39        3.382030   1.000000
   40        3.463600   1.000000
   41        3.535841   1.000000
   42        3.589147   1.000000
   43        3.634202   1.000000
   44        3.700357   1.000000
   45        3.782919   1.000000
   46        3.841095   1.000000
   47        3.950087   1.000000
   48        4.002151   1.000000
   49        4.069700   1.000000
   50        4.103089   1.000000
   51        4.133366   1.000000
   52        4.283547   1.000000
   53        4.346470   1.000000
   54        4.422995   1.000000
   55        4.493061   1.000000
   56        4.539519   1.000000
   57        4.604667   1.000000
   58        4.649354   1.000000
   59        4.677686   1.000000
   60        4.739993   1.000000
   61        4.788780   1.000000
   62        4.852084   1.000000
   63        4.894146   1.000000
   64        4.913622   1.000000
   65        4.981437   1.000000
   66        5.004459   1.000000
   67        5.049571   1.000000
   68        5.117245   1.000000
   69        5.202994   1.000000
   70        5.233756   1.000000
   71        5.244191   1.000000
   72        5.295214   1.000000
   73        5.378179   1.000000
   74        5.415591   1.000000
   75        5.441292   1.000000
   76        5.522081   1.000000
   77        5.601840   1.000000
   78        5.614857   1.000000
   79        5.681404   1.000000
   80        5.703969   1.000000
   81        5.754715   1.000000
   82        5.829715   1.000000
   83        5.892995   1.000000
   84        5.914924   1.000000
   85        5.989635   1.000000
   86        6.028723   1.000000
   87        6.077401   1.000002
   88        6.110142   1.000006
   89        6.140985   1.000015
   90        6.189761   1.000066
   91        6.276686   1.000648
   92        6.317637   1.001636
   93        6.341730   1.002693
   94        6.414725   1.009788
   95        6.459899   1.018124
   96        6.500676   1.027388
   97        6.532141   1.033473
   98        6.620787   1.012309
   99        6.671916   0.941065
  100        6.756969   0.684721
  101        6.854986   0.283732
  102        6.886664   0.174416
  103        6.948715   0.028716
  104        6.989101  -0.017183
  105        7.031609  -0.034474
  106        7.095211  -0.029104
  107        7.146682  -0.017508
  108        7.186935  -0.010097
  109        7.353307  -0.000340
  110        7.440146  -0.000031
  111        7.546118  -0.000001
  112        7.691790  -0.000000
  113        7.780816  -0.000000
  114        7.862349  -0.000000
  115        7.900338  -0.000000
  116        7.978301  -0.000000
  117        8.104750  -0.000000
  118        8.233230  -0.000000
  119        8.329066  -0.000000
  120        8.472783  -0.000000
 
  0.0000000E+00  0.2000000E+00  0.1387779E-16  0.1600000E-01
    1      -47.535144   1.000000
    2      -47.406149   1.000000
    3      -47.328134   1.000000
    4      -47.291725   1.000000
    5      -47.219885   1.000000
    6      -46.974242   1.000000
    7      -24.029052   1.000000
    8      -23.823188   1.000000
    9      -23.745335   1.000000
   10      -23.661189   1.000000
   11      -23.649793   1.000000
   12      -23.615718   1.000000
   13      -23.555200   1.000000
   14      -23.522511   1.000000
   15      -23.470204   1.000000
   16      -23.443438   1.000000
   17      -23.416656   1.000000
   18      -23.385593   1.000000
   19      -23.328501   1.000000
   20      -23.292706   1.000000
   21      -23.185515   1.000000
   22      -23.151394   1.000000
   23      -23.118337   1.000000
   24      -22.717313   1.000000
   25       -0.434835   1.000000
   26        0.903313   1.000000
   27        1.197115   1.000000
   28        1.582777   1.000000
   29        2.013347   1.000000
   30        2.214271   1.000000
   31        2.286198   1.000000
   32        2.470518   1.000000
   33        2.568553   1.000000
   34        2.626372   1.000000
   35        2.652646   1.000000
   36        2.736239   1.000000
   37        2.806576   1.000000
   38        2.868825   1.000000
   39        2.972698   1.000000
   40        3.050287   1.000000
   41        3.120937   1.000000
   42        3.162595   1.000000
   43        3.208229   1.000000
   44        3.336674   1.000000
   45        3.455020   1.000000
   46        3.512994   1.000000
   47        3.595593   1.000000
   48        3.687153   1.000000
   49        3.768303   1.000000
   50        3.802506   1.000000
   51        3.831328   1.000000
   52        3.905154   1.000000
   53        3.993616   1.000000
   54        4.065159   1.000000
   55        4.122942   1.000000
   56        4.170697   1.000000
   57        4.354599   1.000000
   58        4.492108   1.000000
   59        4.567111   1.000000
   60        4.633352   1.000000
   61        4.718278   1.000000
   62        4.769855   1.000000
   63        4.827022   1.000000
   64        4.853675   1.000000
   65        4.899959   1.000000
   66        4.964676   1.000000
   67        5.016656   1.000000
   68        5.064986   1.000000
   69        5.105859   1.000000
   70        5.156051   1.000000
   71        5.209454   1.000000
   72        5.238468   1.000000
   73        5.260900   1.000000
   74        5.325627   1.000000
   75        5.396234   1.000000
   76        5.477916   1.000000
   77        5.580378   1.000000
   78        5.678211   1.000000
   79        5.714560   1.000000
   80        5.771501   1.000000
   81        5.832834   1.000000
   82        5.888077   1.000000
   83        5.933540   1.000000
   84        5.983093   1.000000
   85        6.053978   1.000001
   86        6.149319   1.000020
   87        6.198913   1.000086
   88        6.246776   1.000310
   89        6.272155   1.000581
   90        6.304296   1.001223
   91        6.328527   1.002058
   92        6.389313   1.006494
   93        6.473796   1.021215
   94        6.632638   1.000914
   95        6.667865   0.948938
   96        6.779081   0.595666
   97        6.835623   0.359340
   98        6.885729   0.177335
   99        7.074427  -0.033039
  100        7.190200  -0.009607
  101        7.218944  -0.006007
  102        7.312186  -0.000916
  103        7.402165  -0.000093
  104        7.571000  -0.000000
  105        7.679682  -0.000000
  106        7.698780  -0.000000
  107        7.812247  -0.000000
  108        7.854392  -0.000000
  109        8.043431  -0.000000
  110        8.095883  -0.000000
  111        8.195041  -0.000000
  112        8.322003  -0.000000
  113        8.458247  -0.000000
  114        8.593337  -0.000000
  115        8.626575  -0.000000
  116        8.685720  -0.000000
  117        8.849239  -0.000000
  118        8.883670  -0.000000
  119        8.947520  -0.000000
  120        9.014630  -0.000000
 
  0.2000000E+00  0.2000000E+00 -0.4857226E-16  0.1600000E-01
    1      -47.535081   1.000000
    2      -47.401179   1.000000
    3      -47.327520   1.000000
    4      -47.291237   1.000000
    5      -47.219495   1.000000
    6      -46.979657   1.000000
    7      -23.927143   1.000000
    8      -23.826247   1.000000
    9      -23.747751   1.000000
   10      -23.656585   1.000000
   11      -23.650712   1.000000
   12      -23.616754   1.000000
   13      -23.558988   1.000000
   14      -23.517278   1.000000
   15      -23.477371   1.000000
   16      -23.448296   1.000000
   17      -23.420356   1.000000
   18      -23.390879   1.000000
   19      -23.323986   1.000000
   20      -23.294772   1.000000
   21      -23.190839   1.000000
   22      -23.157986   1.000000
   23      -23.117127   1.000000
   24      -22.836755   1.000000
   25       -0.245270   1.000000
   26        1.105026   1.000000
   27        1.394934   1.000000
   28        1.965655   1.000000
   29        2.274836   1.000000
   30        2.362152   1.000000
   31        2.412458   1.000000
   32        2.486986   1.000000
   33        2.628796   1.000000
   34        2.766943   1.000000
   35        2.796106   1.000000
   36        2.913246   1.000000
   37        2.983348   1.000000
   38        3.061489   1.000000
   39        3.096967   1.000000
   40        3.181541   1.000000
   41        3.278874   1.000000
   42        3.333833   1.000000
   43        3.398820   1.000000
   44        3.436668   1.000000
   45        3.580070   1.000000
   46        3.600168   1.000000
   47        3.697298   1.000000
   48        3.789335   1.000000
   49        3.813945   1.000000
   50        3.888283   1.000000
   51        3.986594   1.000000
   52        4.028164   1.000000
   53        4.058147   1.000000
   54        4.186010   1.000000
   55        4.243104   1.000000
   56        4.339880   1.000000
   57        4.452289   1.000000
   58        4.478188   1.000000
   59        4.540870   1.000000
   60        4.669132   1.000000
   61        4.728901   1.000000
   62        4.778257   1.000000
   63        4.856341   1.000000
   64        4.887157   1.000000
   65        4.935151   1.000000
   66        4.986151   1.000000
   67        5.022404   1.000000
   68        5.078559   1.000000
   69        5.110851   1.000000
   70        5.143990   1.000000
   71        5.195389   1.000000
   72        5.241609   1.000000
   73        5.287271   1.000000
   74        5.357754   1.000000
   75        5.401904   1.000000
   76        5.498321   1.000000
   77        5.519628   1.000000
   78        5.602201   1.000000
   79        5.647126   1.000000
   80        5.741524   1.000000
   81        5.810247   1.000000
   82        5.830760   1.000000
   83        5.895012   1.000000
   84        5.971248   1.000000
   85        6.032967   1.000000
   86        6.073453   1.000002
   87        6.177222   1.000046
   88        6.208184   1.000111
   89        6.292610   1.000940
   90        6.332402   1.002229
   91        6.402584   1.008089
   92        6.448376   1.015716
   93        6.497729   1.026723
   94        6.528643   1.032938
   95        6.682608   0.918313
   96        6.710939   0.844136
   97        6.807165   0.477531
   98        6.843095   0.329537
   99        6.948680   0.028773
  100        6.984126  -0.013316
  101        7.032352  -0.034572
  102        7.092307  -0.029717
  103        7.161327  -0.014533
  104        7.215531  -0.006370
  105        7.320301  -0.000759
  106        7.356374  -0.000315
  107        7.567703  -0.000000
  108        7.629614  -0.000000
  109        7.806471  -0.000000
  110        7.853085  -0.000000
  111        8.057329  -0.000000
  112        8.259012  -0.000000
  113        8.375530  -0.000000
  114        8.534918  -0.000000
  115        8.632861  -0.000000
  116        8.727989  -0.000000
  117        8.801700  -0.000000
  118        8.878682  -0.000000
  119        8.928805  -0.000000
  120        8.968471  -0.000000
 
  0.4000000E+00  0.2000000E+00 -0.5551115E-16  0.1600000E-01
    1      -47.534774   1.000000
    2      -47.392837   1.000000
    3      -47.326544   1.000000
    4      -47.290637   1.000000
    5      -47.218873   1.000000
    6      -46.988682   1.000000
    7      -23.827741   1.000000
    8      -23.752862   1.000000
    9      -23.699444   1.000000
   10      -23.655598   1.000000
   11      -23.622624   1.000000
   12      -23.607978   1.000000
   13      -23.566255   1.000000
   14      -23.508705   1.000000
   15      -23.488767   1.000000
   16      -23.456222   1.000000
   17      -23.428527   1.000000
   18      -23.398619   1.000000
   19      -23.329743   1.000000
   20      -23.300258   1.000000
   21      -23.199818   1.000000
   22      -23.169087   1.000000
   23      -23.140325   1.000000
   24      -23.087647   1.000000
   25        0.484372   1.000000
   26        1.536569   1.000000
   27        1.880538   1.000000
   28        2.116574   1.000000
   29        2.213091   1.000000
   30        2.450457   1.000000
   31        2.641972   1.000000
   32        2.917819   1.000000
   33        2.980720   1.000000
   34        3.116853   1.000000
   35        3.178498   1.000000
   36        3.281685   1.000000
   37        3.328590   1.000000
   38        3.406436   1.000000
   39        3.438231   1.000000
   40        3.511583   1.000000
   41        3.546562   1.000000
   42        3.606482   1.000000
   43        3.665356   1.000000
   44        3.711460   1.000000
   45        3.746342   1.000000
   46        3.816984   1.000000
   47        3.877345   1.000000
   48        3.935486   1.000000
   49        4.046200   1.000000
   50        4.067830   1.000000
   51        4.096539   1.000000
   52        4.211800   1.000000
   53        4.286152   1.000000
   54        4.359198   1.000000
   55        4.401691   1.000000
   56        4.490443   1.000000
   57        4.592963   1.000000
   58        4.617616   1.000000
   59        4.660532   1.000000
   60        4.740982   1.000000
   61        4.788021   1.000000
   62        4.820693   1.000000
   63        4.881417   1.000000
   64        4.925034   1.000000
   65        4.975611   1.000000
   66        5.009364   1.000000
   67        5.096096   1.000000
   68        5.109120   1.000000
   69        5.171690   1.000000
   70        5.256227   1.000000
   71        5.299121   1.000000
   72        5.353438   1.000000
   73        5.366449   1.000000
   74        5.436154   1.000000
   75        5.497943   1.000000
   76        5.543596   1.000000
   77        5.569640   1.000000
   78        5.632246   1.000000
   79        5.687156   1.000000
   80        5.721247   1.000000
   81        5.791413   1.000000
   82        5.825054   1.000000
   83        5.839169   1.000000
   84        5.886200   1.000000
   85        5.972409   1.000000
   86        5.995996   1.000000
   87        6.051529   1.000001
   88        6.106188   1.000005
   89        6.154198   1.000023
   90        6.217589   1.000144
   91        6.275874   1.000636
   92        6.285623   1.000800
   93        6.312828   1.001474
   94        6.382659   1.005792
   95        6.421125   1.010778
   96        6.455488   1.017183
   97        6.520249   1.031475
   98        6.573478   1.034276
   99        6.657290   0.967586
  100        6.693559   0.892019
  101        6.768668   0.638297
  102        6.811608   0.458776
  103        6.867881   0.236778
  104        6.961392   0.010544
  105        7.083495  -0.031468
  106        7.147371  -0.017362
  107        7.274430  -0.002090
  108        7.410444  -0.000073
  109        7.490785  -0.000006
  110        7.664747  -0.000000
  111        7.767235  -0.000000
  112        7.919907  -0.000000
  113        8.017300  -0.000000
  114        8.090777  -0.000000
  115        8.217474  -0.000000
  116        8.301886  -0.000000
  117        8.353262  -0.000000
  118        8.394464  -0.000000
  119        8.434893  -0.000000
  120        8.463044  -0.000000
 
 -0.4000000E+00  0.2000000E+00 -0.3908332E-16  0.1600000E-01
    1      -47.534647   1.000000
    2      -47.392831   1.000000
    3      -47.326557   1.000000
    4      -47.290753   1.000000
    5      -47.218864   1.000000
    6      -46.988678   1.000000
    7      -23.823948   1.000000
    8      -23.748234   1.000000
    9      -23.699244   1.000000
   10      -23.655647   1.000000
   11      -23.622793   1.000000
   12      -23.608024   1.000000
   13      -23.566503   1.000000
   14      -23.508895   1.000000
   15      -23.488777   1.000000
   16      -23.456185   1.000000
   17      -23.428741   1.000000
   18      -23.399307   1.000000
   19      -23.338119   1.000000
   20      -23.300442   1.000000
   21      -23.199832   1.000000
   22      -23.169237   1.000000
   23      -23.140330   1.000000
   24      -23.087689   1.000000
   25        0.808538   1.000000
   26        1.483129   1.000000
   27        1.721602   1.000000
   28        2.215722   1.000000
   29        2.275503   1.000000
   30        2.480140   1.000000
   31        2.677720   1.000000
   32        2.821670   1.000000
   33        2.968726   1.000000
   34        3.076634   1.000000
   35        3.145592   1.000000
   36        3.217686   1.000000
   37        3.263659   1.000000
   38        3.332300   1.000000
   39        3.394913   1.000000
   40        3.469132   1.000000
   41        3.503715   1.000000
   42        3.523907   1.000000
   43        3.631931   1.000000
   44        3.725035   1.000000
   45        3.780466   1.000000
   46        3.898618   1.000000
   47        3.956128   1.000000
   48        4.029430   1.000000
   49        4.126463   1.000000
   50        4.144365   1.000000
   51        4.188702   1.000000
   52        4.286800   1.000000
   53        4.396487   1.000000
   54        4.430325   1.000000
   55        4.475707   1.000000
   56        4.547109   1.000000
   57        4.604447   1.000000
   58        4.667273   1.000000
   59        4.700606   1.000000
   60        4.775797   1.000000
   61        4.799069   1.000000
   62        4.850653   1.000000
   63        4.880784   1.000000
   64        4.921770   1.000000
   65        4.937485   1.000000
   66        5.003356   1.000000
   67        5.063559   1.000000
   68        5.101115   1.000000
   69        5.131390   1.000000
   70        5.192424   1.000000
   71        5.239814   1.000000
   72        5.270603   1.000000
   73        5.344082   1.000000
   74        5.384333   1.000000
   75        5.455172   1.000000
   76        5.507600   1.000000
   77        5.609349   1.000000
   78        5.638228   1.000000
   79        5.695923   1.000000
   80        5.730581   1.000000
   81        5.789718   1.000000
   82        5.819985   1.000000
   83        5.874886   1.000000
   84        5.921175   1.000000
   85        5.935856   1.000000
   86        6.021915   1.000000
   87        6.056698   1.000001
   88        6.111664   1.000006
   89        6.158491   1.000026
   90        6.217707   1.000144
   91        6.260428   1.000437
   92        6.272252   1.000583
   93        6.351418   1.003259
   94        6.405749   1.008510
   95        6.490123   1.024979
   96        6.536123   1.034019
   97        6.563698   1.035272
   98        6.648347   0.981268
   99        6.682858   0.917747
  100        6.780819   0.588460
  101        6.805941   0.482707
  102        6.861178   0.260800
  103        6.905525   0.119985
  104        6.944110   0.036248
  105        7.016838  -0.031257
  106        7.090134  -0.030166
  107        7.160481  -0.014697
  108        7.218792  -0.006023
  109        7.357256  -0.000308
  110        7.421606  -0.000053
  111        7.560987  -0.000001
  112        7.708147  -0.000000
  113        7.815186  -0.000000
  114        7.868102  -0.000000
  115        8.036871  -0.000000
  116        8.098647  -0.000000
  117        8.261821  -0.000000
  118        8.301789  -0.000000
  119        8.338603  -0.000000
  120        8.413412  -0.000000
 
 -0.2000000E+00  0.2000000E+00  0.1006140E-15  0.1600000E-01
    1      -47.534876   1.000000
    2      -47.401170   1.000000
    3      -47.327541   1.000000
    4      -47.291425   1.000000
    5      -47.219481   1.000000
    6      -46.979651   1.000000
    7      -23.927182   1.000000
    8      -23.819280   1.000000
    9      -23.740864   1.000000
   10      -23.656726   1.000000
   11      -23.650826   1.000000
   12      -23.616943   1.000000
   13      -23.559363   1.000000
   14      -23.517580   1.000000
   15      -23.477373   1.000000
   16      -23.448237   1.000000
   17      -23.420717   1.000000
   18      -23.391976   1.000000
   19      -23.337322   1.000000
   20      -23.295140   1.000000
   21      -23.190838   1.000000
   22      -23.158214   1.000000
   23      -23.117202   1.000000
   24      -22.836781   1.000000
   25       -0.008328   1.000000
   26        1.105033   1.000000
   27        1.471713   1.000000
   28        1.720905   1.000000
   29        2.132037   1.000000
   30        2.475900   1.000000
   31        2.515443   1.000000
   32        2.738096   1.000000
   33        2.755738   1.000000
   34        2.800224   1.000000
   35        2.877367   1.000000
   36        2.921805   1.000000
   37        2.983042   1.000000
   38        3.042942   1.000000
   39        3.078094   1.000000
   40        3.138937   1.000000
   41        3.214181   1.000000
   42        3.252396   1.000000
   43        3.318525   1.000000
   44        3.379701   1.000000
   45        3.502474   1.000000
   46        3.605280   1.000000
   47        3.687813   1.000000