 running on   32 total cores
 distrk:  each k-point on   32 cores,    1 groups
 distr:  one band on    4 cores,    8 groups
 using from now: INCAR     
 vasp.5.4.4.18Apr17-6-g9f103f2a35 (build Aug 09 2018 16:20:53) complex          
  
 POSCAR found :  5 types and      29 ions
 scaLAPACK will be used

 ----------------------------------------------------------------------------- 
|                                                                             |
|  ADVICE TO THIS USER RUNNING 'VASP/VAMP'   (HEAR YOUR MASTER'S VOICE ...):  |
|                                                                             |
|      You enforced a specific xc-type in the INCAR file,                     |
|      a different type was found on the POTCAR file                          |
|          I HOPE YOU KNOW, WHAT YOU ARE  DOING                               |
|                                                                             |
 ----------------------------------------------------------------------------- 

 LDA part: xc-table for Pade appr. of Perdew
 POSCAR found :  5 types and      29 ions
 POSCAR, INCAR and KPOINTS ok, starting setup
 FFT: planning ...
 WAVECAR not read
 entering main loop
       N       E                     dE             d eps       ncg     rms          rms(c)
DAV:   1     0.214990023173E+04    0.21499E+04   -0.91347E+04 15120   0.175E+03
DAV:   2     0.702346701773E+02   -0.20797E+04   -0.20178E+04 15184   0.520E+02
DAV:   3    -0.301387871524E+03   -0.37162E+03   -0.35384E+03 26264   0.182E+02
DAV:   4    -0.346992242587E+03   -0.45604E+02   -0.42108E+02 23264   0.597E+01
DAV:   5    -0.352094211199E+03   -0.51020E+01   -0.49615E+01 28752   0.221E+01    0.752E+01
DAV:   6    -0.340976693795E+03    0.11118E+02   -0.98133E+01 20744   0.294E+01    0.358E+01
DAV:   7    -0.356003141541E+03   -0.15026E+02   -0.32350E+02 21792   0.642E+01    0.257E+01
DAV:   8    -0.335976329360E+03    0.20027E+02   -0.44454E+01 21552   0.230E+01    0.145E+01
DAV:   9    -0.331963695170E+03    0.40126E+01   -0.14618E+01 22872   0.119E+01    0.884E+00
DAV:  10    -0.330759463063E+03    0.12042E+01   -0.88357E+00 21672   0.807E+00    0.476E+00
DAV:  11    -0.330588373257E+03    0.17109E+00   -0.32136E+00 22160   0.468E+00    0.283E+00
DAV:  12    -0.330589354976E+03   -0.98172E-03   -0.12158E+00 22408   0.328E+00    0.223E+00
DAV:  13    -0.330542953742E+03    0.46401E-01   -0.54763E-01 22320   0.233E+00    0.130E+00
DAV:  14    -0.330525511897E+03    0.17442E-01   -0.27415E-01 23232   0.161E+00    0.801E-01
DAV:  15    -0.330519586001E+03    0.59259E-02   -0.99031E-02 21712   0.984E-01    0.495E-01
DAV:  16    -0.330518592498E+03    0.99350E-03   -0.37802E-02 22728   0.582E-01    0.398E-01
DAV:  17    -0.330517333651E+03    0.12588E-02   -0.13247E-02 21728   0.349E-01    0.206E-01
DAV:  18    -0.330516783785E+03    0.54987E-03   -0.49384E-03 20240   0.240E-01    0.113E-01
DAV:  19    -0.330516737263E+03    0.46522E-04   -0.24694E-03 19944   0.145E-01    0.763E-02
DAV:  20    -0.330516680265E+03    0.56998E-04   -0.76733E-04 16952   0.913E-02
   1 F= -.33051668E+03 E0= -.33051054E+03  d E =-.330517E+03
 curvature:   0.00 expect dE= 0.000E+00 dE for cont linesearch  0.000E+00
 trial: gam= 0.00000 g(F)=  0.752E+00 g(S)=  0.289E+00 ort = 0.000E+00 (trialstep = 0.100E+01)
 search vector abs. value=  0.104E+01
 bond charge predicted
       N       E                     dE             d eps       ncg     rms          rms(c)
DAV:   1    -0.331637821940E+03   -0.11211E+01   -0.13093E+02 15720   0.465E+01    0.112E+01
DAV:   2    -0.332016293364E+03   -0.37847E+00   -0.19554E+01 22632   0.187E+01    0.746E+00
DAV:   3    -0.331569281248E+03    0.44701E+00   -0.10904E+01 22168   0.105E+01    0.626E+00
DAV:   4    -0.331219758057E+03    0.34952E+00   -0.64013E+00 23112   0.828E+00    0.383E+00
DAV:   5    -0.330994864145E+03    0.22489E+00   -0.24729E+00 22448   0.529E+00    0.215E+00
DAV:   6    -0.330921932856E+03    0.72931E-01   -0.69800E-01 24856   0.262E+00    0.125E+00
DAV:   7    -0.330931031481E+03   -0.90986E-02   -0.27105E-01 24032   0.157E+00    0.112E+00
DAV:   8    -0.330922411588E+03    0.86199E-02   -0.92391E-02 24344   0.973E-01    0.731E-01
DAV:   9    -0.330924728453E+03   -0.23169E-02   -0.30416E-02 22960   0.544E-01    0.506E-01
DAV:  10    -0.330928305295E+03   -0.35768E-02   -0.25206E-02 23408   0.497E-01    0.372E-01
DAV:  11    -0.330929211282E+03   -0.90599E-03   -0.19521E-02 23328   0.434E-01    0.219E-01
DAV:  12    -0.330929163081E+03    0.48201E-04   -0.86251E-03 22552   0.266E-01    0.119E-01
DAV:  13    -0.330929231034E+03   -0.67953E-04   -0.21724E-03 21576   0.134E-01    0.602E-02
DAV:  14    -0.330929250911E+03   -0.19876E-04   -0.55983E-04 15704   0.833E-02
   2 F= -.33092925E+03 E0= -.33092539E+03  d E =-.412571E+00
 trial-energy change:   -0.412571  1 .order   -0.396958   -1.040921    0.247004
 step:   0.8190(harm=  0.8082)  dis= 0.03806  next Energy=  -330.951513 (dE=-0.435E+00)
 bond charge predicted
       N       E                     dE             d eps       ncg     rms          rms(c)
DAV:   1    -0.330974036319E+03   -0.44805E-01   -0.43422E+00 16328   0.850E+00    0.210E+00
DAV:   2    -0.330985448956E+03   -0.11413E-01   -0.60719E-01 23608   0.330E+00    0.146E+00
DAV:   3    -0.330980556179E+03    0.48928E-02   -0.47218E-01 21752   0.225E+00    0.123E+00
DAV:   4    -0.330962014278E+03    0.18542E-01   -0.19286E-01 22584   0.145E+00    0.673E-01
DAV:   5    -0.330953062704E+03    0.89516E-02   -0.70989E-02 22472   0.919E-01    0.340E-01
DAV:   6    -0.330951561703E+03    0.15010E-02   -0.22225E-02 24216   0.496E-01    0.227E-01
DAV:   7    -0.330951703450E+03   -0.14175E-03   -0.90058E-03 22312   0.282E-01    0.190E-01
DAV:   8    -0.330951458458E+03    0.24499E-03   -0.29655E-03 20312   0.170E-01    0.128E-01
DAV:   9    -0.330951499760E+03   -0.41302E-04   -0.11310E-03 18760   0.108E-01    0.940E-02
DAV:  10    -0.330951588089E+03   -0.88329E-04   -0.92652E-04 17640   0.100E-01
   3 F= -.33095159E+03 E0= -.33094737E+03  d E =-.434908E+00
 curvature:  -0.40 expect dE=-0.442E+00 dE for cont linesearch -0.494E-05
 trial: gam= 1.05787 g(F)=  0.318E+00 g(S)=  0.779E+00 ort =-0.357E-02 (trialstep = 0.445E+00)
 search vector abs. value=  0.225E+01
 bond charge predicted
       N       E                     dE             d eps       ncg     rms          rms(c)
DAV:   1    -0.331116081649E+03   -0.16458E+00   -0.55570E+01 15624   0.264E+01    0.320E+00
DAV:   2    -0.331382814790E+03   -0.26673E+00   -0.42247E+00 21112   0.783E+00    0.245E+00
DAV:   3    -0.331369338920E+03    0.13476E-01   -0.14161E+00 22904   0.417E+00    0.202E+00
DAV:   4    -0.331318631239E+03    0.50708E-01   -0.36763E-01 22376   0.204E+00    0.118E+00
DAV:   5    -0.331307117492E+03    0.11514E-01   -0.18377E-01 22608   0.138E+00    0.785E-01
DAV:   6    -0.331301989294E+03    0.51282E-02   -0.91343E-02 23952   0.966E-01    0.468E-01
DAV:   7    -0.331299558474E+03    0.24308E-02   -0.33221E-02 25312   0.656E-01    0.364E-01
DAV:   8    -0.331298532139E+03    0.10263E-02   -0.17388E-02 22536   0.374E-01    0.250E-01
DAV:   9    -0.331298382297E+03    0.14984E-03   -0.45282E-03 20928   0.189E-01    0.179E-01
DAV:  10    -0.331298506210E+03   -0.12391E-03   -0.16705E-03 19632   0.124E-01    0.131E-01
DAV:  11    -0.331298673250E+03   -0.16704E-03   -0.20379E-03 19840   0.149E-01    0.916E-02
DAV:  12    -0.331298577546E+03    0.95704E-04   -0.12769E-03 19096   0.125E-01    0.391E-02
DAV:  13    -0.331298547498E+03    0.30048E-04   -0.23716E-04 10760   0.667E-02
   4 F= -.33129855E+03 E0= -.33129558E+03  d E =-.346959E+00
 trial-energy change:   -0.346959  1 .order   -0.347889   -0.486648   -0.209130
 step:   0.7926(harm=  0.7802)  dis= 0.06732  next Energy=  -331.379826 (dE=-0.428E+00)
 bond charge predicted
       N       E                     dE             d eps       ncg     rms          rms(c)
DAV:   1    -0.331266474767E+03    0.32103E-01   -0.33772E+01 15480   0.205E+01    0.243E+00
DAV:   2    -0.331431212091E+03   -0.16474E+00   -0.26228E+00 21200   0.619E+00    0.190E+00
DAV:   3    -0.331420975640E+03    0.10236E-01   -0.83942E-01 22600   0.319E+00    0.152E+00
DAV:   4    -0.331391524061E+03    0.29452E-01   -0.21304E-01 22120   0.156E+00    0.883E-01
DAV:   5    -0.331385598786E+03    0.59253E-02   -0.10615E-01 22664   0.105E+00    0.608E-01
DAV:   6    -0.331382090791E+03    0.35080E-02   -0.52561E-02 23808   0.733E-01    0.345E-01
DAV:   7    -0.331380909684E+03    0.11811E-02   -0.18610E-02 25520   0.480E-01    0.279E-01
DAV:   8    -0.331380292952E+03    0.61673E-03   -0.99419E-03 20960   0.283E-01    0.189E-01
DAV:   9    -0.331380217925E+03    0.75027E-04   -0.25284E-03 20808   0.144E-01    0.136E-01
DAV:  10    -0.331380296249E+03   -0.78324E-04   -0.96753E-04 18160   0.980E-02
   5 F= -.33138030E+03 E0= -.33137822E+03  d E =-.428708E+00
 curvature:  -0.80 expect dE=-0.128E+00 dE for cont linesearch -0.125E-04
 trial: gam= 0.02111 g(F)=  0.144E+00 g(S)=  0.154E-01 ort = 0.592E-02 (trialstep = 0.514E+00)
 search vector abs. value=  0.161E+00
 bond charge predicted
       N       E                     dE             d eps       ncg     rms          rms(c)
DAV:   1    -0.331418485574E+03   -0.38268E-01   -0.66666E+00 15544   0.953E+00    0.134E+00
DAV:   2    -0.331453359132E+03   -0.34874E-01   -0.55290E-01 20504   0.290E+00    0.963E-01
DAV:   3    -0.331452624079E+03    0.73505E-03   -0.18968E-01 23592   0.152E+00    0.780E-01
DAV:   4    -0.331445619084E+03    0.70050E-02   -0.70671E-02 22552   0.883E-01    0.451E-01
DAV:   5    -0.331443648720E+03    0.19704E-02   -0.37915E-02 22376   0.630E-01    0.281E-01
DAV:   6    -0.331442501861E+03    0.11469E-02   -0.14586E-02 24440   0.375E-01    0.159E-01
DAV:   7    -0.331442347636E+03    0.15423E-03   -0.43283E-03 21544   0.196E-01    0.116E-01
DAV:   8    -0.331442241545E+03    0.10609E-03   -0.12037E-03 18768   0.107E-01    0.771E-02
DAV:   9    -0.331442244034E+03   -0.24890E-05   -0.20087E-04 10600   0.637E-02
   6 F= -.33144224E+03 E0= -.33144061E+03  d E =-.619478E-01
 trial-energy change:   -0.061948  1 .order   -0.062790   -0.082200   -0.043381
 step:   1.4077(harm=  1.0894)  dis= 0.04890  next Energy=  -331.475493 (dE=-0.952E-01)
 bond charge predicted
       N       E                     dE             d eps       ncg     rms          rms(c)
DAV:   1    -0.331389103930E+03    0.53138E-01   -0.20101E+01 15504   0.166E+01    0.233E+00
DAV:   2    -0.331499153329E+03   -0.11005E+00   -0.17284E+00 20664   0.512E+00    0.170E+00
DAV:   3    -0.331496008560E+03    0.31448E-02   -0.61013E-01 23648   0.270E+00    0.136E+00
DAV:   4    -0.331473398425E+03    0.22610E-01   -0.20825E-01 22928   0.150E+00    0.759E-01
DAV:   5    -0.331468112606E+03    0.52858E-02   -0.11022E-01 22408   0.109E+00    0.491E-01
DAV:   6    -0.331464198462E+03    0.39141E-02   -0.42036E-02 23992   0.647E-01    0.243E-01
DAV:   7    -0.331463759718E+03    0.43874E-03   -0.94741E-03 25032   0.297E-01    0.165E-01
DAV:   8    -0.331463789754E+03   -0.30036E-04   -0.32757E-03 20560   0.158E-01    0.137E-01
DAV:   9    -0.331463749962E+03    0.39792E-04   -0.10995E-03 18512   0.109E-01    0.931E-02
DAV:  10    -0.331463840079E+03   -0.90117E-04   -0.73892E-04 16424   0.952E-02
   7 F= -.33146384E+03 E0= -.33146300E+03  d E =-.835438E-01
 curvature:  -0.38 expect dE=-0.108E+00 dE for cont linesearch -0.288E-02
 ZBRENT: interpolating
 opt :   1.1462  next Energy=  -331.468400 (dE=-0.881E-01)
 bond charge predicted
       N       E                     dE             d eps       ncg     rms          rms(c)
DAV:   1    -0.331463713916E+03    0.36046E-04   -0.17202E+00 16128   0.483E+00    0.660E-01
DAV:   2    -0.331472789295E+03   -0.90754E-02   -0.14636E-01 22152   0.148E+00    0.536E-01
DAV:   3    -0.331470882050E+03    0.19072E-02   -0.52065E-02 23392   0.726E-01    0.390E-01
DAV:   4    -0.331469577928E+03    0.13041E-02   -0.17992E-02 22896   0.439E-01    0.246E-01
DAV:   5    -0.331468983728E+03    0.59420E-03   -0.10808E-02 22368   0.339E-01    0.146E-01
DAV:   6    -0.331468572367E+03    0.41136E-03   -0.32245E-03 22560   0.191E-01    0.644E-02
DAV:   7    -0.331468534375E+03    0.37992E-04   -0.42599E-04 13544   0.843E-02
   8 F= -.33146853E+03 E0= -.33146746E+03  d E =-.882381E-01
 curvature:  -0.60 expect dE=-0.116E+00 dE for cont linesearch -0.646E-08
 trial: gam= 1.20943 g(F)=  0.346E-01 g(S)=  0.159E+00 ort = 0.415E-04 (trialstep = 0.241E+00)
 search vector abs. value=  0.429E+00
 bond charge predicted
       N       E                     dE             d eps       ncg     rms          rms(c)
DAV:   1    -0.331498070970E+03   -0.29499E-01   -0.40185E+00 15720   0.775E+00    0.126E+00
DAV:   2    -0.331514974416E+03   -0.16903E-01   -0.40355E-01 20928   0.245E+00    0.735E-01
DAV:   3    -0.331513246022E+03    0.17284E-02   -0.14003E-01 21552   0.131E+00    0.628E-01
DAV:   4    -0.331508053619E+03    0.51924E-02   -0.68009E-02 22656   0.825E-01    0.352E-01
DAV:   5    -0.331506266322E+03    0.17873E-02   -0.21140E-02 22368   0.492E-01    0.218E-01
DAV:   6    -0.331505789097E+03    0.47722E-03   -0.79663E-03 23448   0.294E-01    0.127E-01
DAV:   7    -0.331505720697E+03    0.68400E-04   -0.22492E-03 22296   0.168E-01    0.899E-02
DAV:   8    -0.331505737541E+03   -0.16845E-04   -0.76001E-04 16968   0.898E-02
   9 F= -.33150574E+03 E0= -.33150504E+03  d E =-.372032E-01
 trial-energy change:   -0.037203  1 .order   -0.037655   -0.046479   -0.028830
 step:   0.6335(harm=  0.6335)  dis= 0.04103  next Energy=  -331.529735 (dE=-0.612E-01)
 bond charge predicted
       N       E                     dE             d eps       ncg     rms          rms(c)
DAV:   1    -0.331511260245E+03   -0.55395E-02   -0.10773E+01 15984   0.127E+01    0.205E+00
DAV:   2    -0.331551798340E+03   -0.40538E-01   -0.10283E+00 21320   0.391E+00    0.122E+00
DAV:   3    -0.331545750657E+03    0.60477E-02   -0.36914E-01 21768   0.209E+00    0.103E+00
DAV:   4    -0.331533054986E+03    0.12696E-01   -0.18478E-01 22832   0.137E+00    0.608E-01
DAV:   5    -0.331528143520E+03    0.49115E-02   -0.63274E-02 22504   0.850E-01    0.390E-01
DAV:   6    -0.331526280772E+03    0.18627E-02   -0.23690E-02 24176   0.501E-01    0.213E-01
DAV:   7    -0.331526219213E+03    0.61559E-04   -0.57018E-03 22808   0.259E-01    0.156E-01
DAV:   8    -0.331526268687E+03   -0.49474E-04   -0.19804E-03 20536   0.145E-01    0.132E-01
DAV:   9    -0.331526375569E+03   -0.10688E-03   -0.12686E-03 19216   0.112E-01    0.961E-02
DAV:  10    -0.331526512689E+03   -0.13712E-03   -0.10348E-03 18600   0.104E-01    0.686E-02
DAV:  11    -0.331526543625E+03   -0.30937E-04   -0.76825E-04 17584   0.996E-02
  10 F= -.33152654E+03 E0= -.33152641E+03  d E =-.580093E-01
 curvature:  -0.70 expect dE=-0.361E-01 dE for cont linesearch -0.192E-03
 trial: gam= 0.28746 g(F)=  0.442E-01 g(S)=  0.718E-02 ort =-0.108E-01 (trialstep = 0.319E+00)
 search vector abs. value=  0.806E-01
 bond charge predicted
       N       E                     dE             d eps       ncg     rms          rms(c)
DAV:   1    -0.331533609874E+03   -0.70972E-02   -0.14364E+00 16312   0.424E+00    0.260E-01
DAV:   2    -0.331541616171E+03   -0.80063E-02   -0.90320E-02 21416   0.122E+00    0.243E-01
DAV:   3    -0.331541572898E+03    0.43273E-04   -0.13051E-02 24728   0.402E-01    0.191E-01
DAV:   4    -0.331541164053E+03    0.40885E-03   -0.30179E-03 21144   0.179E-01    0.115E-01
DAV:   5    -0.331541135231E+03    0.28822E-04   -0.10704E-03 19168   0.113E-01    0.956E-02
DAV:   6    -0.331541083771E+03    0.51460E-04   -0.11638E-03 17456   0.115E-01    0.656E-02
DAV:   7    -0.331541028590E+03    0.55182E-04   -0.35648E-04 12936   0.861E-02
  11 F= -.33154103E+03 E0= -.33154110E+03  d E =-.144850E-01
 ZBRENT: can't locate minimum, use default step
 trial-energy change:   -0.014485  1 .order   -0.014412   -0.015415   -0.013409
 step:   1.2767(harm=  2.4524)  dis= 0.04047  next Energy=  -331.585767 (dE=-0.592E-01)
 bond charge predicted
       N       E                     dE             d eps       ncg     rms          rms(c)
DAV:   1    -0.331502800889E+03    0.38283E-01   -0.12927E+01 16312   0.127E+01    0.898E-01
DAV:   2    -0.331578866898E+03   -0.76066E-01   -0.86169E-01 23400   0.376E+00    0.742E-01
DAV:   3    -0.331576900186E+03    0.19667E-02   -0.10971E-01 24184   0.111E+00    0.587E-01
DAV:   4    -0.331573022610E+03    0.38776E-02   -0.28055E-02 22768   0.544E-01    0.365E-01
DAV:   5    -0.331572571917E+03    0.45069E-03   -0.74382E-03 21736   0.319E-01    0.297E-01
DAV:   6    -0.331572540635E+03    0.31281E-04   -0.10865E-02 22592   0.325E-01    0.235E-01
DAV:   7    -0.331571698814E+03    0.84182E-03   -0.47955E-03 22936   0.257E-01    0.914E-02
DAV:   8    -0.331571610118E+03    0.88697E-04   -0.18861E-03 21352   0.142E-01    0.526E-02
DAV:   9    -0.331571583641E+03    0.26476E-04   -0.49125E-04 14632   0.756E-02
  12 F= -.33157158E+03 E0= -.33157211E+03  d E =-.450400E-01
 curvature:  -1.42 expect dE=-0.300E-01 dE for cont linesearch -0.782E-02
 ZBRENT: increasing intervall
 opt :   3.1916  next Energy=  -331.571683 (dE=-0.451E-01)
 bond charge predicted
       N       E                     dE             d eps       ncg     rms          rms(c)
DAV:   1    -0.331271840143E+03    0.29977E+00   -0.51855E+01 16128   0.256E+01    0.197E+00
DAV:   2    -0.331607491742E+03   -0.33565E+00   -0.38076E+00 23760   0.785E+00    0.159E+00
DAV:   3    -0.331589622480E+03    0.17869E-01   -0.43839E-01 23184   0.230E+00    0.116E+00
DAV:   4    -0.331578157020E+03    0.11465E-01   -0.12485E-01 23232   0.112E+00    0.785E-01
DAV:   5    -0.331575697386E+03    0.24596E-02   -0.28393E-02 21936   0.628E-01    0.626E-01
DAV:   6    -0.331576089657E+03   -0.39227E-03   -0.42827E-02 22896   0.646E-01    0.511E-01
DAV:   7    -0.331571848792E+03    0.42409E-02   -0.23031E-02 22872   0.530E-01    0.143E-01
DAV:   8    -0.331571790505E+03    0.58286E-04   -0.58054E-03 24392   0.247E-01    0.109E-01
DAV:   9    -0.331571701104E+03    0.89401E-04   -0.25932E-03 20504   0.151E-01    0.674E-02
DAV:  10    -0.331571654798E+03    0.46307E-04   -0.61638E-04 15736   0.812E-02
  13 F= -.33157165E+03 E0= -.33157238E+03  d E =-.451112E-01
 curvature:  -0.02 expect dE=-0.830E-03 dE for cont linesearch -0.119E-03
 trial: gam= 0.00000 g(F)=  0.377E-01 g(S)=  0.825E-02 ort =-0.231E-01 (trialstep = 0.894E+00)
 search vector abs. value=  0.460E-01
 bond charge predicted
       N       E                     dE             d eps       ncg     rms          rms(c)
DAV:   1    -0.331591892479E+03   -0.20191E-01   -0.46519E+00 15120   0.779E+00    0.137E+00
DAV:   2    -0.331603967911E+03   -0.12075E-01   -0.39451E-01 21264   0.240E+00    0.799E-01
DAV:   3    -0.331604677412E+03   -0.70950E-03   -0.16476E-01 22264   0.140E+00    0.693E-01
DAV:   4    -0.331595994963E+03    0.86824E-02   -0.62540E-02 22152   0.848E-01    0.286E-01
DAV:   5    -0.331595669428E+03    0.32554E-03   -0.21519E-02 22888   0.492E-01    0.267E-01
DAV:   6    -0.331594665611E+03    0.10038E-02   -0.12617E-02 23528   0.323E-01    0.129E-01
DAV:   7    -0.331594538655E+03    0.12696E-03   -0.25547E-03 20728   0.154E-01    0.887E-02
DAV:   8    -0.331594541918E+03   -0.32627E-05   -0.81469E-04 17320   0.837E-02
  14 F= -.33159454E+03 E0= -.33159517E+03  d E =-.228871E-01
 trial-energy change:   -0.022887  1 .order   -0.023454   -0.041082   -0.005827
 step:   1.0605(harm=  1.0414)  dis= 0.01789  next Energy=  -331.595082 (dE=-0.234E-01)
 bond charge predicted
       N       E                     dE             d eps       ncg     rms          rms(c)
DAV:   1    -0.331594709684E+03   -0.17103E-03   -0.16251E-01 15448   0.145E+00    0.248E-01
DAV:   2    -0.331595161298E+03   -0.45161E-03   -0.13435E-02 20704   0.454E-01    0.149E-01
DAV:   3    -0.331595200200E+03   -0.38903E-04   -0.57916E-03 20736   0.261E-01    0.131E-01
DAV:   4    -0.331594940535E+03    0.25967E-03   -0.25607E-03 20008   0.169E-01    0.711E-02
DAV:   5    -0.331594894227E+03    0.46308E-04   -0.10585E-03 17744   0.108E-01    0.530E-02
DAV:   6    -0.331594853651E+03    0.40576E-04   -0.32918E-04 12160   0.703E-02
  15 F= -.33159485E+03 E0= -.33159547E+03  d E =-.231989E-01
 curvature:  -0.51 expect dE=-0.191E-01 dE for cont linesearch -0.307E-04
 trial: gam= 0.84573 g(F)=  0.867E-02 g(S)=  0.285E-01 ort =-0.166E-02 (trialstep = 0.633E+00)
 search vector abs. value=  0.673E-01
 bond charge predicted
       N       E                     dE             d eps       ncg     rms          rms(c)
DAV:   1    -0.331612697495E+03   -0.17803E-01   -0.32611E+00 15120   0.686E+00    0.148E+00
DAV:   2    -0.331623021150E+03   -0.10324E-01   -0.37450E-01 22120   0.244E+00    0.998E-01
DAV:   3    -0.331618605909E+03    0.44152E-02   -0.23758E-01 21776   0.157E+00    0.840E-01
DAV:   4    -0.331609110352E+03    0.94956E-02   -0.94339E-02 21944   0.101E+00    0.456E-01
DAV:   5    -0.331605643231E+03    0.34671E-02   -0.38211E-02 22504   0.634E-01    0.243E-01
DAV:   6    -0.331604833834E+03    0.80940E-03   -0.10760E-02 24112   0.323E-01    0.128E-01
DAV:   7    -0.331604856154E+03   -0.22321E-04   -0.27738E-03 21920   0.171E-01    0.948E-02
DAV:   8    -0.331604863428E+03   -0.72731E-05   -0.10199E-03 18560   0.960E-02    0.746E-02
DAV:   9    -0.331604860785E+03    0.26424E-05   -0.28829E-04 11616   0.699E-02
  16 F= -.33160486E+03 E0= -.33160523E+03  d E =-.100071E-01
 trial-energy change:   -0.010007  1 .order   -0.010248   -0.022681    0.002186
 step:   0.5776(harm=  0.5776)  dis= 0.01198  next Energy=  -331.605197 (dE=-0.103E-01)
 bond charge predicted
       N       E                     dE             d eps       ncg     rms          rms(c)
DAV:   1    -0.331605097922E+03   -0.23449E-03   -0.25237E-02 15536   0.609E-01    0.135E-01
DAV:   2    -0.331605305179E+03   -0.20726E-03   -0.39007E-03 22840   0.235E-01    0.113E-01
DAV:   3    -0.331605194817E+03    0.11036E-03   -0.22878E-03 19456   0.153E-01    0.798E-02
DAV:   4    -0.331605133895E+03    0.60922E-04   -0.55902E-04 14912   0.842E-02
  17 F= -.33160513E+03 E0= -.33160552E+03  d E =-.102802E-01
 curvature:  -0.54 expect dE=-0.562E-02 dE for cont linesearch -0.240E-04
 trial: gam= 0.29829 g(F)=  0.845E-02 g(S)=  0.191E-02 ort =-0.172E-02 (trialstep = 0.622E+00)
 search vector abs. value=  0.153E-01
 bond charge predicted
       N       E                     dE             d eps       ncg     rms          rms(c)
DAV:   1    -0.331608200875E+03   -0.30061E-02   -0.67330E-01 16128   0.269E+00    0.200E-01
DAV:   2    -0.331610725734E+03   -0.25249E-02   -0.30494E-02 24896   0.747E-01    0.170E-01
DAV:   3    -0.331610592256E+03    0.13348E-03   -0.49040E-03 23656   0.227E-01    0.131E-01
DAV:   4    -0.331610443901E+03    0.14836E-03   -0.11504E-03 18152   0.113E-01    0.882E-02
DAV:   5    -0.331610452577E+03   -0.86766E-05   -0.69464E-04 16216   0.862E-02
  18 F= -.33161045E+03 E0= -.33161072E+03  d E =-.531868E-02
 trial-energy change:   -0.005319  1 .order   -0.005343   -0.006121   -0.004565
 step:   2.4473(harm=  2.4473)  dis= 0.01932  next Energy=  -331.617172 (dE=-0.120E-01)
 bond charge predicted
       N       E                     dE             d eps       ncg     rms          rms(c)
DAV:   1    -0.331596434341E+03    0.14010E-01   -0.57931E+00 16128   0.790E+00    0.616E-01
DAV:   2    -0.331618518961E+03   -0.22085E-01   -0.26423E-01 24864   0.223E+00    0.535E-01
DAV:   3    -0.331617775776E+03    0.74318E-03   -0.48485E-02 23784   0.686E-01    0.407E-01
DAV:   4    -0.331616165410E+03    0.16104E-02   -0.10796E-02 22160   0.339E-01    0.277E-01
DAV:   5    -0.331616136155E+03    0.29255E-04   -0.46644E-03 20232   0.218E-01    0.234E-01
DAV:   6    -0.331615584879E+03    0.55128E-03   -0.46907E-03 22648   0.231E-01    0.120E-01
DAV:   7    -0.331615396790E+03    0.18809E-03   -0.24998E-03 21536   0.160E-01    0.702E-02
DAV:   8    -0.331615344111E+03    0.52679E-04   -0.65779E-04 15712   0.822E-02
  19 F= -.33161534E+03 E0= -.33161514E+03  d E =-.102102E-01
 curvature:  -1.90 expect dE=-0.119E-01 dE for cont linesearch -0.370E-03
 trial: gam= 0.00000 g(F)=  0.591E-02 g(S)=  0.333E-03 ort =-0.172E-02 (trialstep = 0.987E+00)
 search vector abs. value=  0.624E-02
 bond charge predicted
       N       E                     dE             d eps       ncg     rms          rms(c)
DAV:   1    -0.331616891259E+03   -0.14945E-02   -0.84074E-01 16480   0.311E+00    0.264E-01
DAV:   2    -0.331620667778E+03   -0.37765E-02   -0.50234E-02 24240   0.914E-01    0.260E-01
DAV:   3    -0.331620280792E+03    0.38699E-03   -0.12902E-02 23976   0.336E-01    0.184E-01
DAV:   4    -0.331619893774E+03    0.38702E-03   -0.26118E-03 21056   0.172E-01    0.110E-01
DAV:   5    -0.331619835023E+03    0.58751E-04   -0.12257E-03 18304   0.116E-01    0.870E-02
DAV:   6    -0.331619754220E+03    0.80803E-04   -0.70105E-04 15968   0.101E-01
  20 F= -.33161975E+03 E0= -.33161964E+03  d E =-.441011E-02
 trial-energy change:   -0.004410  1 .order   -0.004534   -0.006162   -0.002907
 step:   1.8689(harm=  1.8689)  dis= 0.01134  next Energy=  -331.621176 (dE=-0.583E-02)
 bond charge predicted
       N       E                     dE             d eps       ncg     rms          rms(c)
DAV:   1    -0.331618372619E+03    0.14624E-02   -0.66934E-01 16536   0.278E+00    0.229E-01
DAV:   2    -0.331621393844E+03   -0.30212E-02   -0.39278E-02 24152   0.815E-01    0.225E-01
DAV:   3    -0.331621175122E+03    0.21872E-03   -0.95998E-03 23744   0.286E-01    0.163E-01
DAV:   4    -0.331620880148E+03    0.29497E-03   -0.19684E-03 20680   0.150E-01    0.968E-02
DAV:   5    -0.331620849303E+03    0.30845E-04   -0.94978E-04 17160   0.103E-01
  21 F= -.33162085E+03 E0= -.33162084E+03  d E =-.550519E-02
 curvature:  -0.93 expect dE=-0.357E-02 dE for cont linesearch -0.269E-05
 trial: gam= 0.63313 g(F)=  0.352E-02 g(S)=  0.299E-03 ort =-0.134E-03 (trialstep = 0.116E+01)
 search vector abs. value=  0.615E-02
 bond charge predicted
       N       E                     dE             d eps       ncg     rms          rms(c)
DAV:   1    -0.331617614738E+03    0.32654E-02   -0.12715E+00 16048   0.390E+00    0.345E-01
DAV:   2    -0.331624593294E+03   -0.69786E-02   -0.87134E-02 22032   0.112E+00    0.291E-01
DAV:   3    -0.331624413771E+03    0.17952E-03   -0.16350E-02 23840   0.433E-01    0.231E-01
DAV:   4    -0.331623843319E+03    0.57045E-03   -0.40666E-03 22136   0.217E-01    0.141E-01
DAV:   5    -0.331623838632E+03    0.46864E-05   -0.28780E-03 21248   0.168E-01    0.120E-01
DAV:   6    -0.331623633400E+03    0.20523E-03   -0.17082E-03 19728   0.133E-01    0.509E-02
DAV:   7    -0.331623592751E+03    0.40650E-04   -0.39140E-04 12936   0.835E-02
  22 F= -.33162359E+03 E0= -.33162351E+03  d E =-.274345E-02
 trial-energy change:   -0.002743  1 .order   -0.002970   -0.004344   -0.001597
 step:   1.8403(harm=  1.8403)  dis= 0.01367  next Energy=  -331.624284 (dE=-0.343E-02)
 bond charge predicted
       N       E                     dE             d eps       ncg     rms          rms(c)
DAV:   1    -0.331622130926E+03    0.15025E-02   -0.43267E-01 16128   0.227E+00    0.193E-01
DAV:   2    -0.331624470855E+03   -0.23399E-02   -0.28903E-02 21920   0.658E-01    0.178E-01
DAV:   3    -0.331624356162E+03    0.11469E-03   -0.57486E-03 23920   0.254E-01    0.131E-01
DAV:   4    -0.331624167206E+03    0.18896E-03   -0.12520E-03 18784   0.124E-01    0.804E-02
DAV:   5    -0.331624167353E+03   -0.14765E-06   -0.83487E-04 16848   0.974E-02
  23 F= -.33162417E+03 E0= -.33162405E+03  d E =-.331805E-02
 curvature:  -1.52 expect dE=-0.572E-02 dE for cont linesearch -0.455E-04
 trial: gam= 0.75726 g(F)=  0.220E-02 g(S)=  0.157E-02 ort = 0.430E-03 (trialstep = 0.100E+01)
 search vector abs. value=  0.795E-02
 bond charge predicted
       N       E                     dE             d eps       ncg     rms          rms(c)
DAV:   1    -0.331623273381E+03    0.89382E-03   -0.13173E+00 16096   0.423E+00    0.622E-01
DAV:   2    -0.331628781001E+03   -0.55076E-02   -0.10789E-01 20696   0.121E+00    0.411E-01
DAV:   3    -0.331628109568E+03    0.67143E-03   -0.34006E-02 23032   0.656E-01    0.321E-01
DAV:   4    -0.331627023054E+03    0.10865E-02   -0.15356E-02 22592   0.400E-01    0.200E-01
DAV:   5    -0.331626496594E+03    0.52646E-03   -0.64102E-03 22304   0.274E-01    0.118E-01
DAV:   6    -0.331626316294E+03    0.18030E-03   -0.27206E-03 20768   0.166E-01    0.695E-02
DAV:   7    -0.331626278387E+03    0.37907E-04   -0.86278E-04 17800   0.984E-02
  24 F= -.33162628E+03 E0= -.33162601E+03  d E =-.211103E-02
 trial-energy change:   -0.002111  1 .order   -0.002193   -0.004118   -0.000267
 step:   1.0743(harm=  1.0743)  dis= 0.00723  next Energy=  -331.626369 (dE=-0.220E-02)
 bond charge predicted
       N       E                     dE             d eps       ncg     rms          rms(c)
DAV:   1    -0.331626245896E+03    0.70399E-04   -0.66469E-03 17104   0.306E-01    0.502E-02
DAV:   2    -0.331626340758E+03   -0.94862E-04   -0.80077E-04 17536   0.123E-01
  25 F= -.33162634E+03 E0= -.33162606E+03  d E =-.217340E-02
 curvature:  -1.04 expect dE=-0.513E-02 dE for cont linesearch -0.475E-05
 trial: gam= 1.43089 g(F)=  0.150E-02 g(S)=  0.342E-02 ort =-0.190E-03 (trialstep = 0.392E+00)
 search vector abs. value=  0.207E-01
 bond charge predicted
       N       E                     dE             d eps       ncg     rms          rms(c)
DAV:   1    -0.331625474923E+03    0.77097E-03   -0.51553E-01 16128   0.245E+00    0.168E-01
DAV:   2    -0.331628326978E+03   -0.28521E-02   -0.32754E-02 23648   0.712E-01    0.154E-01
DAV:   3    -0.331628249691E+03    0.77287E-04   -0.33164E-03 23368   0.196E-01    0.118E-01
DAV:   4    -0.331628158957E+03    0.90734E-04   -0.79031E-04 16936   0.934E-02
  26 F= -.33162816E+03 E0= -.33162778E+03  d E =-.181820E-02
 ZBRENT: can't locate minimum, use default step
 trial-energy change:   -0.001818  1 .order   -0.001830   -0.001824   -0.001837
 step:   1.5680(harm=  1.5680)  dis= 0.01885  next Energy=  -331.633736 (dE=-0.740E-02)
 bond charge predicted
       N       E                     dE             d eps       ncg     rms          rms(c)
DAV:   1    -0.331607516929E+03    0.20733E-01   -0.46101E+00 16008   0.734E+00    0.523E-01
DAV:   2    -0.331633175364E+03   -0.25658E-01   -0.29603E-01 23744   0.214E+00    0.473E-01
DAV:   3    -0.331632542316E+03    0.63305E-03   -0.30215E-02 23792   0.588E-01    0.376E-01
DAV:   4    -0.331631422134E+03    0.11202E-02   -0.91285E-03 22400   0.304E-01    0.262E-01
DAV:   5    -0.331631286562E+03    0.13557E-03   -0.39548E-03 22880   0.223E-01    0.198E-01
DAV:   6    -0.331630979843E+03    0.30672E-03   -0.48855E-03 22552   0.239E-01    0.127E-01
DAV:   7    -0.331630725150E+03    0.25469E-03   -0.23691E-03 23080   0.158E-01    0.626E-02
DAV:   8    -0.331630692982E+03    0.32168E-04   -0.71316E-04 16576   0.786E-02
  27 F= -.33163069E+03 E0= -.33163000E+03  d E =-.435222E-02
 curvature:  -5.24 expect dE=-0.156E-01 dE for cont linesearch -0.640E-04
 trial: gam= 0.43075 g(F)=  0.294E-02 g(S)=  0.320E-04 ort = 0.502E-03 (trialstep = 0.627E+00)
 search vector abs. value=  0.724E-02
 bond charge predicted
       N       E                     dE             d eps       ncg     rms          rms(c)
DAV:   1    -0.331630326176E+03    0.39897E-03   -0.44161E-01 16128   0.223E+00    0.150E-01
DAV:   2    -0.331632619603E+03   -0.22934E-02   -0.26424E-02 23904   0.657E-01    0.148E-01
DAV:   3    -0.331632495622E+03    0.12398E-03   -0.35762E-03 23080   0.201E-01    0.109E-01
DAV:   4    -0.331632389332E+03    0.10629E-03   -0.80325E-04 16944   0.913E-02    0.731E-02
DAV:   5    -0.331632377935E+03    0.11397E-04   -0.29457E-04 12632   0.675E-02
  28 F= -.33163238E+03 E0= -.33163164E+03  d E =-.168495E-02
 trial-energy change:   -0.001685  1 .order   -0.001738   -0.002003   -0.001474
 step:   2.3736(harm=  2.3736)  dis= 0.01555  next Energy=  -331.634483 (dE=-0.379E-02)
 bond charge predicted
       N       E                     dE             d eps       ncg     rms          rms(c)
DAV:   1    -0.331617175829E+03    0.15214E-01   -0.34046E+00 16088   0.618E+00    0.431E-01
DAV:   2    -0.331635041626E+03   -0.17866E-01   -0.20439E-01 24040   0.183E+00    0.410E-01
DAV:   3    -0.331634170251E+03    0.87138E-03   -0.27554E-02 23400   0.540E-01    0.301E-01
DAV:   4    -0.331633375876E+03    0.79437E-03   -0.63184E-03 22696   0.251E-01    0.201E-01
DAV:   5    -0.331633368350E+03    0.75260E-05   -0.31847E-03 21576   0.181E-01    0.170E-01
DAV:   6    -0.331633130681E+03    0.23767E-03   -0.35639E-03 21464   0.185E-01    0.948E-02
DAV:   7    -0.331632948313E+03    0.18237E-03   -0.94198E-04 19288   0.114E-01    0.331E-02
DAV:   8    -0.331632946499E+03    0.18141E-05   -0.22141E-04 11448   0.582E-02
  29 F= -.33163295E+03 E0= -.33163207E+03  d E =-.225352E-02
 curvature:  -2.69 expect dE=-0.113E-01 dE for cont linesearch -0.714E-03
 trial: gam= 0.00000 g(F)=  0.242E-02 g(S)=  0.176E-02 ort =-0.139E-02 (trialstep = 0.976E+00)
 search vector abs. value=  0.418E-02
 bond charge predicted
       N       E                     dE             d eps       ncg     rms          rms(c)
DAV:   1    -0.331638546022E+03   -0.55977E-02   -0.56457E-01 17296   0.313E+00    0.845E-01
DAV:   2    -0.331637794303E+03    0.75172E-03   -0.81251E-02 24664   0.119E+00    0.520E-01
DAV:   3    -0.331636833705E+03    0.96060E-03   -0.65842E-02 22824   0.785E-01    0.429E-01
DAV:   4    -0.331634086253E+03    0.27475E-02   -0.27356E-02 23568   0.523E-01    0.197E-01
DAV:   5    -0.331633540146E+03    0.54611E-03   -0.80860E-03 21656   0.300E-01    0.148E-01
DAV:   6    -0.331633274473E+03    0.26567E-03   -0.32048E-03 21832   0.176E-01    0.803E-02
DAV:   7    -0.331633283547E+03   -0.90737E-05   -0.66894E-04 16344   0.836E-02
  30 F= -.33163328E+03 E0= -.33163229E+03  d E =-.337048E-03
 trial-energy change:   -0.000337  1 .order   -0.000455   -0.004082    0.003173
 step:   0.5494(harm=  0.5494)  dis= 0.00183  next Energy=  -331.634095 (dE=-0.115E-02)
 bond charge predicted
       N       E                     dE             d eps       ncg     rms          rms(c)
DAV:   1    -0.331635171895E+03   -0.18974E-02   -0.10769E-01 17296   0.136E+00    0.385E-01
DAV:   2    -0.331635271827E+03   -0.99932E-04   -0.18526E-02 24704   0.549E-01    0.258E-01
DAV:   3    -0.331634922128E+03    0.34970E-03   -0.14863E-02 21424   0.381E-01    0.208E-01
DAV:   4    -0.331634458315E+03    0.46381E-03   -0.54580E-03 21264   0.243E-01    0.128E-01
DAV:   5    -0.331634197697E+03    0.26062E-03   -0.29311E-03 19648   0.174E-01    0.722E-02
DAV:   6    -0.331634102320E+03    0.95376E-04   -0.84808E-04 16456   0.981E-02
  31 F= -.33163410E+03 E0= -.33163316E+03  d E =-.115582E-02
 curvature:  -0.27 expect dE=-0.437E-03 dE for cont linesearch -0.104E-05
 trial: gam= 0.41100 g(F)=  0.565E-03 g(S)=  0.103E-02 ort =-0.126E-03 (trialstep = 0.891E+00)
 search vector abs. value=  0.220E-02
 reached required accuracy - stopping structural energy minimisation
 writing wavefunctions
VASP is done!
