<?xml version="1.0" encoding="ISO-8859-1"?>
<modeling>
 <generator>
  <i name="program" type="string">vasp </i>
  <i name="version" type="string">5.4.4.18Apr17-6-g9f103f2a35  </i>
  <i name="subversion" type="string">(build Aug 09 2018 16:20:53) complex            parallel </i>
  <i name="platform" type="string">LinuxIFC </i>
  <i name="date" type="string">2020 04 12 </i>
  <i name="time" type="string">23:48:16 </i>
 </generator>
 <incar>
  <i type="string" name="SYSTEM"> SQS with 1 vacancy for VFE and VRV</i>
  <i type="string" name="PREC">normal</i>
  <i type="int" name="IALGO">    38</i>
  <i type="int" name="ICHARG">     2</i>
  <i type="int" name="IBRION">     2</i>
  <i type="int" name="NSW">    50</i>
  <i type="int" name="ISIF">     3</i>
  <i type="int" name="ISYM">     0</i>
  <i name="ENCUT">    600.00000000</i>
  <i type="string" name="LREAL"> Auto</i>
  <i type="int" name="ISMEAR">     1</i>
  <i name="SIGMA">      0.20000000</i>
  <v type="int" name="KPOINT_BSE">    -1     0     0     0</v>
  <i type="string" name="GGA"> PS</i>
 </incar>
 <structure name="primitive_cell" >
  <crystal>
   <varray name="basis" >
    <v>      -3.19000000      -3.19000000      -3.19000000 </v>
    <v>       1.59500000       1.59500000      -7.97500000 </v>
    <v>       7.97500000      -7.97500000      -1.59500000 </v>
   </varray>
   <i name="volume">    486.92638500 </i>
   <varray name="rec_basis" >
    <v>      -0.13584117      -0.12539185      -0.05224660 </v>
    <v>       0.04179728       0.06269592      -0.10449321 </v>
    <v>       0.06269592      -0.06269592       0.00000000 </v>
   </varray>
  </crystal>
  <varray name="positions" >
   <v>      -0.03333333      -0.06666667       0.40000000 </v>
   <v>       0.30000000      -0.40000000       0.40000000 </v>
   <v>       0.06666667       0.13333333       0.20000000 </v>
   <v>       0.46666667      -0.06666667       0.40000000 </v>
   <v>      -0.13333333      -0.26666667      -0.40000000 </v>
   <v>       0.03333333       0.06666667      -0.40000000 </v>
   <v>      -0.36666667       0.26666667       0.40000000 </v>
   <v>       0.40000000      -0.20000000       0.20000000 </v>
   <v>      -0.20000000      -0.40000000       0.40000000 </v>
   <v>      -0.43333333       0.13333333       0.20000000 </v>
   <v>       0.36666667      -0.26666667      -0.40000000 </v>
   <v>       0.13333333       0.26666667       0.40000000 </v>
   <v>      -0.46666667       0.06666667      -0.40000000 </v>
   <v>       0.23333333       0.46666667       0.20000000 </v>
   <v>       0.20000000       0.40000000      -0.40000000 </v>
   <v>       0.00000000       0.00000000       0.00000000 </v>
   <v>      -0.06666667      -0.13333333      -0.20000000 </v>
   <v>      -0.30000000       0.40000000      -0.40000000 </v>
   <v>      -0.26666667       0.46666667       0.20000000 </v>
   <v>       0.33333333      -0.33333333       0.00000000 </v>
   <v>       0.43333333      -0.13333333      -0.20000000 </v>
   <v>      -0.50000000       0.00000000       0.00000000 </v>
   <v>       0.26666667      -0.46666667      -0.20000000 </v>
   <v>      -0.33333333       0.33333333       0.00000000 </v>
   <v>      -0.40000000       0.20000000      -0.20000000 </v>
   <v>      -0.16666667      -0.33333333       0.00000000 </v>
   <v>      -0.23333333      -0.46666667      -0.20000000 </v>
   <v>       0.16666667       0.33333333       0.00000000 </v>
   <v>       0.10000000       0.20000000      -0.20000000 </v>
  </varray>
 </structure>
 <varray name="primitive_index" >
  <v type="int" >        1 </v>
  <v type="int" >       17 </v>
  <v type="int" >       23 </v>
  <v type="int" >       19 </v>
  <v type="int" >       18 </v>
  <v type="int" >        6 </v>
  <v type="int" >        2 </v>
  <v type="int" >       15 </v>
  <v type="int" >        7 </v>
  <v type="int" >       14 </v>
  <v type="int" >       10 </v>
  <v type="int" >       11 </v>
  <v type="int" >       27 </v>
  <v type="int" >       29 </v>
  <v type="int" >       22 </v>
  <v type="int" >        4 </v>
  <v type="int" >       13 </v>
  <v type="int" >       25 </v>
  <v type="int" >        8 </v>
  <v type="int" >       28 </v>
  <v type="int" >       16 </v>
  <v type="int" >        3 </v>
  <v type="int" >       21 </v>
  <v type="int" >        9 </v>
  <v type="int" >       26 </v>
  <v type="int" >       12 </v>
  <v type="int" >       24 </v>
  <v type="int" >       20 </v>
  <v type="int" >        5 </v>
 </varray>
 <kpoints>
  <generation param="Gamma">
   <v type="int" name="divisions">       5        5        5 </v>
   <v name="usershift">      0.00000000       0.00000000       0.00000000 </v>
   <v name="genvec1">      0.20000000      -0.00000000      -0.00000000 </v>
   <v name="genvec2">      0.00000000       0.20000000       0.00000000 </v>
   <v name="genvec3">      0.00000000       0.00000000       0.20000000 </v>
   <v name="shift">      0.00000000       0.00000000       0.00000000 </v>
  </generation>
  <varray name="kpointlist" >
   <v>       0.00000000       0.00000000       0.00000000 </v>
   <v>       0.20000000      -0.00000000       0.00000000 </v>
   <v>       0.40000000      -0.00000000       0.00000000 </v>
   <v>       0.00000000       0.20000000       0.00000000 </v>
   <v>       0.20000000       0.20000000      -0.00000000 </v>
   <v>       0.40000000       0.20000000      -0.00000000 </v>
   <v>      -0.40000000       0.20000000      -0.00000000 </v>
   <v>      -0.20000000       0.20000000       0.00000000 </v>
   <v>       0.00000000       0.40000000       0.00000000 </v>
   <v>       0.20000000       0.40000000       0.00000000 </v>
   <v>       0.40000000       0.40000000      -0.00000000 </v>
   <v>      -0.40000000       0.40000000       0.00000000 </v>
   <v>      -0.20000000       0.40000000       0.00000000 </v>
   <v>       0.00000000       0.00000000       0.20000000 </v>
   <v>       0.20000000      -0.00000000       0.20000000 </v>
   <v>       0.40000000       0.00000000       0.20000000 </v>
   <v>      -0.40000000       0.00000000       0.20000000 </v>
   <v>      -0.20000000       0.00000000       0.20000000 </v>
   <v>       0.00000000       0.20000000       0.20000000 </v>
   <v>       0.20000000       0.20000000       0.20000000 </v>
   <v>       0.40000000       0.20000000       0.20000000 </v>
   <v>      -0.40000000       0.20000000       0.20000000 </v>
   <v>      -0.20000000       0.20000000       0.20000000 </v>
   <v>       0.00000000       0.40000000       0.20000000 </v>
   <v>       0.20000000       0.40000000       0.20000000 </v>
   <v>       0.40000000       0.40000000       0.20000000 </v>
   <v>      -0.40000000       0.40000000       0.20000000 </v>
   <v>      -0.20000000       0.40000000       0.20000000 </v>
   <v>       0.00000000      -0.40000000       0.20000000 </v>
   <v>       0.20000000      -0.40000000       0.20000000 </v>
   <v>       0.40000000      -0.40000000       0.20000000 </v>
   <v>      -0.40000000      -0.40000000       0.20000000 </v>
   <v>      -0.20000000      -0.40000000       0.20000000 </v>
   <v>       0.00000000      -0.20000000       0.20000000 </v>
   <v>       0.20000000      -0.20000000       0.20000000 </v>
   <v>       0.40000000      -0.20000000       0.20000000 </v>
   <v>      -0.40000000      -0.20000000       0.20000000 </v>
   <v>      -0.20000000      -0.20000000       0.20000000 </v>
   <v>       0.00000000       0.00000000       0.40000000 </v>
   <v>       0.20000000      -0.00000000       0.40000000 </v>
   <v>       0.40000000      -0.00000000       0.40000000 </v>
   <v>      -0.40000000       0.00000000       0.40000000 </v>
   <v>      -0.20000000       0.00000000       0.40000000 </v>
   <v>      -0.00000000       0.20000000       0.40000000 </v>
   <v>       0.20000000       0.20000000       0.40000000 </v>
   <v>       0.40000000       0.20000000       0.40000000 </v>
   <v>      -0.40000000       0.20000000       0.40000000 </v>
   <v>      -0.20000000       0.20000000       0.40000000 </v>
   <v>       0.00000000       0.40000000       0.40000000 </v>
   <v>       0.20000000       0.40000000       0.40000000 </v>
   <v>       0.40000000       0.40000000       0.40000000 </v>
   <v>      -0.40000000       0.40000000       0.40000000 </v>
   <v>      -0.20000000       0.40000000       0.40000000 </v>
   <v>       0.00000000      -0.40000000       0.40000000 </v>
   <v>       0.20000000      -0.40000000       0.40000000 </v>
   <v>       0.40000000      -0.40000000       0.40000000 </v>
   <v>      -0.40000000      -0.40000000       0.40000000 </v>
   <v>      -0.20000000      -0.40000000       0.40000000 </v>
   <v>       0.00000000      -0.20000000       0.40000000 </v>
   <v>       0.20000000      -0.20000000       0.40000000 </v>
   <v>       0.40000000      -0.20000000       0.40000000 </v>
   <v>      -0.40000000      -0.20000000       0.40000000 </v>
   <v>      -0.20000000      -0.20000000       0.40000000 </v>
  </varray>
  <varray name="weights" >
   <v>       0.00800000 </v>
   <v>       0.01600000 </v>
   <v>       0.01600000 </v>
   <v>       0.01600000 </v>
   <v>       0.01600000 </v>
   <v>       0.01600000 </v>
   <v>       0.01600000 </v>
   <v>       0.01600000 </v>
   <v>       0.01600000 </v>
   <v>       0.01600000 </v>
   <v>       0.01600000 </v>
   <v>       0.01600000 </v>
   <v>       0.01600000 </v>
   <v>       0.01600000 </v>
   <v>       0.01600000 </v>
   <v>       0.01600000 </v>
   <v>       0.01600000 </v>
   <v>       0.01600000 </v>
   <v>       0.01600000 </v>
   <v>       0.01600000 </v>
   <v>       0.01600000 </v>
   <v>       0.01600000 </v>
   <v>       0.01600000 </v>
   <v>       0.01600000 </v>
   <v>       0.01600000 </v>
   <v>       0.01600000 </v>
   <v>       0.01600000 </v>
   <v>       0.01600000 </v>
   <v>       0.01600000 </v>
   <v>       0.01600000 </v>
   <v>       0.01600000 </v>
   <v>       0.01600000 </v>
   <v>       0.01600000 </v>
   <v>       0.01600000 </v>
   <v>       0.01600000 </v>
   <v>       0.01600000 </v>
   <v>       0.01600000 </v>
   <v>       0.01600000 </v>
   <v>       0.01600000 </v>
   <v>       0.01600000 </v>
   <v>       0.01600000 </v>
   <v>       0.01600000 </v>
   <v>       0.01600000 </v>
   <v>       0.01600000 </v>
   <v>       0.01600000 </v>
   <v>       0.01600000 </v>
   <v>       0.01600000 </v>
   <v>       0.01600000 </v>
   <v>       0.01600000 </v>
   <v>       0.01600000 </v>
   <v>       0.01600000 </v>
   <v>       0.01600000 </v>
   <v>       0.01600000 </v>
   <v>       0.01600000 </v>
   <v>       0.01600000 </v>
   <v>       0.01600000 </v>
   <v>       0.01600000 </v>
   <v>       0.01600000 </v>
   <v>       0.01600000 </v>
   <v>       0.01600000 </v>
   <v>       0.01600000 </v>
   <v>       0.01600000 </v>
   <v>       0.01600000 </v>
  </varray>
 </kpoints>
 <parameters>
  <separator name="general" >
   <i type="string" name="SYSTEM">SQS with 1 vacancy for VFE and VRV</i>
   <i type="logical" name="LCOMPAT"> F  </i>
  </separator>
  <separator name="electronic" >
   <i type="string" name="PREC">normal</i>
   <i name="ENMAX">    600.00000000</i>
   <i name="ENAUG">    455.65900000</i>
   <i name="EDIFF">      0.00010000</i>
   <i type="int" name="IALGO">    38</i>
   <i type="int" name="IWAVPR">    11</i>
   <i type="int" name="NBANDS">   120</i>
   <i name="NELECT">    198.00000000</i>
   <i type="int" name="TURBO">     0</i>
   <i type="int" name="IRESTART">     0</i>
   <i type="int" name="NREBOOT">     0</i>
   <i type="int" name="NMIN">     0</i>
   <i name="EREF">      0.00000000</i>
   <separator name="electronic smearing" >
    <i type="int" name="ISMEAR">     1</i>
    <i name="SIGMA">      0.20000000</i>
    <i name="KSPACING">      0.50000000</i>
    <i type="logical" name="KGAMMA"> T  </i>
   </separator>
   <separator name="electronic projectors" >
    <i type="logical" name="LREAL"> T  </i>
    <v name="ROPT">     -0.00050000     -0.00050000     -0.00050000     -0.00050000     -0.00050000</v>
    <i type="int" name="LMAXPAW">  -100</i>
    <i type="int" name="LMAXMIX">     2</i>
    <i type="logical" name="NLSPLINE"> F  </i>
   </separator>
   <separator name="electronic startup" >
    <i type="int" name="ISTART">     0</i>
    <i type="int" name="ICHARG">     2</i>
    <i type="int" name="INIWAV">     1</i>
   </separator>
   <separator name="electronic spin" >
    <i type="int" name="ISPIN">     1</i>
    <i type="logical" name="LNONCOLLINEAR"> F  </i>
    <v name="MAGMOM">      1.00000000      1.00000000      1.00000000      1.00000000      1.00000000      1.00000000      1.00000000      1.00000000      1.00000000      1.00000000      1.00000000      1.00000000      1.00000000      1.00000000      1.00000000      1.00000000      1.00000000      1.00000000      1.00000000      1.00000000
      1.00000000      1.00000000      1.00000000      1.00000000      1.00000000      1.00000000      1.00000000      1.00000000      1.00000000</v>
    <i name="NUPDOWN">     -1.00000000</i>
    <i type="logical" name="LSORBIT"> F  </i>
    <v name="SAXIS">      0.00000000      0.00000000      1.00000000</v>
    <i type="logical" name="LSPIRAL"> F  </i>
    <v name="QSPIRAL">      0.00000000      0.00000000      0.00000000</v>
    <i type="logical" name="LZEROZ"> F  </i>
   </separator>
   <separator name="electronic exchange-correlation" >
    <i type="logical" name="LASPH"> F  </i>
    <i type="logical" name="LMETAGGA"> F  </i>
   </separator>
   <separator name="electronic convergence" >
    <i type="int" name="NELM">    60</i>
    <i type="int" name="NELMDL">    -5</i>
    <i type="int" name="NELMIN">     2</i>
    <i name="ENINI">    600.00000000</i>
    <separator name="electronic convergence detail" >
     <i type="logical" name="LDIAG"> T  </i>
     <i type="logical" name="LSUBROT"> F  </i>
     <i name="WEIMIN">      0.00100000</i>
     <i name="EBREAK">      0.00000021</i>
     <i name="DEPER">      0.30000000</i>
     <i type="int" name="NRMM">     4</i>
     <i name="TIME">      0.40000000</i>
    </separator>
   </separator>
   <separator name="electronic mixer" >
    <i name="AMIX">      0.40000000</i>
    <i name="BMIX">      1.00000000</i>
    <i name="AMIN">      0.10000000</i>
    <i name="AMIX_MAG">      1.60000000</i>
    <i name="BMIX_MAG">      1.00000000</i>
    <separator name="electronic mixer details" >
     <i type="int" name="IMIX">     4</i>
     <i type="logical" name="MIXFIRST"> F  </i>
     <i type="int" name="MAXMIX">   -45</i>
     <i name="WC">    100.00000000</i>
     <i type="int" name="INIMIX">     1</i>
     <i type="int" name="MIXPRE">     1</i>
     <i type="int" name="MREMOVE">     5</i>
    </separator>
   </separator>
   <separator name="electronic dipolcorrection" >
    <i type="logical" name="LDIPOL"> F  </i>
    <i type="logical" name="LMONO"> F  </i>
    <i type="int" name="IDIPOL">     0</i>
    <i name="EPSILON">      1.00000000</i>
    <v name="DIPOL">   -100.00000000   -100.00000000   -100.00000000</v>
    <i name="EFIELD">      0.00000000</i>
   </separator>
  </separator>
  <separator name="grids" >
   <i type="int" name="NGX">    36</i>
   <i type="int" name="NGY">    50</i>
   <i type="int" name="NGZ">    70</i>
   <i type="int" name="NGXF">    72</i>
   <i type="int" name="NGYF">   100</i>
   <i type="int" name="NGZF">   140</i>
   <i type="logical" name="ADDGRID"> F  </i>
  </separator>
  <separator name="ionic" >
   <i type="int" name="NSW">    50</i>
   <i type="int" name="IBRION">     2</i>
   <i type="int" name="MDALGO">     0</i>
   <i type="int" name="ISIF">     3</i>
   <i name="PSTRESS">      0.00000000</i>
   <i name="EDIFFG">      0.00100000</i>
   <i type="int" name="NFREE">     1</i>
   <i name="POTIM">      0.50000000</i>
   <i name="SMASS">     -3.00000000</i>
   <i name="SCALEE">      1.00000000</i>
  </separator>
  <separator name="ionic md" >
   <i name="TEBEG">      0.00010000</i>
   <i name="TEEND">      0.00010000</i>
   <i type="int" name="NBLOCK">     1</i>
   <i type="int" name="KBLOCK">    50</i>
   <i type="int" name="NPACO">   256</i>
   <i name="APACO">     16.00000000</i>
  </separator>
  <separator name="symmetry" >
   <i type="int" name="ISYM">     0</i>
   <i name="SYMPREC">      0.00001000</i>
  </separator>
  <separator name="dos" >
   <i type="int" name="LORBIT">     0</i>
   <v name="RWIGS">     -1.00000000     -1.00000000     -1.00000000     -1.00000000     -1.00000000</v>
   <i type="int" name="NEDOS">   301</i>
   <i name="EMIN">     10.00000000</i>
   <i name="EMAX">    -10.00000000</i>
   <i name="EFERMI">      0.00000000</i>
  </separator>
  <separator name="writing" >
   <i type="int" name="NWRITE">     2</i>
   <i type="logical" name="LWAVE"> T  </i>
   <i type="logical" name="LDOWNSAMPLE"> F  </i>
   <i type="logical" name="LCHARG"> T  </i>
   <i type="logical" name="LPARD"> F  </i>
   <i type="logical" name="LVTOT"> F  </i>
   <i type="logical" name="LVHAR"> F  </i>
   <i type="logical" name="LELF"> F  </i>
   <i type="logical" name="LOPTICS"> F  </i>
   <v name="STM">      0.00000000      0.00000000      0.00000000      0.00000000      0.00000000      0.00000000      0.00000000</v>
  </separator>
  <separator name="performance" >
   <i type="int" name="NPAR">     8</i>
   <i type="int" name="NSIM">     4</i>
   <i type="int" name="NBLK">    -1</i>
   <i type="logical" name="LPLANE"> T  </i>
   <i type="logical" name="LSCALAPACK"> T  </i>
   <i type="logical" name="LSCAAWARE"> F  </i>
   <i type="logical" name="LSCALU"> F  </i>
   <i type="logical" name="LASYNC"> F  </i>
   <i type="logical" name="LORBITALREAL"> F  </i>
  </separator>
  <separator name="miscellaneous" >
   <i type="int" name="IDIOT">     3</i>
   <i type="int" name="ISPECIAL">     0</i>
   <i type="logical" name="LMUSIC"> F  </i>
   <v name="POMASS">     92.91000000     95.94000000    180.94800000     47.88000000    183.85000000</v>
   <v name="DARWINR">      0.00000000      0.00000000      0.00000000      0.00000000      0.00000000</v>
   <v name="DARWINV">      1.00000000      1.00000000      1.00000000      1.00000000      1.00000000</v>
   <i type="logical" name="LCORR"> T  </i>
  </separator>
  <i type="logical" name="GGA_COMPAT"> T  </i>
  <i type="logical" name="LBERRY"> F  </i>
  <i type="int" name="ICORELEVEL">     0</i>
  <i type="logical" name="LDAU"> F  </i>
  <i type="int" name="I_CONSTRAINED_M">     0</i>
  <separator name="electronic exchange-correlation" >
   <i type="string" name="GGA">PS</i>
   <i type="int" name="VOSKOWN">     0</i>
   <i type="logical" name="LHFCALC"> F  </i>
   <i type="string" name="PRECFOCK"></i>
   <i type="logical" name="LSYMGRAD"> F  </i>
   <i type="logical" name="LHFONE"> F  </i>
   <i type="logical" name="LRHFCALC"> F  </i>
   <i type="logical" name="LTHOMAS"> F  </i>
   <i type="logical" name="LMODELHF"> F  </i>
   <i name="ENCUT4O">     -1.00000000</i>
   <i type="int" name="EXXOEP">     0</i>
   <i type="int" name="FOURORBIT">     0</i>
   <i name="AEXX">      0.00000000</i>
   <i name="HFALPHA">      0.00000000</i>
   <i name="MCALPHA">      0.00000000</i>
   <i name="ALDAX">      1.00000000</i>
   <i name="AGGAX">      1.00000000</i>
   <i name="ALDAC">      1.00000000</i>
   <i name="AGGAC">      1.00000000</i>
   <i type="int" name="NKREDX">     1</i>
   <i type="int" name="NKREDY">     1</i>
   <i type="int" name="NKREDZ">     1</i>
   <i type="logical" name="SHIFTRED"> F  </i>
   <i type="logical" name="ODDONLY"> F  </i>
   <i type="logical" name="EVENONLY"> F  </i>
   <i type="int" name="LMAXFOCK">     0</i>
   <i type="int" name="NMAXFOCKAE">     0</i>
   <i type="logical" name="LFOCKAEDFT"> F  </i>
   <i name="HFSCREEN">      0.00000000</i>
   <i name="HFSCREENC">      0.00000000</i>
   <i type="int" name="NBANDSGWLOW">     0</i>
  </separator>
  <separator name="vdW DFT" >
   <i type="logical" name="LUSE_VDW"> F  </i>
   <i name="Zab_VDW">     -0.84910000</i>
   <i name="PARAM1">      0.12340000</i>
   <i name="PARAM2">      1.00000000</i>
   <i name="PARAM3">      0.00000000</i>
  </separator>
  <separator name="model GW" >
   <i type="int" name="MODEL_GW">     0</i>
   <i name="MODEL_EPS0">     10.07433900</i>
   <i name="MODEL_ALPHA">      1.00000000</i>
  </separator>
  <separator name="linear response parameters" >
   <i type="logical" name="LEPSILON"> F  </i>
   <i type="logical" name="LRPA"> F  </i>
   <i type="logical" name="LNABLA"> F  </i>
   <i type="logical" name="LVEL"> F  </i>
   <i type="int" name="KINTER">     0</i>
   <i name="CSHIFT">      0.10000000</i>
   <i name="OMEGAMAX">     -1.00000000</i>
   <i name="DEG_THRESHOLD">      0.00200000</i>
   <i name="RTIME">     -0.10000000</i>
   <i name="WPLASMAI">      0.00000000</i>
   <v name="DFIELD">      0.00000000      0.00000000      0.00000000</v>
   <v name="WPLASMA">      0.00000000      0.00000000      0.00000000      0.00000000      0.00000000      0.00000000      0.00000000      0.00000000      0.00000000</v>
  </separator>
  <separator name="orbital magnetization" >
   <i type="logical" name="NUCIND"> F  </i>
   <v name="MAGPOS">      0.00000000      0.00000000      0.00000000</v>
   <i type="logical" name="LNICSALL"> T  </i>
   <i type="logical" name="ORBITALMAG"> F  </i>
   <i type="logical" name="LMAGBLOCH"> F  </i>
   <i type="logical" name="LCHIMAG"> F  </i>
   <i type="logical" name="LGAUGE"> T  </i>
   <i type="int" name="MAGATOM">     0</i>
   <v name="MAGDIPOL">      0.00000000      0.00000000      0.00000000</v>
   <v name="AVECCONST">      0.00000000      0.00000000      0.00000000</v>
  </separator>
  <separator name="response functions" >
   <i type="logical" name="LADDER"> F  </i>
   <i type="logical" name="LRPAFORCE"> F  </i>
   <i type="logical" name="LFXC"> F  </i>
   <i type="logical" name="LHARTREE"> T  </i>
   <i type="int" name="IBSE">     0</i>
   <v type="int" name="KPOINT">    -1     0     0     0</v>
   <i type="logical" name="LTCTE"> F  </i>
   <i type="logical" name="LTETE"> F  </i>
   <i type="logical" name="LTRIPLET"> F  </i>
   <i type="logical" name="LFXCEPS"> F  </i>
   <i type="logical" name="LFXHEG"> F  </i>
   <i type="int" name="NATURALO">     2</i>
   <i type="logical" name="L2ORDER"> F  </i>
   <i type="logical" name="LMP2LT"> F  </i>
   <i type="logical" name="LUSEW"> F  </i>
   <i name="ENCUTGW">     -2.00000000</i>
   <i name="ENCUTGWSOFT">     -2.00000000</i>
   <i name="ENCUTLF">     -1.00000000</i>
   <i type="int" name="LMAXMP2">    -1</i>
   <i name="SCISSOR">      0.00000000</i>
   <i type="int" name="NOMEGA">     0</i>
   <i type="int" name="NOMEGAR">     0</i>
   <i type="int" name="NBANDSGW">    -1</i>
   <i type="int" name="NBANDSO">    -1</i>
   <i type="int" name="NBANDSV">    -1</i>
   <i type="int" name="NELM">     1</i>
   <i type="int" name="NELMHF">     1</i>
   <i type="int" name="DIM">     3</i>
   <i type="int" name="ANTIRES">     0</i>
   <i name="OMEGAMAX">    -30.00000000</i>
   <i name="OMEGAMIN">    -30.00000000</i>
   <i name="OMEGATL">   -200.00000000</i>
   <i type="int" name="OMEGAGRID">   140</i>
   <i name="CSHIFT">     -0.10000000</i>
   <i type="logical" name="SELFENERGY"> F  </i>
   <i type="logical" name="LSPECTRAL"> F  </i>
   <i type="logical" name="LSPECTRALGW"> F  </i>
   <i type="logical" name="LSINGLES"> F  </i>
   <i type="logical" name="LFERMIGW"> F  </i>
   <i type="logical" name="ODDONLYGW"> F  </i>
   <i type="logical" name="EVENONLYGW"> F  </i>
   <i type="int" name="NKREDLFX">     1</i>
   <i type="int" name="NKREDLFY">     1</i>
   <i type="int" name="NKREDLFZ">     1</i>
   <i type="int" name="MAXMEM">  2800</i>
   <i type="int" name="TELESCOPE">     0</i>
   <i type="int" name="TAUPAR">     1</i>
   <i type="int" name="OMEGAPAR">    -1</i>
   <i name="LAMBDA">      1.00000000</i>
  </separator>
  <separator name="External order field" >
   <i name="OFIELD_KAPPA">      0.00000000</i>
   <v name="OFIELD_K">      0.00000000      0.00000000      0.00000000</v>
   <i name="OFIELD_Q6_NEAR">      0.00000000</i>
   <i name="OFIELD_Q6_FAR">      0.00000000</i>
   <i name="OFIELD_A">      0.00000000</i>
  </separator>
  <separator name="solvation model" >
   <i type="logical" name="LSOL"> F  </i>
  </separator>
 </parameters>
 <atominfo>
  <atoms>      29 </atoms>
  <types>       5 </types>
  <array name="atoms" >
   <dimension dim="1">ion</dimension>
   <field type="string">element</field>
   <field type="int">atomtype</field>
   <set>
    <rc><c>Nb</c><c>   1</c></rc>
    <rc><c>Nb</c><c>   1</c></rc>
    <rc><c>Nb</c><c>   1</c></rc>
    <rc><c>Nb</c><c>   1</c></rc>
    <rc><c>Nb</c><c>   1</c></rc>
    <rc><c>Nb</c><c>   1</c></rc>
    <rc><c>Mo</c><c>   2</c></rc>
    <rc><c>Mo</c><c>   2</c></rc>
    <rc><c>Mo</c><c>   2</c></rc>
    <rc><c>Mo</c><c>   2</c></rc>
    <rc><c>Mo</c><c>   2</c></rc>
    <rc><c>Ta</c><c>   3</c></rc>
    <rc><c>Ta</c><c>   3</c></rc>
    <rc><c>Ta</c><c>   3</c></rc>
    <rc><c>Ta</c><c>   3</c></rc>
    <rc><c>Ta</c><c>   3</c></rc>
    <rc><c>Ta</c><c>   3</c></rc>
    <rc><c>Ti</c><c>   4</c></rc>
    <rc><c>Ti</c><c>   4</c></rc>
    <rc><c>Ti</c><c>   4</c></rc>
    <rc><c>Ti</c><c>   4</c></rc>
    <rc><c>Ti</c><c>   4</c></rc>
    <rc><c>Ti</c><c>   4</c></rc>
    <rc><c>W </c><c>   5</c></rc>
    <rc><c>W </c><c>   5</c></rc>
    <rc><c>W </c><c>   5</c></rc>
    <rc><c>W </c><c>   5</c></rc>
    <rc><c>W </c><c>   5</c></rc>
    <rc><c>W </c><c>   5</c></rc>
   </set>
  </array>
  <array name="atomtypes" >
   <dimension dim="1">type</dimension>
   <field type="int">atomspertype</field>
   <field type="string">element</field>
   <field>mass</field>
   <field>valence</field>
   <field type="string">pseudopotential</field>
   <set>
    <rc><c>   6</c><c>Nb</c><c>     92.91000000</c><c>     13.00000000</c><c>  PAW_PBE Nb_sv 25May2007               </c></rc>
    <rc><c>   5</c><c>Mo</c><c>     95.94000000</c><c>      6.00000000</c><c>  PAW_PBE Mo 08Apr2002                  </c></rc>
    <rc><c>   6</c><c>Ta</c><c>    180.94800000</c><c>      5.00000000</c><c>  PAW_PBE Ta 17Jan2003                  </c></rc>
    <rc><c>   6</c><c>Ti</c><c>     47.88000000</c><c>      4.00000000</c><c>  PAW_PBE Ti 08Apr2002                  </c></rc>
    <rc><c>   6</c><c>W </c><c>    183.85000000</c><c>      6.00000000</c><c>  PAW_PBE W 08Apr2002                   </c></rc>
   </set>
  </array>
 </atominfo>
 <structure name="initialpos" >
  <crystal>
   <varray name="basis" >
    <v>      -3.19000000      -3.19000000      -3.19000000 </v>
    <v>       1.59500000       1.59500000      -7.97500000 </v>
    <v>       7.97500000      -7.97500000      -1.59500000 </v>
   </varray>
   <i name="volume">    486.92638500 </i>
   <varray name="rec_basis" >
    <v>      -0.13584117      -0.12539185      -0.05224660 </v>
    <v>       0.04179728       0.06269592      -0.10449321 </v>
    <v>       0.06269592      -0.06269592       0.00000000 </v>
   </varray>
  </crystal>
  <varray name="positions" >
   <v>       0.96666667       0.93333333       0.40000000 </v>
   <v>       0.63333333       0.26666667       0.40000000 </v>
   <v>       0.50000000       0.00000000       0.00000000 </v>
   <v>       0.00000000       0.00000000       0.00000000 </v>
   <v>       0.10000000       0.20000000       0.80000000 </v>
   <v>       0.03333333       0.06666667       0.60000000 </v>
   <v>       0.80000000       0.60000000       0.40000000 </v>
   <v>       0.73333333       0.46666667       0.20000000 </v>
   <v>       0.66666667       0.33333333       0.00000000 </v>
   <v>       0.36666667       0.73333333       0.60000000 </v>
   <v>       0.13333333       0.26666667       0.40000000 </v>
   <v>       0.83333333       0.66666667       0.00000000 </v>
   <v>       0.93333333       0.86666667       0.80000000 </v>
   <v>       0.56666667       0.13333333       0.20000000 </v>
   <v>       0.40000000       0.80000000       0.20000000 </v>
   <v>       0.43333333       0.86666667       0.80000000 </v>
   <v>       0.30000000       0.60000000       0.40000000 </v>
   <v>       0.86666667       0.73333333       0.60000000 </v>
   <v>       0.46666667       0.93333333       0.40000000 </v>
   <v>       0.16666667       0.33333333       0.00000000 </v>
   <v>       0.26666667       0.53333333       0.80000000 </v>
   <v>       0.20000000       0.40000000       0.60000000 </v>
   <v>       0.06666667       0.13333333       0.20000000 </v>
   <v>       0.76666667       0.53333333       0.80000000 </v>
   <v>       0.70000000       0.40000000       0.60000000 </v>
   <v>       0.60000000       0.20000000       0.80000000 </v>
   <v>       0.53333333       0.06666667       0.60000000 </v>
   <v>       0.33333333       0.66666667       0.00000000 </v>
   <v>       0.23333333       0.46666667       0.20000000 </v>
  </varray>
 </structure>
 <calculation>
  <scstep>
   <time name="dav">   18.39   18.42</time>
   <time name="total">   18.43   18.47</time>
   <energy>
    <i name="alphaZ">   1294.27175739 </i>
    <i name="ewald"> -11482.70876959 </i>
    <i name="hartreedc">  -3187.09979377 </i>
    <i name="XCdc">   -844.42322119 </i>
    <i name="pawpsdc">  12039.63450526 </i>
    <i name="pawaedc"> -10545.81420232 </i>
    <i name="eentropy">      0.00028686 </i>
    <i name="bandstr">   1882.47784018 </i>
    <i name="atom">  12993.56182891 </i>
    <i name="e_fr_energy">   2149.90023173 </i>
    <i name="e_wo_entrp">   2149.89994486 </i>
    <i name="e_0_energy">   2149.90013610 </i>
   </energy>
  </scstep>
  <scstep>
   <time name="dav">   18.43   18.46</time>
   <time name="total">   18.44   18.47</time>
   <energy>
    <i name="e_fr_energy">     70.23467018 </i>
    <i name="e_wo_entrp">     70.23087678 </i>
    <i name="e_0_energy">     70.23340571 </i>
   </energy>
  </scstep>
  <scstep>
   <time name="dav">   28.75   28.80</time>
   <time name="total">   28.76   28.81</time>
   <energy>
    <i name="e_fr_energy">   -301.38787152 </i>
    <i name="e_wo_entrp">   -301.39070672 </i>
    <i name="e_0_energy">   -301.38881659 </i>
   </energy>
  </scstep>
  <scstep>
   <time name="dav">   25.92   25.97</time>
   <time name="total">   25.93   25.98</time>
   <energy>
    <i name="e_fr_energy">   -346.99224259 </i>
    <i name="e_wo_entrp">   -346.98375825 </i>
    <i name="e_0_energy">   -346.98941448 </i>
   </energy>
  </scstep>
  <scstep>
   <time name="dav">   31.09   31.13</time>
   <time name="total">   31.68   31.73</time>
   <energy>
    <i name="e_fr_energy">   -352.09421120 </i>
    <i name="e_wo_entrp">   -352.08962061 </i>
    <i name="e_0_energy">   -352.09268100 </i>
   </energy>
  </scstep>
  <scstep>
   <time name="dav">   23.58   23.62</time>
   <time name="total">   24.21   24.25</time>
   <energy>
    <i name="e_fr_energy">   -340.97669380 </i>
    <i name="e_wo_entrp">   -340.97099250 </i>
    <i name="e_0_energy">   -340.97479336 </i>
   </energy>
  </scstep>
  <scstep>
   <time name="dav">   24.54   24.58</time>
   <time name="total">   25.17   25.21</time>
   <energy>
    <i name="e_fr_energy">   -356.00314154 </i>
    <i name="e_wo_entrp">   -356.00598387 </i>
    <i name="e_0_energy">   -356.00408898 </i>
   </energy>
  </scstep>
  <scstep>
   <time name="dav">   24.36   24.39</time>
   <time name="total">   24.98   25.01</time>
   <energy>
    <i name="e_fr_energy">   -335.97632936 </i>
    <i name="e_wo_entrp">   -335.97686344 </i>
    <i name="e_0_energy">   -335.97650739 </i>
   </energy>
  </scstep>
  <scstep>
   <time name="dav">   25.53   25.57</time>
   <time name="total">   26.16   26.19</time>
   <energy>
    <i name="e_fr_energy">   -331.96369517 </i>
    <i name="e_wo_entrp">   -331.95814083 </i>
    <i name="e_0_energy">   -331.96184372 </i>
   </energy>
  </scstep>
  <scstep>
   <time name="dav">   24.43   24.46</time>
   <time name="total">   25.05   25.10</time>
   <energy>
    <i name="e_fr_energy">   -330.75946306 </i>
    <i name="e_wo_entrp">   -330.74164427 </i>
    <i name="e_0_energy">   -330.75352346 </i>
   </energy>
  </scstep>
  <scstep>
   <time name="dav">   24.97   25.01</time>
   <time name="total">   25.64   25.67</time>
   <energy>
    <i name="e_fr_energy">   -330.58837326 </i>
    <i name="e_wo_entrp">   -330.57413795 </i>
    <i name="e_0_energy">   -330.58362815 </i>
   </energy>
  </scstep>
  <scstep>
   <time name="dav">   25.16   25.19</time>
   <time name="total">   25.78   25.82</time>
   <energy>
    <i name="e_fr_energy">   -330.58935498 </i>
    <i name="e_wo_entrp">   -330.56990194 </i>
    <i name="e_0_energy">   -330.58287063 </i>
   </energy>
  </scstep>
  <scstep>
   <time name="dav">   25.09   25.13</time>
   <time name="total">   25.73   25.77</time>
   <energy>
    <i name="e_fr_energy">   -330.54295374 </i>
    <i name="e_wo_entrp">   -330.52429094 </i>
    <i name="e_0_energy">   -330.53673281 </i>
   </energy>
  </scstep>
  <scstep>
   <time name="dav">   26.04   26.08</time>
   <time name="total">   26.66   26.70</time>
   <energy>
    <i name="e_fr_energy">   -330.52551190 </i>
    <i name="e_wo_entrp">   -330.50668338 </i>
    <i name="e_0_energy">   -330.51923573 </i>
   </energy>
  </scstep>
  <scstep>
   <time name="dav">   24.54   24.57</time>
   <time name="total">   25.16   25.20</time>
   <energy>
    <i name="e_fr_energy">   -330.51958600 </i>
    <i name="e_wo_entrp">   -330.50130631 </i>
    <i name="e_0_energy">   -330.51349277 </i>
   </energy>
  </scstep>
  <scstep>
   <time name="dav">   25.48   25.52</time>
   <time name="total">   26.12   26.16</time>
   <energy>
    <i name="e_fr_energy">   -330.51859250 </i>
    <i name="e_wo_entrp">   -330.49981201 </i>
    <i name="e_0_energy">   -330.51233233 </i>
   </energy>
  </scstep>
  <scstep>
   <time name="dav">   24.55   24.59</time>
   <time name="total">   25.19   25.24</time>
   <energy>
    <i name="e_fr_energy">   -330.51733365 </i>
    <i name="e_wo_entrp">   -330.49881255 </i>
    <i name="e_0_energy">   -330.51115995 </i>
   </energy>
  </scstep>
  <scstep>
   <time name="dav">   23.20   23.23</time>
   <time name="total">   23.82   23.87</time>
   <energy>
    <i name="e_fr_energy">   -330.51678379 </i>
    <i name="e_wo_entrp">   -330.49830307 </i>
    <i name="e_0_energy">   -330.51062355 </i>
   </energy>
  </scstep>
  <scstep>
   <time name="dav">   22.89   22.92</time>
   <time name="total">   23.53   23.58</time>
   <energy>
    <i name="e_fr_energy">   -330.51673726 </i>
    <i name="e_wo_entrp">   -330.49830649 </i>
    <i name="e_0_energy">   -330.51059367 </i>
   </energy>
  </scstep>
  <scstep>
   <time name="dav">   20.15   20.18</time>
   <time name="total">   20.18   20.21</time>
   <energy>
    <i name="alphaZ">   1294.27175739 </i>
    <i name="ewald"> -11482.70876959 </i>
    <i name="hartreedc">  -3044.06925037 </i>
    <i name="XCdc">   -838.77581455 </i>
    <i name="pawpsdc">  20921.33629609 </i>
    <i name="pawaedc"> -19428.06629252 </i>
    <i name="eentropy">     -0.01841680 </i>
    <i name="bandstr">   -746.04801881 </i>
    <i name="atom">  12993.56182891 </i>
    <i name="e_fr_energy">   -330.51668026 </i>
    <i name="e_wo_entrp">   -330.49826346 </i>
    <i name="e_0_energy">   -330.51054133 </i>
   </energy>
  </scstep>
  <structure>
   <crystal>
    <varray name="basis" >
     <v>      -3.19000000      -3.19000000      -3.19000000 </v>
     <v>       1.59500000       1.59500000      -7.97500000 </v>
     <v>       7.97500000      -7.97500000      -1.59500000 </v>
    </varray>
    <i name="volume">    486.92638500 </i>
    <varray name="rec_basis" >
     <v>      -0.13584117      -0.12539185      -0.05224660 </v>
     <v>       0.04179728       0.06269592      -0.10449321 </v>
     <v>       0.06269592      -0.06269592       0.00000000 </v>
    </varray>
   </crystal>
   <varray name="positions" >
    <v>       0.96666667       0.93333333       0.40000000 </v>
    <v>       0.63333333       0.26666667       0.40000000 </v>
    <v>       0.50000000       0.00000000       0.00000000 </v>
    <v>       0.00000000       0.00000000       0.00000000 </v>
    <v>       0.10000000       0.20000000       0.80000000 </v>
    <v>       0.03333333       0.06666667       0.60000000 </v>
    <v>       0.80000000       0.60000000       0.40000000 </v>
    <v>       0.73333333       0.46666667       0.20000000 </v>
    <v>       0.66666667       0.33333333       0.00000000 </v>
    <v>       0.36666667       0.73333333       0.60000000 </v>
    <v>       0.13333333       0.26666667       0.40000000 </v>
    <v>       0.83333333       0.66666667       0.00000000 </v>
    <v>       0.93333333       0.86666667       0.80000000 </v>
    <v>       0.56666667       0.13333333       0.20000000 </v>
    <v>       0.40000000       0.80000000       0.20000000 </v>
    <v>       0.43333333       0.86666667       0.80000000 </v>
    <v>       0.30000000       0.60000000       0.40000000 </v>
    <v>       0.86666667       0.73333333       0.60000000 </v>
    <v>       0.46666667       0.93333333       0.40000000 </v>
    <v>       0.16666667       0.33333333       0.00000000 </v>
    <v>       0.26666667       0.53333333       0.80000000 </v>
    <v>       0.20000000       0.40000000       0.60000000 </v>
    <v>       0.06666667       0.13333333       0.20000000 </v>
    <v>       0.76666667       0.53333333       0.80000000 </v>
    <v>       0.70000000       0.40000000       0.60000000 </v>
    <v>       0.60000000       0.20000000       0.80000000 </v>
    <v>       0.53333333       0.06666667       0.60000000 </v>
    <v>       0.33333333       0.66666667       0.00000000 </v>
    <v>       0.23333333       0.46666667       0.20000000 </v>
   </varray>
  </structure>
  <varray name="forces" >
   <v>      -0.60845902       0.81408017       0.63123240 </v>
   <v>       0.04782268       0.00726111       0.17816022 </v>
   <v>       0.11039440       0.32384164      -0.18415592 </v>
   <v>       0.47028074      -0.54629719       0.22036652 </v>
   <v>       0.02121139       0.58599606      -0.56212809 </v>
   <v>      -0.45443623       0.07020472      -0.21839841 </v>
   <v>      -0.60307221      -0.02873328       0.39783706 </v>
   <v>      -0.02538308       0.10167830      -0.02564449 </v>
   <v>       0.18211282       0.31876175      -0.44078413 </v>
   <v>      -0.20862282      -0.14710854       0.27889808 </v>
   <v>      -0.01636932       0.32223636      -0.47278300 </v>
   <v>       0.43145335      -0.77167247       0.07536311 </v>
   <v>       0.27229784       0.24718706      -0.07539340 </v>
   <v>      -0.46256427       0.21919181       0.22010941 </v>
   <v>      -0.61446109      -0.16710829       0.75691164 </v>
   <v>      -0.81052348      -0.15806106       0.62910383 </v>
   <v>       0.22464495      -0.22254842      -0.34959369 </v>
   <v>       0.10893953       0.42101494       0.22945400 </v>
   <v>       0.96321723      -0.46349128       0.24310999 </v>
   <v>       0.07178006      -0.37330695      -0.25523909 </v>
   <v>      -0.04494448      -0.00960520      -0.19151831 </v>
   <v>      -0.30078189       0.11461845       0.50344002 </v>
   <v>       0.58870377      -0.33370697      -1.27807226 </v>
   <v>      -0.26922614      -0.19886835       0.58003336 </v>
   <v>       0.80469721       0.09783531      -0.83808108 </v>
   <v>      -0.07842958       0.34654475      -0.09691273 </v>
   <v>      -0.00643118      -0.43681977      -0.42119920 </v>
   <v>      -0.08036561      -0.56419164       0.71918165 </v>
   <v>       0.28651440       0.43106698      -0.25329751 </v>
  </varray>
  <varray name="stress" >
   <v>     -19.26030585      -1.89507670       2.86055154 </v>
   <v>      -1.89507669     -29.42363805      -3.18983974 </v>
   <v>       2.86055171      -3.18983983     -24.53376962 </v>
  </varray>
  <energy>
   <i name="e_fr_energy">   -330.51668026 </i>
   <i name="e_wo_entrp">   -330.51054133 </i>
   <i name="e_0_energy">     -0.01841680 </i>
  </energy>
  <time name="totalsc">  516.16  517.04</time>
 </calculation>
 <calculation>
  <scstep>
   <time name="dav">   19.23   19.26</time>
   <time name="total">   19.86   19.90</time>
   <energy>
    <i name="alphaZ">   1343.40582821 </i>
    <i name="ewald"> -11684.77728553 </i>
    <i name="hartreedc">  -3025.58175533 </i>
    <i name="XCdc">   -834.18772717 </i>
    <i name="pawpsdc">  20921.56950870 </i>
    <i name="pawaedc"> -19428.25431059 </i>
    <i name="eentropy">     -0.01424889 </i>
    <i name="bandstr">   -617.35966024 </i>
    <i name="atom">  12993.56182891 </i>
    <i name="e_fr_energy">   -331.63782194 </i>
    <i name="e_wo_entrp">   -331.62357305 </i>
    <i name="e_0_energy">   -331.63307231 </i>
   </energy>
  </scstep>
  <scstep>
   <time name="dav">   25.78   25.81</time>
   <time name="total">   26.40   26.44</time>
   <energy>
    <i name="e_fr_energy">   -332.01629336 </i>
    <i name="e_wo_entrp">   -332.01551174 </i>
    <i name="e_0_energy">   -332.01603282 </i>
   </energy>
  </scstep>
  <scstep>
   <time name="dav">   25.31   25.35</time>
   <time name="total">   25.94   25.97</time>
   <energy>
    <i name="e_fr_energy">   -331.56928125 </i>
    <i name="e_wo_entrp">   -331.56154839 </i>
    <i name="e_0_energy">   -331.56670363 </i>
   </energy>
  </scstep>
  <scstep>
   <time name="dav">   26.19   26.23</time>
   <time name="total">   26.84   26.88</time>
   <energy>
    <i name="e_fr_energy">   -331.21975806 </i>
    <i name="e_wo_entrp">   -331.21094281 </i>
    <i name="e_0_energy">   -331.21681964 </i>
   </energy>
  </scstep>
  <scstep>
   <time name="dav">   25.58   25.62</time>
   <time name="total">   26.21   26.24</time>
   <energy>
    <i name="e_fr_energy">   -330.99486415 </i>
    <i name="e_wo_entrp">   -330.98507673 </i>
    <i name="e_0_energy">   -330.99160167 </i>
   </energy>
  </scstep>
  <scstep>
   <time name="dav">   27.84   27.88</time>
   <time name="total">   28.47   28.51</time>
   <energy>
    <i name="e_fr_energy">   -330.92193286 </i>
    <i name="e_wo_entrp">   -330.91029716 </i>
    <i name="e_0_energy">   -330.91805429 </i>
   </energy>
  </scstep>
  <scstep>
   <time name="dav">   27.08   27.12</time>
   <time name="total">   27.71   27.76</time>
   <energy>
    <i name="e_fr_energy">   -330.93103148 </i>
    <i name="e_wo_entrp">   -330.92105212 </i>
    <i name="e_0_energy">   -330.92770503 </i>
   </energy>
  </scstep>
  <scstep>
   <time name="dav">   27.53   27.57</time>
   <time name="total">   28.16   28.20</time>
   <energy>
    <i name="e_fr_energy">   -330.92241159 </i>
    <i name="e_wo_entrp">   -330.91081179 </i>
    <i name="e_0_energy">   -330.91854499 </i>
   </energy>
  </scstep>
  <scstep>
   <time name="dav">   26.44   26.48</time>
   <time name="total">   27.07   27.11</time>
   <energy>
    <i name="e_fr_energy">   -330.92472845 </i>
    <i name="e_wo_entrp">   -330.91305229 </i>
    <i name="e_0_energy">   -330.92083640 </i>
   </energy>
  </scstep>
  <scstep>
   <time name="dav">   26.84   26.88</time>
   <time name="total">   27.47   27.51</time>
   <energy>
    <i name="e_fr_energy">   -330.92830530 </i>
    <i name="e_wo_entrp">   -330.91687944 </i>
    <i name="e_0_energy">   -330.92449668 </i>
   </energy>
  </scstep>
  <scstep>
   <time name="dav">   27.50   27.53</time>
   <time name="total">   28.13   28.18</time>
   <energy>
    <i name="e_fr_energy">   -330.92921128 </i>
    <i name="e_wo_entrp">   -330.91759344 </i>
    <i name="e_0_energy">   -330.92533867 </i>
   </energy>
  </scstep>
  <scstep>
   <time name="dav">   25.85   25.88</time>
   <time name="total">   26.48   26.51</time>
   <energy>
    <i name="e_fr_energy">   -330.92916308 </i>
    <i name="e_wo_entrp">   -330.91757864 </i>
    <i name="e_0_energy">   -330.92530160 </i>
   </energy>
  </scstep>
  <scstep>
   <time name="dav">   24.94   24.98</time>
   <time name="total">   25.56   25.61</time>
   <energy>
    <i name="e_fr_energy">   -330.92923103 </i>
    <i name="e_wo_entrp">   -330.91766009 </i>
    <i name="e_0_energy">   -330.92537405 </i>
   </energy>
  </scstep>
  <scstep>
   <time name="dav">   19.57   19.60</time>
   <time name="total">   19.60   19.63</time>
   <energy>
    <i name="alphaZ">   1343.40582821 </i>
    <i name="ewald"> -11684.77728553 </i>
    <i name="hartreedc">  -2957.52341462 </i>
    <i name="XCdc">   -836.16204661 </i>
    <i name="pawpsdc">  22132.01836573 </i>
    <i name="pawaedc"> -20639.49970018 </i>
    <i name="eentropy">     -0.01157425 </i>
    <i name="bandstr">   -681.94125257 </i>
    <i name="atom">  12993.56182891 </i>
    <i name="e_fr_energy">   -330.92925091 </i>
    <i name="e_wo_entrp">   -330.91767666 </i>
    <i name="e_0_energy">   -330.92539283 </i>
   </energy>
  </scstep>
  <structure>
   <crystal>
    <varray name="basis" >
     <v>      -3.16049436      -3.13434510      -3.14990122 </v>
     <v>       1.56640681       1.58260613      -7.87634627 </v>
     <v>       7.90267730      -7.86143358      -1.55082119 </v>
    </varray>
    <i name="volume">    469.11741396 </i>
    <varray name="rec_basis" >
     <v>      -0.13722303      -0.12750541      -0.05291006 </v>
     <v>       0.04242420       0.06351078      -0.10576400 </v>
     <v>       0.06325120      -0.06358147      -0.00019645 </v>
    </varray>
   </crystal>
   <varray name="positions" >
    <v>       0.96413851       0.93138665       0.39569736 </v>
    <v>       0.63252695       0.26588695       0.40012268 </v>
    <v>       0.49778172       0.00213043      -0.00064560 </v>
    <v>      -0.00033267      -0.00181493       0.00307476 </v>
    <v>       0.09773302       0.20464889       0.79829174 </v>
    <v>       0.03643720       0.06706363       0.59841316 </v>
    <v>       0.80312320       0.59669154       0.39826284 </v>
    <v>       0.73294924       0.46705230       0.19961569 </v>
    <v>       0.66465596       0.33688668      -0.00041331 </v>
    <v>       0.36822077       0.73106178       0.59981394 </v>
    <v>       0.13268298       0.26999162       0.39897585 </v>
    <v>       0.83498394       0.66482274       0.00363900 </v>
    <v>       0.93024361       0.86834344       0.80007595 </v>
    <v>       0.56781728       0.13195400       0.19793795 </v>
    <v>       0.40312984       0.79443994       0.19864693 </v>
    <v>       0.43801545       0.86138292       0.79802655 </v>
    <v>       0.30075523       0.60154217       0.40135259 </v>
    <v>       0.86282759       0.73366972       0.59905609 </v>
    <v>       0.46254539       0.93264816       0.40431525 </v>
    <v>       0.16909783       0.33363563       0.00134622 </v>
    <v>       0.26750204       0.53417910       0.79989311 </v>
    <v>       0.20000884       0.39720232       0.59874357 </v>
    <v>       0.06804877       0.13995386       0.20278994 </v>
    <v>       0.76817202       0.52926499       0.79978719 </v>
    <v>       0.69624711       0.40614331       0.60213799 </v>
    <v>       0.59866191       0.20137856       0.79871462 </v>
    <v>       0.53707954       0.06745577       0.60130176 </v>
    <v>       0.33546021       0.66117274       0.00146339 </v>
    <v>       0.22948652       0.46982509       0.19956278 </v>
   </varray>
  </structure>
  <varray name="forces" >
   <v>      -0.52230566       0.90443911       0.58129135 </v>
   <v>      -0.04313933       0.03727768       0.06872559 </v>
   <v>      -0.02388287       0.18388379       0.03288706 </v>
   <v>       0.49528634      -0.46069595       0.19181738 </v>
   <v>      -0.03538932       0.10821413      -0.13888563 </v>
   <v>      -0.24155038       0.06794055      -0.14943794 </v>
   <v>      -0.36263155       0.08829509      -0.02157955 </v>
   <v>       0.02117099      -0.11300069       0.06381504 </v>
   <v>      -0.00341362       0.07240538      -0.14884333 </v>
   <v>      -0.04899769      -0.02015360       0.15505928 </v>
   <v>       0.10359647       0.07979961      -0.18088605 </v>
   <v>       0.36465480      -0.47377208      -0.21069084 </v>
   <v>       0.03461636      -0.06681575      -0.11724229 </v>
   <v>      -0.39800557      -0.22854859       0.31248814 </v>
   <v>      -0.14007102      -0.13120349       0.15017131 </v>
   <v>      -0.14568137      -0.00467210       0.30941887 </v>
   <v>       0.09707930      -0.13018086      -0.04492260 </v>
   <v>      -0.04260574       0.27339457       0.10712675 </v>
   <v>       0.45764062      -0.19543919       0.16852728 </v>
   <v>       0.00014266      -0.21264769      -0.10718360 </v>
   <v>      -0.01639858       0.07491938      -0.01155251 </v>
   <v>      -0.16270238       0.22750020       0.17759134 </v>
   <v>       0.36258232      -0.21576717      -0.80328058 </v>
   <v>      -0.09323590      -0.16633019       0.05158722 </v>
   <v>       0.20637770       0.15667826      -0.22819296 </v>
   <v>      -0.00265208       0.11905054      -0.06048328 </v>
   <v>      -0.05812737      -0.15012530      -0.19575962 </v>
   <v>      -0.11964400      -0.12570762       0.32816662 </v>
   <v>       0.31728686       0.30126198      -0.27973247 </v>
  </varray>
  <varray name="stress" >
   <v>      58.74179598      -1.02475053       2.34658883 </v>
   <v>      -1.02475057      55.46638509      -2.33884564 </v>
   <v>       2.34658887      -2.33884575      57.85261204 </v>
  </varray>
  <energy>
   <i name="e_fr_energy">   -330.92925091 </i>
   <i name="e_wo_entrp">   -330.92539283 </i>
   <i name="e_0_energy">     -0.01157425 </i>
  </energy>
  <time name="totalsc">  382.63  383.24</time>
 </calculation>
 <calculation>
  <scstep>
   <time name="dav">   20.22   20.34</time>
   <time name="total">   20.85   20.99</time>
   <energy>
    <i name="alphaZ">   1334.32781352 </i>
    <i name="ewald"> -11648.25262615 </i>
    <i name="hartreedc">  -2960.80448202 </i>
    <i name="XCdc">   -836.98768586 </i>
    <i name="pawpsdc">  22131.94512041 </i>
    <i name="pawaedc"> -20639.36725242 </i>
    <i name="eentropy">     -0.01171473 </i>
    <i name="bandstr">   -705.38503797 </i>
    <i name="atom">  12993.56182891 </i>
    <i name="e_fr_energy">   -330.97403632 </i>
    <i name="e_wo_entrp">   -330.96232159 </i>
    <i name="e_0_energy">   -330.97013141 </i>
   </energy>
  </scstep>
  <scstep>
   <time name="dav">   27.36   27.40</time>
   <time name="total">   27.99   28.03</time>
   <energy>
    <i name="e_fr_energy">   -330.98544896 </i>
    <i name="e_wo_entrp">   -330.97172211 </i>
    <i name="e_0_energy">   -330.98087334 </i>
   </energy>
  </scstep>
  <scstep>
   <time name="dav">   25.47   25.51</time>
   <time name="total">   26.10   26.13</time>
   <energy>
    <i name="e_fr_energy">   -330.98055618 </i>
    <i name="e_wo_entrp">   -330.96892068 </i>
    <i name="e_0_energy">   -330.97667768 </i>
   </energy>
  </scstep>
  <scstep>
   <time name="dav">   26.21   26.24</time>
   <time name="total">   26.85   26.89</time>
   <energy>
    <i name="e_fr_energy">   -330.96201428 </i>
    <i name="e_wo_entrp">   -330.94956823 </i>
    <i name="e_0_energy">   -330.95786560 </i>
   </energy>
  </scstep>
  <scstep>
   <time name="dav">   26.11   26.14</time>
   <time name="total">   26.73   26.77</time>
   <energy>
    <i name="e_fr_energy">   -330.95306270 </i>
    <i name="e_wo_entrp">   -330.94048488 </i>
    <i name="e_0_energy">   -330.94887010 </i>
   </energy>
  </scstep>
  <scstep>
   <time name="dav">   27.52   27.56</time>
   <time name="total">   28.15   28.18</time>
   <energy>
    <i name="e_fr_energy">   -330.95156170 </i>
    <i name="e_wo_entrp">   -330.93898807 </i>
    <i name="e_0_energy">   -330.94737049 </i>
   </energy>
  </scstep>
  <scstep>
   <time name="dav">   25.63   25.65</time>
   <time name="total">   26.27   26.31</time>
   <energy>
    <i name="e_fr_energy">   -330.95170345 </i>
    <i name="e_wo_entrp">   -330.93881104 </i>
    <i name="e_0_energy">   -330.94740598 </i>
   </energy>
  </scstep>
  <scstep>
   <time name="dav">   23.47   23.50</time>
   <time name="total">   24.10   24.12</time>
   <energy>
    <i name="e_fr_energy">   -330.95145846 </i>
    <i name="e_wo_entrp">   -330.93883808 </i>
    <i name="e_0_energy">   -330.94725166 </i>
   </energy>
  </scstep>
  <scstep>
   <time name="dav">   22.05   22.07</time>
   <time name="total">   22.69   22.71</time>
   <energy>
    <i name="e_fr_energy">   -330.95149976 </i>
    <i name="e_wo_entrp">   -330.93885779 </i>
    <i name="e_0_energy">   -330.94728577 </i>
   </energy>
  </scstep>
  <scstep>
   <time name="dav">   20.99   21.01</time>
   <time name="total">   21.04   21.07</time>
   <energy>
    <i name="alphaZ">   1334.32781352 </i>
    <i name="ewald"> -11648.25262615 </i>
    <i name="hartreedc">  -2973.28214774 </i>
    <i name="XCdc">   -836.61927002 </i>
    <i name="pawpsdc">  21899.06023720 </i>
    <i name="pawaedc"> -20405.88028325 </i>
    <i name="eentropy">     -0.01264660 </i>
    <i name="bandstr">   -693.85449396 </i>
    <i name="atom">  12993.56182891 </i>
    <i name="e_fr_energy">   -330.95158809 </i>
    <i name="e_wo_entrp">   -330.93894148 </i>
    <i name="e_0_energy">   -330.94737255 </i>
   </energy>
  </scstep>
  <structure>
   <crystal>
    <varray name="basis" >
     <v>      -3.16583496      -3.14441879      -3.15715921 </v>
     <v>       1.57158226       1.58484946      -7.89420286 </v>
     <v>       7.91576790      -7.88198941      -1.55881767 </v>
    </varray>
    <i name="volume">    472.30902455 </i>
    <varray name="rec_basis" >
     <v>      -0.13697074      -0.12711776      -0.05278852 </v>
     <v>       0.04230942       0.06336169      -0.10553168 </v>
     <v>       0.06314997      -0.06341924      -0.00016019 </v>
    </varray>
   </crystal>
   <varray name="positions" >
    <v>       0.96460746       0.93174354       0.39648648 </v>
    <v>       0.63267465       0.26602975       0.40010061 </v>
    <v>       0.49818948       0.00173987      -0.00052709 </v>
    <v>      -0.00027558      -0.00148267       0.00251209 </v>
    <v>       0.09815116       0.20379690       0.79860441 </v>
    <v>       0.03586993       0.06699135       0.59870276 </v>
    <v>       0.80255239       0.59729830       0.39858066 </v>
    <v>       0.73302018       0.46698163       0.19968611 </v>
    <v>       0.66502543       0.33623536      -0.00033767 </v>
    <v>       0.36793586       0.73147822       0.59984797 </v>
    <v>       0.13280370       0.26938234       0.39916298 </v>
    <v>       0.83467658       0.66516046       0.00297240 </v>
    <v>       0.93081027       0.86803586       0.80006267 </v>
    <v>       0.56760875       0.13220708       0.19831550 </v>
    <v>       0.40255722       0.79545928       0.19889482 </v>
    <v>       0.43715892       0.86235183       0.79838754 </v>
    <v>       0.30061511       0.60125950       0.40110436 </v>
    <v>       0.86353289       0.73360779       0.59923006 </v>
    <v>       0.46329583       0.93277290       0.40352634 </v>
    <v>       0.16865028       0.33358034       0.00109888 </v>
    <v>       0.26734900       0.53402420       0.79991227 </v>
    <v>       0.20000865       0.39771513       0.59897420 </v>
    <v>       0.06779214       0.13874050       0.20227733 </v>
    <v>       0.76789599       0.53001070       0.79982648 </v>
    <v>       0.69693306       0.40501695       0.60174642 </v>
    <v>       0.59890900       0.20112592       0.79895017 </v>
    <v>       0.53639089       0.06731141       0.60106207 </v>
    <v>       0.33506803       0.66217959       0.00119577 </v>
    <v>       0.23019275       0.46924596       0.19964343 </v>
   </varray>
  </structure>
  <varray name="forces" >
   <v>      -0.54575867       0.89939402       0.59925926 </v>
   <v>      -0.02313669       0.03545216       0.09045101 </v>
   <v>       0.00071721       0.20917853      -0.00853988 </v>
   <v>       0.49717523      -0.48394670       0.20176657 </v>
   <v>      -0.02698614       0.21131455      -0.22578317 </v>
   <v>      -0.28343904       0.06841893      -0.16860239 </v>
   <v>      -0.42016591       0.05869129       0.06587328 </v>
   <v>       0.00826491      -0.07107178       0.04576197 </v>
   <v>       0.03599585       0.12395635      -0.21489371 </v>
   <v>      -0.08636880      -0.05411687       0.18619953 </v>
   <v>       0.08711530       0.13198724      -0.24186231 </v>
   <v>       0.39074689      -0.54336593      -0.16563386 </v>
   <v>       0.08114193      -0.00873206      -0.11204326 </v>
   <v>      -0.42528439      -0.14838883       0.30917079 </v>
   <v>      -0.24327291      -0.11018279       0.25964586 </v>
   <v>      -0.27440902      -0.03804811       0.37070510 </v>
   <v>       0.12710755      -0.16077328      -0.11186913 </v>
   <v>      -0.01206618       0.29605735       0.13646397 </v>
   <v>       0.55657586      -0.25219544       0.17996110 </v>
   <v>       0.01763282      -0.24842025      -0.13258720 </v>
   <v>      -0.03415771       0.06542756      -0.04097350 </v>
   <v>      -0.18373883       0.21262626       0.24327637 </v>
   <v>       0.41673311      -0.23311661      -0.89637342 </v>
   <v>      -0.13950274      -0.16747643       0.16764909 </v>
   <v>       0.32973702       0.14185269      -0.35836462 </v>
   <v>      -0.02232207       0.16657157      -0.06718600 </v>
   <v>      -0.03868454      -0.21127807      -0.24656890 </v>
   <v>      -0.10585295      -0.22525987       0.41235314 </v>
   <v>       0.31620293       0.33544450      -0.27725567 </v>
  </varray>
  <varray name="stress" >
   <v>      44.27251926      -1.11503770       2.41590329 </v>
   <v>      -1.11503755      39.70282506      -2.45168513 </v>
   <v>       2.41590339      -2.45168520      42.75690562 </v>
  </varray>
  <energy>
   <i name="e_fr_energy">   -330.95158809 </i>
   <i name="e_wo_entrp">   -330.94737255 </i>
   <i name="e_0_energy">     -0.01264660 </i>
  </energy>
  <time name="totalsc">  269.47  269.96</time>
 </calculation>
 <calculation>
  <scstep>
   <time name="dav">   18.82   18.84</time>
   <time name="total">   19.44   19.47</time>
   <energy>
    <i name="alphaZ">   1320.78084134 </i>
    <i name="ewald"> -11651.01554847 </i>
    <i name="hartreedc">  -2921.77031566 </i>
    <i name="XCdc">   -838.07209071 </i>
    <i name="pawpsdc">  21897.74489132 </i>
    <i name="pawaedc"> -20404.73881158 </i>
    <i name="eentropy">     -0.00762091 </i>
    <i name="bandstr">   -727.59925587 </i>
    <i name="atom">  12993.56182891 </i>
    <i name="e_fr_energy">   -331.11608165 </i>
    <i name="e_wo_entrp">   -331.10846074 </i>
    <i name="e_0_energy">   -331.11354135 </i>
   </energy>
  </scstep>
  <scstep>
   <time name="dav">   23.92   23.94</time>
   <time name="total">   24.54   24.57</time>
   <energy>
    <i name="e_fr_energy">   -331.38281479 </i>
    <i name="e_wo_entrp">   -331.37356413 </i>
    <i name="e_0_energy">   -331.37973124 </i>
   </energy>
  </scstep>
  <scstep>
   <time name="dav">   25.56   25.59</time>
   <time name="total">   26.19   26.22</time>
   <energy>
    <i name="e_fr_energy">   -331.36933892 </i>
    <i name="e_wo_entrp">   -331.36099023 </i>
    <i name="e_0_energy">   -331.36655602 </i>
   </energy>
  </scstep>
  <scstep>
   <time name="dav">   25.06   25.08</time>
   <time name="total">   25.68   25.70</time>
   <energy>
    <i name="e_fr_energy">   -331.31863124 </i>
    <i name="e_wo_entrp">   -331.31021825 </i>
    <i name="e_0_energy">   -331.31582691 </i>
   </energy>
  </scstep>
  <scstep>
   <time name="dav">   25.38   25.40</time>
   <time name="total">   26.00   26.03</time>
   <energy>
    <i name="e_fr_energy">   -331.30711749 </i>
    <i name="e_wo_entrp">   -331.29800174 </i>
    <i name="e_0_energy">   -331.30407891 </i>
   </energy>
  </scstep>
  <scstep>
   <time name="dav">   26.64   26.92</time>
   <time name="total">   27.28   27.57</time>
   <energy>
    <i name="e_fr_energy">   -331.30198929 </i>
    <i name="e_wo_entrp">   -331.29295506 </i>
    <i name="e_0_energy">   -331.29897788 </i>
   </energy>
  </scstep>
  <scstep>
   <time name="dav">   27.86   27.89</time>
   <time name="total">   28.49   28.52</time>
   <energy>
    <i name="e_fr_energy">   -331.29955847 </i>
    <i name="e_wo_entrp">   -331.29097547 </i>
    <i name="e_0_energy">   -331.29669747 </i>
   </energy>
  </scstep>
  <scstep>
   <time name="dav">   25.21   25.24</time>
   <time name="total">   25.83   25.86</time>
   <energy>
    <i name="e_fr_energy">   -331.29853214 </i>
    <i name="e_wo_entrp">   -331.28945350 </i>
    <i name="e_0_energy">   -331.29550592 </i>
   </energy>
  </scstep>
  <scstep>
   <time name="dav">   23.79   23.81</time>
   <time name="total">   24.43   24.46</time>
   <energy>
    <i name="e_fr_energy">   -331.29838230 </i>
    <i name="e_wo_entrp">   -331.28948889 </i>
    <i name="e_0_energy">   -331.29541783 </i>
   </energy>
  </scstep>
  <scstep>
   <time name="dav">   22.59   22.62</time>
   <time name="total">   23.21   23.24</time>
   <energy>
    <i name="e_fr_energy">   -331.29850621 </i>
    <i name="e_wo_entrp">   -331.28957157 </i>
    <i name="e_0_energy">   -331.29552800 </i>
   </energy>
  </scstep>
  <scstep>
   <time name="dav">   22.78   22.80</time>
   <time name="total">   23.40   23.43</time>
   <energy>
    <i name="e_fr_energy">   -331.29867325 </i>
    <i name="e_wo_entrp">   -331.28980354 </i>
    <i name="e_0_energy">   -331.29571668 </i>
   </energy>
  </scstep>
  <scstep>
   <time name="dav">   22.16   22.21</time>
   <time name="total">   22.80   22.86</time>
   <energy>
    <i name="e_fr_energy">   -331.29857755 </i>
    <i name="e_wo_entrp">   -331.28963905 </i>
    <i name="e_0_energy">   -331.29559805 </i>
   </energy>
  </scstep>
  <scstep>
   <time name="dav">   14.48   14.50</time>
   <time name="total">   14.52   14.53</time>
   <energy>
    <i name="alphaZ">   1320.78084134 </i>
    <i name="ewald"> -11651.01554847 </i>
    <i name="hartreedc">  -2937.41134801 </i>
    <i name="XCdc">   -837.54557729 </i>
    <i name="pawpsdc">  21522.08053510 </i>
    <i name="pawaedc"> -20029.64001423 </i>
    <i name="eentropy">     -0.00891003 </i>
    <i name="bandstr">   -712.10035482 </i>
    <i name="atom">  12993.56182891 </i>
    <i name="e_fr_energy">   -331.29854750 </i>
    <i name="e_wo_entrp">   -331.28963747 </i>
    <i name="e_0_energy">   -331.29557749 </i>
   </energy>
  </scstep>
  <structure>
   <crystal>
    <varray name="basis" >
     <v>      -3.18353646      -3.14335876      -3.16793560 </v>
     <v>       1.56892557       1.59660562      -7.92191364 </v>
     <v>       7.95954114      -7.89855990      -1.54449993 </v>
    </varray>
    <i name="volume">    477.15339919 </i>
    <varray name="rec_basis" >
     <v>      -0.13630348      -0.12706939      -0.05260468 </v>
     <v>       0.04226568       0.06315010      -0.10513400 </v>
     <v>       0.06278769      -0.06327097      -0.00031679 </v>
    </varray>
   </crystal>
   <varray name="positions" >
    <v>       0.96186507       0.93018783       0.39247340 </v>
    <v>       0.63216023       0.26548155       0.40007815 </v>
    <v>       0.49656901       0.00305757      -0.00111819 </v>
    <v>      -0.00079536      -0.00300855       0.00530422 </v>
    <v>       0.09682620       0.20678160       0.79746959 </v>
    <v>       0.03818003       0.06739666       0.59747412 </v>
    <v>       0.80503452       0.59527337       0.39710623 </v>
    <v>       0.73295415       0.46697217       0.19961119 </v>
    <v>       0.66386679       0.33861313      -0.00065316 </v>
    <v>       0.36886559       0.72982408       0.59971561 </v>
    <v>       0.13214903       0.27176954       0.39861646 </v>
    <v>       0.83599315       0.66427522       0.00597181 </v>
    <v>       0.92925254       0.86914932       0.80021969 </v>
    <v>       0.56945572       0.13026232       0.19696029 </v>
    <v>       0.40476493       0.79185598       0.19807099 </v>
    <v>       0.43987236       0.85869771       0.79712924 </v>
    <v>       0.30116955       0.60214300       0.40213972 </v>
    <v>       0.86077696       0.73385090       0.59835936 </v>
    <v>       0.46019449       0.93220371       0.40667108 </v>
    <v>       0.17058663       0.33370232       0.00210279 </v>
    <v>       0.26771439       0.53457689       0.79972714 </v>
    <v>       0.19969424       0.39595600       0.59783672 </v>
    <v>       0.06888286       0.14398023       0.20449189 </v>
    <v>       0.76928917       0.52734189       0.79976301 </v>
    <v>       0.69420218       0.40924304       0.60301750 </v>
    <v>       0.59795611       0.20213981       0.79808228 </v>
    <v>       0.53914609       0.06792210       0.60191940 </v>
    <v>       0.33654297       0.65823091       0.00205208 </v>
    <v>       0.22683039       0.47211968       0.19940738 </v>
   </varray>
  </structure>
  <varray name="forces" >
   <v>      -0.37565858       0.77925486       0.44760963 </v>
   <v>      -0.05501844       0.03509119       0.00399423 </v>
   <v>      -0.13379725       0.16542220       0.14681910 </v>
   <v>       0.35911907      -0.30944468       0.14574678 </v>
   <v>      -0.00848790      -0.10473695       0.07655608 </v>
   <v>      -0.11537660       0.08063671      -0.07772338 </v>
   <v>      -0.16535501       0.04246356      -0.04965686 </v>
   <v>       0.09108397      -0.14784631       0.09084107 </v>
   <v>      -0.09175116      -0.03352308      -0.00522266 </v>
   <v>       0.04645382       0.03345970       0.08753861 </v>
   <v>       0.13307040      -0.01333967      -0.07950259 </v>
   <v>       0.24880362      -0.17251245      -0.22607419 </v>
   <v>       0.04226872      -0.13785855      -0.14227857 </v>
   <v>      -0.22601484      -0.26871703       0.14836214 </v>
   <v>      -0.01018939      -0.08863259      -0.04966181 </v>
   <v>       0.07994825       0.01613216       0.13299141 </v>
   <v>      -0.03683717      -0.06740732       0.04682109 </v>
   <v>      -0.07739662       0.17950559       0.03974038 </v>
   <v>       0.25321479      -0.04546666       0.11267100 </v>
   <v>      -0.01478550      -0.09511449      -0.08300041 </v>
   <v>      -0.02681135       0.08067784       0.04301312 </v>
   <v>      -0.13321058       0.24643822       0.07257965 </v>
   <v>       0.24567779      -0.15645640      -0.55212052 </v>
   <v>       0.05234806      -0.13670461      -0.17318433 </v>
   <v>      -0.04540736       0.12921839       0.06898820 </v>
   <v>      -0.06208364      -0.01903558       0.00240410 </v>
   <v>      -0.02180415      -0.07652019      -0.10543707 </v>
   <v>      -0.12650354       0.02954501       0.05472047 </v>
   <v>       0.17450058       0.05547111      -0.17753468 </v>
  </varray>
  <varray name="stress" >
   <v>      19.13421393      -0.06008122       1.91150972 </v>
   <v>      -0.06008124      19.44283493      -1.51690965 </v>
   <v>       1.91150972      -1.51690974      20.40355423 </v>
  </varray>
  <energy>
   <i name="e_fr_energy">   -331.29854750 </i>
   <i name="e_wo_entrp">   -331.29557749 </i>
   <i name="e_0_energy">     -0.00891003 </i>
  </energy>
  <time name="totalsc">  329.79  330.48</time>
 </calculation>
 <calculation>
  <scstep>
   <time name="dav">   18.61   18.63</time>
   <time name="total">   19.23   19.26</time>
   <energy>
    <i name="alphaZ">   1310.33237858 </i>
    <i name="ewald"> -11650.29206461 </i>
    <i name="hartreedc">  -2899.75336408 </i>
    <i name="XCdc">   -838.66909801 </i>
    <i name="pawpsdc">  21522.28340701 </i>
    <i name="pawaedc"> -20029.85742561 </i>
    <i name="eentropy">     -0.00554052 </i>
    <i name="bandstr">   -738.86659642 </i>
    <i name="atom">  12993.56182891 </i>
    <i name="e_fr_energy">   -331.26647477 </i>
    <i name="e_wo_entrp">   -331.26093425 </i>
    <i name="e_0_energy">   -331.26462793 </i>
   </energy>
  </scstep>
  <scstep>
   <time name="dav">   23.96   23.98</time>
   <time name="total">   24.59   24.63</time>
   <energy>
    <i name="e_fr_energy">   -331.43121209 </i>
    <i name="e_wo_entrp">   -331.42465748 </i>
    <i name="e_0_energy">   -331.42902722 </i>
   </energy>
  </scstep>
  <scstep>
   <time name="dav">   25.25   25.28</time>
   <time name="total">   25.87   25.90</time>
   <energy>
    <i name="e_fr_energy">   -331.42097564 </i>
    <i name="e_wo_entrp">   -331.41496892 </i>
    <i name="e_0_energy">   -331.41897340 </i>
   </energy>
  </scstep>
  <scstep>
   <time name="dav">   24.96   24.99</time>
   <time name="total">   25.58   25.61</time>
   <energy>
    <i name="e_fr_energy">   -331.39152406 </i>
    <i name="e_wo_entrp">   -331.38569081 </i>
    <i name="e_0_energy">   -331.38957964 </i>
   </energy>
  </scstep>
  <scstep>
   <time name="dav">   25.62   25.65</time>
   <time name="total">   26.26   26.30</time>
   <energy>
    <i name="e_fr_energy">   -331.38559879 </i>
    <i name="e_wo_entrp">   -331.37914415 </i>
    <i name="e_0_energy">   -331.38344724 </i>
   </energy>
  </scstep>
  <scstep>
   <time name="dav">   26.77   26.80</time>
   <time name="total">   27.40   27.43</time>
   <energy>
    <i name="e_fr_energy">   -331.38209079 </i>
    <i name="e_wo_entrp">   -331.37587505 </i>
    <i name="e_0_energy">   -331.38001888 </i>
   </energy>
  </scstep>
  <scstep>
   <time name="dav">   28.49   28.53</time>
   <time name="total">   29.12   29.15</time>
   <energy>
    <i name="e_fr_energy">   -331.38090968 </i>
    <i name="e_wo_entrp">   -331.37486502 </i>
    <i name="e_0_energy">   -331.37889480 </i>
   </energy>
  </scstep>
  <scstep>
   <time name="dav">   24.37   24.40</time>
   <time name="total">   25.01   25.05</time>
   <energy>
    <i name="e_fr_energy">   -331.38029295 </i>
    <i name="e_wo_entrp">   -331.37396890 </i>
    <i name="e_0_energy">   -331.37818493 </i>
   </energy>
  </scstep>
  <scstep>
   <time name="dav">   24.26   24.31</time>
   <time name="total">   24.90   24.96</time>
   <energy>
    <i name="e_fr_energy">   -331.38021792 </i>
    <i name="e_wo_entrp">   -331.37401728 </i>
    <i name="e_0_energy">   -331.37815104 </i>
   </energy>
  </scstep>
  <scstep>
   <time name="dav">   22.10   22.15</time>
   <time name="total">   22.14   22.19</time>
   <energy>
    <i name="alphaZ">   1310.33237858 </i>
    <i name="ewald"> -11650.29206461 </i>
    <i name="hartreedc">  -2912.62178146 </i>
    <i name="XCdc">   -838.24306566 </i>
    <i name="pawpsdc">  21264.47049030 </i>
    <i name="pawaedc"> -19771.91912922 </i>
    <i name="eentropy">     -0.00623077 </i>
    <i name="bandstr">   -726.66272232 </i>
    <i name="atom">  12993.56182891 </i>
    <i name="e_fr_energy">   -331.38029625 </i>
    <i name="e_wo_entrp">   -331.37406548 </i>
    <i name="e_0_energy">   -331.37821932 </i>
   </energy>
  </scstep>
  <structure>
   <crystal>
    <varray name="basis" >
     <v>      -3.19737101      -3.14253029      -3.17635786 </v>
     <v>       1.56684924       1.60579361      -7.94357090 </v>
     <v>       7.99375197      -7.91151051      -1.53330995 </v>
    </varray>
    <i name="volume">    480.95817392 </i>
    <varray name="rec_basis" >
     <v>      -0.13578691      -0.12703073      -0.05246290 </v>
     <v>       0.04223094       0.06298589      -0.10482542 </v>
     <v>       0.06250749      -0.06315605      -0.00043756 </v>
    </varray>
   </crystal>
   <varray name="positions" >
    <v>       0.95971378       0.92897504       0.38934528 </v>
    <v>       0.63175938       0.26505480       0.40005980 </v>
    <v>       0.49530368       0.00408401      -0.00157897 </v>
    <v>      -0.00118998      -0.00419516       0.00747657 </v>
    <v>       0.09578877       0.20910586       0.79658693 </v>
    <v>       0.03997580       0.06771082       0.59651993 </v>
    <v>       0.80696410       0.59369471       0.39595913 </v>
    <v>       0.73290242       0.46696479       0.19955278 </v>
    <v>       0.66296209       0.34046512      -0.00089818 </v>
    <v>       0.36959010       0.72853547       0.59961224 </v>
    <v>       0.13163625       0.27362857       0.39819203 </v>
    <v>       0.83703022       0.66358700       0.00830768 </v>
    <v>       0.92803885       0.87001710       0.80034130 </v>
    <v>       0.57089071       0.12874639       0.19590547 </v>
    <v>       0.40648341       0.78904858       0.19742906 </v>
    <v>       0.44198341       0.85585032       0.79614947 </v>
    <v>       0.30160515       0.60283143       0.40294697 </v>
    <v>       0.85862600       0.73404073       0.59767908 </v>
    <v>       0.45778904       0.93176326       0.40911627 </v>
    <v>       0.17209927       0.33379718       0.00288629 </v>
    <v>       0.26799834       0.53500708       0.79958372 </v>
    <v>       0.19944555       0.39458552       0.59694958 </v>
    <v>       0.06973952       0.14806165       0.20622081 </v>
    <v>       0.77037536       0.52526296       0.79971299 </v>
    <v>       0.69207745       0.41253588       0.60400761 </v>
    <v>       0.59721012       0.20292927       0.79740639 </v>
    <v>       0.54129623       0.06839718       0.60258987 </v>
    <v>       0.33769653       0.65515571       0.00271736 </v>
    <v>       0.22420845       0.47435873       0.19922253 </v>
   </varray>
  </structure>
  <varray name="forces" >
   <v>      -0.24078316       0.68284774       0.32243131 </v>
   <v>      -0.08569234       0.03621008      -0.08025769 </v>
   <v>      -0.23316469       0.12429890       0.26319508 </v>
   <v>       0.26574461      -0.17895518       0.08952295 </v>
   <v>      -0.00508012      -0.34063551       0.29320661 </v>
   <v>       0.01687995       0.08571800      -0.01517821 </v>
   <v>       0.03715909       0.03854321      -0.14190554 </v>
   <v>       0.15919650      -0.21732636       0.12066178 </v>
   <v>      -0.18706041      -0.16583825       0.15953965 </v>
   <v>       0.16290646       0.10549796      -0.00069113 </v>
   <v>       0.17690823      -0.12789976       0.03330970 </v>
   <v>       0.13083091       0.09325068      -0.25259654 </v>
   <v>      -0.00473461      -0.24636774      -0.16292080 </v>
   <v>      -0.10524424      -0.34601080       0.04101521 </v>
   <v>       0.14654047      -0.06151468      -0.28494850 </v>
   <v>       0.34086390       0.05169227      -0.02745348 </v>
   <v>      -0.17726860      -0.00889031       0.19159679 </v>
   <v>      -0.13223658       0.07891892      -0.02997615 </v>
   <v>       0.01391954       0.10419326       0.06217040 </v>
   <v>      -0.02757741       0.01763525      -0.03140839 </v>
   <v>      -0.03265894       0.08818918       0.11126892 </v>
   <v>      -0.09016607       0.26839632      -0.05863104 </v>
   <v>       0.12919889      -0.07731539      -0.27578282 </v>
   <v>       0.21248048      -0.09795604      -0.44462255 </v>
   <v>      -0.33055161       0.11830332       0.40845091 </v>
   <v>      -0.07231340      -0.15262860       0.04841515 </v>
   <v>      -0.01436611       0.05022313      -0.00412910 </v>
   <v>      -0.13277458       0.24629549      -0.23412463 </v>
   <v>       0.07904384      -0.16887508      -0.10015788 </v>
  </varray>
  <varray name="stress" >
   <v>       2.63675977       1.27114909       0.81765486 </v>
   <v>       1.27114908       7.00528142      -0.96276640 </v>
   <v>       0.81765485      -0.96276642       6.34468735 </v>
  </varray>
  <energy>
   <i name="e_fr_energy">   -331.38029625 </i>
   <i name="e_wo_entrp">   -331.37821932 </i>
   <i name="e_0_energy">     -0.00623077 </i>
  </energy>
  <time name="totalsc">  268.52  270.14</time>
 </calculation>
 <calculation>
  <scstep>
   <time name="dav">   18.69   18.75</time>
   <time name="total">   19.31   19.46</time>
   <energy>
    <i name="alphaZ">   1304.64082699 </i>
    <i name="ewald"> -11634.11859708 </i>
    <i name="hartreedc">  -2907.79212176 </i>
    <i name="XCdc">   -838.80659822 </i>
    <i name="pawpsdc">  21258.38157472 </i>
    <i name="pawaedc"> -19766.13288044 </i>
    <i name="eentropy">     -0.00461426 </i>
    <i name="bandstr">   -741.14790443 </i>
    <i name="atom">  12993.56182891 </i>
    <i name="e_fr_energy">   -331.41848557 </i>
    <i name="e_wo_entrp">   -331.41387131 </i>
    <i name="e_0_energy">   -331.41694749 </i>
   </energy>
  </scstep>
  <scstep>
   <time name="dav">   23.25   23.32</time>
   <time name="total">   23.88   23.95</time>
   <energy>
    <i name="e_fr_energy">   -331.45335913 </i>
    <i name="e_wo_entrp">   -331.44808857 </i>
    <i name="e_0_energy">   -331.45160228 </i>
   </energy>
  </scstep>
  <scstep>
   <time name="dav">   26.10   26.17</time>
   <time name="total">   26.73   26.81</time>
   <energy>
    <i name="e_fr_energy">   -331.45262408 </i>
    <i name="e_wo_entrp">   -331.44807110 </i>
    <i name="e_0_energy">   -331.45110642 </i>
   </energy>
  </scstep>
  <scstep>
   <time name="dav">   25.12   25.20</time>
   <time name="total">   25.75   25.83</time>
   <energy>
    <i name="e_fr_energy">   -331.44561908 </i>
    <i name="e_wo_entrp">   -331.44071030 </i>
    <i name="e_0_energy">   -331.44398282 </i>
   </energy>
  </scstep>
  <scstep>
   <time name="dav">   25.01   25.09</time>
   <time name="total">   25.64   25.71</time>
   <energy>
    <i name="e_fr_energy">   -331.44364872 </i>
    <i name="e_wo_entrp">   -331.43872487 </i>
    <i name="e_0_energy">   -331.44200744 </i>
   </energy>
  </scstep>
  <scstep>
   <time name="dav">   26.88   26.96</time>
   <time name="total">   27.52   27.61</time>
   <energy>
    <i name="e_fr_energy">   -331.44250186 </i>
    <i name="e_wo_entrp">   -331.43766869 </i>
    <i name="e_0_energy">   -331.44089080 </i>
   </energy>
  </scstep>
  <scstep>
   <time name="dav">   24.25   24.32</time>
   <time name="total">   24.87   24.94</time>
   <energy>
    <i name="e_fr_energy">   -331.44234764 </i>
    <i name="e_wo_entrp">   -331.43738981 </i>
    <i name="e_0_energy">   -331.44069503 </i>
   </energy>
  </scstep>
  <scstep>
   <time name="dav">   21.71   21.76</time>
   <time name="total">   22.32   22.39</time>
   <energy>
    <i name="e_fr_energy">   -331.44224154 </i>
    <i name="e_wo_entrp">   -331.43735108 </i>
    <i name="e_0_energy">   -331.44061139 </i>
   </energy>
  </scstep>
  <scstep>
   <time name="dav">   14.31   14.35</time>
   <time name="total">   14.36   14.41</time>
   <energy>
    <i name="alphaZ">   1304.64082699 </i>
    <i name="ewald"> -11634.11859708 </i>
    <i name="hartreedc">  -2915.36812769 </i>
    <i name="XCdc">   -838.57934943 </i>
    <i name="pawpsdc">  21094.38119914 </i>
    <i name="pawaedc"> -19601.90493051 </i>
    <i name="eentropy">     -0.00489614 </i>
    <i name="bandstr">   -734.05019822 </i>
    <i name="atom">  12993.56182891 </i>
    <i name="e_fr_energy">   -331.44224403 </i>
    <i name="e_wo_entrp">   -331.43734790 </i>
    <i name="e_0_energy">   -331.44061199 </i>
   </energy>
  </scstep>
  <structure>
   <crystal>
    <varray name="basis" >
     <v>      -3.20166696      -3.14841735      -3.18169533 </v>
     <v>       1.56669915       1.61144947      -7.95726832 </v>
     <v>       7.99734057      -7.92316696      -1.53181834 </v>
    </varray>
    <i name="volume">    483.05637459 </i>
    <varray name="rec_basis" >
     <v>      -0.13562643      -0.12677006      -0.05237593 </v>
     <v>       0.04220273       0.06282802      -0.10463853 </v>
     <v>       0.06247706      -0.06305948      -0.00046931 </v>
    </varray>
   </crystal>
   <varray name="positions" >
    <v>       0.95788520       0.92891347       0.38780042 </v>
    <v>       0.63202602       0.26521710       0.39987038 </v>
    <v>       0.49531539       0.00338118      -0.00215274 </v>
    <v>      -0.00164997      -0.00446620       0.00823597 </v>
    <v>       0.09646561       0.20787762       0.79708233 </v>
    <v>       0.03972428       0.06791175       0.59638227 </v>
    <v>       0.80696214       0.59411389       0.39592220 </v>
    <v>       0.73289237       0.46647777       0.20013727 </v>
[...]
       <r>    4.6648    1.0000 </r>
       <r>    4.7184    1.0000 </r>
       <r>    4.7623    1.0000 </r>
       <r>    4.8328    1.0000 </r>
       <r>    4.8640    1.0000 </r>
       <r>    4.9029    1.0000 </r>
       <r>    4.9711    1.0000 </r>
       <r>    5.0072    1.0000 </r>
       <r>    5.1120    1.0000 </r>
       <r>    5.1342    1.0000 </r>
       <r>    5.1949    1.0000 </r>
       <r>    5.2422    1.0000 </r>
       <r>    5.2962    1.0000 </r>
       <r>    5.3533    1.0000 </r>
       <r>    5.3887    1.0000 </r>
       <r>    5.4498    1.0000 </r>
       <r>    5.5389    1.0000 </r>
       <r>    5.6104    1.0000 </r>
       <r>    5.6149    1.0000 </r>
       <r>    5.6941    1.0000 </r>
       <r>    5.7133    1.0000 </r>
       <r>    5.7862    1.0000 </r>
       <r>    5.8159    1.0000 </r>
       <r>    5.8951    1.0000 </r>
       <r>    5.9748    1.0000 </r>
       <r>    6.0341    1.0000 </r>
       <r>    6.0638    1.0000 </r>
       <r>    6.1343    1.0000 </r>
       <r>    6.1743    1.0000 </r>
       <r>    6.2448    1.0003 </r>
       <r>    6.2946    1.0010 </r>
       <r>    6.3400    1.0026 </r>
       <r>    6.4027    1.0081 </r>
       <r>    6.4518    1.0164 </r>
       <r>    6.4676    1.0198 </r>
       <r>    6.5876    1.0310 </r>
       <r>    6.6136    1.0179 </r>
       <r>    6.7114    0.8428 </r>
       <r>    6.7316    0.7780 </r>
       <r>    6.7884    0.5568 </r>
       <r>    6.8813    0.1916 </r>
       <r>    6.9314    0.0598 </r>
       <r>    6.9852   -0.0142 </r>
       <r>    7.1402   -0.0189 </r>
       <r>    7.2094   -0.0071 </r>
       <r>    7.2635   -0.0026 </r>
       <r>    7.4798   -0.0000 </r>
       <r>    7.6476   -0.0000 </r>
       <r>    7.6973   -0.0000 </r>
       <r>    7.8417   -0.0000 </r>
       <r>    7.9455   -0.0000 </r>
       <r>    8.0730   -0.0000 </r>
       <r>    8.2662   -0.0000 </r>
       <r>    8.4071   -0.0000 </r>
       <r>    8.5482   -0.0000 </r>
       <r>    8.6943   -0.0000 </r>
       <r>    8.7579   -0.0000 </r>
       <r>    8.8425   -0.0000 </r>
       <r>    8.9417   -0.0000 </r>
       <r>    8.9914   -0.0000 </r>
       <r>    9.0439   -0.0000 </r>
      </set>
     </set>
    </set>
   </array>
  </eigenvalues>
  <separator name="orbital magnetization" >
   <v name="MAGDIPOLOUT">      0.00000000      0.00000000      0.00000000</v>
  </separator>
  <dos>
   <i name="efermi">      6.80185300 </i>
   <total>
    <array>
     <dimension dim="1">gridpoints</dimension>
     <dimension dim="2">spin</dimension>
     <field>energy</field>
     <field>total</field>
     <field>integrated</field>
     <set>
      <set comment="spin 1">
       <r>   -50.3733     0.0000     0.0000 </r>
       <r>   -50.1651     0.0000     0.0000 </r>
       <r>   -49.9570     0.0000     0.0000 </r>
       <r>   -49.7489     0.0000     0.0000 </r>
       <r>   -49.5408     0.0000     0.0000 </r>
       <r>   -49.3327    -0.0000    -0.0000 </r>
       <r>   -49.1245    -0.0000    -0.0000 </r>
       <r>   -48.9164    -0.0000    -0.0000 </r>
       <r>   -48.7083    -0.0000    -0.0000 </r>
       <r>   -48.5002    -0.0000    -0.0000 </r>
       <r>   -48.2920    -0.0000    -0.0000 </r>
       <r>   -48.0839    -0.0035    -0.0007 </r>
       <r>   -47.8758    -0.1963    -0.0416 </r>
       <r>   -47.6677     0.0704    -0.0269 </r>
       <r>   -47.4595    10.3947     2.1364 </r>
       <r>   -47.2514    26.2209     7.5936 </r>
       <r>   -47.0433    14.8831    10.6911 </r>
       <r>   -46.8352     6.1537    11.9719 </r>
       <r>   -46.6271     0.2845    12.0311 </r>
       <r>   -46.4189    -0.1469    12.0005 </r>
       <r>   -46.2108    -0.0024    12.0000 </r>
       <r>   -46.0027    -0.0000    12.0000 </r>
       <r>   -45.7946    -0.0000    12.0000 </r>
       <r>   -45.5864    -0.0000    12.0000 </r>
       <r>   -45.3783     0.0000    12.0000 </r>
       <r>   -45.1702     0.0000    12.0000 </r>
       <r>   -44.9621     0.0000    12.0000 </r>
       <r>   -44.7539     0.0000    12.0000 </r>
       <r>   -44.5458     0.0000    12.0000 </r>
       <r>   -44.3377     0.0000    12.0000 </r>
       <r>   -44.1296     0.0000    12.0000 </r>
       <r>   -43.9215     0.0000    12.0000 </r>
       <r>   -43.7133     0.0000    12.0000 </r>
       <r>   -43.5052     0.0000    12.0000 </r>
       <r>   -43.2971     0.0000    12.0000 </r>
       <r>   -43.0890     0.0000    12.0000 </r>
       <r>   -42.8808     0.0000    12.0000 </r>
       <r>   -42.6727     0.0000    12.0000 </r>
       <r>   -42.4646     0.0000    12.0000 </r>
       <r>   -42.2565     0.0000    12.0000 </r>
       <r>   -42.0483     0.0000    12.0000 </r>
       <r>   -41.8402     0.0000    12.0000 </r>
       <r>   -41.6321     0.0000    12.0000 </r>
       <r>   -41.4240     0.0000    12.0000 </r>
       <r>   -41.2159     0.0000    12.0000 </r>
       <r>   -41.0077     0.0000    12.0000 </r>
       <r>   -40.7996     0.0000    12.0000 </r>
       <r>   -40.5915     0.0000    12.0000 </r>
       <r>   -40.3834     0.0000    12.0000 </r>
       <r>   -40.1752     0.0000    12.0000 </r>
       <r>   -39.9671     0.0000    12.0000 </r>
       <r>   -39.7590     0.0000    12.0000 </r>
       <r>   -39.5509     0.0000    12.0000 </r>
       <r>   -39.3427     0.0000    12.0000 </r>
       <r>   -39.1346     0.0000    12.0000 </r>
       <r>   -38.9265     0.0000    12.0000 </r>
       <r>   -38.7184     0.0000    12.0000 </r>
       <r>   -38.5103     0.0000    12.0000 </r>
       <r>   -38.3021     0.0000    12.0000 </r>
       <r>   -38.0940     0.0000    12.0000 </r>
       <r>   -37.8859     0.0000    12.0000 </r>
       <r>   -37.6778     0.0000    12.0000 </r>
       <r>   -37.4696     0.0000    12.0000 </r>
       <r>   -37.2615     0.0000    12.0000 </r>
       <r>   -37.0534     0.0000    12.0000 </r>
       <r>   -36.8453     0.0000    12.0000 </r>
       <r>   -36.6371     0.0000    12.0000 </r>
       <r>   -36.4290     0.0000    12.0000 </r>
       <r>   -36.2209     0.0000    12.0000 </r>
       <r>   -36.0128     0.0000    12.0000 </r>
       <r>   -35.8047     0.0000    12.0000 </r>
       <r>   -35.5965     0.0000    12.0000 </r>
       <r>   -35.3884     0.0000    12.0000 </r>
       <r>   -35.1803     0.0000    12.0000 </r>
       <r>   -34.9722     0.0000    12.0000 </r>
       <r>   -34.7640     0.0000    12.0000 </r>
       <r>   -34.5559     0.0000    12.0000 </r>
       <r>   -34.3478     0.0000    12.0000 </r>
       <r>   -34.1397     0.0000    12.0000 </r>
       <r>   -33.9316     0.0000    12.0000 </r>
       <r>   -33.7234     0.0000    12.0000 </r>
       <r>   -33.5153     0.0000    12.0000 </r>
       <r>   -33.3072     0.0000    12.0000 </r>
       <r>   -33.0991     0.0000    12.0000 </r>
       <r>   -32.8909     0.0000    12.0000 </r>
       <r>   -32.6828     0.0000    12.0000 </r>
       <r>   -32.4747     0.0000    12.0000 </r>
       <r>   -32.2666     0.0000    12.0000 </r>
       <r>   -32.0584     0.0000    12.0000 </r>
       <r>   -31.8503     0.0000    12.0000 </r>
       <r>   -31.6422     0.0000    12.0000 </r>
       <r>   -31.4341     0.0000    12.0000 </r>
       <r>   -31.2260     0.0000    12.0000 </r>
       <r>   -31.0178     0.0000    12.0000 </r>
       <r>   -30.8097     0.0000    12.0000 </r>
       <r>   -30.6016     0.0000    12.0000 </r>
       <r>   -30.3935     0.0000    12.0000 </r>
       <r>   -30.1853     0.0000    12.0000 </r>
       <r>   -29.9772     0.0000    12.0000 </r>
       <r>   -29.7691     0.0000    12.0000 </r>
       <r>   -29.5610     0.0000    12.0000 </r>
       <r>   -29.3528     0.0000    12.0000 </r>
       <r>   -29.1447     0.0000    12.0000 </r>
       <r>   -28.9366     0.0000    12.0000 </r>
       <r>   -28.7285     0.0000    12.0000 </r>
       <r>   -28.5204     0.0000    12.0000 </r>
       <r>   -28.3122     0.0000    12.0000 </r>
       <r>   -28.1041     0.0000    12.0000 </r>
       <r>   -27.8960     0.0000    12.0000 </r>
       <r>   -27.6879     0.0000    12.0000 </r>
       <r>   -27.4797     0.0000    12.0000 </r>
       <r>   -27.2716     0.0000    12.0000 </r>
       <r>   -27.0635     0.0000    12.0000 </r>
       <r>   -26.8554     0.0000    12.0000 </r>
       <r>   -26.6472     0.0000    12.0000 </r>
       <r>   -26.4391     0.0000    12.0000 </r>
       <r>   -26.2310     0.0000    12.0000 </r>
       <r>   -26.0229     0.0000    12.0000 </r>
       <r>   -25.8148    -0.0000    12.0000 </r>
       <r>   -25.6066    -0.0000    12.0000 </r>
       <r>   -25.3985    -0.0000    12.0000 </r>
       <r>   -25.1904    -0.0000    12.0000 </r>
       <r>   -24.9823    -0.0000    12.0000 </r>
       <r>   -24.7741    -0.0000    12.0000 </r>
       <r>   -24.5660    -0.0011    11.9998 </r>
       <r>   -24.3579    -0.0633    11.9866 </r>
       <r>   -24.1498    -0.2363    11.9374 </r>
       <r>   -23.9416     3.0858    12.5797 </r>
       <r>   -23.7335    20.5796    16.8628 </r>
       <r>   -23.5254    48.2559    26.9059 </r>
       <r>   -23.3173    51.2754    37.5775 </r>
       <r>   -23.1092    34.7724    44.8144 </r>
       <r>   -22.9010    11.5972    47.2281 </r>
       <r>   -22.6929     2.9271    47.8373 </r>
       <r>   -22.4848     0.9111    48.0269 </r>
       <r>   -22.2767    -0.1206    48.0018 </r>
       <r>   -22.0685    -0.0086    48.0000 </r>
       <r>   -21.8604    -0.0000    48.0000 </r>
       <r>   -21.6523    -0.0000    48.0000 </r>
       <r>   -21.4442    -0.0000    48.0000 </r>
       <r>   -21.2360     0.0000    48.0000 </r>
       <r>   -21.0279     0.0000    48.0000 </r>
       <r>   -20.8198     0.0000    48.0000 </r>
       <r>   -20.6117     0.0000    48.0000 </r>
       <r>   -20.4036     0.0000    48.0000 </r>
       <r>   -20.1954     0.0000    48.0000 </r>
       <r>   -19.9873     0.0000    48.0000 </r>
       <r>   -19.7792     0.0000    48.0000 </r>
       <r>   -19.5711     0.0000    48.0000 </r>
       <r>   -19.3629     0.0000    48.0000 </r>
       <r>   -19.1548     0.0000    48.0000 </r>
       <r>   -18.9467     0.0000    48.0000 </r>
       <r>   -18.7386     0.0000    48.0000 </r>
       <r>   -18.5304     0.0000    48.0000 </r>
       <r>   -18.3223     0.0000    48.0000 </r>
       <r>   -18.1142     0.0000    48.0000 </r>
       <r>   -17.9061     0.0000    48.0000 </r>
       <r>   -17.6980     0.0000    48.0000 </r>
       <r>   -17.4898     0.0000    48.0000 </r>
       <r>   -17.2817     0.0000    48.0000 </r>
       <r>   -17.0736     0.0000    48.0000 </r>
       <r>   -16.8655     0.0000    48.0000 </r>
       <r>   -16.6573     0.0000    48.0000 </r>
       <r>   -16.4492     0.0000    48.0000 </r>
       <r>   -16.2411     0.0000    48.0000 </r>
       <r>   -16.0330     0.0000    48.0000 </r>
       <r>   -15.8249     0.0000    48.0000 </r>
       <r>   -15.6167     0.0000    48.0000 </r>
       <r>   -15.4086     0.0000    48.0000 </r>
       <r>   -15.2005     0.0000    48.0000 </r>
       <r>   -14.9924     0.0000    48.0000 </r>
       <r>   -14.7842     0.0000    48.0000 </r>
       <r>   -14.5761     0.0000    48.0000 </r>
       <r>   -14.3680     0.0000    48.0000 </r>
       <r>   -14.1599     0.0000    48.0000 </r>
       <r>   -13.9517     0.0000    48.0000 </r>
       <r>   -13.7436     0.0000    48.0000 </r>
       <r>   -13.5355     0.0000    48.0000 </r>
       <r>   -13.3274     0.0000    48.0000 </r>
       <r>   -13.1193     0.0000    48.0000 </r>
       <r>   -12.9111     0.0000    48.0000 </r>
       <r>   -12.7030     0.0000    48.0000 </r>
       <r>   -12.4949     0.0000    48.0000 </r>
       <r>   -12.2868     0.0000    48.0000 </r>
       <r>   -12.0786     0.0000    48.0000 </r>
       <r>   -11.8705     0.0000    48.0000 </r>
       <r>   -11.6624     0.0000    48.0000 </r>
       <r>   -11.4543     0.0000    48.0000 </r>
       <r>   -11.2461     0.0000    48.0000 </r>
       <r>   -11.0380     0.0000    48.0000 </r>
       <r>   -10.8299     0.0000    48.0000 </r>
       <r>   -10.6218     0.0000    48.0000 </r>
       <r>   -10.4137     0.0000    48.0000 </r>
       <r>   -10.2055     0.0000    48.0000 </r>
       <r>    -9.9974     0.0000    48.0000 </r>
       <r>    -9.7893     0.0000    48.0000 </r>
       <r>    -9.5812     0.0000    48.0000 </r>
       <r>    -9.3730     0.0000    48.0000 </r>
       <r>    -9.1649     0.0000    48.0000 </r>
       <r>    -8.9568     0.0000    48.0000 </r>
       <r>    -8.7487     0.0000    48.0000 </r>
       <r>    -8.5405     0.0000    48.0000 </r>
       <r>    -8.3324     0.0000    48.0000 </r>
       <r>    -8.1243     0.0000    48.0000 </r>
       <r>    -7.9162     0.0000    48.0000 </r>
       <r>    -7.7081     0.0000    48.0000 </r>
       <r>    -7.4999     0.0000    48.0000 </r>
       <r>    -7.2918     0.0000    48.0000 </r>
       <r>    -7.0837     0.0000    48.0000 </r>
       <r>    -6.8756     0.0000    48.0000 </r>
       <r>    -6.6674     0.0000    48.0000 </r>
       <r>    -6.4593     0.0000    48.0000 </r>
       <r>    -6.2512     0.0000    48.0000 </r>
       <r>    -6.0431     0.0000    48.0000 </r>
       <r>    -5.8349     0.0000    48.0000 </r>
       <r>    -5.6268     0.0000    48.0000 </r>
       <r>    -5.4187     0.0000    48.0000 </r>
       <r>    -5.2106     0.0000    48.0000 </r>
       <r>    -5.0025     0.0000    48.0000 </r>
       <r>    -4.7943     0.0000    48.0000 </r>
       <r>    -4.5862     0.0000    48.0000 </r>
       <r>    -4.3781     0.0000    48.0000 </r>
       <r>    -4.1700     0.0000    48.0000 </r>
       <r>    -3.9618     0.0000    48.0000 </r>
       <r>    -3.7537     0.0000    48.0000 </r>
       <r>    -3.5456     0.0000    48.0000 </r>
       <r>    -3.3375     0.0000    48.0000 </r>
       <r>    -3.1293     0.0000    48.0000 </r>
       <r>    -2.9212     0.0000    48.0000 </r>
       <r>    -2.7131     0.0000    48.0000 </r>
       <r>    -2.5050     0.0000    48.0000 </r>
       <r>    -2.2969    -0.0000    48.0000 </r>
       <r>    -2.0887    -0.0000    48.0000 </r>
       <r>    -1.8806    -0.0000    48.0000 </r>
       <r>    -1.6725    -0.0000    48.0000 </r>
       <r>    -1.4644    -0.0000    48.0000 </r>
       <r>    -1.2562    -0.0000    48.0000 </r>
       <r>    -1.0481    -0.0002    47.9999 </r>
       <r>    -0.8400    -0.0078    47.9983 </r>
       <r>    -0.6319     0.0131    48.0011 </r>
       <r>    -0.4237     0.3640    48.0768 </r>
       <r>    -0.2156     1.0250    48.2902 </r>
       <r>    -0.0075     1.6341    48.6303 </r>
       <r>     0.2006     1.7260    48.9895 </r>
       <r>     0.4087     1.3492    49.2703 </r>
       <r>     0.6169     2.8239    49.8580 </r>
       <r>     0.8250     3.3382    50.5528 </r>
       <r>     1.0331     2.6664    51.1077 </r>
       <r>     1.2412     3.0666    51.7459 </r>
       <r>     1.4494     4.2437    52.6292 </r>
       <r>     1.6575     3.9795    53.4574 </r>
       <r>     1.8656     4.4852    54.3908 </r>
       <r>     2.0737     6.6647    55.7779 </r>
       <r>     2.2818     9.4602    57.7468 </r>
       <r>     2.4900    13.7048    60.5991 </r>
       <r>     2.6981    18.5491    64.4596 </r>
       <r>     2.9062    20.8534    68.7996 </r>
       <r>     3.1143    24.8067    73.9625 </r>
       <r>     3.3225    29.1494    80.0291 </r>
       <r>     3.5306    30.6225    86.4024 </r>
       <r>     3.7387    29.5249    92.5472 </r>
       <r>     3.9468    29.3561    98.6569 </r>
       <r>     4.1550    28.5831   104.6057 </r>
       <r>     4.3631    24.7297   109.7525 </r>
       <r>     4.5712    24.0137   114.7503 </r>
       <r>     4.7793    34.6135   121.9542 </r>
       <r>     4.9874    40.0665   130.2929 </r>
       <r>     5.1956    39.9476   138.6069 </r>
       <r>     5.4037    38.6259   146.6459 </r>
       <r>     5.6118    36.5801   154.2590 </r>
       <r>     5.8199    37.7918   162.1244 </r>
       <r>     6.0281    38.4050   170.1173 </r>
       <r>     6.2362    38.3096   178.0904 </r>
       <r>     6.4443    38.0275   186.0048 </r>
       <r>     6.6524    34.8352   193.2548 </r>
       <r>     6.8606    31.3249   199.7743 </r>
       <r>     7.0687    27.7024   205.5398 </r>
       <r>     7.2768    22.3970   210.2011 </r>
       <r>     7.4849    17.0564   213.7509 </r>
       <r>     7.6930    15.9892   217.0787 </r>
       <r>     7.9012    17.2414   220.6670 </r>
       <r>     8.1093    18.2251   224.4601 </r>
       <r>     8.3174    21.1004   228.8515 </r>
       <r>     8.5255    21.6403   233.3554 </r>
       <r>     8.7337    17.2218   236.9396 </r>
       <r>     8.9418     9.8771   238.9953 </r>
       <r>     9.1499     4.1811   239.8655 </r>
       <r>     9.3580     0.7306   240.0175 </r>
       <r>     9.5662    -0.0717   240.0026 </r>
       <r>     9.7743    -0.0124   240.0000 </r>
       <r>     9.9824    -0.0001   240.0000 </r>
       <r>    10.1905    -0.0000   240.0000 </r>
       <r>    10.3986    -0.0000   240.0000 </r>
       <r>    10.6068    -0.0000   240.0000 </r>
       <r>    10.8149     0.0000   240.0000 </r>
       <r>    11.0230     0.0000   240.0000 </r>
       <r>    11.2311     0.0000   240.0000 </r>
       <r>    11.4393     0.0000   240.0000 </r>
       <r>    11.6474     0.0000   240.0000 </r>
       <r>    11.8555     0.0000   240.0000 </r>
       <r>    12.0636     0.0000   240.0000 </r>
      </set>
     </set>
    </array>
   </total>
  </dos>
 </calculation>
 <structure name="finalpos" >
  <crystal>
   <varray name="basis" >
    <v>      -3.21083996      -3.14474496      -3.15662285 </v>
    <v>       1.57192339       1.66676487      -7.95187770 </v>
    <v>       7.93231473      -7.86318025      -1.48162217 </v>
   </varray>
   <i name="volume">    480.48142928 </i>
   <varray name="rec_basis" >
    <v>      -0.13527383      -0.12643111      -0.05324164 </v>
    <v>       0.04196160       0.06201400      -0.10446298 </v>
    <v>       0.06299510      -0.06346588      -0.00085002 </v>
   </varray>
  </crystal>
  <varray name="positions" >
   <v>       0.94502091       0.91622190       0.36405506 </v>
   <v>       0.63003134       0.26458226       0.40065839 </v>
   <v>       0.49743298       0.00559157      -0.00315371 </v>
   <v>       0.00098111      -0.00606370       0.01617338 </v>
   <v>       0.09852629       0.20498981       0.80022091 </v>
   <v>       0.03515987       0.06243522       0.59406688 </v>
   <v>       0.80247525       0.59469870       0.39929640 </v>
   <v>       0.73454619       0.47004253       0.20342118 </v>
   <v>       0.66874236       0.34180353      -0.00021320 </v>
   <v>       0.36247906       0.72696045       0.59928529 </v>
   <v>       0.13074938       0.27166544       0.40101410 </v>
   <v>       0.84198623       0.66840892       0.00873852 </v>
   <v>       0.93110298       0.86947602       0.80101629 </v>
   <v>       0.57391081       0.13418124       0.19657453 </v>
   <v>       0.42411301       0.79654797       0.19962636 </v>
   <v>       0.43849314       0.85741428       0.79672676 </v>
   <v>       0.30096246       0.60035822       0.40228729 </v>
   <v>       0.85506838       0.73126973       0.59446556 </v>
   <v>       0.44877012       0.93183351       0.40846062 </v>
   <v>       0.17478302       0.33904638       0.00430378 </v>
   <v>       0.26773216       0.53334151       0.79917944 </v>
   <v>       0.19476275       0.39107802       0.59546006 </v>
   <v>       0.07280043       0.15539656       0.21002702 </v>
   <v>       0.77146905       0.52680206       0.80133812 </v>
   <v>       0.69090074       0.40541472       0.60327514 </v>
   <v>       0.60090241       0.20046467       0.79792487 </v>
   <v>       0.53664733       0.06566795       0.60151952 </v>
   <v>       0.34353875       0.66037292       0.00321181 </v>
   <v>       0.22591149       0.47999760       0.20103965 </v>
  </varray>
 </structure>
</modeling>
