SQS with 1 vacancy for VFE and VRV      
           1
    -3.190000   -3.190000   -3.190000
     1.595000    1.595000   -7.975000
     7.975000   -7.975000   -1.595000
   Nb   Mo   Ta   Ti   W 
   6   5   6   6   6
Direct configuration=     1
   0.96666667  0.93333333  0.40000000
   0.63333333  0.26666667  0.40000000
   0.50000000  0.00000000  0.00000000
   0.00000000  0.00000000  0.00000000
   0.10000000  0.20000000  0.80000000
   0.03333333  0.06666667  0.60000000
   0.80000000  0.60000000  0.40000000
   0.73333333  0.46666667  0.20000000
   0.66666667  0.33333333  0.00000000
   0.36666667  0.73333333  0.60000000
   0.13333333  0.26666667  0.40000000
   0.83333333  0.66666667  0.00000000
   0.93333333  0.86666667  0.80000000
   0.56666667  0.13333333  0.20000000
   0.40000000  0.80000000  0.20000000
   0.43333333  0.86666667  0.80000000
   0.30000000  0.60000000  0.40000000
   0.86666667  0.73333333  0.60000000
   0.46666667  0.93333333  0.40000000
   0.16666667  0.33333333  0.00000000
   0.26666667  0.53333333  0.80000000
   0.20000000  0.40000000  0.60000000
   0.06666667  0.13333333  0.20000000
   0.76666667  0.53333333  0.80000000
   0.70000000  0.40000000  0.60000000
   0.60000000  0.20000000  0.80000000
   0.53333333  0.06666667  0.60000000
   0.33333333  0.66666667  0.00000000
   0.23333333  0.46666667  0.20000000
SQS with 1 vacancy for VFE and VRV      
           1
    -3.160494   -3.134345   -3.149901
     1.566407    1.582606   -7.876346
     7.902677   -7.861434   -1.550821
   Nb   Mo   Ta   Ti   W 
   6   5   6   6   6
Direct configuration=     2
   0.96413851  0.93138665  0.39569736
   0.63252695  0.26588695  0.40012268
   0.49778172  0.00213043 -0.00064560
  -0.00033267 -0.00181493  0.00307476
   0.09773302  0.20464889  0.79829174
   0.03643720  0.06706363  0.59841316
   0.80312320  0.59669154  0.39826284
   0.73294924  0.46705230  0.19961569
   0.66465596  0.33688668 -0.00041331
   0.36822077  0.73106178  0.59981394
   0.13268298  0.26999162  0.39897585
   0.83498394  0.66482274  0.00363900
   0.93024361  0.86834344  0.80007595
   0.56781728  0.13195400  0.19793795
   0.40312984  0.79443994  0.19864693
   0.43801545  0.86138292  0.79802655
   0.30075523  0.60154217  0.40135259
   0.86282759  0.73366972  0.59905609
   0.46254539  0.93264816  0.40431525
   0.16909783  0.33363563  0.00134622
   0.26750204  0.53417910  0.79989311
   0.20000884  0.39720232  0.59874357
   0.06804877  0.13995386  0.20278994
   0.76817202  0.52926499  0.79978719
   0.69624711  0.40614331  0.60213799
   0.59866191  0.20137856  0.79871462
   0.53707954  0.06745577  0.60130176
   0.33546021  0.66117274  0.00146339
   0.22948652  0.46982509  0.19956278
SQS with 1 vacancy for VFE and VRV      
           1
    -3.165835   -3.144419   -3.157159
     1.571582    1.584849   -7.894203
     7.915768   -7.881989   -1.558818
   Nb   Mo   Ta   Ti   W 
   6   5   6   6   6
Direct configuration=     3
   0.96460746  0.93174354  0.39648648
   0.63267465  0.26602975  0.40010061
   0.49818948  0.00173987 -0.00052709
  -0.00027558 -0.00148267  0.00251209
   0.09815116  0.20379690  0.79860441
   0.03586993  0.06699135  0.59870276
   0.80255239  0.59729830  0.39858066
   0.73302018  0.46698163  0.19968611
   0.66502543  0.33623536 -0.00033767
   0.36793586  0.73147822  0.59984797
   0.13280370  0.26938234  0.39916298
   0.83467658  0.66516046  0.00297240
   0.93081027  0.86803586  0.80006267
   0.56760875  0.13220708  0.19831550
   0.40255722  0.79545928  0.19889482
   0.43715892  0.86235183  0.79838754
   0.30061511  0.60125950  0.40110436
   0.86353289  0.73360779  0.59923006
   0.46329583  0.93277290  0.40352634
   0.16865028  0.33358034  0.00109888
   0.26734900  0.53402420  0.79991227
   0.20000865  0.39771513  0.59897420
   0.06779214  0.13874050  0.20227733
   0.76789599  0.53001070  0.79982648
   0.69693306  0.40501695  0.60174642
   0.59890900  0.20112592  0.79895017
   0.53639089  0.06731141  0.60106207
   0.33506803  0.66217959  0.00119577
   0.23019275  0.46924596  0.19964343
SQS with 1 vacancy for VFE and VRV      
           1
    -3.183536   -3.143359   -3.167936
     1.568926    1.596606   -7.921914
     7.959541   -7.898560   -1.544500
   Nb   Mo   Ta   Ti   W 
   6   5   6   6   6
Direct configuration=     4
   0.96186507  0.93018783  0.39247340
   0.63216023  0.26548155  0.40007815
   0.49656901  0.00305757 -0.00111819
  -0.00079536 -0.00300855  0.00530422
   0.09682620  0.20678160  0.79746959
   0.03818003  0.06739666  0.59747412
   0.80503452  0.59527337  0.39710623
   0.73295415  0.46697217  0.19961119
   0.66386679  0.33861313 -0.00065316
   0.36886559  0.72982408  0.59971561
   0.13214903  0.27176954  0.39861646
   0.83599315  0.66427522  0.00597181
   0.92925254  0.86914932  0.80021969
   0.56945572  0.13026232  0.19696029
   0.40476493  0.79185598  0.19807099
   0.43987236  0.85869771  0.79712924
   0.30116955  0.60214300  0.40213972
   0.86077696  0.73385090  0.59835936
   0.46019449  0.93220371  0.40667108
   0.17058663  0.33370232  0.00210279
   0.26771439  0.53457689  0.79972714
   0.19969424  0.39595600  0.59783672
   0.06888286  0.14398023  0.20449189
   0.76928917  0.52734189  0.79976301
   0.69420218  0.40924304  0.60301750
   0.59795611  0.20213981  0.79808228
   0.53914609  0.06792210  0.60191940
   0.33654297  0.65823091  0.00205208
   0.22683039  0.47211968  0.19940738
SQS with 1 vacancy for VFE and VRV      
           1
    -3.197371   -3.142530   -3.176358
     1.566849    1.605794   -7.943571
     7.993752   -7.911511   -1.533310
   Nb   Mo   Ta   Ti   W 
   6   5   6   6   6
Direct configuration=     5
   0.95971378  0.92897504  0.38934528
   0.63175938  0.26505480  0.40005980
   0.49530368  0.00408401 -0.00157897
  -0.00118998 -0.00419516  0.00747657
   0.09578877  0.20910586  0.79658693
   0.03997580  0.06771082  0.59651993
   0.80696410  0.59369471  0.39595913
   0.73290242  0.46696479  0.19955278
   0.66296209  0.34046512 -0.00089818
   0.36959010  0.72853547  0.59961224
   0.13163625  0.27362857  0.39819203
   0.83703022  0.66358700  0.00830768
   0.92803885  0.87001710  0.80034130
   0.57089071  0.12874639  0.19590547
   0.40648341  0.78904858  0.19742906
   0.44198341  0.85585032  0.79614947
   0.30160515  0.60283143  0.40294697
   0.85862600  0.73404073  0.59767908
   0.45778904  0.93176326  0.40911627
   0.17209927  0.33379718  0.00288629
   0.26799834  0.53500708  0.79958372
   0.19944555  0.39458552  0.59694958
   0.06973952  0.14806165  0.20622081
   0.77037536  0.52526296  0.79971299
   0.69207745  0.41253588  0.60400761
   0.59721012  0.20292927  0.79740639
   0.54129623  0.06839718  0.60258987
   0.33769653  0.65515571  0.00271736
   0.22420845  0.47435873  0.19922253
SQS with 1 vacancy for VFE and VRV      
           1
    -3.201667   -3.148417   -3.181695
     1.566699    1.611449   -7.957268
     7.997341   -7.923167   -1.531818
   Nb   Mo   Ta   Ti   W 
   6   5   6   6   6
Direct configuration=     6
   0.95788520  0.92891347  0.38780042
   0.63202602  0.26521710  0.39987038
   0.49531539  0.00338118 -0.00215274
  -0.00164997 -0.00446620  0.00823597
   0.09646561  0.20787762  0.79708233
   0.03972428  0.06791175  0.59638227
   0.80696214  0.59411389  0.39592220
   0.73289237  0.46647777  0.20013727
   0.66387937  0.33965244 -0.00093778
   0.36873197  0.72883279  0.59969639
   0.13138388  0.27358529  0.39865340
   0.83665680  0.66450566  0.00843997
   0.92900586  0.87007791  0.80072566
   0.57232747  0.12794123  0.19625127
   0.40660802  0.78975987  0.19773591
   0.44077315  0.85627110  0.79656703
   0.30199477  0.60215472  0.40270899
   0.85879476  0.73410941  0.59732932
   0.45725800  0.93176533  0.40904993
   0.17222473  0.33388051  0.00284065
   0.26769432  0.53483462  0.79938917
   0.19897174  0.39502042  0.59636198
   0.06993381  0.14892082  0.20659937
   0.77058090  0.52642452  0.80019942
   0.69222050  0.41141432  0.60333578
   0.59784865  0.20251351  0.79751187
   0.54125875  0.06848616  0.60250985
   0.33770837  0.65591489  0.00214855
   0.22452315  0.47450791  0.19960517
SQS with 1 vacancy for VFE and VRV      
           1
    -3.209126   -3.158638   -3.190962
     1.566439    1.621269   -7.981050
     8.003571   -7.943405   -1.529229
   Nb   Mo   Ta   Ti   W 
   6   5   6   6   6
Direct configuration=     7
   0.95471796  0.92880480  0.38512109
   0.63248850  0.26549815  0.39954188
   0.49533662  0.00216235 -0.00314841
  -0.00244850 -0.00493496  0.00955309
   0.09763810  0.20574957  0.79794073
   0.03928851  0.06825980  0.59614366
   0.80695878  0.59484032  0.39585841
   0.73287403  0.46563446  0.20115078
   0.66546949  0.33824391 -0.00100714
   0.36724433  0.72934819  0.59984268
   0.13094570  0.27351088  0.39945369
   0.83600926  0.66609796  0.00867008
   0.93068146  0.87018378  0.80139221
   0.57481745  0.12654624  0.19685031
   0.40682351  0.79099301  0.19826858
   0.43867460  0.85700089  0.79729179
   0.30267054  0.60098160  0.40229570
   0.85908784  0.73422799  0.59672266
   0.45633761  0.93176885  0.40893497
   0.17244226  0.33402486  0.00276151
   0.26716763  0.53453549  0.79905165
   0.19815134  0.39577341  0.59534312
   0.07026997  0.15041033  0.20725651
   0.77093638  0.52843825  0.80104383
   0.69246956  0.40946967  0.60216974
   0.59895533  0.20179308  0.79769445
   0.54119391  0.06864027  0.60237113
   0.33772977  0.65722990  0.00116240
   0.22506805  0.47476696  0.20026889
SQS with 1 vacancy for VFE and VRV      
           1
    -3.206943   -3.155647   -3.188250
     1.566515    1.618395   -7.974090
     8.001748   -7.937482   -1.529987
   Nb   Mo   Ta   Ti   W 
   6   5   6   6   6
Direct configuration=     8
   0.95564106  0.92883749  0.38590377
   0.63235338  0.26541627  0.39963784
   0.49532995  0.00251832 -0.00285728
  -0.00221485 -0.00479869  0.00916831
   0.09729629  0.20637013  0.79769038
   0.03941558  0.06815834  0.59621329
   0.80695974  0.59462840  0.39587692
   0.73287984  0.46588012  0.20085481
   0.66500537  0.33865489 -0.00098654
   0.36767856  0.72919775  0.59979977
   0.13107395  0.27353229  0.39921986
   0.83619836  0.66563330  0.00860252
   0.93019276  0.87015265  0.80119753
   0.57409103  0.12695303  0.19667567
   0.40676088  0.79063304  0.19811273
   0.43928740  0.85678769  0.79707979
   0.30247312  0.60132402  0.40241670
   0.85900203  0.73419362  0.59689990
   0.45660617  0.93176786  0.40896851
   0.17237874  0.33398278  0.00278462
   0.26732118  0.53462289  0.79915029
   0.19839031  0.39555410  0.59564062
   0.07017218  0.14997551  0.20706426
   0.77083305  0.52785042  0.80079677
   0.69239631  0.41003747  0.60251079
   0.59863243  0.20200320  0.79764130
   0.54121277  0.06859536  0.60241163
   0.33772308  0.65684661  0.00145029
   0.22490934  0.47469114  0.20007495
SQS with 1 vacancy for VFE and VRV      
           1
    -3.202991   -3.151530   -3.183992
     1.562597    1.619179   -7.964306
     7.985190   -7.924323   -1.523980
   Nb   Mo   Ta   Ti   W 
   6   5   6   6   6
Direct configuration=     9
   0.95413174  0.92869509  0.38451202
   0.63247067  0.26550389  0.39952311
   0.49523057  0.00209105 -0.00322803
  -0.00252033 -0.00504447  0.00983994
   0.09766431  0.20563084  0.79807341
   0.03918038  0.06823601  0.59607878
   0.80685547  0.59489676  0.39589590
   0.73278861  0.46570158  0.20122410
   0.66565349  0.33818722 -0.00100863
   0.36709716  0.72933287  0.59982403
   0.13099132  0.27347501  0.39954729
   0.83603990  0.66618840  0.00872886
   0.93060557  0.87028234  0.80143273
   0.57528098  0.12629651  0.19696102
   0.40698093  0.79115319  0.19833163
   0.43863781  0.85709610  0.79731173
   0.30270806  0.60096639  0.40218441
   0.85897568  0.73428411  0.59661537
   0.45600853  0.93180163  0.40894992
   0.17250309  0.33413698  0.00277711
   0.26721307  0.53446541  0.79898916
   0.19795377  0.39579112  0.59520408
   0.07042194  0.15071451  0.20741474
   0.77098277  0.52843520  0.80108708
   0.69258567  0.40932048  0.60216004
   0.59921583  0.20170093  0.79767271
   0.54118825  0.06861578  0.60238499
   0.33789642  0.65727491  0.00121066
   0.22525830  0.47477015  0.20030184
SQS with 1 vacancy for VFE and VRV      
           1
    -3.196536   -3.144804   -3.177037
     1.556196    1.620458   -7.948324
     7.958145   -7.902828   -1.514168
   Nb   Mo   Ta   Ti   W 
   6   5   6   6   6
Direct configuration=    10
   0.95166376  0.92846101  0.38223429
   0.63266258  0.26564708  0.39933540
   0.49506813  0.00139203 -0.00383499
  -0.00302028 -0.00544587  0.01093894
   0.09826597  0.20442221  0.79869989
   0.03879577  0.06836292  0.59585867
   0.80668496  0.59533563  0.39592709
   0.73263923  0.46540991  0.20182837
   0.66671348  0.33742243 -0.00104500
   0.36614626  0.72955382  0.59986379
   0.13085604  0.27338161  0.40008312
   0.83578075  0.66709626  0.00893589
   0.93128066  0.87049464  0.80181769
   0.57722701  0.12522315  0.19742769
   0.40734080  0.79200399  0.19869012
   0.43757533  0.85760061  0.79769142
   0.30309238  0.60038136  0.40180410
   0.85893270  0.73443186  0.59614976
   0.45503106  0.93185682  0.40891951
   0.17270650  0.33438917  0.00276491
   0.26703629  0.53420775  0.79872539
   0.19724002  0.39617836  0.59448978
   0.07083039  0.15192332  0.20798869
   0.77122761  0.52939176  0.80156247
   0.69289544  0.40814770  0.60158568
   0.60016997  0.20120667  0.79772399
   0.54114816  0.06864914  0.60234142
   0.33818008  0.65797512  0.00081872
   0.22582897  0.47489955  0.20067319
SQS with 1 vacancy for VFE and VRV      
           1
    -3.198370   -3.143664   -3.176244
     1.556204    1.623075   -7.948624
     7.958056   -7.898325   -1.510730
   Nb   Mo   Ta   Ti   W 
   6   5   6   6   6
Direct configuration=    11
   0.95088226  0.92812163  0.38119537
   0.63250660  0.26560264  0.39935093
   0.49479908  0.00149998 -0.00375309
  -0.00302174 -0.00562711  0.01146822
   0.09823544  0.20454086  0.79883853
   0.03866306  0.06815891  0.59574588
   0.80640756  0.59550976  0.39597101
   0.73257321  0.46566654  0.20181947
   0.66692130  0.33748784 -0.00099196
   0.36595632  0.72948269  0.59978036
   0.13108191  0.27326168  0.40015826
   0.83603234  0.66705822  0.00912149
   0.93095290  0.87054855  0.80177224
   0.57785023  0.12477330  0.19753106
   0.40765116  0.79230163  0.19880553
   0.43780244  0.85769632  0.79763022
   0.30297980  0.60056035  0.40166857
   0.85869599  0.73446395  0.59598649
   0.45440726  0.93189833  0.40895076
   0.17284708  0.33459676  0.00282515
   0.26717894  0.53411035  0.79862038
   0.19694858  0.39611952  0.59438177
   0.07121456  0.15231402  0.20820214
   0.77133168  0.52910470  0.80152121
   0.69305976  0.40811300  0.60170632
   0.60044604  0.20120382  0.79770723
   0.54106903  0.06856743  0.60230601
   0.33850503  0.65788148  0.00104229
   0.22602219  0.47498284  0.20063815
SQS with 1 vacancy for VFE and VRV      
           1
    -3.203870   -3.140245   -3.173868
     1.556228    1.630925   -7.949523
     7.957790   -7.884817   -1.500418
   Nb   Mo   Ta   Ti   W 
   6   5   6   6   6
Direct configuration=    12
   0.94853531  0.92710322  0.37807708
   0.63203871  0.26546930  0.39939745
   0.49399226  0.00182374 -0.00350741
  -0.00302512 -0.00617062  0.01305644
   0.09814428  0.20489679  0.79925460
   0.03826454  0.06754694  0.59540723
   0.80557570  0.59603199  0.39610275
   0.73237539  0.46643625  0.20179286
   0.66754493  0.33768408 -0.00083265
   0.36538627  0.72926930  0.59952985
   0.13175953  0.27290204  0.40038382
   0.83678743  0.66694423  0.00967857
   0.92996961  0.87071017  0.80163567
   0.57971956  0.12342419  0.19784136
   0.40858272  0.79319452  0.19915219
   0.43848367  0.85798347  0.79744672
   0.30264195  0.60109713  0.40126192
   0.85798556  0.73456009  0.59549641
   0.45253607  0.93202268  0.40904420
   0.17326912  0.33521949  0.00300611
   0.26760651  0.53381822  0.79830527
   0.19607402  0.39594291  0.59405745
   0.07236786  0.15348607  0.20884310
   0.77164350  0.52824370  0.80139730
   0.69355292  0.40800901  0.60206845
   0.60127414  0.20119534  0.79765708
   0.54083151  0.06832230  0.60219966
   0.33948023  0.65760075  0.00171335
   0.22660184  0.47523272  0.20053316
SQS with 1 vacancy for VFE and VRV      
           1
    -3.214870   -3.133406   -3.169115
     1.556276    1.646627   -7.951322
     7.957257   -7.857802   -1.479793
   Nb   Mo   Ta   Ti   W 
   6   5   6   6   6
Direct configuration=    13
   0.94382648  0.92506480  0.37183137
   0.63110305  0.26520254  0.39948990
   0.49238062  0.00247056 -0.00301622
  -0.00302586 -0.00725623  0.01623513
   0.09796450  0.20560838  0.80008773
   0.03746497  0.06632334  0.59472829
   0.80391386  0.59707545  0.39636604
   0.73198116  0.46797467  0.20174012
   0.66879302  0.33807675 -0.00051285
   0.36424489  0.72884233  0.59902753
   0.13311483  0.27218366  0.40083574
   0.83829958  0.66671706  0.01079445
   0.92800309  0.87103263  0.80136136
   0.58345632  0.12072871  0.19846329
   0.41044872  0.79497990  0.19984804
   0.43984562  0.85855769  0.79708046
   0.30196560  0.60216969  0.40044803
   0.85656297  0.73475164  0.59451470
   0.44879504  0.93227028  0.40922926
   0.17411503  0.33646453  0.00336943
   0.26845956  0.53323437  0.79767470
   0.19432345  0.39558928  0.59340710
   0.07467910  0.15582971  0.21012861
   0.77226484  0.52652282  0.80114875
   0.69454048  0.40780158  0.60279379
   0.60292980  0.20117880  0.79755760
   0.54035562  0.06783216  0.60198627
   0.34143272  0.65704045  0.00305748
   0.22776094  0.47573245  0.20032389
SQS with 1 vacancy for VFE and VRV      
           1
    -3.214563   -3.143010   -3.170488
     1.563990    1.650215   -7.961301
     7.962600   -7.879260   -1.489223
   Nb   Mo   Ta   Ti   W 
   6   5   6   6   6
Direct configuration=    14
   0.94517899  0.92392927  0.37210746
   0.63136036  0.26579656  0.39967261
   0.49360929  0.00274238 -0.00285776
  -0.00281198 -0.00703404  0.01577586
   0.09891487  0.20553504  0.79992404
   0.03742192  0.06601178  0.59490440
   0.80391928  0.59672186  0.39647766
   0.73329918  0.46749439  0.20228512
   0.66859592  0.33857345 -0.00026095
   0.36427018  0.72876922  0.59901544
   0.13212477  0.27270720  0.40060273
   0.83852435  0.66684336  0.01024643
   0.92972066  0.87056317  0.80158782
   0.58143980  0.12287834  0.19779913
   0.41130498  0.79496477  0.19957707
   0.43852875  0.85767993  0.79703049
   0.30130947  0.60174013  0.40085981
   0.85633754  0.73428122  0.59451396
   0.44880113  0.93225544  0.40928345
   0.17396106  0.33650388  0.00357993
   0.26855210  0.53358596  0.79789005
   0.19544374  0.39506929  0.59371234
   0.07461288  0.15519266  0.20987027
   0.77207313  0.52714854  0.80109178
   0.69322697  0.40786489  0.60252608
   0.60174785  0.20111577  0.79785833
   0.53958571  0.06798828  0.60185935
   0.34134975  0.65733785  0.00256864
   0.22759735  0.47573941  0.20049845
SQS with 1 vacancy for VFE and VRV      
           1
    -3.214505   -3.144803   -3.170745
     1.565429    1.650884   -7.963163
     7.963597   -7.883265   -1.490983
   Nb   Mo   Ta   Ti   W 
   6   5   6   6   6
Direct configuration=    15
   0.94543078  0.92371778  0.37215880
   0.63140835  0.26590728  0.39970660
   0.49383832  0.00279314 -0.00282839
  -0.00277185 -0.00699262  0.01569025
   0.09909210  0.20552145  0.79989343
   0.03741375  0.06595372  0.59493723
   0.80392017  0.59665597  0.39649848
   0.73354454  0.46740501  0.20238654
   0.66855915  0.33866600 -0.00021402
   0.36427489  0.72875559  0.59901319
   0.13194040  0.27280468  0.40055940
   0.83856652  0.66686690  0.01014428
   0.93004066  0.87047583  0.80162984
   0.58106459  0.12327875  0.19767550
   0.41146472  0.79496202  0.19952647
   0.43828313  0.85751624  0.79702138
   0.30118689  0.60166003  0.40093663
   0.85629543  0.73419354  0.59451387
   0.44880223  0.93225267  0.40929355
   0.17393226  0.33651120  0.00361917
   0.26856931  0.53365149  0.79793015
   0.19565235  0.39497249  0.59376912
   0.07460054  0.15507393  0.20982218
   0.77203754  0.52726513  0.80108116
   0.69298224  0.40787658  0.60247635
   0.60152736  0.20110394  0.79791451
   0.53944227  0.06801731  0.60183579
   0.34133457  0.65739325  0.00247755
   0.22756678  0.47574070  0.20053099
SQS with 1 vacancy for VFE and VRV      
           1
    -3.205772   -3.143257   -3.162833
     1.568104    1.649343   -7.949593
     7.945585   -7.875683   -1.494612
   Nb   Mo   Ta   Ti   W 
   6   5   6   6   6
Direct configuration=    16
   0.94644704  0.92271207  0.37225561
   0.63155089  0.26618659  0.39987475
   0.49488813  0.00306643 -0.00282795
  -0.00229140 -0.00676809  0.01521921
   0.09945786  0.20558194  0.79976502
   0.03715330  0.06566847  0.59504011
   0.80382212  0.59622456  0.39668935
   0.73443834  0.46731564  0.20271928
   0.66834163  0.33927866 -0.00008890
   0.36421011  0.72860639  0.59898480
   0.13125522  0.27314862  0.40038609
   0.83883217  0.66689860  0.00965928
   0.93085751  0.87014330  0.80175640
   0.57917776  0.12558380  0.19724496
   0.41262626  0.79472877  0.19923247
   0.43782880  0.85691554  0.79696202
   0.30075721  0.60130266  0.40127743
   0.85597068  0.73375325  0.59454252
   0.44890609  0.93229966  0.40929197
   0.17389449  0.33663996  0.00381061
   0.26859092  0.53392722  0.79820018
   0.19644706  0.39436068  0.59415021
   0.07435883  0.15440458  0.20965579
   0.77190275  0.52756299  0.80098018
   0.69205492  0.40794565  0.60241812
   0.60081076  0.20100965  0.79809330
   0.53881674  0.06804819  0.60181754
   0.34144204  0.65759837  0.00224741
   0.22745176  0.47585586  0.20064226
SQS with 1 vacancy for VFE and VRV      
           1
    -3.206540   -3.143393   -3.163528
     1.567869    1.649478   -7.950786
     7.947169   -7.876350   -1.494293
   Nb   Mo   Ta   Ti   W 
   6   5   6   6   6
Direct configuration=    17
   0.94635763  0.92280057  0.37224710
   0.63153834  0.26616199  0.39985995
   0.49479565  0.00304234 -0.00282794
  -0.00233380 -0.00678788  0.01526071
   0.09942562  0.20557660  0.79977634
   0.03717628  0.06569359  0.59503104
   0.80383081  0.59626254  0.39667253
   0.73435968  0.46732348  0.20269002
   0.66836076  0.33922473 -0.00009992
   0.36421582  0.72861953  0.59898730
   0.13131551  0.27311836  0.40040133
   0.83880870  0.66689580  0.00970199
   0.93078561  0.87017255  0.80174528
   0.57934369  0.12538093  0.19728285
   0.41252394  0.79474926  0.19925840
   0.43786885  0.85696844  0.79696722
   0.30079513  0.60133414  0.40124740
   0.85599932  0.73379202  0.59453997
   0.44889694  0.93229552  0.40929212
   0.17389783  0.33662862  0.00379375
   0.26858904  0.53390294  0.79817641
   0.19637717  0.39441452  0.59411667
   0.07438015  0.15446352  0.20967042
   0.77191458  0.52753677  0.80098907
   0.69213658  0.40793960  0.60242321
   0.60087390  0.20101797  0.79807752
   0.53887183  0.06804549  0.60181912
   0.34143253  0.65758030  0.00226768
   0.22746189  0.47584573  0.20063246
SQS with 1 vacancy for VFE and VRV      
           1
    -3.207096   -3.143594   -3.163373
     1.569577    1.650118   -7.952382
     7.947578   -7.874813   -1.495267
   Nb   Mo   Ta   Ti   W 
   6   5   6   6   6
Direct configuration=    18
   0.94650632  0.92238757  0.37205677
   0.63145590  0.26594995  0.39993243
   0.49516912  0.00318351 -0.00294089
  -0.00180159 -0.00667351  0.01505743
   0.09906895  0.20569342  0.79976305
   0.03684631  0.06553346  0.59500875
   0.80366331  0.59609125  0.39684829
   0.73436434  0.46766478  0.20263003
   0.66828823  0.33953812 -0.00015104
   0.36396324  0.72851846  0.59896759
   0.13134724  0.27298454  0.40044524
   0.83911864  0.66691492  0.00951688
   0.93045613  0.87002738  0.80167121
   0.57851732  0.12661205  0.19724677
   0.41337488  0.79460537  0.19914684
   0.43831765  0.85703538  0.79698386
   0.30076652  0.60119850  0.40136973
   0.85582329  0.73359258  0.59460731
   0.44908852  0.93237032  0.40918546
   0.17403272  0.33673404  0.00383074
   0.26847660  0.53391776  0.79836248
   0.19634842  0.39406935  0.59440955
   0.07409848  0.15410405  0.20963700
   0.77193703  0.52741081  0.80091074
   0.69213101  0.40787514  0.60256378
   0.60095775  0.20098555  0.79808213
   0.53869370  0.06788298  0.60185944
   0.34161905  0.65768744  0.00236089
   0.22737092  0.47610485  0.20063751
SQS with 1 vacancy for VFE and VRV      
           1
    -3.208726   -3.144184   -3.162917
     1.574588    1.651994   -7.957063
     7.948781   -7.870304   -1.498124
   Nb   Mo   Ta   Ti   W 
   6   5   6   6   6
Direct configuration=    19
   0.94694204  0.92117651  0.37149850
   0.63121397  0.26532803  0.40014507
   0.49626457  0.00359767 -0.00327225
  -0.00024056 -0.00633791  0.01446108
   0.09802284  0.20603596  0.79972403
   0.03587835  0.06506380  0.59494339
   0.80317199  0.59558878  0.39736393
   0.73437821  0.46866571  0.20245400
   0.66807567  0.34045718 -0.00030107
   0.36322231  0.72822205  0.59890977
   0.13144021  0.27259205  0.40057408
   0.84002764  0.66697118  0.00897385
   0.92948955  0.86960164  0.80145393
   0.57609424  0.13022234  0.19714063
   0.41587065  0.79418359  0.19881966
   0.43963410  0.85723177  0.79703270
   0.30068260  0.60080064  0.40172864
   0.85530688  0.73300763  0.59480487
   0.44965044  0.93258978  0.40887258
   0.17442845  0.33704317  0.00393925
   0.26814693  0.53396108  0.79890834
   0.19626404  0.39305691  0.59526883
   0.07327206  0.15304983  0.20953903
   0.77200273  0.52704147  0.80068098
   0.69211473  0.40768602  0.60297617
   0.60120367  0.20089047  0.79809568
   0.53817115  0.06740633  0.60197773
   0.34216629  0.65800158  0.00263432
   0.22710425  0.47686473  0.20065227
SQS with 1 vacancy for VFE and VRV      
           1
    -3.209723   -3.143549   -3.163314
     1.570678    1.652642   -7.954575
     7.946912   -7.869348   -1.493280
   Nb   Mo   Ta   Ti   W 
   6   5   6   6   6
Direct configuration=    20
   0.94636123  0.92115508  0.37096463
   0.63103553  0.26538867  0.40021527
   0.49636529  0.00378085 -0.00307212
  -0.00046006 -0.00632736  0.01467179
   0.09848819  0.20564702  0.79986580
   0.03623025  0.06484033  0.59487169
   0.80326588  0.59555381  0.39749803
   0.73445797  0.46845276  0.20254081
   0.66829049  0.34022222 -0.00036366
   0.36311560  0.72826173  0.59902617
   0.13141348  0.27226728  0.40065637
   0.84016094  0.66702615  0.00902223
   0.93036503  0.86973031  0.80128279
   0.57623169  0.12996597  0.19708712
   0.41636215  0.79464529  0.19902508
   0.43871109  0.85740543  0.79687408
   0.30094797  0.60081812  0.40165855
   0.85532922  0.73298634  0.59474447
   0.44948588  0.93246638  0.40875791
   0.17452351  0.33706819  0.00395353
   0.26815299  0.53380472  0.79883607
   0.19585927  0.39315172  0.59523653
   0.07335134  0.15353593  0.20961154
   0.77181517  0.52714656  0.80090199
   0.69198632  0.40733631  0.60292876
   0.60097785  0.20097312  0.79802043
   0.53809017  0.06723465  0.60196748
   0.34219394  0.65836418  0.00251497
   0.22689160  0.47709821  0.20070169
SQS with 1 vacancy for VFE and VRV      
           1
    -3.210614   -3.142981   -3.163669
     1.567187    1.653221   -7.952354
     7.945243   -7.868493   -1.488954
   Nb   Mo   Ta   Ti   W 
   6   5   6   6   6
Direct configuration=    21
   0.94584250  0.92113571  0.37048769
   0.63087616  0.26544288  0.40027798
   0.49645521  0.00394461 -0.00289331
  -0.00065607 -0.00631783  0.01486000
   0.09890389  0.20529957  0.79999238
   0.03654456  0.06464062  0.59480762
   0.80334974  0.59552263  0.39761781
   0.73452927  0.46826254  0.20261830
   0.66848240  0.34001227 -0.00041961
   0.36302031  0.72829724  0.59913015
   0.13138971  0.27197716  0.40072979
   0.84027997  0.66707529  0.00906547
   0.93114680  0.86984515  0.80113003
   0.57635451  0.12973690  0.19703927
   0.41680097  0.79505788  0.19920874
   0.43788675  0.85756055  0.79673235
   0.30118494  0.60083370  0.40159597
   0.85534917  0.73296730  0.59469052
   0.44933894  0.93235608  0.40865542
   0.17460839  0.33709054  0.00396631
   0.26815843  0.53366499  0.79877148
   0.19549778  0.39323642  0.59520766
   0.07342202  0.15397026  0.20967645
   0.77164768  0.52724056  0.80109942
   0.69187174  0.40702385  0.60288631
   0.60077616  0.20104694  0.79795321
   0.53801790  0.06708126  0.60195827
   0.34221852  0.65868808  0.00240846
   0.22670164  0.47730684  0.20074587
SQS with 1 vacancy for VFE and VRV      
           1
    -3.214179   -3.143674   -3.165786
     1.563355    1.655039   -7.953465
     7.946299   -7.868880   -1.483407
   Nb   Mo   Ta   Ti   W 
   6   5   6   6   6
Direct configuration=    22
   0.94525820  0.92079397  0.36955100
   0.63061985  0.26526366  0.40029658
   0.49651184  0.00404718 -0.00289167
  -0.00052699 -0.00635683  0.01513186
   0.09887415  0.20508697  0.80010853
   0.03648704  0.06432125  0.59462757
   0.80352452  0.59532828  0.39782495
   0.73432743  0.46841935  0.20268962
   0.66866412  0.34003750 -0.00043436
   0.36295133  0.72813275  0.59912965
   0.13132231  0.27179358  0.40088699
   0.84044769  0.66729045  0.00910627
   0.93074453  0.87001670  0.80101534
   0.57652711  0.12978257  0.19707821
   0.41780438  0.79540227  0.19932959
   0.43824400  0.85784239  0.79678084
   0.30123290  0.60097706  0.40156026
   0.85533242  0.73287502  0.59462960
   0.44904843  0.93223676  0.40855159
   0.17474685  0.33724732  0.00402744
   0.26805315  0.53348899  0.79875987
   0.19506845  0.39310421  0.59511458
   0.07343422  0.15452049  0.20978285
   0.77153477  0.52710112  0.80124487
   0.69174475  0.40673785  0.60300554
   0.60103766  0.20090656  0.79793969
   0.53806483  0.06687473  0.60187890
   0.34241108  0.65902397  0.00254053
   0.22650897  0.47770388  0.20073330
SQS with 1 vacancy for VFE and VRV      
           1
    -3.216253   -3.144077   -3.167018
     1.561126    1.656096   -7.954112
     7.946914   -7.869104   -1.480181
   Nb   Mo   Ta   Ti   W 
   6   5   6   6   6
Direct configuration=    23
   0.94491845  0.92059493  0.36900613
   0.63047091  0.26515944  0.40030734
   0.49654473  0.00410684 -0.00289070
  -0.00045190 -0.00637943  0.01528998