  29  29   0   0
  0.1679057E+02  0.5525242E-09  0.8287863E-09  0.1139058E-08  0.5000000E-15
  1.000000000000000E-004
  CAR 
 SQS with 1 vacancy for VFE and VRV      
     12.12152511    -50.06480366  301      6.85330201      1.00000000
    -50.065  0.0000E+00  0.0000E+00
    -49.858  0.0000E+00  0.0000E+00
    -49.650  0.0000E+00  0.0000E+00
    -49.443  0.0000E+00  0.0000E+00
    -49.236  0.0000E+00  0.0000E+00
    -49.028 -0.1056E-34 -0.2188E-35
    -48.821 -0.4176E-27 -0.8657E-28
    -48.614 -0.1813E-20 -0.3759E-21
    -48.407 -0.8844E-15 -0.1833E-15
    -48.199 -0.5058E-10 -0.1049E-10
    -47.992 -0.3265E-06 -0.6768E-07
    -47.785 -0.2293E-03 -0.4761E-04
    -47.577 -0.1521E-01 -0.3201E-02
    -47.370  0.6446E-02 -0.1865E-02
    -47.163  0.8397E+00  0.1722E+00
    -46.955  0.1399E+01  0.4622E+00
    -46.748  0.7099E+00  0.6093E+00
    -46.541 -0.3588E-01  0.6019E+00
    -46.334 -0.9076E-02  0.6000E+00
    -46.126 -0.8151E-04  0.6000E+00
    -45.919 -0.7320E-07  0.6000E+00
    -45.712 -0.7336E-11  0.6000E+00
    -45.504 -0.6427E-16  0.6000E+00
    -45.297  0.0000E+00  0.6000E+00
    -45.090  0.0000E+00  0.6000E+00
    -44.883  0.0000E+00  0.6000E+00
    -44.675  0.0000E+00  0.6000E+00
    -44.468  0.0000E+00  0.6000E+00
    -44.261  0.0000E+00  0.6000E+00
    -44.053  0.0000E+00  0.6000E+00
    -43.846  0.0000E+00  0.6000E+00
    -43.639  0.0000E+00  0.6000E+00
    -43.432  0.0000E+00  0.6000E+00
    -43.224  0.0000E+00  0.6000E+00
    -43.017  0.0000E+00  0.6000E+00
    -42.810  0.0000E+00  0.6000E+00
    -42.602  0.0000E+00  0.6000E+00
    -42.395  0.0000E+00  0.6000E+00
    -42.188  0.0000E+00  0.6000E+00
    -41.981  0.0000E+00  0.6000E+00
    -41.773  0.0000E+00  0.6000E+00
    -41.566  0.0000E+00  0.6000E+00
    -41.359  0.0000E+00  0.6000E+00
    -41.151  0.0000E+00  0.6000E+00
    -40.944  0.0000E+00  0.6000E+00
    -40.737  0.0000E+00  0.6000E+00
    -40.530  0.0000E+00  0.6000E+00
    -40.322  0.0000E+00  0.6000E+00
    -40.115  0.0000E+00  0.6000E+00
    -39.908  0.0000E+00  0.6000E+00
    -39.700  0.0000E+00  0.6000E+00
    -39.493  0.0000E+00  0.6000E+00
    -39.286  0.0000E+00  0.6000E+00
    -39.079  0.0000E+00  0.6000E+00
    -38.871  0.0000E+00  0.6000E+00
    -38.664  0.0000E+00  0.6000E+00
    -38.457  0.0000E+00  0.6000E+00
    -38.249  0.0000E+00  0.6000E+00
    -38.042  0.0000E+00  0.6000E+00
    -37.835  0.0000E+00  0.6000E+00
    -37.628  0.0000E+00  0.6000E+00
    -37.420  0.0000E+00  0.6000E+00
    -37.213  0.0000E+00  0.6000E+00
    -37.006  0.0000E+00  0.6000E+00
    -36.798  0.0000E+00  0.6000E+00
    -36.591  0.0000E+00  0.6000E+00
    -36.384  0.0000E+00  0.6000E+00
    -36.177  0.0000E+00  0.6000E+00
    -35.969  0.0000E+00  0.6000E+00
    -35.762  0.0000E+00  0.6000E+00
    -35.555  0.0000E+00  0.6000E+00
    -35.347  0.0000E+00  0.6000E+00
    -35.140  0.0000E+00  0.6000E+00
    -34.933  0.0000E+00  0.6000E+00
    -34.726  0.0000E+00  0.6000E+00
    -34.518  0.0000E+00  0.6000E+00
    -34.311  0.0000E+00  0.6000E+00
    -34.104  0.0000E+00  0.6000E+00
    -33.896  0.0000E+00  0.6000E+00
    -33.689  0.0000E+00  0.6000E+00
    -33.482  0.0000E+00  0.6000E+00
    -33.274  0.0000E+00  0.6000E+00
    -33.067  0.0000E+00  0.6000E+00
    -32.860  0.0000E+00  0.6000E+00
    -32.653  0.0000E+00  0.6000E+00
    -32.445  0.0000E+00  0.6000E+00
    -32.238  0.0000E+00  0.6000E+00
    -32.031  0.0000E+00  0.6000E+00
    -31.823  0.0000E+00  0.6000E+00
    -31.616  0.0000E+00  0.6000E+00
    -31.409  0.0000E+00  0.6000E+00
    -31.202  0.0000E+00  0.6000E+00
    -30.994  0.0000E+00  0.6000E+00
    -30.787  0.0000E+00  0.6000E+00
    -30.580  0.0000E+00  0.6000E+00
    -30.372  0.0000E+00  0.6000E+00
    -30.165  0.0000E+00  0.6000E+00
    -29.958  0.0000E+00  0.6000E+00
    -29.751  0.0000E+00  0.6000E+00
    -29.543  0.0000E+00  0.6000E+00
    -29.336  0.0000E+00  0.6000E+00
    -29.129  0.0000E+00  0.6000E+00
    -28.921  0.0000E+00  0.6000E+00
    -28.714  0.0000E+00  0.6000E+00
    -28.507  0.0000E+00  0.6000E+00
    -28.300  0.0000E+00  0.6000E+00
    -28.092  0.0000E+00  0.6000E+00
    -27.885  0.0000E+00  0.6000E+00
    -27.678  0.0000E+00  0.6000E+00
    -27.470  0.0000E+00  0.6000E+00
    -27.263  0.0000E+00  0.6000E+00
    -27.056  0.0000E+00  0.6000E+00
    -26.849  0.0000E+00  0.6000E+00
    -26.641  0.0000E+00  0.6000E+00
    -26.434  0.0000E+00  0.6000E+00
    -26.227  0.0000E+00  0.6000E+00
    -26.019  0.0000E+00  0.6000E+00
    -25.812  0.0000E+00  0.6000E+00
    -25.605 -0.3210E-32  0.6000E+00
    -25.398 -0.4966E-25  0.6000E+00
    -25.190 -0.8823E-19  0.6000E+00
    -24.983 -0.1740E-13  0.6000E+00
    -24.776 -0.4011E-09  0.6000E+00
    -24.568 -0.1064E-05  0.6000E+00
    -24.361 -0.3305E-03  0.5999E+00
    -24.154 -0.1114E-01  0.5976E+00
    -23.947  0.2332E-01  0.6025E+00
    -23.739  0.5266E+00  0.7116E+00
    -23.532  0.1018E+01  0.9226E+00
    -23.325  0.1811E+01  0.1298E+01
    -23.117  0.2567E+01  0.1830E+01
    -22.910  0.1652E+01  0.2173E+01
    -22.703  0.9017E+00  0.2359E+01
    -22.496  0.2175E+00  0.2405E+01
    -22.288 -0.1894E-01  0.2401E+01
    -22.081 -0.3034E-02  0.2400E+01
    -21.874 -0.4051E-04  0.2400E+01
    -21.666 -0.6222E-07  0.2400E+01
    -21.459 -0.1071E-10  0.2400E+01
    -21.252 -0.2142E-15  0.2400E+01
    -21.045  0.0000E+00  0.2400E+01
    -20.837  0.0000E+00  0.2400E+01
    -20.630  0.0000E+00  0.2400E+01
    -20.423  0.0000E+00  0.2400E+01
    -20.215  0.0000E+00  0.2400E+01
    -20.008  0.0000E+00  0.2400E+01
    -19.801  0.0000E+00  0.2400E+01
    -19.594  0.0000E+00  0.2400E+01
    -19.386  0.0000E+00  0.2400E+01
    -19.179  0.0000E+00  0.2400E+01
    -18.972  0.0000E+00  0.2400E+01
    -18.764  0.0000E+00  0.2400E+01
    -18.557  0.0000E+00  0.2400E+01
    -18.350  0.0000E+00  0.2400E+01
    -18.142  0.0000E+00  0.2400E+01
    -17.935  0.0000E+00  0.2400E+01
    -17.728  0.0000E+00  0.2400E+01
    -17.521  0.0000E+00  0.2400E+01
    -17.313  0.0000E+00  0.2400E+01
    -17.106  0.0000E+00  0.2400E+01
    -16.899  0.0000E+00  0.2400E+01
    -16.691  0.0000E+00  0.2400E+01
    -16.484  0.0000E+00  0.2400E+01
    -16.277  0.0000E+00  0.2400E+01
    -16.070  0.0000E+00  0.2400E+01
    -15.862  0.0000E+00  0.2400E+01
    -15.655  0.0000E+00  0.2400E+01
    -15.448  0.0000E+00  0.2400E+01
    -15.240  0.0000E+00  0.2400E+01
    -15.033  0.0000E+00  0.2400E+01
    -14.826  0.0000E+00  0.2400E+01
    -14.619  0.0000E+00  0.2400E+01
    -14.411  0.0000E+00  0.2400E+01
    -14.204  0.0000E+00  0.2400E+01
    -13.997  0.0000E+00  0.2400E+01
    -13.789  0.0000E+00  0.2400E+01
    -13.582  0.0000E+00  0.2400E+01
    -13.375  0.0000E+00  0.2400E+01
    -13.168  0.0000E+00  0.2400E+01
    -12.960  0.0000E+00  0.2400E+01
    -12.753  0.0000E+00  0.2400E+01
    -12.546  0.0000E+00  0.2400E+01
    -12.338  0.0000E+00  0.2400E+01
    -12.131  0.0000E+00  0.2400E+01
    -11.924  0.0000E+00  0.2400E+01
    -11.717  0.0000E+00  0.2400E+01
    -11.509  0.0000E+00  0.2400E+01
    -11.302  0.0000E+00  0.2400E+01
    -11.095  0.0000E+00  0.2400E+01
    -10.887  0.0000E+00  0.2400E+01
    -10.680  0.0000E+00  0.2400E+01
    -10.473  0.0000E+00  0.2400E+01
    -10.266  0.0000E+00  0.2400E+01
    -10.058  0.0000E+00  0.2400E+01
     -9.851  0.0000E+00  0.2400E+01
     -9.644  0.0000E+00  0.2400E+01
     -9.436  0.0000E+00  0.2400E+01
     -9.229  0.0000E+00  0.2400E+01
     -9.022  0.0000E+00  0.2400E+01
     -8.815  0.0000E+00  0.2400E+01
     -8.607  0.0000E+00  0.2400E+01
     -8.400  0.0000E+00  0.2400E+01
     -8.193  0.0000E+00  0.2400E+01
     -7.985  0.0000E+00  0.2400E+01
     -7.778  0.0000E+00  0.2400E+01
     -7.571  0.0000E+00  0.2400E+01
     -7.364  0.0000E+00  0.2400E+01
     -7.156  0.0000E+00  0.2400E+01
     -6.949  0.0000E+00  0.2400E+01
     -6.742  0.0000E+00  0.2400E+01
     -6.534  0.0000E+00  0.2400E+01
     -6.327  0.0000E+00  0.2400E+01
     -6.120  0.0000E+00  0.2400E+01
     -5.913  0.0000E+00  0.2400E+01
     -5.705  0.0000E+00  0.2400E+01
     -5.498  0.0000E+00  0.2400E+01
     -5.291  0.0000E+00  0.2400E+01
     -5.083  0.0000E+00  0.2400E+01
     -4.876  0.0000E+00  0.2400E+01
     -4.669  0.0000E+00  0.2400E+01
     -4.461  0.0000E+00  0.2400E+01
     -4.254  0.0000E+00  0.2400E+01
     -4.047  0.0000E+00  0.2400E+01
     -3.840  0.0000E+00  0.2400E+01
     -3.632  0.0000E+00  0.2400E+01
     -3.425  0.0000E+00  0.2400E+01
     -3.218  0.0000E+00  0.2400E+01
     -3.010  0.0000E+00  0.2400E+01
     -2.803  0.0000E+00  0.2400E+01
     -2.596  0.0000E+00  0.2400E+01
     -2.389  0.0000E+00  0.2400E+01
     -2.181 -0.3845E-32  0.2400E+01
     -1.974 -0.3920E-25  0.2400E+01
     -1.767 -0.4602E-19  0.2400E+01
     -1.559 -0.6001E-14  0.2400E+01
     -1.352 -0.9185E-10  0.2400E+01
     -1.145 -0.1601E-06  0.2400E+01
     -0.938 -0.3107E-04  0.2400E+01
     -0.730 -0.5549E-03  0.2400E+01
     -0.523  0.2374E-02  0.2400E+01
     -0.316  0.2360E-01  0.2405E+01
     -0.108  0.5729E-01  0.2417E+01
      0.099  0.8897E-01  0.2436E+01
      0.306  0.8454E-01  0.2453E+01
      0.513  0.8367E-01  0.2470E+01
      0.721  0.1419E+00  0.2500E+01
      0.928  0.1620E+00  0.2533E+01
      1.135  0.1512E+00  0.2565E+01
      1.343  0.1511E+00  0.2596E+01
      1.550  0.2328E+00  0.2644E+01
      1.757  0.1942E+00  0.2685E+01
      1.964  0.2456E+00  0.2736E+01
      2.172  0.3652E+00  0.2811E+01
      2.379  0.5566E+00  0.2927E+01
      2.586  0.8074E+00  0.3094E+01
      2.794  0.9643E+00  0.3294E+01
      3.001  0.1096E+01  0.3521E+01
      3.208  0.1368E+01  0.3805E+01
      3.415  0.1409E+01  0.4097E+01
      3.623  0.1443E+01  0.4396E+01
      3.830  0.1516E+01  0.4710E+01
      4.037  0.1525E+01  0.5026E+01
      4.245  0.1460E+01  0.5329E+01
      4.452  0.1232E+01  0.5584E+01
      4.659  0.1378E+01  0.5870E+01
      4.866  0.1830E+01  0.6249E+01
      5.074  0.1988E+01  0.6662E+01
      5.281  0.2025E+01  0.7081E+01
      5.488  0.1863E+01  0.7467E+01
      5.696  0.1768E+01  0.7834E+01
      5.903  0.1799E+01  0.8207E+01
      6.110  0.1938E+01  0.8609E+01
      6.317  0.1993E+01  0.9022E+01
      6.525  0.1955E+01  0.9427E+01
      6.732  0.1822E+01  0.9805E+01
      6.939  0.1534E+01  0.1012E+02
      7.147  0.1209E+01  0.1037E+02
      7.354  0.9795E+00  0.1058E+02
      7.561  0.8348E+00  0.1075E+02
      7.768  0.7655E+00  0.1091E+02
      7.976  0.8281E+00  0.1108E+02
      8.183  0.9454E+00  0.1128E+02
      8.390  0.1046E+01  0.1149E+02
      8.598  0.1005E+01  0.1170E+02
      8.805  0.7700E+00  0.1186E+02
      9.012  0.4458E+00  0.1195E+02
      9.219  0.2011E+00  0.1199E+02
      9.427  0.3078E-01  0.1200E+02
      9.634 -0.3415E-02  0.1200E+02
      9.841 -0.5425E-03  0.1200E+02
     10.049 -0.6967E-05  0.1200E+02
     10.256 -0.9771E-08  0.1200E+02
     10.463 -0.1541E-11  0.1200E+02
     10.671 -0.2914E-16  0.1200E+02
     10.878  0.0000E+00  0.1200E+02
     11.085  0.0000E+00  0.1200E+02
     11.292  0.0000E+00  0.1200E+02
     11.500  0.0000E+00  0.1200E+02
     11.707  0.0000E+00  0.1200E+02
     11.914  0.0000E+00  0.1200E+02
     12.122  0.0000E+00  0.1200E+02
