   29   29   20    1
  0.1679057E+02  0.5525242E-09  0.8287863E-09  0.1139058E-08  0.5000000E-15
  1.000000000000000E-004
  CAR 
 SQS with 1 vacancy for VFE and VRV      
    200     63    120
 
  0.0000000E+00  0.0000000E+00  0.0000000E+00  0.8000000E-02
    1      -47.238152   1.000000
    2      -47.200877   1.000000
    3      -47.133170   1.000000
    4      -46.981478   1.000000
    5      -46.967475   1.000000
    6      -46.918924   1.000000
    7      -23.891961   1.000000
    8      -23.760665   1.000000
    9      -23.618161   1.000000
   10      -23.576010   1.000000
   11      -23.398299   1.000000
   12      -23.391746   1.000000
   13      -23.353808   1.000000
   14      -23.299372   1.000000
   15      -23.262442   1.000000
   16      -23.207951   1.000000
   17      -23.172621   1.000000
   18      -23.151574   1.000000
   19      -23.106637   1.000000
   20      -23.083325   1.000000
   21      -22.961511   1.000000
   22      -22.883511   1.000000
   23      -22.781354   1.000000
   24      -22.629608   1.000000
   25       -0.508643   1.000000
   26        0.887275   1.000000
   27        1.157942   1.000000
   28        2.090262   1.000000
   29        2.121865   1.000000
   30        2.156254   1.000000
   31        2.299145   1.000000
   32        2.408904   1.000000
   33        2.569079   1.000000
   34        2.640620   1.000000
   35        2.686574   1.000000
   36        2.728963   1.000000
   37        2.810299   1.000000
   38        2.945180   1.000000
   39        2.959552   1.000000
   40        3.048755   1.000000
   41        3.224713   1.000000
   42        3.242317   1.000000
   43        3.377812   1.000000
   44        3.442971   1.000000
   45        3.513302   1.000000
   46        3.550431   1.000000
   47        3.572921   1.000000
   48        3.655984   1.000000
   49        3.721183   1.000000
   50        3.750939   1.000000
   51        3.829011   1.000000
   52        3.935048   1.000000
   53        3.942866   1.000000
   54        4.112452   1.000000
   55        4.151491   1.000000
   56        4.246424   1.000000
   57        4.324570   1.000000
   58        4.395383   1.000000
   59        4.541744   1.000000
   60        4.557178   1.000000
   61        4.616726   1.000000
   62        4.683517   1.000000
   63        4.752784   1.000000
   64        4.802252   1.000000
   65        4.821312   1.000000
   66        4.916831   1.000000
   67        4.977792   1.000000
   68        5.054387   1.000000
   69        5.091329   1.000000
   70        5.093150   1.000000
   71        5.124740   1.000000
   72        5.219539   1.000000
   73        5.260663   1.000000
   74        5.365738   1.000000
   75        5.425993   1.000000
   76        5.520867   1.000000
   77        5.547565   1.000000
   78        5.601004   1.000000
   79        5.700859   1.000000
   80        5.771271   1.000000
   81        5.869241   1.000000
   82        5.913641   1.000000
   83        6.034517   1.000000
   84        6.071484   1.000000
   85        6.091915   1.000001
   86        6.169480   1.000007
   87        6.229227   1.000047
   88        6.265292   1.000130
   89        6.357734   1.001278
   90        6.447915   1.007321
   91        6.502689   1.016299
   92        6.543271   1.025371
   93        6.659259   1.021754
   94        6.686122   0.998671
   95        6.845873   0.531411
   96        6.918817   0.238583
   97        6.965759   0.097627
   98        7.037588  -0.014935
   99        7.076082  -0.033267
  100        7.160817  -0.025950
  101        7.211674  -0.014746
  102        7.223466  -0.012556
  103        7.377792  -0.000659
  104        7.560789  -0.000003
  105        7.623926  -0.000000
  106        7.775618  -0.000000
  107        7.899366  -0.000000
  108        7.984668  -0.000000
  109        8.088988  -0.000000
  110        8.188474  -0.000000
  111        8.443942  -0.000000
  112        8.642502  -0.000000
  113        8.717542  -0.000000
  114        8.827060  -0.000000
  115        8.896255  -0.000000
  116        8.936417  -0.000000
  117        9.025003  -0.000000
  118        9.063407  -0.000000
  119        9.152555  -0.000000
  120        9.195770  -0.000000
 
  0.2000000E+00 -0.1387779E-16  0.0000000E+00  0.1600000E-01
    1      -47.232439   1.000000
    2      -47.199996   1.000000
    3      -47.132644   1.000000
    4      -46.981448   1.000000
    5      -46.967497   1.000000
    6      -46.925091   1.000000
    7      -23.811488   1.000000
    8      -23.742688   1.000000
    9      -23.609730   1.000000
   10      -23.572874   1.000000
   11      -23.395113   1.000000
   12      -23.391420   1.000000
   13      -23.359605   1.000000
   14      -23.303065   1.000000
   15      -23.264496   1.000000
   16      -23.215841   1.000000
   17      -23.173724   1.000000
   18      -23.154743   1.000000
   19      -23.112692   1.000000
   20      -23.087313   1.000000
   21      -22.965803   1.000000
   22      -22.890541   1.000000
   23      -22.789050   1.000000
   24      -22.737856   1.000000
   25       -0.192949   1.000000
   26        1.139913   1.000000
   27        1.435116   1.000000
   28        2.164369   1.000000
   29        2.295091   1.000000
   30        2.401485   1.000000
   31        2.504622   1.000000
   32        2.617093   1.000000
   33        2.679149   1.000000
   34        2.764646   1.000000
   35        2.886836   1.000000
   36        2.915436   1.000000
   37        2.973734   1.000000
   38        3.122820   1.000000
   39        3.186970   1.000000
   40        3.208607   1.000000
   41        3.310260   1.000000
   42        3.346567   1.000000
   43        3.394076   1.000000
   44        3.477249   1.000000
   45        3.592284   1.000000
   46        3.658600   1.000000
   47        3.735186   1.000000
   48        3.855724   1.000000
   49        3.890663   1.000000
   50        3.944382   1.000000
   51        3.981490   1.000000
   52        4.023433   1.000000
   53        4.081675   1.000000
   54        4.138904   1.000000
   55        4.242280   1.000000
   56        4.299129   1.000000
   57        4.380944   1.000000
   58        4.490250   1.000000
   59        4.573801   1.000000
   60        4.665145   1.000000
   61        4.684241   1.000000
   62        4.808867   1.000000
   63        4.857129   1.000000
   64        4.882902   1.000000
   65        4.934936   1.000000
   66        5.020239   1.000000
   67        5.051188   1.000000
   68        5.092343   1.000000
   69        5.140824   1.000000
   70        5.193077   1.000000
   71        5.244606   1.000000
   72        5.267701   1.000000
   73        5.334663   1.000000
   74        5.399529   1.000000
   75        5.452334   1.000000
   76        5.499551   1.000000
   77        5.563009   1.000000
   78        5.608902   1.000000
   79        5.674301   1.000000
   80        5.756074   1.000000
   81        5.788846   1.000000
   82        5.878504   1.000000
   83        5.987692   1.000000
   84        6.034993   1.000000
   85        6.072068   1.000000
   86        6.134943   1.000002
   87        6.174660   1.000009
   88        6.242051   1.000068
   89        6.339712   1.000850
   90        6.357789   1.001279
   91        6.410023   1.003738
   92        6.449853   1.007558
   93        6.481353   1.012243
   94        6.564473   1.030053
   95        6.611759   1.035412
   96        6.647196   1.028012
   97        6.725545   0.936659
   98        6.798482   0.722585
   99        6.903887   0.293359
  100        6.965726   0.097709
  101        7.039598  -0.016477
  102        7.107993  -0.035116
  103        7.161987  -0.025681
  104        7.256205  -0.007626
  105        7.314324  -0.002645
  106        7.466189  -0.000065
  107        7.549826  -0.000005
  108        7.667487  -0.000000
  109        7.810105  -0.000000
  110        7.961878  -0.000000
  111        8.044049  -0.000000
  112        8.111470  -0.000000
  113        8.190002  -0.000000
  114        8.281295  -0.000000
  115        8.366174  -0.000000
  116        8.455936  -0.000000
  117        8.551441  -0.000000
  118        8.610668  -0.000000
  119        8.699136  -0.000000
  120        8.829624  -0.000000
 
  0.4000000E+00 -0.2775558E-16  0.0000000E+00  0.1600000E-01
    1      -47.222969   1.000000
    2      -47.198203   1.000000
    3      -47.131788   1.000000
    4      -46.981504   1.000000
    5      -46.967759   1.000000
    6      -46.935334   1.000000
    7      -23.777163   1.000000
    8      -23.632373   1.000000
    9      -23.572250   1.000000
   10      -23.482544   1.000000
   11      -23.399892   1.000000
   12      -23.380832   1.000000
   13      -23.368254   1.000000
   14      -23.309493   1.000000
   15      -23.266981   1.000000
   16      -23.229386   1.000000
   17      -23.175789   1.000000
   18      -23.159385   1.000000
   19      -23.124574   1.000000
   20      -23.106460   1.000000
   21      -23.043814   1.000000
   22      -22.950783   1.000000
   23      -22.897643   1.000000
   24      -22.777041   1.000000
   25        0.622086   1.000000
   26        1.543599   1.000000
   27        2.057880   1.000000
   28        2.224300   1.000000
   29        2.437487   1.000000
   30        2.601646   1.000000
   31        2.727398   1.000000
   32        2.874582   1.000000
   33        2.992602   1.000000
   34        3.034562   1.000000
   35        3.159692   1.000000
   36        3.239990   1.000000
   37        3.283363   1.000000
   38        3.338710   1.000000
   39        3.461930   1.000000
   40        3.495227   1.000000
   41        3.528002   1.000000
   42        3.616438   1.000000
   43        3.682463   1.000000
   44        3.728847   1.000000
   45        3.775399   1.000000
   46        3.916614   1.000000
   47        3.987869   1.000000
   48        4.038921   1.000000
   49        4.093206   1.000000
   50        4.152825   1.000000
   51        4.230088   1.000000
   52        4.287801   1.000000
   53        4.363056   1.000000
   54        4.424393   1.000000
   55        4.467266   1.000000
   56        4.524323   1.000000
   57        4.598888   1.000000
   58        4.666130   1.000000
   59        4.700919   1.000000
   60        4.757866   1.000000
   61        4.782077   1.000000
   62        4.820556   1.000000
   63        4.862830   1.000000
   64        4.966228   1.000000
   65        5.005581   1.000000
   66        5.047260   1.000000
   67        5.096315   1.000000
   68        5.167331   1.000000
   69        5.195991   1.000000
   70        5.253822   1.000000
   71        5.266608   1.000000
   72        5.335820   1.000000
   73        5.375345   1.000000
   74        5.443692   1.000000
   75        5.489310   1.000000
   76        5.556125   1.000000
   77        5.597938   1.000000
   78        5.646433   1.000000
   79        5.692930   1.000000
   80        5.731757   1.000000
   81        5.755291   1.000000
   82        5.827656   1.000000
   83        5.898580   1.000000
   84        5.956250   1.000000
   85        6.019281   1.000000
   86        6.061982   1.000000
   87        6.119416   1.000001
   88        6.171648   1.000008
   89        6.182189   1.000011
   90        6.230765   1.000049
   91        6.312986   1.000449
   92        6.357622   1.001275
   93        6.376772   1.001925
   94        6.414734   1.004084
   95        6.514917   1.018901
   96        6.530660   1.022456
   97        6.583079   1.033398
   98        6.633400   1.032611
   99        6.670832   1.013478
  100        6.695814   0.986764
  101        6.718397   0.950663
  102        6.820994   0.634749
  103        6.866369   0.444838
  104        6.907860   0.278394
  105        6.986200   0.053141
  106        7.041524  -0.017887
  107        7.160593  -0.026001
  108        7.239723  -0.009894
  109        7.307334  -0.003038
  110        7.471636  -0.000055
  111        7.564573  -0.000003
  112        7.640631  -0.000000
  113        7.767203  -0.000000
  114        7.844843  -0.000000
  115        7.939244  -0.000000
  116        8.021956  -0.000000
  117        8.066499  -0.000000
  118        8.336256  -0.000000
  119        8.383440  -0.000000
  120        8.437756  -0.000000
 
  0.0000000E+00  0.2000000E+00  0.1387779E-16  0.1600000E-01
    1      -47.238144   1.000000
    2      -47.200828   1.000000
    3      -47.132965   1.000000
    4      -46.981622   1.000000
    5      -46.967583   1.000000
    6      -46.918920   1.000000
    7      -23.891960   1.000000
    8      -23.759786   1.000000
    9      -23.615933   1.000000
   10      -23.573153   1.000000
   11      -23.398492   1.000000
   12      -23.391693   1.000000
   13      -23.353843   1.000000
   14      -23.299495   1.000000
   15      -23.262565   1.000000
   16      -23.207993   1.000000
   17      -23.172638   1.000000
   18      -23.151374   1.000000
   19      -23.106692   1.000000
   20      -23.083448   1.000000
   21      -22.961681   1.000000
   22      -22.889863   1.000000
   23      -22.782008   1.000000
   24      -22.629616   1.000000
   25       -0.367380   1.000000
   26        0.926329   1.000000
   27        1.263664   1.000000
   28        1.681653   1.000000
   29        2.042764   1.000000
   30        2.258182   1.000000
   31        2.325125   1.000000
   32        2.458700   1.000000
   33        2.568944   1.000000
   34        2.646958   1.000000
   35        2.734401   1.000000
   36        2.744901   1.000000
   37        2.825440   1.000000
   38        2.921806   1.000000
   39        2.971090   1.000000
   40        3.030594   1.000000
   41        3.084484   1.000000
   42        3.173891   1.000000
   43        3.305963   1.000000
   44        3.410715   1.000000
   45        3.462405   1.000000
   46        3.580614   1.000000
   47        3.674493   1.000000
   48        3.736443   1.000000
   49        3.784729   1.000000
   50        3.861570   1.000000
   51        3.882912   1.000000
   52        3.925345   1.000000
   53        3.994704   1.000000
   54        4.073133   1.000000
   55        4.154559   1.000000
   56        4.233912   1.000000
   57        4.296360   1.000000
   58        4.502983   1.000000
   59        4.529328   1.000000
   60        4.605417   1.000000
   61        4.644723   1.000000
   62        4.758785   1.000000
   63        4.785138   1.000000
   64        4.883417   1.000000
   65        4.948782   1.000000
   66        4.977493   1.000000
   67        5.035081   1.000000
   68        5.060404   1.000000
   69        5.089626   1.000000
   70        5.176137   1.000000
   71        5.215163   1.000000
   72        5.269659   1.000000
   73        5.308465   1.000000
   74        5.376624   1.000000
   75        5.456449   1.000000
   76        5.499303   1.000000
   77        5.595537   1.000000
   78        5.643692   1.000000
   79        5.684362   1.000000
   80        5.837715   1.000000
   81        5.886900   1.000000
   82        5.949337   1.000000
   83        5.998232   1.000000
   84        6.059008   1.000000
   85        6.090622   1.000000
   86        6.150668   1.000004
   87        6.186337   1.000013
   88        6.225971   1.000043
   89        6.239375   1.000063
   90        6.294636   1.000283
   91        6.393988   1.002737
   92        6.431193   1.005504
   93        6.487317   1.013308
   94        6.630254   1.033323
   95        6.645583   1.028683
   96        6.680208   1.004953
   97        6.886582   0.361318
   98        7.005130   0.021157
   99        7.087474  -0.034977
  100        7.156191  -0.027003
  101        7.306636  -0.003080
  102        7.357961  -0.001043
  103        7.423620  -0.000209
  104        7.574477  -0.000002
  105        7.677370  -0.000000
  106        7.753956  -0.000000
  107        7.861483  -0.000000
  108        7.955977  -0.000000
  109        8.044883  -0.000000
  110        8.129269  -0.000000
  111        8.216085  -0.000000
  112        8.323090  -0.000000
  113        8.448822  -0.000000
  114        8.644990  -0.000000
  115        8.702616  -0.000000
  116        8.794819  -0.000000
  117        8.873987  -0.000000
  118        8.963762  -0.000000
  119        8.988727  -0.000000
  120        9.028624  -0.000000
 
  0.2000000E+00  0.2000000E+00 -0.4857226E-16  0.1600000E-01
    1      -47.232445   1.000000
    2      -47.200041   1.000000
    3      -47.132842   1.000000
    4      -46.981312   1.000000
    5      -46.967392   1.000000
    6      -46.925093   1.000000
    7      -23.811650   1.000000
    8      -23.743451   1.000000
    9      -23.612213   1.000000
   10      -23.575262   1.000000
   11      -23.395116   1.000000
   12      -23.391307   1.000000
   13      -23.359601   1.000000
   14      -23.303086   1.000000
   15      -23.264452   1.000000
   16      -23.215759   1.000000
   17      -23.173691   1.000000
   18      -23.154699   1.000000
   19      -23.112631   1.000000
   20      -23.087206   1.000000
   21      -22.965615   1.000000
   22      -22.884415   1.000000
   23      -22.788423   1.000000
   24      -22.737811   1.000000
   25       -0.184949   1.000000
   26        1.092008   1.000000
   27        1.454782   1.000000
   28        2.048198   1.000000
   29        2.258307   1.000000
   30        2.383019   1.000000
   31        2.464829   1.000000
   32        2.531445   1.000000
   33        2.650510   1.000000
   34        2.789005   1.000000
   35        2.867810   1.000000
   36        2.923930   1.000000
   37        3.001812   1.000000
   38        3.050766   1.000000
   39        3.156408   1.000000
   40        3.186952   1.000000
   41        3.258795   1.000000
   42        3.330649   1.000000
   43        3.464256   1.000000
   44        3.509769   1.000000
   45        3.631869   1.000000
   46        3.666224   1.000000
   47        3.758661   1.000000
   48        3.821531   1.000000
   49        3.859085   1.000000
   50        3.911534   1.000000
   51        3.975507   1.000000
   52        4.027962   1.000000
   53        4.117563   1.000000
   54        4.145733   1.000000
   55        4.225402   1.000000
   56        4.343324   1.000000
   57        4.409635   1.000000
   58        4.511328   1.000000
   59        4.595203   1.000000
   60        4.637895   1.000000
   61        4.681233   1.000000
   62        4.757114   1.000000
   63        4.793144   1.000000
   64        4.873587   1.000000
   65        4.949355   1.000000
   66        4.972105   1.000000
   67        5.024072   1.000000
   68        5.099800   1.000000
   69        5.131565   1.000000
   70        5.181307   1.000000
   71        5.232676   1.000000
   72        5.254222   1.000000
   73        5.339027   1.000000
   74        5.358217   1.000000
   75        5.429803   1.000000
   76        5.479752   1.000000
   77        5.542687   1.000000
   78        5.621919   1.000000
   79        5.664907   1.000000
   80        5.777983   1.000000
   81        5.841978   1.000000
   82        5.878127   1.000000
   83        5.888918   1.000000
   84        5.979298   1.000000
   85        6.003489   1.000000
   86        6.062066   1.000000
   87        6.151694   1.000004
   88        6.241727   1.000067
   89        6.275539   1.000172
   90        6.358078   1.001287
   91        6.438549   1.006254
   92        6.484934   1.012876
   93        6.524185   1.020973
   94        6.616120   1.035213
   95        6.659282   1.021740
   96        6.698611   0.982941
   97        6.775313   0.803828
   98        6.876531   0.402439
   99        6.980091   0.065335
  100        7.055350  -0.026158
  101        7.112177  -0.034779
  102        7.136811  -0.031113
  103        7.206906  -0.015690
  104        7.288021  -0.004386
  105        7.374442  -0.000713
  106        7.418961  -0.000236
  107        7.443682  -0.000122
  108        7.588998  -0.000001
  109        7.820269  -0.000000
  110        7.904793  -0.000000
  111        8.021848  -0.000000
  112        8.127577  -0.000000
  113        8.434650  -0.000000
  114        8.488677  -0.000000
  115        8.646749  -0.000000
  116        8.730302  -0.000000
  117        8.930967  -0.000000
  118        9.016220  -0.000000
  119        9.069390  -0.000000
  120        9.120433  -0.000000
 
  0.4000000E+00  0.2000000E+00 -0.5551115E-16  0.1600000E-01
    1      -47.222984   1.000000
    2      -47.198274   1.000000
    3      -47.132113   1.000000
    4      -46.981282   1.000000
    5      -46.967586   1.000000
    6      -46.935338   1.000000
    7      -23.778256   1.000000
    8      -23.634916   1.000000
    9      -23.578245   1.000000
   10      -23.482476   1.000000
   11      -23.400054   1.000000
   12      -23.380578   1.000000
   13      -23.368238   1.000000
   14      -23.309485   1.000000
   15      -23.266886   1.000000
   16      -23.229226   1.000000
   17      -23.175734   1.000000
   18      -23.159408   1.000000
   19      -23.124476   1.000000
   20      -23.106340   1.000000
   21      -23.043765   1.000000
   22      -22.949871   1.000000
   23      -22.887697   1.000000
   24      -22.776304   1.000000
   25        0.539532   1.000000
   26        1.498999   1.000000
   27        1.915446   1.000000
   28        2.173881   1.000000
   29        2.290592   1.000000
   30        2.445499   1.000000
   31        2.694024   1.000000
   32        2.973405   1.000000
   33        3.056457   1.000000
   34        3.168568   1.000000
   35        3.209933   1.000000
   36        3.265143   1.000000
   37        3.335865   1.000000
   38        3.409006   1.000000
   39        3.487743   1.000000
   40        3.549298   1.000000
   41        3.579695   1.000000
   42        3.619045   1.000000
   43        3.645513   1.000000
   44        3.711619   1.000000
   45        3.793920   1.000000
   46        3.817168   1.000000
   47        3.913297   1.000000
   48        3.981556   1.000000
   49        4.052338   1.000000
   50        4.101375   1.000000
   51        4.179555   1.000000
   52        4.209292   1.000000
   53        4.254095   1.000000
   54        4.353510   1.000000
   55        4.397103   1.000000
   56        4.455271   1.000000
   57        4.519406   1.000000
   58        4.650950   1.000000
   59        4.689769   1.000000
   60        4.735432   1.000000
   61        4.786388   1.000000
   62        4.849118   1.000000
   63        4.912859   1.000000
   64        4.947414   1.000000
   65        4.999130   1.000000
   66        5.044356   1.000000
   67        5.100802   1.000000
   68        5.161605   1.000000
   69        5.199189   1.000000
   70        5.242546   1.000000
   71        5.290322   1.000000
   72        5.323966   1.000000
   73        5.362649   1.000000
   74        5.445756   1.000000
   75        5.491411   1.000000
   76        5.572955   1.000000
   77        5.619886   1.000000
   78        5.642396   1.000000
   79        5.724601   1.000000
   80        5.767724   1.000000
   81        5.821265   1.000000
   82        5.851660   1.000000
   83        5.918182   1.000000
   84        5.953159   1.000000
   85        5.981516   1.000000
   86        6.068380   1.000000
   87        6.094069   1.000001
   88        6.122201   1.000002
   89        6.170988   1.000008
   90        6.223937   1.000040
   91        6.265451   1.000131
   92        6.286339   1.000228
   93        6.369814   1.001661
   94        6.412898   1.003946
   95        6.440952   1.006515
   96        6.481429   1.012256
   97        6.550189   1.026952
   98        6.568793   1.030919
   99        6.591494   1.034484
  100        6.631395   1.033078
  101        6.715978   0.955115
  102        6.755754   0.863291
  103        6.871406   0.423743
  104        6.921037   0.230800
  105        7.080902  -0.034157
  106        7.114870  -0.034510
  107        7.216252  -0.013871
  108        7.303033  -0.003303
  109        7.533798  -0.000008
  110        7.588352  -0.000001
  111        7.781525  -0.000000
  112        7.862895  -0.000000
  113        8.017876  -0.000000
  114        8.115342  -0.000000
  115        8.228363  -0.000000
  116        8.330580  -0.000000
  117        8.444390  -0.000000
  118        8.513190  -0.000000
  119        8.556467  -0.000000
  120        8.639224  -0.000000
 
 -0.4000000E+00  0.2000000E+00 -0.3908332E-16  0.1600000E-01
    1      -47.222968   1.000000
    2      -47.198202   1.000000
    3      -47.131784   1.000000
    4      -46.981508   1.000000
    5      -46.967760   1.000000
    6      -46.935333   1.000000
    7      -23.777150   1.000000
    8      -23.632367   1.000000
    9      -23.572205   1.000000
   10      -23.482553   1.000000
   11      -23.399874   1.000000
   12      -23.380856   1.000000
   13      -23.368281   1.000000
   14      -23.309567   1.000000
   15      -23.267005   1.000000
   16      -23.229376   1.000000
   17      -23.175763   1.000000
   18      -23.159279   1.000000
   19      -23.124578   1.000000
   20      -23.106457   1.000000
   21      -23.043803   1.000000
   22      -22.950775   1.000000
   23      -22.897759   1.000000
   24      -22.777054   1.000000
   25        0.875332   1.000000
   26        1.519013   1.000000
   27        1.783065   1.000000
   28        2.231315   1.000000
   29        2.283235   1.000000
   30        2.590975   1.000000
   31        2.691526   1.000000
   32        2.866667   1.000000
   33        2.982554   1.000000
   34        3.083202   1.000000
   35        3.140776   1.000000
   36        3.213792   1.000000
   37        3.308280   1.000000
   38        3.363057   1.000000
   39        3.442816   1.000000
   40        3.469784   1.000000
   41        3.540835   1.000000
   42        3.561018   1.000000
   43        3.699187   1.000000
   44        3.742193   1.000000
   45        3.781494   1.000000
   46        3.908120   1.000000
   47        4.032262   1.000000
   48        4.058785   1.000000
   49        4.129039   1.000000
   50        4.199175   1.000000
   51        4.241096   1.000000
   52        4.266549   1.000000
   53        4.412286   1.000000
   54        4.488694   1.000000
   55        4.512230   1.000000
   56        4.543259   1.000000
   57        4.610814   1.000000
   58        4.637532   1.000000
   59        4.740624   1.000000
   60        4.764295   1.000000
   61        4.797565   1.000000
   62        4.876569   1.000000
   63        4.920038   1.000000
   64        4.959120   1.000000
   65        5.016744   1.000000
   66        5.045285   1.000000
   67        5.059521   1.000000
   68        5.112586   1.000000
   69        5.154796   1.000000
   70        5.200889   1.000000
   71        5.273692   1.000000
   72        5.302278   1.000000
   73        5.344425   1.000000
   74        5.387077   1.000000
   75        5.431839   1.000000
   76        5.470477   1.000000
   77        5.568952   1.000000
   78        5.635736   1.000000
   79        5.695924   1.000000
   80        5.732707   1.000000
   81        5.794669   1.000000
   82        5.879655   1.000000
   83        5.907236   1.000000
   84        5.928759   1.000000
   85        5.985664   1.000000
   86        6.038258   1.000000
   87        6.106047   1.000001
   88        6.132373   1.000002
   89        6.173429   1.000008
   90        6.271167   1.000153
   91        6.292672   1.000269
   92        6.318882   1.000519
   93        6.370768   1.001695
   94        6.417876   1.004329
   95        6.514430   1.018794
   96        6.576056   1.032264
   97        6.591371   1.034471
   98        6.633832   1.032504
   99        6.697932   0.983885
  100        6.728163   0.931211
  101        6.790901   0.750331
  102        6.839156   0.559692
  103        6.867358   0.440687
  104        6.939858   0.169023
  105        7.032084  -0.010328
  106        7.075034  -0.033039
  107        7.136846  -0.031106
  108        7.251461  -0.008235
  109        7.271832  -0.005859
  110        7.365486  -0.000878
  111        7.491067  -0.000031
  112        7.644709  -0.000000
  113        7.829411  -0.000000
  114        7.911020  -0.000000
  115        8.063977  -0.000000
  116        8.171482  -0.000000
  117        8.283627  -0.000000
  118        8.348672  -0.000000
  119        8.368008  -0.000000
  120        8.469737  -0.000000
 
 -0.2000000E+00  0.2000000E+00  0.1006140E-15  0.1600000E-01
    1      -47.232425   1.000000
    2      -47.199920   1.000000
    3      -47.132312   1.000000
    4      -46.981685   1.000000
    5      -46.967667   1.000000
    6      -46.925085   1.000000
    7      -23.811226   1.000000
    8      -23.741491   1.000000
    9      -23.606271   1.000000
   10      -23.568010   1.000000
   11      -23.395059   1.000000
   12      -23.391627   1.000000
   13      -23.359664   1.000000
   14      -23.303222   1.000000
   15      -23.264655   1.000000
   16      -23.215942   1.000000
   17      -23.173737   1.000000
   18      -23.154499   1.000000
   19      -23.112798   1.000000
   20      -23.087487   1.000000
   21      -22.966157   1.000000
   22      -22.901034   1.000000
   23      -22.789985   1.000000
   24      -22.737919   1.000000
   25        0.059620   1.000000
   26        1.169232   1.000000
   27        1.541997   1.000000
   28        1.780262   1.000000
   29        2.171509   1.000000
   30        2.463141   1.000000
   31        2.574814   1.000000
   32        2.715512   1.000000
   33        2.765018   1.000000
   34        2.840535   1.000000
   35        2.885001   1.000000
   36        2.940825   1.000000
   37        2.973091   1.000000
   38        3.049868   1.000000
   39        3.127038   1.000000
   40        3.187503   1.000000
   41        3.255687   1.000000
   42        3.264531   1.000000
   43        3.363818   1.000000
   44        3.440926   1.000000
   45        3.536500   1.000000
   46        3.620171   1.000000
   47        3.776796   1.000000