 running on   32 total cores
 distrk:  each k-point on   32 cores,    1 groups
 distr:  one band on    4 cores,    8 groups
 using from now: INCAR     
 vasp.5.4.4.18Apr17-6-g9f103f2a35 (build Aug 09 2018 16:20:53) complex          
  
 POSCAR found :  5 types and      29 ions
 scaLAPACK will be used

 ----------------------------------------------------------------------------- 
|                                                                             |
|  ADVICE TO THIS USER RUNNING 'VASP/VAMP'   (HEAR YOUR MASTER'S VOICE ...):  |
|                                                                             |
|      You enforced a specific xc-type in the INCAR file,                     |
|      a different type was found on the POTCAR file                          |
|          I HOPE YOU KNOW, WHAT YOU ARE  DOING                               |
|                                                                             |
 ----------------------------------------------------------------------------- 

 LDA part: xc-table for Pade appr. of Perdew
 POSCAR found :  5 types and      29 ions
 POSCAR, INCAR and KPOINTS ok, starting setup
 FFT: planning ...
 WAVECAR not read
 entering main loop
       N       E                     dE             d eps       ncg     rms          rms(c)
DAV:   1     0.210876026370E+04    0.21088E+04   -0.94075E+04 15120   0.177E+03
DAV:   2     0.539463519462E+02   -0.20548E+04   -0.19961E+04 15128   0.532E+02
DAV:   3    -0.307073933842E+03   -0.36102E+03   -0.34363E+03 26408   0.176E+02
DAV:   4    -0.351524937153E+03   -0.44451E+02   -0.41146E+02 23400   0.584E+01
DAV:   5    -0.356431829901E+03   -0.49069E+01   -0.47765E+01 28600   0.217E+01    0.754E+01
DAV:   6    -0.346927381980E+03    0.95044E+01   -0.12807E+02 21208   0.301E+01    0.379E+01
DAV:   7    -0.360838811342E+03   -0.13911E+02   -0.49527E+02 20888   0.904E+01    0.277E+01
DAV:   8    -0.351661297427E+03    0.91775E+01   -0.11744E+02 22792   0.360E+01    0.199E+01
DAV:   9    -0.339949688779E+03    0.11712E+02   -0.19278E+01 21608   0.143E+01    0.142E+01
DAV:  10    -0.335773569451E+03    0.41761E+01   -0.11453E+01 21928   0.964E+00    0.907E+00
DAV:  11    -0.334431980460E+03    0.13416E+01   -0.62814E+00 22248   0.690E+00    0.464E+00
DAV:  12    -0.334212484084E+03    0.21950E+00   -0.23711E+00 22584   0.453E+00    0.229E+00
DAV:  13    -0.334202804224E+03    0.96799E-02   -0.77791E-01 22752   0.281E+00    0.176E+00
DAV:  14    -0.334171858246E+03    0.30946E-01   -0.55501E-01 22688   0.230E+00    0.127E+00
DAV:  15    -0.334159927166E+03    0.11931E-01   -0.29763E-01 22552   0.161E+00    0.995E-01
DAV:  16    -0.334154544022E+03    0.53831E-02   -0.66016E-02 21592   0.776E-01    0.627E-01
DAV:  17    -0.334153451466E+03    0.10926E-02   -0.35086E-02 22192   0.562E-01    0.562E-01
DAV:  18    -0.334149601380E+03    0.38501E-02   -0.31728E-02 21776   0.497E-01    0.212E-01
DAV:  19    -0.334149253132E+03    0.34825E-03   -0.70325E-03 21976   0.253E-01    0.121E-01
DAV:  20    -0.334149046737E+03    0.20640E-03   -0.14155E-03 18936   0.126E-01    0.500E-02
DAV:  21    -0.334149029594E+03    0.17143E-04   -0.37237E-04 13408   0.756E-02
   1 F= -.33414903E+03 E0= -.33414704E+03  d E =-.334149E+03
 curvature:   0.00 expect dE= 0.000E+00 dE for cont linesearch  0.000E+00
 trial: gam= 0.00000 g(F)=  0.665E+00 g(S)=  0.318E+00 ort = 0.000E+00 (trialstep = 0.100E+01)
 search vector abs. value=  0.983E+00
 bond charge predicted
       N       E                     dE             d eps       ncg     rms          rms(c)
DAV:   1    -0.335491904443E+03   -0.13429E+01   -0.12210E+02 16112   0.445E+01    0.117E+01
DAV:   2    -0.335445358074E+03    0.46546E-01   -0.16393E+01 22584   0.175E+01    0.741E+00
DAV:   3    -0.335050897818E+03    0.39446E+00   -0.10593E+01 21928   0.961E+00    0.610E+00
DAV:   4    -0.334689963163E+03    0.36093E+00   -0.67907E+00 23024   0.843E+00    0.344E+00
DAV:   5    -0.334520595246E+03    0.16937E+00   -0.19548E+00 22336   0.463E+00    0.210E+00
DAV:   6    -0.334457679232E+03    0.62916E-01   -0.61474E-01 25008   0.245E+00    0.124E+00
DAV:   7    -0.334461019867E+03   -0.33406E-02   -0.18664E-01 24240   0.130E+00    0.979E-01
DAV:   8    -0.334457726964E+03    0.32929E-02   -0.79809E-02 23504   0.868E-01    0.717E-01
DAV:   9    -0.334460091705E+03   -0.23647E-02   -0.29496E-02 22904   0.539E-01    0.466E-01
DAV:  10    -0.334463951933E+03   -0.38602E-02   -0.21813E-02 23544   0.478E-01    0.355E-01
DAV:  11    -0.334464340299E+03   -0.38837E-03   -0.19711E-02 23248   0.402E-01    0.224E-01
DAV:  12    -0.334464272366E+03    0.67933E-04   -0.66313E-03 21976   0.227E-01    0.983E-02
DAV:  13    -0.334464344235E+03   -0.71869E-04   -0.13897E-03 20896   0.111E-01    0.504E-02
DAV:  14    -0.334464347091E+03   -0.28561E-05   -0.35229E-04 12600   0.784E-02
   2 F= -.33446435E+03 E0= -.33446168E+03  d E =-.315317E+00
 trial-energy change:   -0.315317  1 .order   -0.297634   -0.982615    0.387347
 step:   0.7324(harm=  0.7173)  dis= 0.03107  next Energy=  -334.515829 (dE=-0.367E+00)
 bond charge predicted
       N       E                     dE             d eps       ncg     rms          rms(c)
DAV:   1    -0.334586965748E+03   -0.12262E+00   -0.88237E+00 16208   0.120E+01    0.321E+00
DAV:   2    -0.334580638674E+03    0.63271E-02   -0.10775E+00 23640   0.448E+00    0.214E+00
DAV:   3    -0.334578705418E+03    0.19333E-02   -0.10218E+00 22824   0.315E+00    0.179E+00
DAV:   4    -0.334530237375E+03    0.48468E-01   -0.42375E-01 23152   0.209E+00    0.829E-01
DAV:   5    -0.334519162717E+03    0.11075E-01   -0.13734E-01 22400   0.126E+00    0.536E-01
DAV:   6    -0.334515568426E+03    0.35943E-02   -0.47253E-02 23552   0.687E-01    0.313E-01
DAV:   7    -0.334515586901E+03   -0.18475E-04   -0.11024E-02 22728   0.312E-01    0.233E-01
DAV:   8    -0.334515634746E+03   -0.47845E-04   -0.47403E-03 20448   0.207E-01    0.190E-01
DAV:   9    -0.334515700323E+03   -0.65577E-04   -0.25684E-03 20056   0.154E-01    0.124E-01
DAV:  10    -0.334515919273E+03   -0.21895E-03   -0.17508E-03 21192   0.133E-01    0.907E-02
DAV:  11    -0.334515923278E+03   -0.40048E-05   -0.12442E-03 20272   0.107E-01    0.564E-02
DAV:  12    -0.334515906008E+03    0.17269E-04   -0.32248E-04 11880   0.677E-02
   3 F= -.33451591E+03 E0= -.33451345E+03  d E =-.366876E+00
 curvature:  -0.36 expect dE=-0.316E+00 dE for cont linesearch -0.134E-04
 trial: gam= 0.89176 g(F)=  0.289E+00 g(S)=  0.593E+00 ort = 0.606E-02 (trialstep = 0.555E+00)
 search vector abs. value=  0.167E+01
 bond charge predicted
       N       E                     dE             d eps       ncg     rms          rms(c)
DAV:   1    -0.334791100623E+03   -0.27518E+00   -0.56592E+01 15120   0.236E+01    0.359E+00
DAV:   2    -0.334940581281E+03   -0.14948E+00   -0.36374E+00 21680   0.757E+00    0.292E+00
DAV:   3    -0.334925310651E+03    0.15271E-01   -0.18515E+00 22608   0.440E+00    0.229E+00
DAV:   4    -0.334850824598E+03    0.74486E-01   -0.47777E-01 22752   0.230E+00    0.121E+00
DAV:   5    -0.334842656708E+03    0.81679E-02   -0.22110E-01 22568   0.148E+00    0.934E-01
DAV:   6    -0.334837731911E+03    0.49248E-02   -0.15036E-01 23624   0.122E+00    0.681E-01
DAV:   7    -0.334831211957E+03    0.65200E-02   -0.47838E-02 25312   0.750E-01    0.358E-01
DAV:   8    -0.334830577270E+03    0.63469E-03   -0.14280E-02 23104   0.360E-01    0.277E-01
DAV:   9    -0.334830472226E+03    0.10504E-03   -0.55792E-03 20488   0.207E-01    0.206E-01
DAV:  10    -0.334830646317E+03   -0.17409E-03   -0.24150E-03 19976   0.161E-01    0.136E-01
DAV:  11    -0.334830811879E+03   -0.16556E-03   -0.28647E-03 20112   0.178E-01    0.106E-01
DAV:  12    -0.334830634374E+03    0.17750E-03   -0.16226E-03 19264   0.132E-01    0.333E-02
DAV:  13    -0.334830614989E+03    0.19385E-04   -0.15358E-04  9968   0.606E-02
   4 F= -.33483061E+03 E0= -.33482866E+03  d E =-.314709E+00
 trial-energy change:   -0.314709  1 .order   -0.316535   -0.493037   -0.140033
 step:   0.7858(harm=  0.7757)  dis= 0.05617  next Energy=  -334.859535 (dE=-0.344E+00)
 bond charge predicted
       N       E                     dE             d eps       ncg     rms          rms(c)
DAV:   1    -0.334853148077E+03   -0.22514E-01   -0.97315E+00 15120   0.975E+00    0.144E+00
DAV:   2    -0.334877903403E+03   -0.24755E-01   -0.62661E-01 21792   0.313E+00    0.119E+00
DAV:   3    -0.334873308407E+03    0.45950E-02   -0.28961E-01 22736   0.171E+00    0.906E-01
DAV:   4    -0.334862100943E+03    0.11207E-01   -0.80624E-02 23024   0.930E-01    0.485E-01
DAV:   5    -0.334860867579E+03    0.12334E-02   -0.36997E-02 22664   0.603E-01    0.378E-01
DAV:   6    -0.334859992859E+03    0.87472E-03   -0.24181E-02 23544   0.479E-01    0.270E-01
DAV:   7    -0.334859006357E+03    0.98650E-03   -0.74512E-03 23336   0.293E-01    0.149E-01
DAV:   8    -0.334858915253E+03    0.91104E-04   -0.23043E-03 20480   0.145E-01    0.114E-01
DAV:   9    -0.334858899623E+03    0.15630E-04   -0.93365E-04 17856   0.897E-02
   5 F= -.33485890E+03 E0= -.33485700E+03  d E =-.342994E+00
 curvature:  -0.73 expect dE=-0.752E-01 dE for cont linesearch -0.240E-05
 trial: gam= 0.02785 g(F)=  0.960E-01 g(S)=  0.701E-02 ort =-0.235E-02 (trialstep = 0.601E+00)
 search vector abs. value=  0.104E+00
 bond charge predicted
       N       E                     dE             d eps       ncg     rms          rms(c)
DAV:   1    -0.334899859695E+03   -0.40944E-01   -0.43727E+00 15120   0.704E+00    0.114E+00
DAV:   2    -0.334917112985E+03   -0.17253E-01   -0.34492E-01 21984   0.224E+00    0.897E-01
DAV:   3    -0.334914870949E+03    0.22420E-02   -0.17223E-01 22424   0.130E+00    0.730E-01
DAV:   4    -0.334908950976E+03    0.59200E-02   -0.56988E-02 23160   0.770E-01    0.402E-01
DAV:   5    -0.334906866323E+03    0.20847E-02   -0.31726E-02 22320   0.561E-01    0.245E-01
DAV:   6    -0.334905804450E+03    0.10619E-02   -0.10651E-02 23184   0.316E-01    0.119E-01
DAV:   7    -0.334905764520E+03    0.39930E-04   -0.24053E-03 21200   0.145E-01    0.853E-02
DAV:   8    -0.334905742210E+03    0.22310E-04   -0.60008E-04 15464   0.783E-02
   6 F= -.33490574E+03 E0= -.33490424E+03  d E =-.468426E-01
 trial-energy change:   -0.046843  1 .order   -0.047177   -0.061896   -0.032458
 step:   1.2646(harm=  1.2646)  dis= 0.02091  next Energy=  -334.923970 (dE=-0.651E-01)
 bond charge predicted
       N       E                     dE             d eps       ncg     rms          rms(c)
DAV:   1    -0.334916056891E+03   -0.10292E-01   -0.53160E+00 15120   0.776E+00    0.126E+00
DAV:   2    -0.334936212607E+03   -0.20156E-01   -0.40599E-01 21952   0.243E+00    0.950E-01
DAV:   3    -0.334935295218E+03    0.91739E-03   -0.19844E-01 22456   0.140E+00    0.809E-01
DAV:   4    -0.334927686726E+03    0.76085E-02   -0.70027E-02 23120   0.846E-01    0.436E-01
DAV:   5    -0.334925355962E+03    0.23308E-02   -0.38596E-02 22376   0.614E-01    0.274E-01
DAV:   6    -0.334924033338E+03    0.13226E-02   -0.12700E-02 23544   0.343E-01    0.128E-01
DAV:   7    -0.334923986396E+03    0.46942E-04   -0.25560E-03 21840   0.152E-01    0.944E-02
DAV:   8    -0.334923975368E+03    0.11028E-04   -0.68044E-04 16256   0.835E-02
   7 F= -.33492398E+03 E0= -.33492287E+03  d E =-.650757E-01
 curvature:  -0.64 expect dE=-0.843E-01 dE for cont linesearch -0.181E-04
 trial: gam= 1.26308 g(F)=  0.247E-01 g(S)=  0.107E+00 ort = 0.172E-02 (trialstep = 0.253E+00)
 search vector abs. value=  0.302E+00
 bond charge predicted
       N       E                     dE             d eps       ncg     rms          rms(c)
DAV:   1    -0.334955963012E+03   -0.31977E-01   -0.20907E+00 15120   0.538E+00    0.116E+00
DAV:   2    -0.334957817618E+03   -0.18546E-02   -0.19792E-01 22264   0.173E+00    0.686E-01
DAV:   3    -0.334961236236E+03   -0.34186E-02   -0.13041E-01 22848   0.113E+00    0.743E-01
DAV:   4    -0.334952601682E+03    0.86346E-02   -0.62828E-02 22832   0.815E-01    0.330E-01
DAV:   5    -0.334951395335E+03    0.12063E-02   -0.24362E-02 22496   0.477E-01    0.232E-01
DAV:   6    -0.334950613435E+03    0.78190E-03   -0.81202E-03 22024   0.268E-01    0.112E-01
DAV:   7    -0.334950595693E+03    0.17742E-04   -0.24075E-03 20816   0.146E-01    0.832E-02
DAV:   8    -0.334950551003E+03    0.44691E-04   -0.73268E-04 16536   0.879E-02
   8 F= -.33495055E+03 E0= -.33494964E+03  d E =-.265756E-01
 trial-energy change:   -0.026576  1 .order   -0.026919   -0.033876   -0.019962
 step:   0.6159(harm=  0.6159)  dis= 0.02297  next Energy=  -334.965214 (dE=-0.412E-01)
 bond charge predicted
       N       E                     dE             d eps       ncg     rms          rms(c)
DAV:   1    -0.334971487042E+03   -0.20891E-01   -0.43071E+00 15120   0.773E+00    0.164E+00
DAV:   2    -0.334975239791E+03   -0.37527E-02   -0.39342E-01 21880   0.248E+00    0.927E-01
DAV:   3    -0.334982421148E+03   -0.71814E-02   -0.24960E-01 22768   0.158E+00    0.102E+00
DAV:   4    -0.334965769795E+03    0.16651E-01   -0.12257E-01 22840   0.115E+00    0.441E-01
DAV:   5    -0.334963697794E+03    0.20720E-02   -0.44358E-02 22608   0.648E-01    0.315E-01
DAV:   6    -0.334962344837E+03    0.13530E-02   -0.13950E-02 24216   0.349E-01    0.154E-01
DAV:   7    -0.334962398819E+03   -0.53981E-04   -0.34937E-03 21280   0.171E-01    0.121E-01
DAV:   8    -0.334962411548E+03   -0.12729E-04   -0.12416E-03 19152   0.107E-01    0.927E-02
DAV:   9    -0.334962483504E+03   -0.71956E-04   -0.36079E-04 12704   0.706E-02
   9 F= -.33496248E+03 E0= -.33496173E+03  d E =-.385081E-01
 curvature:  -0.69 expect dE=-0.298E-01 dE for cont linesearch -0.117E-03
 trial: gam= 0.36168 g(F)=  0.365E-01 g(S)=  0.638E-02 ort =-0.712E-02 (trialstep = 0.326E+00)
 search vector abs. value=  0.773E-01
 bond charge predicted
       N       E                     dE             d eps       ncg     rms          rms(c)
DAV:   1    -0.334973962188E+03   -0.11551E-01   -0.66165E-01 16648   0.233E+00    0.172E-01
DAV:   2    -0.334976165779E+03   -0.22036E-02   -0.26409E-02 24976   0.667E-01    0.278E-01
DAV:   3    -0.334975045582E+03    0.11202E-02   -0.10772E-02 22840   0.314E-01    0.118E-01
DAV:   4    -0.334974943662E+03    0.10192E-03   -0.14530E-03 20256   0.122E-01    0.876E-02
DAV:   5    -0.334974919210E+03    0.24451E-04   -0.10015E-03 17016   0.102E-01    0.741E-02
DAV:   6    -0.334974841234E+03    0.77976E-04   -0.47586E-04 14056   0.827E-02
  10 F= -.33497484E+03 E0= -.33497416E+03  d E =-.123577E-01
 ZBRENT: can't locate minimum, use default step
 trial-energy change:   -0.012358  1 .order   -0.012245   -0.013130   -0.011360
 step:   1.3021(harm=  2.4151)  dis= 0.03886  next Energy=  -335.011189 (dE=-0.487E-01)
 bond charge predicted
       N       E                     dE             d eps       ncg     rms          rms(c)
DAV:   1    -0.334992086087E+03   -0.17167E-01   -0.59392E+00 16632   0.699E+00    0.482E-01
DAV:   2    -0.335008431329E+03   -0.16345E-01   -0.20713E-01 25616   0.187E+00    0.687E-01
DAV:   3    -0.335002897079E+03    0.55342E-02   -0.70026E-02 24272   0.790E-01    0.354E-01
DAV:   4    -0.335001606825E+03    0.12903E-02   -0.11347E-02 23752   0.320E-01    0.234E-01
DAV:   5    -0.335001381306E+03    0.22552E-03   -0.72356E-03 21056   0.256E-01    0.199E-01
DAV:   6    -0.335000816480E+03    0.56483E-03   -0.55990E-03 20504   0.223E-01    0.991E-02
DAV:   7    -0.335000690017E+03    0.12646E-03   -0.11306E-03 16912   0.124E-01    0.514E-02
DAV:   8    -0.335000633002E+03    0.57015E-04   -0.37079E-04 12856   0.839E-02
  11 F= -.33500063E+03 E0= -.33500004E+03  d E =-.381495E-01
 curvature:  -1.66 expect dE=-0.338E-01 dE for cont linesearch -0.650E-02
 ZBRENT: increasing intervall
 opt :   3.2554  next Energy=  -335.000489 (dE=-0.380E-01)
 bond charge predicted
       N       E                     dE             d eps       ncg     rms          rms(c)
DAV:   1    -0.334966676502E+03    0.34014E-01   -0.23681E+01 16632   0.140E+01    0.100E+00
DAV:   2    -0.335031752162E+03   -0.65076E-01   -0.84393E-01 25536   0.373E+00    0.136E+00
DAV:   3    -0.335012034894E+03    0.19717E-01   -0.28982E-01 24384   0.161E+00    0.751E-01
DAV:   4    -0.335005377236E+03    0.66577E-02   -0.48263E-02 25288   0.650E-01    0.463E-01
DAV:   5    -0.335004423714E+03    0.95352E-03   -0.22357E-02 21896   0.459E-01    0.383E-01
DAV:   6    -0.335002828736E+03    0.15950E-02   -0.23134E-02 22592   0.447E-01    0.242E-01
DAV:   7    -0.335001975571E+03    0.85316E-03   -0.57767E-03 21528   0.265E-01    0.102E-01
DAV:   8    -0.335001774447E+03    0.20112E-03   -0.16246E-03 19472   0.153E-01    0.547E-02
DAV:   9    -0.335001742054E+03    0.32393E-04   -0.57095E-04 15248   0.777E-02
  12 F= -.33500174E+03 E0= -.33500097E+03  d E =-.392586E-01
 curvature:   0.04 expect dE= 0.134E-02 dE for cont linesearch  0.136E-03
 trial: gam= 0.00000 g(F)=  0.274E-01 g(S)=  0.905E-02 ort =-0.169E-01 (trialstep = 0.912E+00)
 search vector abs. value=  0.364E-01
 bond charge predicted
       N       E                     dE             d eps       ncg     rms          rms(c)
DAV:   1    -0.335028424912E+03   -0.26650E-01   -0.39434E+00 15192   0.763E+00    0.176E+00
DAV:   2    -0.335029159914E+03   -0.73500E-03   -0.38829E-01 22648   0.251E+00    0.986E-01
DAV:   3    -0.335033517347E+03   -0.43574E-02   -0.26277E-01 22744   0.161E+00    0.927E-01
DAV:   4    -0.335017176028E+03    0.16341E-01   -0.11535E-01 22776   0.109E+00    0.316E-01
DAV:   5    -0.335016763238E+03    0.41279E-03   -0.26374E-02 22912   0.533E-01    0.300E-01
DAV:   6    -0.335015749126E+03    0.10141E-02   -0.13743E-02 24296   0.347E-01    0.161E-01
DAV:   7    -0.335015659605E+03    0.89521E-04   -0.32930E-03 20984   0.169E-01    0.120E-01
DAV:   8    -0.335015654358E+03    0.52468E-05   -0.10915E-03 18560   0.977E-02    0.907E-02
DAV:   9    -0.335015701615E+03   -0.47256E-04   -0.36427E-04 12592   0.729E-02
  13 F= -.33501570E+03 E0= -.33501507E+03  d E =-.139596E-01
 trial-energy change:   -0.013960  1 .order   -0.015069   -0.033213    0.003075
 step:   0.8190(harm=  0.8343)  dis= 0.00638  next Energy=  -335.015859 (dE=-0.141E-01)
 bond charge predicted
       N       E                     dE             d eps       ncg     rms          rms(c)
DAV:   1    -0.335016117786E+03   -0.46343E-03   -0.41105E-02 15888   0.788E-01    0.185E-01
DAV:   2    -0.335016325688E+03   -0.20790E-03   -0.58242E-03 22672   0.288E-01    0.132E-01
DAV:   3    -0.335016269367E+03    0.56321E-04   -0.36220E-03 19704   0.185E-01    0.111E-01
DAV:   4    -0.335016095852E+03    0.17352E-03   -0.10602E-03 16976   0.109E-01    0.489E-02
DAV:   5    -0.335016084064E+03    0.11789E-04   -0.43566E-04 13840   0.804E-02
  14 F= -.33501608E+03 E0= -.33501543E+03  d E =-.143420E-01
 curvature:  -0.40 expect dE=-0.136E-01 dE for cont linesearch -0.142E-04
 trial: gam= 0.96066 g(F)=  0.891E-02 g(S)=  0.250E-01 ort =-0.113E-02 (trialstep = 0.498E+00)
 search vector abs. value=  0.653E-01
 bond charge predicted
       N       E                     dE             d eps       ncg     rms          rms(c)
DAV:   1    -0.335024363334E+03   -0.82675E-02   -0.19435E+00 15120   0.462E+00    0.741E-01
DAV:   2    -0.335029478699E+03   -0.51154E-02   -0.13053E-01 21544   0.138E+00    0.486E-01
DAV:   3    -0.335029627563E+03   -0.14886E-03   -0.53883E-02 22072   0.743E-01    0.429E-01
DAV:   4    -0.335027533609E+03    0.20940E-02   -0.25234E-02 21736   0.493E-01    0.239E-01
DAV:   5    -0.335027002039E+03    0.53157E-03   -0.11525E-02 22544   0.337E-01    0.169E-01
DAV:   6    -0.335026535021E+03    0.46702E-03   -0.44134E-03 21296   0.205E-01    0.834E-02
DAV:   7    -0.335026499198E+03    0.35823E-04   -0.10121E-03 18424   0.104E-01    0.564E-02
DAV:   8    -0.335026487899E+03    0.11299E-04   -0.28717E-04 11792   0.687E-02
  15 F= -.33502649E+03 E0= -.33502594E+03  d E =-.104038E-01
 trial-energy change:   -0.010404  1 .order   -0.010568   -0.016330   -0.004806
 step:   0.7060(harm=  0.7060)  dis= 0.00890  next Energy=  -335.027654 (dE=-0.116E-01)
 bond charge predicted
       N       E                     dE             d eps       ncg     rms          rms(c)
DAV:   1    -0.335026956633E+03   -0.45743E-03   -0.33955E-01 15120   0.193E+00    0.311E-01
DAV:   2    -0.335027816836E+03   -0.86020E-03   -0.21767E-02 20904   0.569E-01    0.194E-01
DAV:   3    -0.335027912270E+03   -0.95434E-04   -0.85392E-03 21264   0.305E-01    0.168E-01
DAV:   4    -0.335027599057E+03    0.31321E-03   -0.42544E-03 20232   0.200E-01    0.957E-02
DAV:   5    -0.335027525372E+03    0.73684E-04   -0.18713E-03 19264   0.137E-01    0.729E-02
DAV:   6    -0.335027441523E+03    0.83849E-04   -0.69722E-04 15536   0.892E-02
  16 F= -.33502744E+03 E0= -.33502691E+03  d E =-.113575E-01
 curvature:  -0.70 expect dE=-0.428E-02 dE for cont linesearch -0.222E-05
 trial: gam= 0.15088 g(F)=  0.597E-02 g(S)=  0.120E-03 ort =-0.454E-03 (trialstep = 0.540E+00)
 search vector abs. value=  0.744E-02
 bond charge predicted
       N       E                     dE             d eps       ncg     rms          rms(c)
DAV:   1    -0.335029817917E+03   -0.22925E-02   -0.24880E-01 16632   0.143E+00    0.113E-01
DAV:   2    -0.335030336668E+03   -0.51875E-03   -0.66051E-03 25208   0.353E-01    0.887E-02
DAV:   3    -0.335030343588E+03   -0.69201E-05   -0.17383E-03 19136   0.126E-01    0.776E-02
DAV:   4    -0.335030254899E+03    0.88690E-04   -0.48546E-04 13920   0.790E-02
  17 F= -.33503025E+03 E0= -.33502973E+03  d E =-.281338E-02
 ZBRENT: can't locate minimum, use default step
 trial-energy change:   -0.002813  1 .order   -0.002845   -0.003251   -0.002439
 step:   2.1589(harm=  2.1619)  dis= 0.01365  next Energy=  -335.033952 (dE=-0.651E-02)
 bond charge predicted
       N       E                     dE             d eps       ncg     rms          rms(c)
DAV:   1    -0.335029243084E+03    0.11005E-02   -0.22369E+00 16632   0.427E+00    0.317E-01
DAV:   2    -0.335033777179E+03   -0.45341E-02   -0.58393E-02 25208   0.104E+00    0.278E-01
DAV:   3    -0.335033652303E+03    0.12488E-03   -0.14979E-02 24376   0.370E-01    0.236E-01
DAV:   4    -0.335032961161E+03    0.69114E-03   -0.44930E-03 21024   0.208E-01    0.129E-01
DAV:   5    -0.335032964205E+03   -0.30443E-05   -0.23981E-03 19496   0.150E-01    0.122E-01
DAV:   6    -0.335032756165E+03    0.20804E-03   -0.18171E-03 19104   0.140E-01    0.566E-02
DAV:   7    -0.335032686410E+03    0.69756E-04   -0.33369E-04 12336   0.740E-02
  18 F= -.33503269E+03 E0= -.33503213E+03  d E =-.524489E-02
 curvature:  -1.34 expect dE=-0.441E-02 dE for cont linesearch -0.297E-03
 trial: gam= 0.00000 g(F)=  0.244E-02 g(S)=  0.860E-03 ort =-0.129E-02 (trialstep = 0.864E+00)
 search vector abs. value=  0.330E-02
 bond charge predicted
       N       E                     dE             d eps       ncg     rms          rms(c)
DAV:   1    -0.335034937521E+03   -0.21814E-02   -0.35324E-01 15392   0.233E+00    0.551E-01
DAV:   2    -0.335035278973E+03   -0.34145E-03   -0.40549E-02 22856   0.829E-01    0.324E-01
DAV:   3    -0.335035655790E+03   -0.37682E-03   -0.28251E-02 22448   0.519E-01    0.312E-01
DAV:   4    -0.335034057532E+03    0.15983E-02   -0.12678E-02 22968   0.361E-01    0.127E-01
DAV:   5    -0.335033878399E+03    0.17913E-03   -0.38016E-03 20672   0.199E-01    0.955E-02
DAV:   6    -0.335033747078E+03    0.13132E-03   -0.13266E-03 19432   0.117E-01    0.443E-02
DAV:   7    -0.335033738149E+03    0.89290E-05   -0.17156E-04  9920   0.587E-02
  19 F= -.33503374E+03 E0= -.33503324E+03  d E =-.105174E-02
 trial-energy change:   -0.001052  1 .order   -0.001156   -0.002854    0.000541
 step:   0.7260(harm=  0.7260)  dis= 0.00180  next Energy=  -335.033886 (dE=-0.120E-02)
 bond charge predicted
       N       E                     dE             d eps       ncg     rms          rms(c)
DAV:   1    -0.335033845012E+03   -0.97934E-04   -0.91557E-03 15744   0.376E-01    0.995E-02
DAV:   2    -0.335033925962E+03   -0.80949E-04   -0.18352E-03 22488   0.163E-01    0.841E-02
DAV:   3    -0.335033872399E+03    0.53563E-04   -0.12209E-03 17912   0.108E-01    0.637E-02
DAV:   4    -0.335033832177E+03    0.40222E-04   -0.33013E-04 12240   0.699E-02
  20 F= -.33503383E+03 E0= -.33503332E+03  d E =-.114577E-02
 curvature:  -0.36 expect dE=-0.113E-02 dE for cont linesearch -0.617E-05
 trial: gam= 1.01432 g(F)=  0.820E-03 g(S)=  0.230E-02 ort =-0.237E-03 (trialstep = 0.458E+00)
 search vector abs. value=  0.603E-02
 writing wavefunctions
VASP is done!
