<?xml version="1.0" encoding="ISO-8859-1"?>
<modeling>
 <generator>
  <i name="program" type="string">vasp </i>
  <i name="version" type="string">5.4.4.18Apr17-6-g9f103f2a35  </i>
  <i name="subversion" type="string">(build Aug 09 2018 16:20:53) complex            parallel </i>
  <i name="platform" type="string">LinuxIFC </i>
  <i name="date" type="string">2020 04 12 </i>
  <i name="time" type="string">17:40:38 </i>
 </generator>
 <incar>
  <i type="string" name="SYSTEM"> SQS with 1 vacancy for VFE and VRV</i>
  <i type="string" name="PREC">normal</i>
  <i type="int" name="IALGO">    38</i>
  <i type="int" name="ICHARG">     2</i>
  <i type="int" name="IBRION">     2</i>
  <i type="int" name="NSW">    20</i>
  <i type="int" name="ISIF">     3</i>
  <i type="int" name="ISYM">     0</i>
  <i name="ENCUT">    600.00000000</i>
  <i type="string" name="LREAL"> Auto</i>
  <i type="int" name="ISMEAR">     1</i>
  <i name="SIGMA">      0.20000000</i>
  <v type="int" name="KPOINT_BSE">    -1     0     0     0</v>
  <i type="string" name="GGA"> PS</i>
 </incar>
 <structure name="primitive_cell" >
  <crystal>
   <varray name="basis" >
    <v>      -3.19000000      -3.19000000      -3.19000000 </v>
    <v>       1.59500000       1.59500000      -7.97500000 </v>
    <v>       7.97500000      -7.97500000      -1.59500000 </v>
   </varray>
   <i name="volume">    486.92638500 </i>
   <varray name="rec_basis" >
    <v>      -0.13584117      -0.12539185      -0.05224660 </v>
    <v>       0.04179728       0.06269592      -0.10449321 </v>
    <v>       0.06269592      -0.06269592       0.00000000 </v>
   </varray>
  </crystal>
  <varray name="positions" >
   <v>      -0.03333333      -0.06666667       0.40000000 </v>
   <v>       0.30000000      -0.40000000       0.40000000 </v>
   <v>      -0.10000000      -0.20000000       0.20000000 </v>
   <v>       0.06666667       0.13333333       0.20000000 </v>
   <v>       0.46666667      -0.06666667       0.40000000 </v>
   <v>      -0.13333333      -0.26666667      -0.40000000 </v>
   <v>       0.03333333       0.06666667      -0.40000000 </v>
   <v>      -0.36666667       0.26666667       0.40000000 </v>
   <v>       0.40000000      -0.20000000       0.20000000 </v>
   <v>      -0.20000000      -0.40000000       0.40000000 </v>
   <v>      -0.43333333       0.13333333       0.20000000 </v>
   <v>       0.36666667      -0.26666667      -0.40000000 </v>
   <v>       0.13333333       0.26666667       0.40000000 </v>
   <v>      -0.46666667       0.06666667      -0.40000000 </v>
   <v>       0.23333333       0.46666667       0.20000000 </v>
   <v>       0.20000000       0.40000000      -0.40000000 </v>
   <v>       0.00000000       0.00000000       0.00000000 </v>
   <v>      -0.06666667      -0.13333333      -0.20000000 </v>
   <v>      -0.30000000       0.40000000      -0.40000000 </v>
   <v>      -0.26666667       0.46666667       0.20000000 </v>
   <v>       0.33333333      -0.33333333       0.00000000 </v>
   <v>       0.43333333      -0.13333333      -0.20000000 </v>
   <v>      -0.50000000       0.00000000       0.00000000 </v>
   <v>      -0.33333333       0.33333333       0.00000000 </v>
   <v>      -0.40000000       0.20000000      -0.20000000 </v>
   <v>      -0.16666667      -0.33333333       0.00000000 </v>
   <v>      -0.23333333      -0.46666667      -0.20000000 </v>
   <v>       0.16666667       0.33333333       0.00000000 </v>
   <v>       0.10000000       0.20000000      -0.20000000 </v>
  </varray>
 </structure>
 <varray name="primitive_index" >
  <v type="int" >        1 </v>
  <v type="int" >       18 </v>
  <v type="int" >        7 </v>
  <v type="int" >       23 </v>
  <v type="int" >       20 </v>
  <v type="int" >       19 </v>
  <v type="int" >        6 </v>
  <v type="int" >        2 </v>
  <v type="int" >       16 </v>
  <v type="int" >        8 </v>
  <v type="int" >       15 </v>
  <v type="int" >       11 </v>
  <v type="int" >       12 </v>
  <v type="int" >       27 </v>
  <v type="int" >       29 </v>
  <v type="int" >       22 </v>
  <v type="int" >        4 </v>
  <v type="int" >       14 </v>
  <v type="int" >       25 </v>
  <v type="int" >        9 </v>
  <v type="int" >       28 </v>
  <v type="int" >       17 </v>
  <v type="int" >        3 </v>
  <v type="int" >       10 </v>
  <v type="int" >       26 </v>
  <v type="int" >       13 </v>
  <v type="int" >       24 </v>
  <v type="int" >       21 </v>
  <v type="int" >        5 </v>
 </varray>
 <kpoints>
  <generation param="Gamma">
   <v type="int" name="divisions">       5        5        5 </v>
   <v name="usershift">      0.00000000       0.00000000       0.00000000 </v>
   <v name="genvec1">      0.20000000      -0.00000000      -0.00000000 </v>
   <v name="genvec2">      0.00000000       0.20000000       0.00000000 </v>
   <v name="genvec3">      0.00000000       0.00000000       0.20000000 </v>
   <v name="shift">      0.00000000       0.00000000       0.00000000 </v>
  </generation>
  <varray name="kpointlist" >
   <v>       0.00000000       0.00000000       0.00000000 </v>
   <v>       0.20000000      -0.00000000       0.00000000 </v>
   <v>       0.40000000      -0.00000000       0.00000000 </v>
   <v>       0.00000000       0.20000000       0.00000000 </v>
   <v>       0.20000000       0.20000000      -0.00000000 </v>
   <v>       0.40000000       0.20000000      -0.00000000 </v>
   <v>      -0.40000000       0.20000000      -0.00000000 </v>
   <v>      -0.20000000       0.20000000       0.00000000 </v>
   <v>       0.00000000       0.40000000       0.00000000 </v>
   <v>       0.20000000       0.40000000       0.00000000 </v>
   <v>       0.40000000       0.40000000      -0.00000000 </v>
   <v>      -0.40000000       0.40000000       0.00000000 </v>
   <v>      -0.20000000       0.40000000       0.00000000 </v>
   <v>       0.00000000       0.00000000       0.20000000 </v>
   <v>       0.20000000      -0.00000000       0.20000000 </v>
   <v>       0.40000000       0.00000000       0.20000000 </v>
   <v>      -0.40000000       0.00000000       0.20000000 </v>
   <v>      -0.20000000       0.00000000       0.20000000 </v>
   <v>       0.00000000       0.20000000       0.20000000 </v>
   <v>       0.20000000       0.20000000       0.20000000 </v>
   <v>       0.40000000       0.20000000       0.20000000 </v>
   <v>      -0.40000000       0.20000000       0.20000000 </v>
   <v>      -0.20000000       0.20000000       0.20000000 </v>
   <v>       0.00000000       0.40000000       0.20000000 </v>
   <v>       0.20000000       0.40000000       0.20000000 </v>
   <v>       0.40000000       0.40000000       0.20000000 </v>
   <v>      -0.40000000       0.40000000       0.20000000 </v>
   <v>      -0.20000000       0.40000000       0.20000000 </v>
   <v>       0.00000000      -0.40000000       0.20000000 </v>
   <v>       0.20000000      -0.40000000       0.20000000 </v>
   <v>       0.40000000      -0.40000000       0.20000000 </v>
   <v>      -0.40000000      -0.40000000       0.20000000 </v>
   <v>      -0.20000000      -0.40000000       0.20000000 </v>
   <v>       0.00000000      -0.20000000       0.20000000 </v>
   <v>       0.20000000      -0.20000000       0.20000000 </v>
   <v>       0.40000000      -0.20000000       0.20000000 </v>
   <v>      -0.40000000      -0.20000000       0.20000000 </v>
   <v>      -0.20000000      -0.20000000       0.20000000 </v>
   <v>       0.00000000       0.00000000       0.40000000 </v>
   <v>       0.20000000      -0.00000000       0.40000000 </v>
   <v>       0.40000000      -0.00000000       0.40000000 </v>
   <v>      -0.40000000       0.00000000       0.40000000 </v>
   <v>      -0.20000000       0.00000000       0.40000000 </v>
   <v>      -0.00000000       0.20000000       0.40000000 </v>
   <v>       0.20000000       0.20000000       0.40000000 </v>
   <v>       0.40000000       0.20000000       0.40000000 </v>
   <v>      -0.40000000       0.20000000       0.40000000 </v>
   <v>      -0.20000000       0.20000000       0.40000000 </v>
   <v>       0.00000000       0.40000000       0.40000000 </v>
   <v>       0.20000000       0.40000000       0.40000000 </v>
   <v>       0.40000000       0.40000000       0.40000000 </v>
   <v>      -0.40000000       0.40000000       0.40000000 </v>
   <v>      -0.20000000       0.40000000       0.40000000 </v>
   <v>       0.00000000      -0.40000000       0.40000000 </v>
   <v>       0.20000000      -0.40000000       0.40000000 </v>
   <v>       0.40000000      -0.40000000       0.40000000 </v>
   <v>      -0.40000000      -0.40000000       0.40000000 </v>
   <v>      -0.20000000      -0.40000000       0.40000000 </v>
   <v>       0.00000000      -0.20000000       0.40000000 </v>
   <v>       0.20000000      -0.20000000       0.40000000 </v>
   <v>       0.40000000      -0.20000000       0.40000000 </v>
   <v>      -0.40000000      -0.20000000       0.40000000 </v>
   <v>      -0.20000000      -0.20000000       0.40000000 </v>
  </varray>
  <varray name="weights" >
   <v>       0.00800000 </v>
   <v>       0.01600000 </v>
   <v>       0.01600000 </v>
   <v>       0.01600000 </v>
   <v>       0.01600000 </v>
   <v>       0.01600000 </v>
   <v>       0.01600000 </v>
   <v>       0.01600000 </v>
   <v>       0.01600000 </v>
   <v>       0.01600000 </v>
   <v>       0.01600000 </v>
   <v>       0.01600000 </v>
   <v>       0.01600000 </v>
   <v>       0.01600000 </v>
   <v>       0.01600000 </v>
   <v>       0.01600000 </v>
   <v>       0.01600000 </v>
   <v>       0.01600000 </v>
   <v>       0.01600000 </v>
   <v>       0.01600000 </v>
   <v>       0.01600000 </v>
   <v>       0.01600000 </v>
   <v>       0.01600000 </v>
   <v>       0.01600000 </v>
   <v>       0.01600000 </v>
   <v>       0.01600000 </v>
   <v>       0.01600000 </v>
   <v>       0.01600000 </v>
   <v>       0.01600000 </v>
   <v>       0.01600000 </v>
   <v>       0.01600000 </v>
   <v>       0.01600000 </v>
   <v>       0.01600000 </v>
   <v>       0.01600000 </v>
   <v>       0.01600000 </v>
   <v>       0.01600000 </v>
   <v>       0.01600000 </v>
   <v>       0.01600000 </v>
   <v>       0.01600000 </v>
   <v>       0.01600000 </v>
   <v>       0.01600000 </v>
   <v>       0.01600000 </v>
   <v>       0.01600000 </v>
   <v>       0.01600000 </v>
   <v>       0.01600000 </v>
   <v>       0.01600000 </v>
   <v>       0.01600000 </v>
   <v>       0.01600000 </v>
   <v>       0.01600000 </v>
   <v>       0.01600000 </v>
   <v>       0.01600000 </v>
   <v>       0.01600000 </v>
   <v>       0.01600000 </v>
   <v>       0.01600000 </v>
   <v>       0.01600000 </v>
   <v>       0.01600000 </v>
   <v>       0.01600000 </v>
   <v>       0.01600000 </v>
   <v>       0.01600000 </v>
   <v>       0.01600000 </v>
   <v>       0.01600000 </v>
   <v>       0.01600000 </v>
   <v>       0.01600000 </v>
  </varray>
 </kpoints>
 <parameters>
  <separator name="general" >
   <i type="string" name="SYSTEM">SQS with 1 vacancy for VFE and VRV</i>
   <i type="logical" name="LCOMPAT"> F  </i>
  </separator>
  <separator name="electronic" >
   <i type="string" name="PREC">normal</i>
   <i name="ENMAX">    600.00000000</i>
   <i name="ENAUG">    455.65900000</i>
   <i name="EDIFF">      0.00010000</i>
   <i type="int" name="IALGO">    38</i>
   <i type="int" name="IWAVPR">    11</i>
   <i type="int" name="NBANDS">   120</i>
   <i name="NELECT">    200.00000000</i>
   <i type="int" name="TURBO">     0</i>
   <i type="int" name="IRESTART">     0</i>
   <i type="int" name="NREBOOT">     0</i>
   <i type="int" name="NMIN">     0</i>
   <i name="EREF">      0.00000000</i>
   <separator name="electronic smearing" >
    <i type="int" name="ISMEAR">     1</i>
    <i name="SIGMA">      0.20000000</i>
    <i name="KSPACING">      0.50000000</i>
    <i type="logical" name="KGAMMA"> T  </i>
   </separator>
   <separator name="electronic projectors" >
    <i type="logical" name="LREAL"> T  </i>
    <v name="ROPT">     -0.00050000     -0.00050000     -0.00050000     -0.00050000     -0.00050000</v>
    <i type="int" name="LMAXPAW">  -100</i>
    <i type="int" name="LMAXMIX">     2</i>
    <i type="logical" name="NLSPLINE"> F  </i>
   </separator>
   <separator name="electronic startup" >
    <i type="int" name="ISTART">     0</i>
    <i type="int" name="ICHARG">     2</i>
    <i type="int" name="INIWAV">     1</i>
   </separator>
   <separator name="electronic spin" >
    <i type="int" name="ISPIN">     1</i>
    <i type="logical" name="LNONCOLLINEAR"> F  </i>
    <v name="MAGMOM">      1.00000000      1.00000000      1.00000000      1.00000000      1.00000000      1.00000000      1.00000000      1.00000000      1.00000000      1.00000000      1.00000000      1.00000000      1.00000000      1.00000000      1.00000000      1.00000000      1.00000000      1.00000000      1.00000000      1.00000000
      1.00000000      1.00000000      1.00000000      1.00000000      1.00000000      1.00000000      1.00000000      1.00000000      1.00000000</v>
    <i name="NUPDOWN">     -1.00000000</i>
    <i type="logical" name="LSORBIT"> F  </i>
    <v name="SAXIS">      0.00000000      0.00000000      1.00000000</v>
    <i type="logical" name="LSPIRAL"> F  </i>
    <v name="QSPIRAL">      0.00000000      0.00000000      0.00000000</v>
    <i type="logical" name="LZEROZ"> F  </i>
   </separator>
   <separator name="electronic exchange-correlation" >
    <i type="logical" name="LASPH"> F  </i>
    <i type="logical" name="LMETAGGA"> F  </i>
   </separator>
   <separator name="electronic convergence" >
    <i type="int" name="NELM">    60</i>
    <i type="int" name="NELMDL">    -5</i>
    <i type="int" name="NELMIN">     2</i>
    <i name="ENINI">    600.00000000</i>
    <separator name="electronic convergence detail" >
     <i type="logical" name="LDIAG"> T  </i>
     <i type="logical" name="LSUBROT"> F  </i>
     <i name="WEIMIN">      0.00100000</i>
     <i name="EBREAK">      0.00000021</i>
     <i name="DEPER">      0.30000000</i>
     <i type="int" name="NRMM">     4</i>
     <i name="TIME">      0.40000000</i>
    </separator>
   </separator>
   <separator name="electronic mixer" >
    <i name="AMIX">      0.40000000</i>
    <i name="BMIX">      1.00000000</i>
    <i name="AMIN">      0.10000000</i>
    <i name="AMIX_MAG">      1.60000000</i>
    <i name="BMIX_MAG">      1.00000000</i>
    <separator name="electronic mixer details" >
     <i type="int" name="IMIX">     4</i>
     <i type="logical" name="MIXFIRST"> F  </i>
     <i type="int" name="MAXMIX">   -45</i>
     <i name="WC">    100.00000000</i>
     <i type="int" name="INIMIX">     1</i>
     <i type="int" name="MIXPRE">     1</i>
     <i type="int" name="MREMOVE">     5</i>
    </separator>
   </separator>
   <separator name="electronic dipolcorrection" >
    <i type="logical" name="LDIPOL"> F  </i>
    <i type="logical" name="LMONO"> F  </i>
    <i type="int" name="IDIPOL">     0</i>
    <i name="EPSILON">      1.00000000</i>
    <v name="DIPOL">   -100.00000000   -100.00000000   -100.00000000</v>
    <i name="EFIELD">      0.00000000</i>
   </separator>
  </separator>
  <separator name="grids" >
   <i type="int" name="NGX">    36</i>
   <i type="int" name="NGY">    50</i>
   <i type="int" name="NGZ">    70</i>
   <i type="int" name="NGXF">    72</i>
   <i type="int" name="NGYF">   100</i>
   <i type="int" name="NGZF">   140</i>
   <i type="logical" name="ADDGRID"> F  </i>
  </separator>
  <separator name="ionic" >
   <i type="int" name="NSW">    20</i>
   <i type="int" name="IBRION">     2</i>
   <i type="int" name="MDALGO">     0</i>
   <i type="int" name="ISIF">     3</i>
   <i name="PSTRESS">      0.00000000</i>
   <i name="EDIFFG">      0.00100000</i>
   <i type="int" name="NFREE">     1</i>
   <i name="POTIM">      0.50000000</i>
   <i name="SMASS">     -3.00000000</i>
   <i name="SCALEE">      1.00000000</i>
  </separator>
  <separator name="ionic md" >
   <i name="TEBEG">      0.00010000</i>
   <i name="TEEND">      0.00010000</i>
   <i type="int" name="NBLOCK">     1</i>
   <i type="int" name="KBLOCK">    20</i>
   <i type="int" name="NPACO">   256</i>
   <i name="APACO">     16.00000000</i>
  </separator>
  <separator name="symmetry" >
   <i type="int" name="ISYM">     0</i>
   <i name="SYMPREC">      0.00001000</i>
  </separator>
  <separator name="dos" >
   <i type="int" name="LORBIT">     0</i>
   <v name="RWIGS">     -1.00000000     -1.00000000     -1.00000000     -1.00000000     -1.00000000</v>
   <i type="int" name="NEDOS">   301</i>
   <i name="EMIN">     10.00000000</i>
   <i name="EMAX">    -10.00000000</i>
   <i name="EFERMI">      0.00000000</i>
  </separator>
  <separator name="writing" >
   <i type="int" name="NWRITE">     2</i>
   <i type="logical" name="LWAVE"> T  </i>
   <i type="logical" name="LDOWNSAMPLE"> F  </i>
   <i type="logical" name="LCHARG"> T  </i>
   <i type="logical" name="LPARD"> F  </i>
   <i type="logical" name="LVTOT"> F  </i>
   <i type="logical" name="LVHAR"> F  </i>
   <i type="logical" name="LELF"> F  </i>
   <i type="logical" name="LOPTICS"> F  </i>
   <v name="STM">      0.00000000      0.00000000      0.00000000      0.00000000      0.00000000      0.00000000      0.00000000</v>
  </separator>
  <separator name="performance" >
   <i type="int" name="NPAR">     8</i>
   <i type="int" name="NSIM">     4</i>
   <i type="int" name="NBLK">    -1</i>
   <i type="logical" name="LPLANE"> T  </i>
   <i type="logical" name="LSCALAPACK"> T  </i>
   <i type="logical" name="LSCAAWARE"> F  </i>
   <i type="logical" name="LSCALU"> F  </i>
   <i type="logical" name="LASYNC"> F  </i>
   <i type="logical" name="LORBITALREAL"> F  </i>
  </separator>
  <separator name="miscellaneous" >
   <i type="int" name="IDIOT">     3</i>
   <i type="int" name="ISPECIAL">     0</i>
   <i type="logical" name="LMUSIC"> F  </i>
   <v name="POMASS">     92.91000000     95.94000000    180.94800000     47.88000000    183.85000000</v>
   <v name="DARWINR">      0.00000000      0.00000000      0.00000000      0.00000000      0.00000000</v>
   <v name="DARWINV">      1.00000000      1.00000000      1.00000000      1.00000000      1.00000000</v>
   <i type="logical" name="LCORR"> T  </i>
  </separator>
  <i type="logical" name="GGA_COMPAT"> T  </i>
  <i type="logical" name="LBERRY"> F  </i>
  <i type="int" name="ICORELEVEL">     0</i>
  <i type="logical" name="LDAU"> F  </i>
  <i type="int" name="I_CONSTRAINED_M">     0</i>
  <separator name="electronic exchange-correlation" >
   <i type="string" name="GGA">PS</i>
   <i type="int" name="VOSKOWN">     0</i>
   <i type="logical" name="LHFCALC"> F  </i>
   <i type="string" name="PRECFOCK"></i>
   <i type="logical" name="LSYMGRAD"> F  </i>
   <i type="logical" name="LHFONE"> F  </i>
   <i type="logical" name="LRHFCALC"> F  </i>
   <i type="logical" name="LTHOMAS"> F  </i>
   <i type="logical" name="LMODELHF"> F  </i>
   <i name="ENCUT4O">     -1.00000000</i>
   <i type="int" name="EXXOEP">     0</i>
   <i type="int" name="FOURORBIT">     0</i>
   <i name="AEXX">      0.00000000</i>
   <i name="HFALPHA">      0.00000000</i>
   <i name="MCALPHA">      0.00000000</i>
   <i name="ALDAX">      1.00000000</i>
   <i name="AGGAX">      1.00000000</i>
   <i name="ALDAC">      1.00000000</i>
   <i name="AGGAC">      1.00000000</i>
   <i type="int" name="NKREDX">     1</i>
   <i type="int" name="NKREDY">     1</i>
   <i type="int" name="NKREDZ">     1</i>
   <i type="logical" name="SHIFTRED"> F  </i>
   <i type="logical" name="ODDONLY"> F  </i>
   <i type="logical" name="EVENONLY"> F  </i>
   <i type="int" name="LMAXFOCK">     0</i>
   <i type="int" name="NMAXFOCKAE">     0</i>
   <i type="logical" name="LFOCKAEDFT"> F  </i>
   <i name="HFSCREEN">      0.00000000</i>
   <i name="HFSCREENC">      0.00000000</i>
   <i type="int" name="NBANDSGWLOW">     0</i>
  </separator>
  <separator name="vdW DFT" >
   <i type="logical" name="LUSE_VDW"> F  </i>
   <i name="Zab_VDW">     -0.84910000</i>
   <i name="PARAM1">      0.12340000</i>
   <i name="PARAM2">      1.00000000</i>
   <i name="PARAM3">      0.00000000</i>
  </separator>
  <separator name="model GW" >
   <i type="int" name="MODEL_GW">     0</i>
   <i name="MODEL_EPS0">     10.07433900</i>
   <i name="MODEL_ALPHA">      1.00000000</i>
  </separator>
  <separator name="linear response parameters" >
   <i type="logical" name="LEPSILON"> F  </i>
   <i type="logical" name="LRPA"> F  </i>
   <i type="logical" name="LNABLA"> F  </i>
   <i type="logical" name="LVEL"> F  </i>
   <i type="int" name="KINTER">     0</i>
   <i name="CSHIFT">      0.10000000</i>
   <i name="OMEGAMAX">     -1.00000000</i>
   <i name="DEG_THRESHOLD">      0.00200000</i>
   <i name="RTIME">     -0.10000000</i>
   <i name="WPLASMAI">      0.00000000</i>
   <v name="DFIELD">      0.00000000      0.00000000      0.00000000</v>
   <v name="WPLASMA">      0.00000000      0.00000000      0.00000000      0.00000000      0.00000000      0.00000000      0.00000000      0.00000000      0.00000000</v>
  </separator>
  <separator name="orbital magnetization" >
   <i type="logical" name="NUCIND"> F  </i>
   <v name="MAGPOS">      0.00000000      0.00000000      0.00000000</v>
   <i type="logical" name="LNICSALL"> T  </i>
   <i type="logical" name="ORBITALMAG"> F  </i>
   <i type="logical" name="LMAGBLOCH"> F  </i>
   <i type="logical" name="LCHIMAG"> F  </i>
   <i type="logical" name="LGAUGE"> T  </i>
   <i type="int" name="MAGATOM">     0</i>
   <v name="MAGDIPOL">      0.00000000      0.00000000      0.00000000</v>
   <v name="AVECCONST">      0.00000000      0.00000000      0.00000000</v>
  </separator>
  <separator name="response functions" >
   <i type="logical" name="LADDER"> F  </i>
   <i type="logical" name="LRPAFORCE"> F  </i>
   <i type="logical" name="LFXC"> F  </i>
   <i type="logical" name="LHARTREE"> T  </i>
   <i type="int" name="IBSE">     0</i>
   <v type="int" name="KPOINT">    -1     0     0     0</v>
   <i type="logical" name="LTCTE"> F  </i>
   <i type="logical" name="LTETE"> F  </i>
   <i type="logical" name="LTRIPLET"> F  </i>
   <i type="logical" name="LFXCEPS"> F  </i>
   <i type="logical" name="LFXHEG"> F  </i>
   <i type="int" name="NATURALO">     2</i>
   <i type="logical" name="L2ORDER"> F  </i>
   <i type="logical" name="LMP2LT"> F  </i>
   <i type="logical" name="LUSEW"> F  </i>
   <i name="ENCUTGW">     -2.00000000</i>
   <i name="ENCUTGWSOFT">     -2.00000000</i>
   <i name="ENCUTLF">     -1.00000000</i>
   <i type="int" name="LMAXMP2">    -1</i>
   <i name="SCISSOR">      0.00000000</i>
   <i type="int" name="NOMEGA">     0</i>
   <i type="int" name="NOMEGAR">     0</i>
   <i type="int" name="NBANDSGW">    -1</i>
   <i type="int" name="NBANDSO">    -1</i>
   <i type="int" name="NBANDSV">    -1</i>
   <i type="int" name="NELM">     1</i>
   <i type="int" name="NELMHF">     1</i>
   <i type="int" name="DIM">     3</i>
   <i type="int" name="ANTIRES">     0</i>
   <i name="OMEGAMAX">    -30.00000000</i>
   <i name="OMEGAMIN">    -30.00000000</i>
   <i name="OMEGATL">   -200.00000000</i>
   <i type="int" name="OMEGAGRID">   140</i>
   <i name="CSHIFT">     -0.10000000</i>
   <i type="logical" name="SELFENERGY"> F  </i>
   <i type="logical" name="LSPECTRAL"> F  </i>
   <i type="logical" name="LSPECTRALGW"> F  </i>
   <i type="logical" name="LSINGLES"> F  </i>
   <i type="logical" name="LFERMIGW"> F  </i>
   <i type="logical" name="ODDONLYGW"> F  </i>
   <i type="logical" name="EVENONLYGW"> F  </i>
   <i type="int" name="NKREDLFX">     1</i>
   <i type="int" name="NKREDLFY">     1</i>
   <i type="int" name="NKREDLFZ">     1</i>
   <i type="int" name="MAXMEM">  2800</i>
   <i type="int" name="TELESCOPE">     0</i>
   <i type="int" name="TAUPAR">     1</i>
   <i type="int" name="OMEGAPAR">    -1</i>
   <i name="LAMBDA">      1.00000000</i>
  </separator>
  <separator name="External order field" >
   <i name="OFIELD_KAPPA">      0.00000000</i>
   <v name="OFIELD_K">      0.00000000      0.00000000      0.00000000</v>
   <i name="OFIELD_Q6_NEAR">      0.00000000</i>
   <i name="OFIELD_Q6_FAR">      0.00000000</i>
   <i name="OFIELD_A">      0.00000000</i>
  </separator>
  <separator name="solvation model" >
   <i type="logical" name="LSOL"> F  </i>
  </separator>
 </parameters>
 <atominfo>
  <atoms>      29 </atoms>
  <types>       5 </types>
  <array name="atoms" >
   <dimension dim="1">ion</dimension>
   <field type="string">element</field>
   <field type="int">atomtype</field>
   <set>
    <rc><c>Nb</c><c>   1</c></rc>
    <rc><c>Nb</c><c>   1</c></rc>
    <rc><c>Nb</c><c>   1</c></rc>
    <rc><c>Nb</c><c>   1</c></rc>
    <rc><c>Nb</c><c>   1</c></rc>
    <rc><c>Nb</c><c>   1</c></rc>
    <rc><c>Mo</c><c>   2</c></rc>
    <rc><c>Mo</c><c>   2</c></rc>
    <rc><c>Mo</c><c>   2</c></rc>
    <rc><c>Mo</c><c>   2</c></rc>
    <rc><c>Mo</c><c>   2</c></rc>
    <rc><c>Mo</c><c>   2</c></rc>
    <rc><c>Ta</c><c>   3</c></rc>
    <rc><c>Ta</c><c>   3</c></rc>
    <rc><c>Ta</c><c>   3</c></rc>
    <rc><c>Ta</c><c>   3</c></rc>
    <rc><c>Ta</c><c>   3</c></rc>
    <rc><c>Ta</c><c>   3</c></rc>
    <rc><c>Ti</c><c>   4</c></rc>
    <rc><c>Ti</c><c>   4</c></rc>
    <rc><c>Ti</c><c>   4</c></rc>
    <rc><c>Ti</c><c>   4</c></rc>
    <rc><c>Ti</c><c>   4</c></rc>
    <rc><c>W </c><c>   5</c></rc>
    <rc><c>W </c><c>   5</c></rc>
    <rc><c>W </c><c>   5</c></rc>
    <rc><c>W </c><c>   5</c></rc>
    <rc><c>W </c><c>   5</c></rc>
    <rc><c>W </c><c>   5</c></rc>
   </set>
  </array>
  <array name="atomtypes" >
   <dimension dim="1">type</dimension>
   <field type="int">atomspertype</field>
   <field type="string">element</field>
   <field>mass</field>
   <field>valence</field>
   <field type="string">pseudopotential</field>
   <set>
    <rc><c>   6</c><c>Nb</c><c>     92.91000000</c><c>     13.00000000</c><c>  PAW_PBE Nb_sv 25May2007               </c></rc>
    <rc><c>   6</c><c>Mo</c><c>     95.94000000</c><c>      6.00000000</c><c>  PAW_PBE Mo 08Apr2002                  </c></rc>
    <rc><c>   6</c><c>Ta</c><c>    180.94800000</c><c>      5.00000000</c><c>  PAW_PBE Ta 17Jan2003                  </c></rc>
    <rc><c>   5</c><c>Ti</c><c>     47.88000000</c><c>      4.00000000</c><c>  PAW_PBE Ti 08Apr2002                  </c></rc>
    <rc><c>   6</c><c>W </c><c>    183.85000000</c><c>      6.00000000</c><c>  PAW_PBE W 08Apr2002                   </c></rc>
   </set>
  </array>
 </atominfo>
 <structure name="initialpos" >
  <crystal>
   <varray name="basis" >
    <v>      -3.19000000      -3.19000000      -3.19000000 </v>
    <v>       1.59500000       1.59500000      -7.97500000 </v>
    <v>       7.97500000      -7.97500000      -1.59500000 </v>
   </varray>
   <i name="volume">    486.92638500 </i>
   <varray name="rec_basis" >
    <v>      -0.13584117      -0.12539185      -0.05224660 </v>
    <v>       0.04179728       0.06269592      -0.10449321 </v>
    <v>       0.06269592      -0.06269592       0.00000000 </v>
   </varray>
  </crystal>
  <varray name="positions" >
   <v>       0.96666667       0.93333333       0.40000000 </v>
   <v>       0.63333333       0.26666667       0.40000000 </v>
   <v>       0.50000000       0.00000000       0.00000000 </v>
   <v>       0.00000000       0.00000000       0.00000000 </v>
   <v>       0.10000000       0.20000000       0.80000000 </v>
   <v>       0.03333333       0.06666667       0.60000000 </v>
   <v>       0.90000000       0.80000000       0.20000000 </v>
   <v>       0.80000000       0.60000000       0.40000000 </v>
   <v>       0.73333333       0.46666667       0.20000000 </v>
   <v>       0.66666667       0.33333333       0.00000000 </v>
   <v>       0.36666667       0.73333333       0.60000000 </v>
   <v>       0.13333333       0.26666667       0.40000000 </v>
   <v>       0.83333333       0.66666667       0.00000000 </v>
   <v>       0.93333333       0.86666667       0.80000000 </v>
   <v>       0.56666667       0.13333333       0.20000000 </v>
   <v>       0.40000000       0.80000000       0.20000000 </v>
   <v>       0.43333333       0.86666667       0.80000000 </v>
   <v>       0.30000000       0.60000000       0.40000000 </v>
   <v>       0.86666667       0.73333333       0.60000000 </v>
   <v>       0.46666667       0.93333333       0.40000000 </v>
   <v>       0.16666667       0.33333333       0.00000000 </v>
   <v>       0.20000000       0.40000000       0.60000000 </v>
   <v>       0.06666667       0.13333333       0.20000000 </v>
   <v>       0.76666667       0.53333333       0.80000000 </v>
   <v>       0.70000000       0.40000000       0.60000000 </v>
   <v>       0.60000000       0.20000000       0.80000000 </v>
   <v>       0.53333333       0.06666667       0.60000000 </v>
   <v>       0.33333333       0.66666667       0.00000000 </v>
   <v>       0.23333333       0.46666667       0.20000000 </v>
  </varray>
 </structure>
 <calculation>
  <scstep>
   <time name="dav">   18.18   18.20</time>
   <time name="total">   18.22   18.25</time>
   <energy>
    <i name="alphaZ">   1318.14636210 </i>
    <i name="ewald"> -11628.51119093 </i>
    <i name="hartreedc">  -3216.60438524 </i>
    <i name="XCdc">   -867.97683066 </i>
    <i name="pawpsdc">  12179.31920212 </i>
    <i name="pawaedc"> -10655.17440453 </i>
    <i name="eentropy">     -0.00845418 </i>
    <i name="bandstr">   1863.14121117 </i>
    <i name="atom">  13116.42875384 </i>
    <i name="e_fr_energy">   2108.76026370 </i>
    <i name="e_wo_entrp">   2108.76871787 </i>
    <i name="e_0_energy">   2108.76308176 </i>
   </energy>
  </scstep>
  <scstep>
   <time name="dav">   18.25   18.27</time>
   <time name="total">   18.25   18.27</time>
   <energy>
    <i name="e_fr_energy">     53.94635195 </i>
    <i name="e_wo_entrp">     53.95193878 </i>
    <i name="e_0_energy">     53.94821423 </i>
   </energy>
  </scstep>
  <scstep>
   <time name="dav">   28.42   28.45</time>
   <time name="total">   28.42   28.45</time>
   <energy>
    <i name="e_fr_energy">   -307.07393384 </i>
    <i name="e_wo_entrp">   -307.07825297 </i>
    <i name="e_0_energy">   -307.07537355 </i>
   </energy>
  </scstep>
  <scstep>
   <time name="dav">   25.55   25.70</time>
   <time name="total">   25.56   25.70</time>
   <energy>
    <i name="e_fr_energy">   -351.52493715 </i>
    <i name="e_wo_entrp">   -351.51712315 </i>
    <i name="e_0_energy">   -351.52233249 </i>
   </energy>
  </scstep>
  <scstep>
   <time name="dav">   30.49   30.52</time>
   <time name="total">   31.06   31.10</time>
   <energy>
    <i name="e_fr_energy">   -356.43182990 </i>
    <i name="e_wo_entrp">   -356.42235525 </i>
    <i name="e_0_energy">   -356.42867168 </i>
   </energy>
  </scstep>
  <scstep>
   <time name="dav">   23.60   23.63</time>
   <time name="total">   24.21   24.23</time>
   <energy>
    <i name="e_fr_energy">   -346.92738198 </i>
    <i name="e_wo_entrp">   -346.91506432 </i>
    <i name="e_0_energy">   -346.92327609 </i>
   </energy>
  </scstep>
  <scstep>
   <time name="dav">   23.29   23.32</time>
   <time name="total">   23.89   23.93</time>
   <energy>
    <i name="e_fr_energy">   -360.83881134 </i>
    <i name="e_wo_entrp">   -360.83224779 </i>
    <i name="e_0_energy">   -360.83662349 </i>
   </energy>
  </scstep>
  <scstep>
   <time name="dav">   25.06   25.09</time>
   <time name="total">   25.67   25.70</time>
   <energy>
    <i name="e_fr_energy">   -351.66129743 </i>
    <i name="e_wo_entrp">   -351.66570375 </i>
    <i name="e_0_energy">   -351.66276620 </i>
   </energy>
  </scstep>
  <scstep>
   <time name="dav">   23.99   24.01</time>
   <time name="total">   24.59   24.61</time>
   <energy>
    <i name="e_fr_energy">   -339.94968878 </i>
    <i name="e_wo_entrp">   -339.94060268 </i>
    <i name="e_0_energy">   -339.94666008 </i>
   </energy>
  </scstep>
  <scstep>
   <time name="dav">   24.25   24.28</time>
   <time name="total">   24.86   24.89</time>
   <energy>
    <i name="e_fr_energy">   -335.77356945 </i>
    <i name="e_wo_entrp">   -335.77013133 </i>
    <i name="e_0_energy">   -335.77242341 </i>
   </energy>
  </scstep>
  <scstep>
   <time name="dav">   24.62   24.65</time>
   <time name="total">   25.22   25.25</time>
   <energy>
    <i name="e_fr_energy">   -334.43198046 </i>
    <i name="e_wo_entrp">   -334.42846060 </i>
    <i name="e_0_energy">   -334.43080717 </i>
   </energy>
  </scstep>
  <scstep>
   <time name="dav">   24.84   24.87</time>
   <time name="total">   25.45   25.47</time>
   <energy>
    <i name="e_fr_energy">   -334.21248408 </i>
    <i name="e_wo_entrp">   -334.20897589 </i>
    <i name="e_0_energy">   -334.21131469 </i>
   </energy>
  </scstep>
  <scstep>
   <time name="dav">   25.04   25.07</time>
   <time name="total">   25.64   25.68</time>
   <energy>
    <i name="e_fr_energy">   -334.20280422 </i>
    <i name="e_wo_entrp">   -334.19784295 </i>
    <i name="e_0_energy">   -334.20115046 </i>
   </energy>
  </scstep>
  <scstep>
   <time name="dav">   24.96   24.99</time>
   <time name="total">   25.57   25.60</time>
   <energy>
    <i name="e_fr_energy">   -334.17185825 </i>
    <i name="e_wo_entrp">   -334.16591876 </i>
    <i name="e_0_energy">   -334.16987842 </i>
   </energy>
  </scstep>
  <scstep>
   <time name="dav">   24.84   24.88</time>
   <time name="total">   25.44   25.48</time>
   <energy>
    <i name="e_fr_energy">   -334.15992717 </i>
    <i name="e_wo_entrp">   -334.15409579 </i>
    <i name="e_0_energy">   -334.15798337 </i>
   </energy>
  </scstep>
  <scstep>
   <time name="dav">   24.18   24.21</time>
   <time name="total">   24.78   24.82</time>
   <energy>
    <i name="e_fr_energy">   -334.15454402 </i>
    <i name="e_wo_entrp">   -334.14838778 </i>
    <i name="e_0_energy">   -334.15249194 </i>
   </energy>
  </scstep>
  <scstep>
   <time name="dav">   25.00   25.03</time>
   <time name="total">   25.61   25.64</time>
   <energy>
    <i name="e_fr_energy">   -334.15345147 </i>
    <i name="e_wo_entrp">   -334.14754370 </i>
    <i name="e_0_energy">   -334.15148221 </i>
   </energy>
  </scstep>
  <scstep>
   <time name="dav">   24.49   24.52</time>
   <time name="total">   25.10   25.12</time>
   <energy>
    <i name="e_fr_energy">   -334.14960138 </i>
    <i name="e_wo_entrp">   -334.14373790 </i>
    <i name="e_0_energy">   -334.14764689 </i>
   </energy>
  </scstep>
  <scstep>
   <time name="dav">   25.23   25.26</time>
   <time name="total">   25.83   25.87</time>
   <energy>
    <i name="e_fr_energy">   -334.14925313 </i>
    <i name="e_wo_entrp">   -334.14330277 </i>
    <i name="e_0_energy">   -334.14726968 </i>
   </energy>
  </scstep>
  <scstep>
   <time name="dav">   22.01   22.04</time>
   <time name="total">   22.62   22.65</time>
   <energy>
    <i name="e_fr_energy">   -334.14904674 </i>
    <i name="e_wo_entrp">   -334.14316928 </i>
    <i name="e_0_energy">   -334.14708759 </i>
   </energy>
  </scstep>
  <scstep>
   <time name="dav">   16.77   16.78</time>
   <time name="total">   16.80   16.82</time>
   <energy>
    <i name="alphaZ">   1318.14636210 </i>
    <i name="ewald"> -11628.51119093 </i>
    <i name="hartreedc">  -3077.10489084 </i>
    <i name="XCdc">   -862.31391377 </i>
    <i name="pawpsdc">  21023.87521647 </i>
    <i name="pawaedc"> -19501.48961541 </i>
    <i name="eentropy">     -0.00596565 </i>
    <i name="bandstr">   -723.17378541 </i>
    <i name="atom">  13116.42875384 </i>
    <i name="e_fr_energy">   -334.14902959 </i>
    <i name="e_wo_entrp">   -334.14306395 </i>
    <i name="e_0_energy">   -334.14704104 </i>
   </energy>
  </scstep>
  <structure>
   <crystal>
    <varray name="basis" >
     <v>      -3.19000000      -3.19000000      -3.19000000 </v>
     <v>       1.59500000       1.59500000      -7.97500000 </v>
     <v>       7.97500000      -7.97500000      -1.59500000 </v>
    </varray>
    <i name="volume">    486.92638500 </i>
    <varray name="rec_basis" >
     <v>      -0.13584117      -0.12539185      -0.05224660 </v>
     <v>       0.04179728       0.06269592      -0.10449321 </v>
     <v>       0.06269592      -0.06269592       0.00000000 </v>
    </varray>
   </crystal>
   <varray name="positions" >
    <v>       0.96666667       0.93333333       0.40000000 </v>
    <v>       0.63333333       0.26666667       0.40000000 </v>
    <v>       0.50000000       0.00000000       0.00000000 </v>
    <v>       0.00000000       0.00000000       0.00000000 </v>
    <v>       0.10000000       0.20000000       0.80000000 </v>
    <v>       0.03333333       0.06666667       0.60000000 </v>
    <v>       0.90000000       0.80000000       0.20000000 </v>
    <v>       0.80000000       0.60000000       0.40000000 </v>
    <v>       0.73333333       0.46666667       0.20000000 </v>
    <v>       0.66666667       0.33333333       0.00000000 </v>
    <v>       0.36666667       0.73333333       0.60000000 </v>
    <v>       0.13333333       0.26666667       0.40000000 </v>
    <v>       0.83333333       0.66666667       0.00000000 </v>
    <v>       0.93333333       0.86666667       0.80000000 </v>
    <v>       0.56666667       0.13333333       0.20000000 </v>
    <v>       0.40000000       0.80000000       0.20000000 </v>
    <v>       0.43333333       0.86666667       0.80000000 </v>
    <v>       0.30000000       0.60000000       0.40000000 </v>
    <v>       0.86666667       0.73333333       0.60000000 </v>
    <v>       0.46666667       0.93333333       0.40000000 </v>
    <v>       0.16666667       0.33333333       0.00000000 </v>
    <v>       0.20000000       0.40000000       0.60000000 </v>
    <v>       0.06666667       0.13333333       0.20000000 </v>
    <v>       0.76666667       0.53333333       0.80000000 </v>
    <v>       0.70000000       0.40000000       0.60000000 </v>
    <v>       0.60000000       0.20000000       0.80000000 </v>
    <v>       0.53333333       0.06666667       0.60000000 </v>
    <v>       0.33333333       0.66666667       0.00000000 </v>
    <v>       0.23333333       0.46666667       0.20000000 </v>
   </varray>
  </structure>
  <varray name="forces" >
   <v>      -0.14133442       0.34763817       0.28119649 </v>
   <v>       0.22163011      -0.09156970       0.12802625 </v>
   <v>      -0.05858263       0.26000937      -0.29700480 </v>
   <v>       0.21836195      -0.03987251      -0.07698345 </v>
   <v>       0.26679571       0.54158273      -0.20978463 </v>
   <v>      -0.37704389       0.05282319      -0.20855811 </v>
   <v>       0.07148640      -0.45831783       0.04417893 </v>
   <v>      -0.36901225      -0.32464055       0.53174471 </v>
   <v>      -0.19994832       0.20166551      -0.03635316 </v>
   <v>      -0.01006907       0.35601424      -0.66423060 </v>
   <v>      -0.06206875      -0.63509438       0.49487144 </v>
   <v>      -0.03456689       0.31809808      -0.52737146 </v>
   <v>       0.44946688      -0.39894146       0.39152449 </v>
   <v>      -0.32358081      -0.16997789       0.69906510 </v>
   <v>      -0.25064535       0.36681471      -0.03671751 </v>
   <v>      -0.53346689      -0.20490750       0.50789615 </v>
   <v>      -1.00263832      -0.19125441       0.40358276 </v>
   <v>       0.43271566      -0.35583359      -0.34404455 </v>
   <v>       0.15220396       0.79324701       0.31973210 </v>
   <v>       0.39797554      -0.33187087       0.11006503 </v>
   <v>      -0.27392415       0.26776422      -0.65908196 </v>
   <v>       0.18933722      -0.29688811       0.14830141 </v>
   <v>       0.67883596      -0.27836740      -0.74739594 </v>
   <v>       0.16038275       0.08568022       0.75431723 </v>
   <v>       0.56424684      -0.04319130      -0.90570751 </v>
   <v>      -0.02337259       0.52899686      -0.47605874 </v>
   <v>       0.23582985      -0.40599666      -0.46345651 </v>
   <v>      -0.43209139      -0.24669058       0.87923609 </v>
   <v>       0.05307689       0.35308042      -0.04098927 </v>
  </varray>
  <varray name="stress" >
   <v>     -24.09316967       0.10258883       7.39621401 </v>
   <v>       0.10258895     -24.51648229       3.22845601 </v>
   <v>       7.39621403       3.22845594     -27.50729636 </v>
  </varray>
  <energy>
   <i name="e_fr_energy">   -334.14902959 </i>
   <i name="e_wo_entrp">   -334.14704104 </i>
   <i name="e_0_energy">     -0.00596565 </i>
  </energy>
  <time name="totalsc">  531.72  532.51</time>
 </calculation>
 <calculation>
  <scstep>
   <time name="dav">   19.57   19.59</time>
   <time name="total">   20.17   20.20</time>
   <energy>
    <i name="alphaZ">   1370.22682018 </i>
    <i name="ewald"> -11840.43901570 </i>
    <i name="hartreedc">  -3059.38505743 </i>
    <i name="XCdc">   -857.52279325 </i>
    <i name="pawpsdc">  21023.19859051 </i>
    <i name="pawaedc"> -19500.79469358 </i>
    <i name="eentropy">     -0.00495678 </i>
    <i name="bandstr">   -587.19955223 </i>
    <i name="atom">  13116.42875384 </i>
    <i name="e_fr_energy">   -335.49190444 </i>
    <i name="e_wo_entrp">   -335.48694767 </i>
    <i name="e_0_energy">   -335.49025218 </i>
   </energy>
  </scstep>
  <scstep>
   <time name="dav">   26.19   26.21</time>
   <time name="total">   26.79   26.82</time>
   <energy>
    <i name="e_fr_energy">   -335.44535807 </i>
    <i name="e_wo_entrp">   -335.43496612 </i>
    <i name="e_0_energy">   -335.44189409 </i>
   </energy>
  </scstep>
  <scstep>
   <time name="dav">   25.53   25.56</time>
   <time name="total">   26.15   26.18</time>
   <energy>
    <i name="e_fr_energy">   -335.05089782 </i>
    <i name="e_wo_entrp">   -335.04622089 </i>
    <i name="e_0_energy">   -335.04933884 </i>
   </energy>
  </scstep>
  <scstep>
   <time name="dav">   25.87   25.90</time>
   <time name="total">   26.47   26.50</time>
   <energy>
    <i name="e_fr_energy">   -334.68996316 </i>
    <i name="e_wo_entrp">   -334.67888580 </i>
    <i name="e_0_energy">   -334.68627071 </i>
   </energy>
  </scstep>
  <scstep>
   <time name="dav">   25.01   25.05</time>
   <time name="total">   25.61   25.65</time>
   <energy>
    <i name="e_fr_energy">   -334.52059525 </i>
    <i name="e_wo_entrp">   -334.51689022 </i>
    <i name="e_0_energy">   -334.51936024 </i>
   </energy>
  </scstep>
  <scstep>
   <time name="dav">   27.87   27.91</time>
   <time name="total">   28.50   28.54</time>
   <energy>
    <i name="e_fr_energy">   -334.45767923 </i>
    <i name="e_wo_entrp">   -334.44798150 </i>
    <i name="e_0_energy">   -334.45444665 </i>
   </energy>
  </scstep>
  <scstep>
   <time name="dav">   27.40   27.43</time>
   <time name="total">   28.00   28.03</time>
   <energy>
    <i name="e_fr_energy">   -334.46101987 </i>
    <i name="e_wo_entrp">   -334.45412287 </i>
    <i name="e_0_energy">   -334.45872087 </i>
   </energy>
  </scstep>
  <scstep>
   <time name="dav">   27.00   27.04</time>
   <time name="total">   27.60   27.66</time>
   <energy>
    <i name="e_fr_energy">   -334.45772696 </i>
    <i name="e_wo_entrp">   -334.44959846 </i>
    <i name="e_0_energy">   -334.45501746 </i>
   </energy>
  </scstep>
  <scstep>
   <time name="dav">   25.65   25.68</time>
   <time name="total">   26.26   26.29</time>
   <energy>
    <i name="e_fr_energy">   -334.46009170 </i>
    <i name="e_wo_entrp">   -334.45205204 </i>
    <i name="e_0_energy">   -334.45741182 </i>
   </energy>
  </scstep>
  <scstep>
   <time name="dav">   26.17   26.20</time>
   <time name="total">   26.77   26.80</time>
   <energy>
    <i name="e_fr_energy">   -334.46395193 </i>
    <i name="e_wo_entrp">   -334.45600206 </i>
    <i name="e_0_energy">   -334.46130197 </i>
   </energy>
  </scstep>
  <scstep>
   <time name="dav">   25.83   25.85</time>
   <time name="total">   26.42   26.45</time>
   <energy>
    <i name="e_fr_energy">   -334.46434030 </i>
    <i name="e_wo_entrp">   -334.45636017 </i>
    <i name="e_0_energy">   -334.46168025 </i>
   </energy>
  </scstep>
  <scstep>
   <time name="dav">   24.66   24.69</time>
   <time name="total">   25.26   25.30</time>
   <energy>
    <i name="e_fr_energy">   -334.46427237 </i>
    <i name="e_wo_entrp">   -334.45623798 </i>
    <i name="e_0_energy">   -334.46159424 </i>
   </energy>
  </scstep>
  <scstep>
   <time name="dav">   23.65   23.68</time>
   <time name="total">   24.25   24.28</time>
   <energy>
    <i name="e_fr_energy">   -334.46434423 </i>
    <i name="e_wo_entrp">   -334.45634549 </i>
    <i name="e_0_energy">   -334.46167799 </i>
   </energy>
  </scstep>
  <scstep>
   <time name="dav">   16.16   16.18</time>
   <time name="total">   16.21   16.23</time>
   <energy>
    <i name="alphaZ">   1370.22682018 </i>
    <i name="ewald"> -11840.43901570 </i>
    <i name="hartreedc">  -2988.28805779 </i>
    <i name="XCdc">   -859.49735649 </i>
    <i name="pawpsdc">  22287.78732308 </i>
    <i name="pawaedc"> -20766.12757801 </i>
    <i name="eentropy">     -0.00801156 </i>
    <i name="bandstr">   -654.54722463 </i>
    <i name="atom">  13116.42875384 </i>
    <i name="e_fr_energy">   -334.46434709 </i>
    <i name="e_wo_entrp">   -334.45633554 </i>
    <i name="e_0_energy">   -334.46167657 </i>
   </energy>
  </scstep>
  <structure>
   <crystal>
    <varray name="basis" >
     <v>      -3.16323685      -3.15583243      -3.16277195 </v>
     <v>       1.54583290       1.56229580      -7.85552392 </v>
     <v>       7.87147933      -7.87834020      -1.55601407 </v>
    </varray>
    <i name="volume">    468.41897527 </i>
    <varray name="rec_basis" >
     <v>      -0.13731178      -0.12687201      -0.05225274 </v>
     <v>       0.04271149       0.06365612      -0.10623422 </v>
     <v>       0.06347288      -0.06348590      -0.00013561 </v>
    </varray>
   </crystal>
   <varray name="positions" >
    <v>       0.96478118       0.93268229       0.39852104 </v>
    <v>       0.63211215       0.26619122       0.40094731 </v>
    <v>       0.49955966       0.00216551      -0.00096362 </v>
    <v>      -0.00099576       0.00070778       0.00078106 </v>
    <v>       0.09550420       0.20323358       0.79916887 </v>
    <v>       0.03601036       0.06711751       0.59869982 </v>
    <v>       0.90219264       0.79853520       0.20160246 </v>
    <v>       0.80304182       0.59559346       0.39986579 </v>
    <v>       0.73351537       0.46705671       0.19878527 </v>
    <v>       0.66625325       0.33773824      -0.00110726 </v>
    <v>       0.36966793       0.72879259       0.60173318 </v>
    <v>       0.13296486       0.27021759       0.39893332 </v>
    <v>       0.83181427       0.66439265       0.00256611 </v>
    <v>       0.93472010       0.86197607       0.79953541 </v>
    <v>       0.56618283       0.13412249       0.19813242 </v>
    <v>       0.40345536       0.79574422       0.19900623 </v>
    <v>       0.44004367       0.86203199       0.79754587 </v>
    <v>       0.30018396       0.60153061       0.40238506 </v>
    <v>       0.86006480       0.73442773       0.59806109 </v>
    <v>       0.46578875       0.93257719       0.40220751 </v>
    <v>       0.16850324       0.33691332      -0.00163840 </v>
    <v>       0.20018136       0.39873622       0.60147065 </v>
    <v>       0.06578576       0.13762783       0.20289517 </v>
    <v>       0.76319606       0.53011334       0.80022595 </v>
    <v>       0.69884642       0.40557282       0.60183727 </v>
    <v>       0.59815305       0.20395271       0.79832929 </v>
    <v>       0.53541198       0.06825051       0.60194128 </v>
    <v>       0.33544113       0.66061700      -0.00056077 </v>
    <v>       0.23095295       0.46804826       0.19909260 </v>
   </varray>
  </structure>
  <varray name="forces" >
   <v>      -0.02596177       0.21734299       0.05681223 </v>
   <v>       0.04649172      -0.01057569       0.04871355 </v>
   <v>      -0.12903436       0.23702511      -0.08223699 </v>
   <v>      -0.00600069       0.00193884      -0.11640565 </v>
   <v>      -0.00143397       0.08381520      -0.04586007 </v>
   <v>      -0.18237865      -0.04003100      -0.11461580 </v>
   <v>       0.03038700      -0.13342663      -0.07171867 </v>
   <v>      -0.08407224      -0.17690313       0.10461904 </v>
   <v>      -0.04742422      -0.05346348       0.13424616 </v>
   <v>      -0.03928685       0.18266610      -0.12115253 </v>
   <v>       0.13687220      -0.30678803       0.40453450 </v>
   <v>       0.05058308       0.07423809      -0.16355406 </v>
   <v>       0.13004639      -0.10850093       0.00791869 </v>
   <v>      -0.55998147      -0.43762383       0.60092607 </v>
   <v>      -0.09886261       0.15691743       0.03180194 </v>
   <v>      -0.10726383      -0.11763702      -0.02346678 </v>
   <v>      -0.15078150      -0.03395942       0.22669713 </v>
   <v>       0.28302258      -0.32666921      -0.12195661 </v>
   <v>      -0.00057724       0.45442293       0.16896228 </v>
   <v>       0.18553880      -0.18930705       0.03268670 </v>
   <v>      -0.39522830       0.28214236      -0.45001057 </v>
   <v>       0.29951874      -0.26238504      -0.14663645 </v>
   <v>       0.37187797      -0.11119429      -0.46228519 </v>
   <v>       0.06617903      -0.00516201       0.25327857 </v>
   <v>       0.22566166       0.04304895      -0.22316896 </v>
   <v>       0.22587872       0.43156477      -0.28601272 </v>
   <v>       0.06953510      -0.12978332      -0.22652405 </v>
   <v>      -0.30381323       0.22485022       0.59948869 </v>
   <v>       0.01050795       0.05343708      -0.01508047 </v>
  </varray>
  <varray name="stress" >
   <v>      61.79633323       0.07980898       3.20613994 </v>
   <v>       0.07980904      61.96684128       1.74653009 </v>
   <v>       3.20613980       1.74653010      60.66630494 </v>
  </varray>
  <energy>
   <i name="e_fr_energy">   -334.46434709 </i>
   <i name="e_wo_entrp">   -334.46167657 </i>
   <i name="e_0_energy">     -0.00801156 </i>
  </energy>
  <time name="totalsc">  372.42  372.90</time>
 </calculation>
 <calculation>
  <scstep>
   <time name="dav">   19.24   19.26</time>
   <time name="total">   19.84   19.86</time>
   <energy>
    <i name="alphaZ">   1356.02212261 </i>
    <i name="ewald"> -11783.74855942 </i>
    <i name="hartreedc">  -2992.93919166 </i>
    <i name="XCdc">   -860.77406461 </i>
    <i name="pawpsdc">  22287.38754050 </i>
    <i name="pawaedc"> -20765.71138752 </i>
    <i name="eentropy">     -0.00848560 </i>
    <i name="bandstr">   -691.24369389 </i>
    <i name="atom">  13116.42875384 </i>
    <i name="e_fr_energy">   -334.58696575 </i>
    <i name="e_wo_entrp">   -334.57848015 </i>
    <i name="e_0_energy">   -334.58413721 </i>
   </energy>
  </scstep>
  <scstep>
   <time name="dav">   26.15   26.18</time>
   <time name="total">   26.75   26.78</time>
   <energy>
    <i name="e_fr_energy">   -334.58063867 </i>
    <i name="e_wo_entrp">   -334.57327197 </i>
    <i name="e_0_energy">   -334.57818311 </i>
   </energy>
  </scstep>
  <scstep>
   <time name="dav">   25.61   25.64</time>
   <time name="total">   26.22   26.26</time>
   <energy>
    <i name="e_fr_energy">   -334.57870542 </i>
    <i name="e_wo_entrp">   -334.56984744 </i>
    <i name="e_0_energy">   -334.57575276 </i>
   </energy>
  </scstep>
  <scstep>
   <time name="dav">   25.66   25.69</time>
   <time name="total">   26.26   26.29</time>
   <energy>
    <i name="e_fr_energy">   -334.53023737 </i>
    <i name="e_wo_entrp">   -334.52409345 </i>
    <i name="e_0_energy">   -334.52818940 </i>
   </energy>
  </scstep>
  <scstep>
   <time name="dav">   24.93   24.96</time>
   <time name="total">   25.53   25.56</time>
   <energy>
    <i name="e_fr_energy">   -334.51916272 </i>
    <i name="e_wo_entrp">   -334.51072929 </i>
    <i name="e_0_energy">   -334.51635157 </i>
   </energy>
  </scstep>
  <scstep>
   <time name="dav">   25.97   26.00</time>
   <time name="total">   26.57   26.61</time>
   <energy>
    <i name="e_fr_energy">   -334.51556843 </i>
    <i name="e_wo_entrp">   -334.50870722 </i>
    <i name="e_0_energy">   -334.51328136 </i>
   </energy>
  </scstep>
  <scstep>
   <time name="dav">   25.25   25.28</time>
   <time name="total">   25.85   25.88</time>
   <energy>
    <i name="e_fr_energy">   -334.51558690 </i>
    <i name="e_wo_entrp">   -334.50797648 </i>
    <i name="e_0_energy">   -334.51305009 </i>
   </energy>
  </scstep>
  <scstep>
   <time name="dav">   23.15   23.18</time>
   <time name="total">   23.75   23.78</time>
   <energy>
    <i name="e_fr_energy">   -334.51563475 </i>
    <i name="e_wo_entrp">   -334.50844244 </i>
    <i name="e_0_energy">   -334.51323731 </i>
   </energy>
  </scstep>
  <scstep>
   <time name="dav">   22.82   22.85</time>
   <time name="total">   23.44   23.48</time>
   <energy>
    <i name="e_fr_energy">   -334.51570032 </i>
    <i name="e_wo_entrp">   -334.50833844 </i>
    <i name="e_0_energy">   -334.51324636 </i>
   </energy>
  </scstep>
  <scstep>
   <time name="dav">   23.82   23.85</time>
   <time name="total">   24.42   24.45</time>
   <energy>
    <i name="e_fr_energy">   -334.51591927 </i>
    <i name="e_wo_entrp">   -334.50853640 </i>
    <i name="e_0_energy">   -334.51345831 </i>
   </energy>
  </scstep>
  <scstep>
   <time name="dav">   22.97   23.00</time>
   <time name="total">   23.58   23.60</time>
   <energy>
    <i name="e_fr_energy">   -334.51592328 </i>
    <i name="e_wo_entrp">   -334.50855434 </i>
    <i name="e_0_energy">   -334.51346696 </i>
   </energy>
  </scstep>
  <scstep>
   <time name="dav">   15.55   15.57</time>
   <time name="total">   15.60   15.63</time>
   <energy>
    <i name="alphaZ">   1356.02212261 </i>
    <i name="ewald"> -11783.74855942 </i>
    <i name="hartreedc">  -3011.90294938 </i>
    <i name="XCdc">   -860.24152424 </i>
    <i name="pawpsdc">  21927.48961566 </i>
    <i name="pawaedc"> -20405.39527746 </i>
    <i name="eentropy">     -0.00735446 </i>
    <i name="bandstr">   -673.16073316 </i>
    <i name="atom">  13116.42875384 </i>
    <i name="e_fr_energy">   -334.51590601 </i>
    <i name="e_wo_entrp">   -334.50855154 </i>
    <i name="e_0_energy">   -334.51345452 </i>
   </energy>
  </scstep>
  <structure>
   <crystal>
    <varray name="basis" >
     <v>      -3.17039773      -3.16497448      -3.17005722 </v>
     <v>       1.55898830       1.57104630      -7.88749154 </v>
     <v>       7.89917783      -7.90420298      -1.56644534 </v>
    </varray>
    <i name="volume">    473.32579041 </i>
    <varray name="rec_basis" >
     <v>      -0.13691477      -0.12647236      -0.05225267 </v>
     <v>       0.04246339       0.06339629      -0.10576259 </v>
     <v>       0.06326301      -0.06327263      -0.00009863 </v>
    </varray>
   </crystal>
   <varray name="positions" >
    <v>       0.96528965       0.93286017       0.39892222 </v>
    <v>       0.63244136       0.26631983       0.40069091 </v>
    <v>       0.49968131       0.00157689      -0.00070307 </v>
    <v>      -0.00072596       0.00051459       0.00056934 </v>
    <v>       0.09672251       0.20235381       0.79939373 </v>
    <v>       0.03528792       0.06699599       0.59905165 </v>
    <v>       0.90159857       0.79893296       0.20116838 </v>
    <v>       0.80221477       0.59679283       0.39990302 </v>
    <v>       0.73346671       0.46695139       0.19911429 </v>
    <v>       0.66637042       0.33654042      -0.00080843 </v>
    <v>       0.36885163       0.73002726       0.60126446 </v>
    <v>       0.13306883       0.26925210       0.39922140 </v>
    <v>       0.83222166       0.66500954       0.00187162 </v>
    <v>       0.93433971       0.86325275       0.79966245 </v>
    <v>       0.56631454       0.13390893       0.19863831 </v>
    <v>       0.40251683       0.79690317       0.19927628 </v>
    <v>       0.43822556       0.86329534       0.79821132 </v>
    <v>       0.30013613       0.60111265       0.40173833 </v>
    <v>       0.86184930       0.73413046       0.59858700 </v>
    <v>       0.46602487       0.93278140       0.40160967 </v>
    <v>       0.16801171       0.33594054      -0.00119570 </v>
    <v>       0.20013077       0.39907914       0.60107249 </v>
    <v>       0.06602897       0.13645742       0.20210957 </v>
    <v>       0.76412941       0.53098890       0.80016608 </v>
    <v>       0.69916489       0.40405525       0.60133799 </v>
    <v>       0.59865686       0.20287812       0.79878111 </v>
    <v>       0.53485249       0.06781857       0.60141455 </v>
    <v>       0.33486431       0.66226359      -0.00040737 </v>
    <v>       0.23159760       0.46767267       0.19933839 </v>
   </varray>
  </structure>
  <varray name="forces" >
   <v>      -0.06366038       0.26045307       0.12628332 </v>
   <v>       0.10058965      -0.03250576       0.07325643 </v>
   <v>      -0.11258237       0.24493280      -0.14363316 </v>
   <v>       0.05741792      -0.00540970      -0.10686926 </v>
   <v>       0.08307038       0.22328484      -0.09437849 </v>
   <v>      -0.23776539      -0.01358577      -0.14326209 </v>
   <v>       0.03857819      -0.23010870      -0.03577755 </v>
   <v>      -0.16671426      -0.23160535       0.23317709 </v>
   <v>      -0.09575750       0.02694992       0.07968371 </v>
   <v>      -0.02698781       0.24700981      -0.29313607 </v>
   <v>       0.07265707      -0.41736125       0.44264869 </v>
   <v>       0.02976548       0.15538153      -0.27228904 </v>
   <v>       0.23452898      -0.19335478       0.11928409 </v>
   <v>      -0.49863452      -0.36098767       0.62819761 </v>
   <v>      -0.15302268       0.19542552       0.01244243 </v>
   <v>      -0.22881005      -0.13899711       0.13174050 </v>
   <v>      -0.40281508      -0.07993571       0.27681743 </v>
   <v>       0.32427594      -0.33030520      -0.18717171 </v>
   <v>       0.04641439       0.55608083       0.21574050 </v>
   <v>       0.24906838      -0.23500867       0.05898736 </v>
   <v>      -0.35650597       0.27438017      -0.51859842 </v>
   <v>       0.26688320      -0.27458263      -0.05998383 </v>
   <v>       0.46594029      -0.16406627      -0.55240440 </v>
   <v>       0.08985864       0.02656145       0.41583087 </v>
   <v>       0.34035370       0.01762610      -0.43965626 </v>
   <v>       0.15150813       0.46729426      -0.34801745 </v>
   <v>       0.11830151      -0.21717165      -0.29390398 </v>
   <v>      -0.34983912       0.08119859       0.69753172 </v>
   <v>       0.02388328       0.14840736      -0.02254004 </v>
  </varray>
  <varray name="stress" >
   <v>      37.17873925       0.11141858       4.56507955 </v>
   <v>       0.11141867      37.34548518       2.37222208 </v>
   <v>       4.56507961       2.37222212      35.40519005 </v>
  </varray>
  <energy>
   <i name="e_fr_energy">   -334.51590601 </i>
   <i name="e_wo_entrp">   -334.51345452 </i>
   <i name="e_0_energy">     -0.00735446 </i>
  </energy>
  <time name="totalsc">  305.60  306.00</time>
 </calculation>
 <calculation>
  <scstep>
   <time name="dav">   18.25   18.27</time>
   <time name="total">   18.85   18.88</time>
   <energy>
    <i name="alphaZ">   1341.30395543 </i>
    <i name="ewald"> -11788.22414827 </i>
    <i name="hartreedc">  -2955.55542531 </i>
    <i name="XCdc">   -861.80255069 </i>
    <i name="pawpsdc">  21927.93021589 </i>
    <i name="pawaedc"> -20405.91134999 </i>
    <i name="eentropy">     -0.00393109 </i>
    <i name="bandstr">   -708.95662044 </i>
    <i name="atom">  13116.42875384 </i>
    <i name="e_fr_energy">   -334.79110062 </i>
    <i name="e_wo_entrp">   -334.78716953 </i>
    <i name="e_0_energy">   -334.78979026 </i>
   </energy>
  </scstep>
  <scstep>
   <time name="dav">   24.33   24.36</time>
   <time name="total">   24.93   24.96</time>
   <energy>
    <i name="e_fr_energy">   -334.94058128 </i>
    <i name="e_wo_entrp">   -334.93004599 </i>
    <i name="e_0_energy">   -334.93706952 </i>
   </energy>
  </scstep>
  <scstep>
   <time name="dav">   25.11   25.13</time>
   <time name="total">   25.72   25.75</time>
   <energy>
    <i name="e_fr_energy">   -334.92531065 </i>
    <i name="e_wo_entrp">   -334.92335218 </i>
    <i name="e_0_energy">   -334.92465783 </i>
   </energy>
  </scstep>
  <scstep>
   <time name="dav">   25.24   25.26</time>
   <time name="total">   25.84   25.87</time>
   <energy>
    <i name="e_fr_energy">   -334.85082460 </i>
    <i name="e_wo_entrp">   -334.84428702 </i>
    <i name="e_0_energy">   -334.84864541 </i>
   </energy>
  </scstep>
  <scstep>
   <time name="dav">   25.04   25.07</time>
   <time name="total">   25.65   25.67</time>
   <energy>
    <i name="e_fr_energy">   -334.84265671 </i>
    <i name="e_wo_entrp">   -334.83748199 </i>
    <i name="e_0_energy">   -334.84093180 </i>
   </energy>
  </scstep>
  <scstep>
   <time name="dav">   25.92   25.95</time>
   <time name="total">   26.52   26.56</time>
   <energy>
    <i name="e_fr_energy">   -334.83773191 </i>
    <i name="e_wo_entrp">   -334.83089056 </i>
    <i name="e_0_energy">   -334.83545146 </i>
   </energy>
  </scstep>
  <scstep>
   <time name="dav">   27.56   27.59</time>
   <time name="total">   28.16   28.19</time>
   <energy>
    <i name="e_fr_energy">   -334.83121196 </i>
    <i name="e_wo_entrp">   -334.82539661 </i>
    <i name="e_0_energy">   -334.82927351 </i>
   </energy>
  </scstep>
  <scstep>
   <time name="dav">   25.53   25.55</time>
   <time name="total">   26.13   26.15</time>
   <energy>
    <i name="e_fr_energy">   -334.83057727 </i>
    <i name="e_wo_entrp">   -334.82459195 </i>
    <i name="e_0_energy">   -334.82858217 </i>
   </energy>
  </scstep>
  <scstep>
   <time name="dav">   23.06   23.09</time>
   <time name="total">   23.67   23.71</time>
   <energy>
    <i name="e_fr_energy">   -334.83047223 </i>
    <i name="e_wo_entrp">   -334.82455321 </i>
    <i name="e_0_energy">   -334.82849922 </i>
   </energy>
  </scstep>
  <scstep>
   <time name="dav">   22.58   22.61</time>
   <time name="total">   23.18   23.21</time>
   <energy>
    <i name="e_fr_energy">   -334.83064632 </i>
    <i name="e_wo_entrp">   -334.82486251 </i>
    <i name="e_0_energy">   -334.82871838 </i>
   </energy>
  </scstep>
  <scstep>
   <time name="dav">   22.72   22.75</time>
   <time name="total">   23.32   23.35</time>
   <energy>
    <i name="e_fr_energy">   -334.83081188 </i>
    <i name="e_wo_entrp">   -334.82481869 </i>
    <i name="e_0_energy">   -334.82881415 </i>
   </energy>
  </scstep>
  <scstep>
   <time name="dav">   22.00   22.02</time>
   <time name="total">   22.60   22.63</time>
   <energy>
    <i name="e_fr_energy">   -334.83063437 </i>
    <i name="e_wo_entrp">   -334.82477480 </i>
    <i name="e_0_energy">   -334.82868118 </i>
   </energy>
  </scstep>
  <scstep>
   <time name="dav">   13.61   13.63</time>
   <time name="total">   13.65   13.66</time>
   <energy>
    <i name="alphaZ">   1341.30395543 </i>
    <i name="ewald"> -11788.22414827 </i>
    <i name="hartreedc">  -2972.14742156 </i>
    <i name="XCdc">   -861.22451696 </i>
    <i name="pawpsdc">  21531.10395487 </i>
    <i name="pawaedc"> -20009.56884079 </i>
    <i name="eentropy">     -0.00585610 </i>
    <i name="bandstr">   -692.49649545 </i>
    <i name="atom">  13116.42875384 </i>
    <i name="e_fr_energy">   -334.83061499 </i>
    <i name="e_wo_entrp">   -334.82475889 </i>
    <i name="e_0_energy">   -334.82866296 </i>
   </energy>
  </scstep>
  <structure>
   <crystal>
    <varray name="basis" >
     <v>      -3.19344228      -3.18259990      -3.19328709 </v>
     <v>       1.54105584       1.56602013      -7.90226988 </v>
     <v>       7.92638624      -7.93808776      -1.55782949 </v>
    </varray>
    <i name="volume">    478.51960803 </i>
    <varray name="rec_basis" >
     <v>      -0.13618774      -0.12587936      -0.05150451 </v>
     <v>       0.04261193       0.06329117      -0.10569335 </v>
     <v>       0.06300790      -0.06302036      -0.00020152 </v>
    </varray>
   </crystal>
   <varray name="positions" >
    <v>       0.96352457       0.93254489       0.39763257 </v>
    <v>       0.63147178       0.26593410       0.40138947 </v>
    <v>       0.49924216       0.00335682      -0.00178969 </v>
    <v>      -0.00126638       0.00122926       0.00106665 </v>
    <v>       0.09354582       0.20471623       0.79874127 </v>
    <v>       0.03774096       0.06733287       0.59802275 </v>
    <v>       0.90338285       0.79795402       0.20242481 </v>
    <v>       0.80480903       0.59333909       0.39994421 </v>
    <v>       0.73370520       0.46685689       0.19829905 </v>
    <v>       0.66582920       0.33996755      -0.00182403 </v>
    <v>       0.37088402       0.72587110       0.60295914 </v>
    <v>       0.13262457       0.27210095       0.39847724 </v>
    <v>       0.83109587       0.66347225       0.00387823 </v>
    <v>       0.93721209       0.85793976       0.79919378 </v>
    <v>       0.56595358       0.13442564       0.19711426 </v>
    <v>       0.40537303       0.79389831       0.19862594 </v>
    <v>       0.44294064       0.85958999       0.79643595 </v>
    <v>       0.30041712       0.60222037       0.40404129 </v>
    <v>       0.85619845       0.73506451       0.59675246 </v>
    <v>       0.46538848       0.93212137       0.40353314 </v>
    <v>       0.17002562       0.33926377      -0.00308108 </v>
    <v>       0.20025878       0.39845398       0.60272520 </v>
    <v>       0.06520264       0.14043001       0.20462766 </v>
    <v>       0.76140225       0.52834421       0.80038338 </v>
    <v>       0.69788757       0.40851411       0.60280652 </v>
    <v>       0.59607707       0.20681105       0.79741270 </v>
    <v>       0.53659990       0.06921258       0.60295537 </v>
    <v>       0.33595722       0.65699293      -0.00142212 </v>
    <v>       0.22984923       0.46870806       0.19867388 </v>
   </varray>
  </structure>
  <varray name="forces" >
   <v>      -0.01503899       0.13737192      -0.02611635 </v>
   <v>       0.00616043       0.00599468      -0.00573371 </v>
   <v>      -0.21466950       0.17599864       0.01720808 </v>
   <v>      -0.08751602       0.01879514      -0.01494538 </v>
   <v>      -0.08864078      -0.08609655       0.17064381 </v>
   <v>      -0.04572379      -0.06817827      -0.05688152 </v>
   <v>      -0.02082398       0.01271254      -0.08327308 </v>
   <v>      -0.01460118      -0.04875980      -0.03317375 </v>
   <v>       0.08390352      -0.10063614       0.11768721 </v>
   <v>      -0.06901774       0.03477324       0.11375472 </v>
   <v>       0.15664272      -0.03975270       0.22135043 </v>
   <v>       0.08229219      -0.03037654      -0.05212122 </v>
   <v>       0.12909286       0.08294975      -0.16588781 </v>
   <v>      -0.37717851      -0.37473696       0.37984242 </v>
   <v>      -0.08044015       0.07051146       0.01784519 </v>
   <v>      -0.00001048      -0.01769138      -0.10318735 </v>
   <v>       0.13364496      -0.03289783       0.03703836 </v>
   <v>       0.10631547      -0.19621900      -0.06258143 </v>
   <v>      -0.01854631       0.32933110       0.07488284 </v>
   <v>       0.11383836      -0.11911155      -0.00594823 </v>
   <v>      -0.32975429       0.20044791      -0.26256397 </v>
   <v>       0.21531017      -0.17541281      -0.13680336 </v>
   <v>       0.17951070      -0.02179753      -0.27596776 </v>
   <v>       0.07948622      -0.05007546       0.00091967 </v>
   <v>      -0.00441515       0.01783103       0.12869706 </v>
   <v>       0.09263258       0.19577040      -0.02742839 </v>
   <v>       0.04847749      -0.06793449      -0.13724379 </v>
   <v>      -0.07024182       0.23775628       0.24253044 </v>
   <v>       0.00931102      -0.09056709      -0.07254314 </v>
  </varray>
  <varray name="stress" >
   <v>      12.21236444       0.43955650       0.28500527 </v>
   <v>       0.43955656      11.92914838       1.16667377 </v>
   <v>       0.28500529       1.16667368      12.25113232 </v>
  </varray>
  <energy>
   <i name="e_fr_energy">   -334.83061499 </i>
   <i name="e_wo_entrp">   -334.82866296 </i>
   <i name="e_0_energy">     -0.00585610 </i>
  </energy>
  <time name="totalsc">  325.92  326.32</time>
 </calculation>
 <calculation>
  <scstep>
   <time name="dav">   19.04   19.07</time>
   <time name="total">   19.67   19.70</time>
   <energy>
    <i name="alphaZ">   1335.26929235 </i>
    <i name="ewald"> -11788.44656850 </i>
    <i name="hartreedc">  -2950.16530675 </i>
    <i name="XCdc">   -861.86853465 </i>
    <i name="pawpsdc">  21531.33351378 </i>
    <i name="pawaedc"> -20009.81580467 </i>
    <i name="eentropy">     -0.00510796 </i>
    <i name="bandstr">   -707.58338550 </i>
    <i name="atom">  13116.42875384 </i>
    <i name="e_fr_energy">   -334.85314808 </i>
    <i name="e_wo_entrp">   -334.84804012 </i>
    <i name="e_0_energy">   -334.85144542 </i>
   </energy>
  </scstep>
  <scstep>
   <time name="dav">   24.69   24.72</time>
   <time name="total">   25.30   25.33</time>
   <energy>
    <i name="e_fr_energy">   -334.87790340 </i>
    <i name="e_wo_entrp">   -334.87047164 </i>
    <i name="e_0_energy">   -334.87542615 </i>
   </energy>
  </scstep>
  <scstep>
   <time name="dav">   25.52   25.55</time>
   <time name="total">   26.13   26.16</time>
   <energy>
    <i name="e_fr_energy">   -334.87330841 </i>
    <i name="e_wo_entrp">   -334.86916584 </i>
    <i name="e_0_energy">   -334.87192755 </i>
   </energy>
  </scstep>
  <scstep>
   <time name="dav">   25.81   25.84</time>
   <time name="total">   26.41   26.44</time>
   <energy>
    <i name="e_fr_energy">   -334.86210094 </i>
    <i name="e_wo_entrp">   -334.85598717 </i>
    <i name="e_0_energy">   -334.86006302 </i>
   </energy>
  </scstep>
  <scstep>
   <time name="dav">   25.59   25.61</time>
   <time name="total">   26.20   26.24</time>
   <energy>
    <i name="e_fr_energy">   -334.86086758 </i>
    <i name="e_wo_entrp">   -334.85548230 </i>
    <i name="e_0_energy">   -334.85907249 </i>
   </energy>
  </scstep>
  <scstep>
   <time name="dav">   26.00   26.03</time>
   <time name="total">   26.84   26.87</time>
   <energy>
    <i name="e_fr_energy">   -334.85999286 </i>
    <i name="e_wo_entrp">   -334.85389702 </i>
    <i name="e_0_energy">   -334.85796091 </i>
   </energy>
  </scstep>
  <scstep>
   <time name="dav">   25.88   25.91</time>
   <time name="total">   26.49   26.52</time>
   <energy>
    <i name="e_fr_energy">   -334.85900636 </i>
    <i name="e_wo_entrp">   -334.85337647 </i>
    <i name="e_0_energy">   -334.85712973 </i>
   </energy>
  </scstep>
  <scstep>
   <time name="dav">   23.18   23.20</time>
   <time name="total">   23.79   23.82</time>
   <energy>
    <i name="e_fr_energy">   -334.85891525 </i>
    <i name="e_wo_entrp">   -334.85317421 </i>
    <i name="e_0_energy">   -334.85700157 </i>
   </energy>
  </scstep>
  <scstep>
   <time name="dav">   20.80   20.82</time>
   <time name="total">   20.84   20.86</time>
   <energy>
    <i name="alphaZ">   1335.26929235 </i>
    <i name="ewald"> -11788.44656850 </i>
    <i name="hartreedc">  -2957.54491615 </i>
    <i name="XCdc">   -861.61782252 </i>
    <i name="pawpsdc">  21386.66893014 </i>
    <i name="pawaedc"> -19864.99831851 </i>
    <i name="eentropy">     -0.00569199 </i>
    <i name="bandstr">   -700.61255827 </i>
    <i name="atom">  13116.42875384 </i>
    <i name="e_fr_energy">   -334.85889962 </i>
    <i name="e_wo_entrp">   -334.85320763 </i>
    <i name="e_0_energy">   -334.85700229 </i>
   </energy>
  </scstep>
  <structure>
   <crystal>
    <varray name="basis" >
     <v>      -3.20300365      -3.18991284      -3.20292536 </v>
     <v>       1.53361551       1.56393473      -7.90840154 </v>
     <v>       7.93767523      -7.95214683      -1.55425471 </v>
    </varray>
    <i name="volume">    480.68224640 </i>
    <varray name="rec_basis" >
     <v>      -0.13588919      -0.12563537      -0.05119711 </v>
     <v>       0.04267309       0.06324774      -0.10566491 </v>
     <v>       0.06290284      -0.06291619      -0.00024380 </v>
    </varray>
   </crystal>
   <varray name="positions" >
    <v>       0.96279759       0.93241339       0.39709919 </v>
    <v>       0.63107271       0.26577483       0.40167793 </v>
    <v>       0.49905836       0.00409418      -0.00223826 </v>
    <v>      -0.00149029       0.00152611       0.00127236 </v>
    <v>       0.09223270       0.20569591       0.79847195 </v>
    <v>       0.03875159       0.06747140       0.59759795 </v>
    <v>       0.90411981       0.79754877       0.20294402 </v>
    <v>       0.80588385       0.59190644       0.39996043 </v>
    <v>       0.73380368       0.46681702       0.19796210 </v>
    <v>       0.66560071       0.34138809      -0.00224271 </v>
    <v>       0.37172829       0.72414853       0.60365846 </v>
    <v>       0.13243695       0.27328188       0.39817057 </v>
    <v>       0.83063418       0.66283647       0.00470691 </v>
    <v>       0.93840453       0.85573562       0.79899869 </v>
    <v>       0.56580404       0.13463878       0.19648448 </v>
    <v>       0.40655514       0.79265124       0.19835654 </v>
    <v>       0.44489013       0.85805125       0.79570158 </v>
    <v>       0.30053107       0.60268152       0.40499354 </v>
    <v>       0.85386784       0.73545126       0.59599375 </v>
    <v>       0.46512713       0.93184926       0.40432782 </v>
    <v>       0.17085054       0.34064016      -0.00385893 </v>
    <v>       0.20031245       0.39819600       0.60340810 </v>
    <v>       0.06485559       0.14207958       0.20566964 </v>
    <v>       0.76028234       0.52724802       0.80047193 </v>
    <v>       0.69735390       0.41036458       0.60341479 </v>
    <v>       0.59500752       0.20844137       0.79684808 </v>
    <v>       0.53731787       0.06979164       0.60359292 </v>
    <v>       0.33641615       0.65480618      -0.00184315 </v>
    <v>       0.22912695       0.46913719       0.19839933 </v>
   </varray>
  </structure>
  <varray name="forces" >
   <v>       0.01581827       0.07680331      -0.08954617 </v>
   <v>      -0.03626337       0.02250767      -0.03961296 </v>
   <v>      -0.25815723       0.14966672       0.08078428 </v>
   <v>      -0.14190068       0.03293884       0.02067050 </v>
   <v>      -0.15532557      -0.21574920       0.27804551 </v>
   <v>       0.03271525      -0.09031478      -0.02038809 </v>
   <v>      -0.04164860       0.11011476      -0.09632280 </v>
   <v>       0.05000035       0.03326321      -0.15585751 </v>
   <v>       0.16072577      -0.15366684       0.12447036 </v>
   <v>      -0.08765555      -0.05854361       0.28873676 </v>
   <v>       0.19401041       0.12444646       0.11013914 </v>
   <v>       0.10060349      -0.11719989       0.03722411 </v>
   <v>       0.07487851       0.18274622      -0.27616768 </v>
   <v>      -0.35443828      -0.37282109       0.30793818 </v>
   <v>      -0.03687684       0.01380982       0.01840679 </v>
   <v>       0.07804810       0.02952952      -0.19627568 </v>
   <v>       0.35047370       0.01495857      -0.05890035 </v>
   <v>       0.02017769      -0.13763697       0.01862748 </v>
   <v>      -0.04405800       0.23236963       0.01129059 </v>
   <v>       0.05455475      -0.07399167      -0.03525291 </v>
   <v>      -0.31985677       0.17195842      -0.17014198 </v>
   <v>       0.20661614      -0.13660629      -0.16824615 </v>
   <v>       0.06994646       0.03805956      -0.17292263 </v>
   <v>       0.08059694      -0.08316395      -0.18315606 </v>
   <v>      -0.15293203       0.01480436       0.37462860 </v>
   <v>       0.07871095       0.08825468       0.09881738 </v>
   <v>       0.01198977      -0.00727462      -0.06866446 </v>
   <v>       0.04826402       0.29594838       0.05353646 </v>
   <v>       0.00098235      -0.18521122      -0.09186072 </v>
  </varray>
  <varray name="stress" >
   <v>       3.44170849       0.78039107      -1.67287755 </v>
   <v>       0.78039110       2.96186734       0.63825948 </v>
   <v>      -1.67287772       0.63825938       4.30555879 </v>
  </varray>
  <energy>
   <i name="e_fr_energy">   -334.85889962 </i>
   <i name="e_wo_entrp">   -334.85700229 </i>
   <i name="e_0_energy">     -0.00569199 </i>
  </energy>
  <time name="totalsc">  239.60  239.88</time>
 </calculation>
 <calculation>
  <scstep>
   <time name="dav">   18.22   18.24</time>
   <time name="total">   18.82   18.85</time>
   <energy>
    <i name="alphaZ">   1330.54748457 </i>
    <i name="ewald"> -11769.59453342 </i>
    <i name="hartreedc">  -2958.90579107 </i>
    <i name="XCdc">   -862.06392694 </i>
    <i name="pawpsdc">  21384.39664792 </i>
    <i name="pawaedc"> -19862.92515409 </i>
    <i name="eentropy">     -0.00432646 </i>
    <i name="bandstr">   -712.77901404 </i>
    <i name="atom">  13116.42875384 </i>
    <i name="e_fr_energy">   -334.89985969 </i>
    <i name="e_wo_entrp">   -334.89553324 </i>
    <i name="e_0_energy">   -334.89841754 </i>
   </energy>
  </scstep>
  <scstep>
   <time name="dav">   24.52   24.55</time>
   <time name="total">   25.13   25.15</time>
   <energy>
    <i name="e_fr_energy">   -334.91711299 </i>
    <i name="e_wo_entrp">   -334.91154579 </i>
    <i name="e_0_energy">   -334.91525725 </i>
   </energy>
  </scstep>
  <scstep>
   <time name="dav">   24.95   24.98</time>
   <time name="total">   25.56   25.59</time>
   <energy>
    <i name="e_fr_energy">   -334.91487095 </i>
    <i name="e_wo_entrp">   -334.91163275 </i>
    <i name="e_0_energy">   -334.91379155 </i>
   </energy>
  </scstep>
  <scstep>
   <time name="dav">   25.54   25.61</time>
   <time name="total">   26.15   26.23</time>
   <energy>
    <i name="e_fr_energy">   -334.90895098 </i>
    <i name="e_wo_entrp">   -334.90395952 </i>
    <i name="e_0_energy">   -334.90728716 </i>
   </energy>
  </scstep>
  <scstep>
   <time name="dav">   24.79   24.84</time>
   <time name="total">   25.39   25.45</time>
   <energy>
    <i name="e_fr_energy">   -334.90686632 </i>
    <i name="e_wo_entrp">   -334.90245695 </i>
    <i name="e_0_energy">   -334.90539653 </i>
   </energy>
  </scstep>
  <scstep>
   <time name="dav">   25.56   25.62</time>
   <time name="total">   26.17   26.23</time>
   <energy>
    <i name="e_fr_energy">   -334.90580445 </i>
    <i name="e_wo_entrp">   -334.90134578 </i>
    <i name="e_0_energy">   -334.90431823 </i>
   </energy>
  </scstep>
  <scstep>
   <time name="dav">   23.82   23.88</time>
   <time name="total">   24.43   24.50</time>
   <energy>
    <i name="e_fr_energy">   -334.90576452 </i>
    <i name="e_wo_entrp">   -334.90135620 </i>
    <i name="e_0_energy">   -334.90429508 </i>
   </energy>
  </scstep>
  <scstep>
   <time name="dav">   18.59   18.63</time>
   <time name="total">   18.62   18.67</time>
   <energy>
    <i name="alphaZ">   1330.54748457 </i>
    <i name="ewald"> -11769.59453342 </i>
    <i name="hartreedc">  -2965.80388565 </i>
    <i name="XCdc">   -861.85616741 </i>
    <i name="pawpsdc">  21258.00501417 </i>
    <i name="pawaedc"> -19736.25620413 </i>
    <i name="eentropy">     -0.00451752 </i>
    <i name="bandstr">   -706.37168667 </i>
    <i name="atom">  13116.42875384 </i>
    <i name="e_fr_energy">   -334.90574221 </i>
    <i name="e_wo_entrp">   -334.90122469 </i>
    <i name="e_0_energy">   -334.90423637 </i>
   </energy>
  </scstep>
  <structure>
   <crystal>
    <varray name="basis" >
     <v>      -3.20615389      -3.19464922      -3.20677528 </v>
     <v>       1.53899193       1.56401588      -7.91954374 </v>
     <v>       7.94562022      -7.95868275      -1.56151103 </v>
    </varray>
    <i name="volume">    482.38807742 </i>
    <varray name="rec_basis" >
     <v>      -0.13572343      -0.12546441      -0.05115264 </v>
     <v>       0.04256578       0.06319863      -0.10551718 </v>
     <v>       0.06284486      -0.06286739      -0.00020302 </v>
    </varray>
   </crystal>
   <varray name="positions" >
    <v>       0.96253558       0.93283890       0.39694977 </v>
    <v>       0.63116359       0.26588114       0.40159185 </v>
    <v>       0.49939726       0.00385507      -0.00301581 </v>
[...]
       <r>    4.6530    1.0000 </r>
       <r>    4.6665    1.0000 </r>
       <r>    4.7475    1.0000 </r>
       <r>    4.8019    1.0000 </r>
       <r>    4.8449    1.0000 </r>
       <r>    4.9162    1.0000 </r>
       <r>    4.9682    1.0000 </r>
       <r>    5.0219    1.0000 </r>
       <r>    5.0587    1.0000 </r>
       <r>    5.1466    1.0000 </r>
       <r>    5.2036    1.0000 </r>
       <r>    5.2195    1.0000 </r>
       <r>    5.2972    1.0000 </r>
       <r>    5.4081    1.0000 </r>
       <r>    5.4304    1.0000 </r>
       <r>    5.4941    1.0000 </r>
       <r>    5.5427    1.0000 </r>
       <r>    5.5884    1.0000 </r>
       <r>    5.6518    1.0000 </r>
       <r>    5.6984    1.0000 </r>
       <r>    5.7826    1.0000 </r>
       <r>    5.8307    1.0000 </r>
       <r>    5.8842    1.0000 </r>
       <r>    5.9561    1.0000 </r>
       <r>    6.0021    1.0000 </r>
       <r>    6.0427    1.0000 </r>
       <r>    6.1130    1.0000 </r>
       <r>    6.1705    1.0000 </r>
       <r>    6.1879    1.0000 </r>
       <r>    6.2253    1.0000 </r>
       <r>    6.2682    1.0001 </r>
       <r>    6.3119    1.0004 </r>
       <r>    6.4022    1.0032 </r>
       <r>    6.4210    1.0046 </r>
       <r>    6.4524    1.0079 </r>
       <r>    6.5250    1.0212 </r>
       <r>    6.6087    1.0355 </r>
       <r>    6.6978    0.9841 </r>
       <r>    6.7293    0.9289 </r>
       <r>    6.8044    0.7002 </r>
       <r>    6.8443    0.5379 </r>
       <r>    6.9779    0.0699 </r>
       <r>    7.0653   -0.0303 </r>
       <r>    7.2574   -0.0075 </r>
       <r>    7.2990   -0.0036 </r>
       <r>    7.3798   -0.0006 </r>
       <r>    7.4400   -0.0001 </r>
       <r>    7.4752   -0.0001 </r>
       <r>    7.8362   -0.0000 </r>
       <r>    7.9268   -0.0000 </r>
       <r>    8.0139   -0.0000 </r>
       <r>    8.0916   -0.0000 </r>
       <r>    8.2218   -0.0000 </r>
       <r>    8.3245   -0.0000 </r>
       <r>    8.6097   -0.0000 </r>
       <r>    8.6891   -0.0000 </r>
       <r>    8.7960   -0.0000 </r>
       <r>    8.8787   -0.0000 </r>
       <r>    8.9769   -0.0000 </r>
       <r>    9.0110   -0.0000 </r>
       <r>    9.0804   -0.0000 </r>
      </set>
     </set>
    </set>
   </array>
  </eigenvalues>
  <separator name="orbital magnetization" >
   <v name="MAGDIPOLOUT">      0.00000000      0.00000000      0.00000000</v>
  </separator>
  <dos>
   <i name="efermi">      6.85330201 </i>
   <total>
    <array>
     <dimension dim="1">gridpoints</dimension>
     <dimension dim="2">spin</dimension>
     <field>energy</field>
     <field>total</field>
     <field>integrated</field>
     <set>
      <set comment="spin 1">
       <r>   -50.0648     0.0000     0.0000 </r>
       <r>   -49.8575     0.0000     0.0000 </r>
       <r>   -49.6502     0.0000     0.0000 </r>
       <r>   -49.4429     0.0000     0.0000 </r>
       <r>   -49.2357     0.0000     0.0000 </r>
       <r>   -49.0284    -0.0000    -0.0000 </r>
       <r>   -48.8211    -0.0000    -0.0000 </r>
       <r>   -48.6138    -0.0000    -0.0000 </r>
       <r>   -48.4065    -0.0000    -0.0000 </r>
       <r>   -48.1992    -0.0000    -0.0000 </r>
       <r>   -47.9919    -0.0000    -0.0000 </r>
       <r>   -47.7846    -0.0046    -0.0010 </r>
       <r>   -47.5774    -0.3043    -0.0640 </r>
       <r>   -47.3701     0.1289    -0.0373 </r>
       <r>   -47.1628    16.7946     3.4440 </r>
       <r>   -46.9555    27.9783     9.2436 </r>
       <r>   -46.7482    14.1982    12.1867 </r>
       <r>   -46.5409    -0.7175    12.0380 </r>
       <r>   -46.3336    -0.1815    12.0003 </r>
       <r>   -46.1263    -0.0016    12.0000 </r>
       <r>   -45.9190    -0.0000    12.0000 </r>
       <r>   -45.7118    -0.0000    12.0000 </r>
       <r>   -45.5045    -0.0000    12.0000 </r>
       <r>   -45.2972     0.0000    12.0000 </r>
       <r>   -45.0899     0.0000    12.0000 </r>
       <r>   -44.8826     0.0000    12.0000 </r>
       <r>   -44.6753     0.0000    12.0000 </r>
       <r>   -44.4680     0.0000    12.0000 </r>
       <r>   -44.2607     0.0000    12.0000 </r>
       <r>   -44.0535     0.0000    12.0000 </r>
       <r>   -43.8462     0.0000    12.0000 </r>
       <r>   -43.6389     0.0000    12.0000 </r>
       <r>   -43.4316     0.0000    12.0000 </r>
       <r>   -43.2243     0.0000    12.0000 </r>
       <r>   -43.0170     0.0000    12.0000 </r>
       <r>   -42.8097     0.0000    12.0000 </r>
       <r>   -42.6024     0.0000    12.0000 </r>
       <r>   -42.3952     0.0000    12.0000 </r>
       <r>   -42.1879     0.0000    12.0000 </r>
       <r>   -41.9806     0.0000    12.0000 </r>
       <r>   -41.7733     0.0000    12.0000 </r>
       <r>   -41.5660     0.0000    12.0000 </r>
       <r>   -41.3587     0.0000    12.0000 </r>
       <r>   -41.1514     0.0000    12.0000 </r>
       <r>   -40.9441     0.0000    12.0000 </r>
       <r>   -40.7369     0.0000    12.0000 </r>
       <r>   -40.5296     0.0000    12.0000 </r>
       <r>   -40.3223     0.0000    12.0000 </r>
       <r>   -40.1150     0.0000    12.0000 </r>
       <r>   -39.9077     0.0000    12.0000 </r>
       <r>   -39.7004     0.0000    12.0000 </r>
       <r>   -39.4931     0.0000    12.0000 </r>
       <r>   -39.2858     0.0000    12.0000 </r>
       <r>   -39.0786     0.0000    12.0000 </r>
       <r>   -38.8713     0.0000    12.0000 </r>
       <r>   -38.6640     0.0000    12.0000 </r>
       <r>   -38.4567     0.0000    12.0000 </r>
       <r>   -38.2494     0.0000    12.0000 </r>
       <r>   -38.0421     0.0000    12.0000 </r>
       <r>   -37.8348     0.0000    12.0000 </r>
       <r>   -37.6275     0.0000    12.0000 </r>
       <r>   -37.4203     0.0000    12.0000 </r>
       <r>   -37.2130     0.0000    12.0000 </r>
       <r>   -37.0057     0.0000    12.0000 </r>
       <r>   -36.7984     0.0000    12.0000 </r>
       <r>   -36.5911     0.0000    12.0000 </r>
       <r>   -36.3838     0.0000    12.0000 </r>
       <r>   -36.1765     0.0000    12.0000 </r>
       <r>   -35.9692     0.0000    12.0000 </r>
       <r>   -35.7619     0.0000    12.0000 </r>
       <r>   -35.5547     0.0000    12.0000 </r>
       <r>   -35.3474     0.0000    12.0000 </r>
       <r>   -35.1401     0.0000    12.0000 </r>
       <r>   -34.9328     0.0000    12.0000 </r>
       <r>   -34.7255     0.0000    12.0000 </r>
       <r>   -34.5182     0.0000    12.0000 </r>
       <r>   -34.3109     0.0000    12.0000 </r>
       <r>   -34.1036     0.0000    12.0000 </r>
       <r>   -33.8964     0.0000    12.0000 </r>
       <r>   -33.6891     0.0000    12.0000 </r>
       <r>   -33.4818     0.0000    12.0000 </r>
       <r>   -33.2745     0.0000    12.0000 </r>
       <r>   -33.0672     0.0000    12.0000 </r>
       <r>   -32.8599     0.0000    12.0000 </r>
       <r>   -32.6526     0.0000    12.0000 </r>
       <r>   -32.4453     0.0000    12.0000 </r>
       <r>   -32.2381     0.0000    12.0000 </r>
       <r>   -32.0308     0.0000    12.0000 </r>
       <r>   -31.8235     0.0000    12.0000 </r>
       <r>   -31.6162     0.0000    12.0000 </r>
       <r>   -31.4089     0.0000    12.0000 </r>
       <r>   -31.2016     0.0000    12.0000 </r>
       <r>   -30.9943     0.0000    12.0000 </r>
       <r>   -30.7870     0.0000    12.0000 </r>
       <r>   -30.5798     0.0000    12.0000 </r>
       <r>   -30.3725     0.0000    12.0000 </r>
       <r>   -30.1652     0.0000    12.0000 </r>
       <r>   -29.9579     0.0000    12.0000 </r>
       <r>   -29.7506     0.0000    12.0000 </r>
       <r>   -29.5433     0.0000    12.0000 </r>
       <r>   -29.3360     0.0000    12.0000 </r>
       <r>   -29.1287     0.0000    12.0000 </r>
       <r>   -28.9215     0.0000    12.0000 </r>
       <r>   -28.7142     0.0000    12.0000 </r>
       <r>   -28.5069     0.0000    12.0000 </r>
       <r>   -28.2996     0.0000    12.0000 </r>
       <r>   -28.0923     0.0000    12.0000 </r>
       <r>   -27.8850     0.0000    12.0000 </r>
       <r>   -27.6777     0.0000    12.0000 </r>
       <r>   -27.4704     0.0000    12.0000 </r>
       <r>   -27.2631     0.0000    12.0000 </r>
       <r>   -27.0559     0.0000    12.0000 </r>
       <r>   -26.8486     0.0000    12.0000 </r>
       <r>   -26.6413     0.0000    12.0000 </r>
       <r>   -26.4340     0.0000    12.0000 </r>
       <r>   -26.2267     0.0000    12.0000 </r>
       <r>   -26.0194     0.0000    12.0000 </r>
       <r>   -25.8121     0.0000    12.0000 </r>
       <r>   -25.6048    -0.0000    12.0000 </r>
       <r>   -25.3976    -0.0000    12.0000 </r>
       <r>   -25.1903    -0.0000    12.0000 </r>
       <r>   -24.9830    -0.0000    12.0000 </r>
       <r>   -24.7757    -0.0000    12.0000 </r>
       <r>   -24.5684    -0.0000    12.0000 </r>
       <r>   -24.3611    -0.0066    11.9986 </r>
       <r>   -24.1538    -0.2229    11.9524 </r>
       <r>   -23.9465     0.4664    12.0491 </r>
       <r>   -23.7393    10.5327    14.2324 </r>
       <r>   -23.5320    20.3594    18.4527 </r>
       <r>   -23.3247    36.2163    25.9599 </r>
       <r>   -23.1174    51.3325    36.6005 </r>
       <r>   -22.9101    33.0492    43.4512 </r>
       <r>   -22.7028    18.0346    47.1895 </r>
       <r>   -22.4955     4.3502    48.0913 </r>
       <r>   -22.2882    -0.3788    48.0127 </r>
       <r>   -22.0810    -0.0607    48.0002 </r>
       <r>   -21.8737    -0.0008    48.0000 </r>
       <r>   -21.6664    -0.0000    48.0000 </r>
       <r>   -21.4591    -0.0000    48.0000 </r>
       <r>   -21.2518    -0.0000    48.0000 </r>
       <r>   -21.0445     0.0000    48.0000 </r>
       <r>   -20.8372     0.0000    48.0000 </r>
       <r>   -20.6299     0.0000    48.0000 </r>
       <r>   -20.4227     0.0000    48.0000 </r>
       <r>   -20.2154     0.0000    48.0000 </r>
       <r>   -20.0081     0.0000    48.0000 </r>
       <r>   -19.8008     0.0000    48.0000 </r>
       <r>   -19.5935     0.0000    48.0000 </r>
       <r>   -19.3862     0.0000    48.0000 </r>
       <r>   -19.1789     0.0000    48.0000 </r>
       <r>   -18.9716     0.0000    48.0000 </r>
       <r>   -18.7644     0.0000    48.0000 </r>
       <r>   -18.5571     0.0000    48.0000 </r>
       <r>   -18.3498     0.0000    48.0000 </r>
       <r>   -18.1425     0.0000    48.0000 </r>
       <r>   -17.9352     0.0000    48.0000 </r>
       <r>   -17.7279     0.0000    48.0000 </r>
       <r>   -17.5206     0.0000    48.0000 </r>
       <r>   -17.3133     0.0000    48.0000 </r>
       <r>   -17.1060     0.0000    48.0000 </r>
       <r>   -16.8988     0.0000    48.0000 </r>
       <r>   -16.6915     0.0000    48.0000 </r>
       <r>   -16.4842     0.0000    48.0000 </r>
       <r>   -16.2769     0.0000    48.0000 </r>
       <r>   -16.0696     0.0000    48.0000 </r>
       <r>   -15.8623     0.0000    48.0000 </r>
       <r>   -15.6550     0.0000    48.0000 </r>
       <r>   -15.4477     0.0000    48.0000 </r>
       <r>   -15.2405     0.0000    48.0000 </r>
       <r>   -15.0332     0.0000    48.0000 </r>
       <r>   -14.8259     0.0000    48.0000 </r>
       <r>   -14.6186     0.0000    48.0000 </r>
       <r>   -14.4113     0.0000    48.0000 </r>
       <r>   -14.2040     0.0000    48.0000 </r>
       <r>   -13.9967     0.0000    48.0000 </r>
       <r>   -13.7894     0.0000    48.0000 </r>
       <r>   -13.5822     0.0000    48.0000 </r>
       <r>   -13.3749     0.0000    48.0000 </r>
       <r>   -13.1676     0.0000    48.0000 </r>
       <r>   -12.9603     0.0000    48.0000 </r>
       <r>   -12.7530     0.0000    48.0000 </r>
       <r>   -12.5457     0.0000    48.0000 </r>
       <r>   -12.3384     0.0000    48.0000 </r>
       <r>   -12.1311     0.0000    48.0000 </r>
       <r>   -11.9239     0.0000    48.0000 </r>
       <r>   -11.7166     0.0000    48.0000 </r>
       <r>   -11.5093     0.0000    48.0000 </r>
       <r>   -11.3020     0.0000    48.0000 </r>
       <r>   -11.0947     0.0000    48.0000 </r>
       <r>   -10.8874     0.0000    48.0000 </r>
       <r>   -10.6801     0.0000    48.0000 </r>
       <r>   -10.4728     0.0000    48.0000 </r>
       <r>   -10.2656     0.0000    48.0000 </r>
       <r>   -10.0583     0.0000    48.0000 </r>
       <r>    -9.8510     0.0000    48.0000 </r>
       <r>    -9.6437     0.0000    48.0000 </r>
       <r>    -9.4364     0.0000    48.0000 </r>
       <r>    -9.2291     0.0000    48.0000 </r>
       <r>    -9.0218     0.0000    48.0000 </r>
       <r>    -8.8145     0.0000    48.0000 </r>
       <r>    -8.6073     0.0000    48.0000 </r>
       <r>    -8.4000     0.0000    48.0000 </r>
       <r>    -8.1927     0.0000    48.0000 </r>
       <r>    -7.9854     0.0000    48.0000 </r>
       <r>    -7.7781     0.0000    48.0000 </r>
       <r>    -7.5708     0.0000    48.0000 </r>
       <r>    -7.3635     0.0000    48.0000 </r>
       <r>    -7.1562     0.0000    48.0000 </r>
       <r>    -6.9489     0.0000    48.0000 </r>
       <r>    -6.7417     0.0000    48.0000 </r>
       <r>    -6.5344     0.0000    48.0000 </r>
       <r>    -6.3271     0.0000    48.0000 </r>
       <r>    -6.1198     0.0000    48.0000 </r>
       <r>    -5.9125     0.0000    48.0000 </r>
       <r>    -5.7052     0.0000    48.0000 </r>
       <r>    -5.4979     0.0000    48.0000 </r>
       <r>    -5.2906     0.0000    48.0000 </r>
       <r>    -5.0834     0.0000    48.0000 </r>
       <r>    -4.8761     0.0000    48.0000 </r>
       <r>    -4.6688     0.0000    48.0000 </r>
       <r>    -4.4615     0.0000    48.0000 </r>
       <r>    -4.2542     0.0000    48.0000 </r>
       <r>    -4.0469     0.0000    48.0000 </r>
       <r>    -3.8396     0.0000    48.0000 </r>
       <r>    -3.6323     0.0000    48.0000 </r>
       <r>    -3.4251     0.0000    48.0000 </r>
       <r>    -3.2178     0.0000    48.0000 </r>
       <r>    -3.0105     0.0000    48.0000 </r>
       <r>    -2.8032     0.0000    48.0000 </r>
       <r>    -2.5959     0.0000    48.0000 </r>
       <r>    -2.3886     0.0000    48.0000 </r>
       <r>    -2.1813    -0.0000    48.0000 </r>
       <r>    -1.9740    -0.0000    48.0000 </r>
       <r>    -1.7668    -0.0000    48.0000 </r>
       <r>    -1.5595    -0.0000    48.0000 </r>
       <r>    -1.3522    -0.0000    48.0000 </r>
       <r>    -1.1449    -0.0000    48.0000 </r>
       <r>    -0.9376    -0.0006    47.9999 </r>
       <r>    -0.7303    -0.0111    47.9976 </r>
       <r>    -0.5230     0.0475    48.0074 </r>
       <r>    -0.3157     0.4720    48.1052 </r>
       <r>    -0.1085     1.1457    48.3427 </r>
       <r>     0.0988     1.7794    48.7116 </r>
       <r>     0.3061     1.6907    49.0621 </r>
       <r>     0.5134     1.6733    49.4089 </r>
       <r>     0.7207     2.8373    49.9970 </r>
       <r>     0.9280     3.2408    50.6688 </r>
       <r>     1.1353     3.0246    51.2958 </r>
       <r>     1.3426     3.0220    51.9222 </r>
       <r>     1.5498     4.6550    52.8872 </r>
       <r>     1.7571     3.8835    53.6922 </r>
       <r>     1.9644     4.9110    54.7102 </r>
       <r>     2.1717     7.3049    56.2244 </r>
       <r>     2.3790    11.1314    58.5318 </r>
       <r>     2.5863    16.1475    61.8789 </r>
       <r>     2.7936    19.2866    65.8768 </r>
       <r>     3.0009    21.9217    70.4209 </r>
       <r>     3.2082    27.3541    76.0911 </r>
       <r>     3.4154    28.1751    81.9315 </r>
       <r>     3.6227    28.8686    87.9156 </r>
       <r>     3.8300    30.3265    94.2019 </r>
       <r>     4.0373    30.5085   100.5259 </r>
       <r>     4.2446    29.2062   106.5800 </r>
       <r>     4.4519    24.6494   111.6895 </r>
       <r>     4.6592    27.5555   117.4014 </r>
       <r>     4.8665    36.5961   124.9874 </r>
       <r>     5.0737    39.7663   133.2304 </r>
       <r>     5.2810    40.4999   141.6256 </r>
       <r>     5.4883    37.2614   149.3494 </r>
       <r>     5.6956    35.3510   156.6772 </r>
       <r>     5.9029    35.9807   164.1356 </r>
       <r>     6.1102    38.7660   172.1713 </r>
       <r>     6.3175    39.8637   180.4346 </r>
       <r>     6.5248    39.0925   188.5380 </r>
       <r>     6.7320    36.4364   196.0908 </r>
       <r>     6.9393    30.6818   202.4507 </r>
       <r>     7.1466    24.1784   207.4626 </r>
       <r>     7.3539    19.5905   211.5235 </r>
       <r>     7.5612    16.6959   214.9844 </r>
       <r>     7.7685    15.3100   218.1579 </r>
       <r>     7.9758    16.5627   221.5912 </r>
       <r>     8.1831    18.9089   225.5108 </r>
       <r>     8.3903    20.9267   229.8486 </r>
       <r>     8.5976    20.0976   234.0146 </r>
       <r>     8.8049    15.3995   237.2067 </r>
       <r>     9.0122     8.9164   239.0550 </r>
       <r>     9.2195     4.0227   239.8888 </r>
       <r>     9.4268     0.6156   240.0164 </r>
       <r>     9.6341    -0.0683   240.0023 </r>
       <r>     9.8414    -0.0108   240.0000 </r>
       <r>    10.0486    -0.0001   240.0000 </r>
       <r>    10.2559    -0.0000   240.0000 </r>
       <r>    10.4632    -0.0000   240.0000 </r>
       <r>    10.6705    -0.0000   240.0000 </r>
       <r>    10.8778     0.0000   240.0000 </r>
       <r>    11.0851     0.0000   240.0000 </r>
       <r>    11.2924     0.0000   240.0000 </r>
       <r>    11.4997     0.0000   240.0000 </r>
       <r>    11.7069     0.0000   240.0000 </r>
       <r>    11.9142     0.0000   240.0000 </r>
       <r>    12.1215     0.0000   240.0000 </r>
      </set>
     </set>
    </array>
   </total>
  </dos>
 </calculation>
 <structure name="finalpos" >
  <crystal>
   <varray name="basis" >
    <v>      -3.19793288      -3.19946135      -3.20603140 </v>
    <v>       1.55073129       1.54262363      -7.90975111 </v>
    <v>       7.94083883      -7.95444735      -1.59287431 </v>
   </varray>
   <i name="volume">    480.93993481 </i>
   <varray name="rec_basis" >
    <v>      -0.13593154      -0.12546253      -0.05111852 </v>
    <v>       0.04242914       0.06352661      -0.10571839 </v>
    <v>       0.06290316      -0.06293207       0.00005884 </v>
   </varray>
  </crystal>
  <varray name="positions" >
   <v>       0.96243839       0.93662046       0.39602734 </v>
   <v>       0.63074669       0.26739069       0.40248219 </v>
   <v>       0.50273921       0.00389380      -0.00533926 </v>
   <v>       0.00186209       0.00032411      -0.00022457 </v>
   <v>       0.09356351       0.19776655       0.79854841 </v>
   <v>       0.03910684       0.06522354       0.59853436 </v>
   <v>       0.90417135       0.80156162       0.20260967 </v>
   <v>       0.80412851       0.59486692       0.40077690 </v>
   <v>       0.73305129       0.46893772       0.20027468 </v>
   <v>       0.66756393       0.33904737      -0.00258584 </v>
   <v>       0.36433583       0.72314728       0.60442744 </v>
   <v>       0.13247031       0.27546196       0.40020665 </v>
   <v>       0.82901412       0.66421670       0.00610320 </v>
   <v>       0.95413587       0.83165955       0.79751243 </v>
   <v>       0.56699908       0.13687586       0.19479944 </v>
   <v>       0.40556846       0.79844396       0.19861666 </v>
   <v>       0.44422131       0.85617916       0.79711021 </v>
   <v>       0.29923050       0.60407508       0.40664794 </v>
   <v>       0.84638764       0.73518660       0.59222111 </v>
   <v>       0.46450201       0.93477184       0.40530233 </v>
   <v>       0.17587511       0.34759103      -0.01335470 </v>
   <v>       0.19762331       0.40138526       0.61138914 </v>
   <v>       0.06301428       0.15093291       0.20377536 </v>
   <v>       0.75703698       0.52447033       0.80132843 </v>
   <v>       0.69639663       0.40593631       0.60382649 </v>
   <v>       0.59545639       0.20361641       0.79613012 </v>
   <v>       0.53710545       0.06891638       0.60412625 </v>
   <v>       0.33350132       0.65673639      -0.00105125 </v>
   <v>       0.23108691       0.47143087       0.19977887 </v>
  </varray>
 </structure>
</modeling>
